  45  45   0   0
  0.2668373E+02  0.7700393E-09  0.7700393E-09  0.2338313E-08  0.5000000E-15
  1.000000000000000E-004
  CAR 
 unknown system                          
     11.76435522    -10.44219823  301      0.70657102      1.00000000
    -10.442  0.0000E+00  0.0000E+00  0.0000E+00  0.0000E+00
    -10.368  0.0000E+00  0.0000E+00  0.0000E+00  0.0000E+00
    -10.294  0.0000E+00  0.0000E+00  0.0000E+00  0.0000E+00
    -10.220  0.0000E+00  0.0000E+00  0.0000E+00  0.0000E+00
    -10.146  0.0000E+00  0.0000E+00  0.0000E+00  0.0000E+00
    -10.072 -0.6190E-31 -0.6191E-31 -0.4582E-32 -0.4583E-32
     -9.998 -0.2141E-28 -0.2141E-28 -0.1589E-29 -0.1590E-29
     -9.924 -0.5628E-26 -0.5629E-26 -0.4182E-27 -0.4183E-27
     -9.850 -0.1122E-23 -0.1122E-23 -0.8347E-25 -0.8348E-25
     -9.776 -0.1695E-21 -0.1695E-21 -0.1263E-22 -0.1263E-22
     -9.702 -0.1941E-19 -0.1941E-19 -0.1449E-20 -0.1449E-20
     -9.628 -0.1682E-17 -0.1682E-17 -0.1260E-18 -0.1260E-18
     -9.554 -0.1068E-15 -0.1068E-15 -0.8031E-17 -0.8032E-17
     -9.480 -0.5271E-14 -0.5272E-14 -0.3982E-15 -0.3983E-15
     -9.406 -0.1962E-12 -0.1963E-12 -0.1492E-13 -0.1493E-13
     -9.332 -0.5501E-11 -0.5502E-11 -0.4221E-12 -0.4222E-12
     -9.258 -0.1158E-09 -0.1159E-09 -0.8997E-11 -0.8998E-11
     -9.184 -0.1826E-08 -0.1826E-08 -0.1442E-09 -0.1442E-09
     -9.110 -0.2144E-07 -0.2144E-07 -0.1731E-08 -0.1731E-08
     -9.036 -0.1860E-06 -0.1860E-06 -0.1550E-07 -0.1550E-07
     -8.962 -0.1179E-05 -0.1179E-05 -0.1027E-06 -0.1027E-06
     -8.888 -0.5330E-05 -0.5330E-05 -0.4973E-06 -0.4973E-06
     -8.814 -0.1640E-04 -0.1640E-04 -0.1711E-05 -0.1711E-05
     -8.740 -0.2988E-04 -0.2988E-04 -0.3923E-05 -0.3923E-05
     -8.666 -0.1042E-04 -0.1042E-04 -0.4694E-05 -0.4694E-05
     -8.592  0.1046E-03  0.1046E-03  0.3046E-05  0.3046E-05
     -8.518  0.3154E-03  0.3154E-03  0.2639E-04  0.2639E-04
     -8.444  0.4670E-03  0.4670E-03  0.6095E-04  0.6096E-04
     -8.370  0.3842E-03  0.3842E-03  0.8939E-04  0.8939E-04
     -8.296  0.2151E-03  0.2151E-03  0.1053E-03  0.1053E-03
     -8.222  0.5058E-03  0.5058E-03  0.1428E-03  0.1428E-03
     -8.148  0.1619E-02  0.1619E-02  0.2626E-03  0.2626E-03
     -8.073  0.2983E-02  0.2984E-02  0.4834E-03  0.4834E-03
     -7.999  0.3407E-02  0.3407E-02  0.7356E-03  0.7356E-03
     -7.925  0.2462E-02  0.2462E-02  0.9178E-03  0.9179E-03
     -7.851  0.1005E-02  0.1004E-02  0.9922E-03  0.9922E-03
     -7.777  0.3598E-04  0.3596E-04  0.9949E-03  0.9949E-03
     -7.703 -0.2693E-03 -0.2693E-03  0.9749E-03  0.9749E-03
     -7.629 -0.2302E-03 -0.2302E-03  0.9579E-03  0.9579E-03
     -7.555  0.1710E-04  0.1711E-04  0.9592E-03  0.9592E-03
     -7.481  0.6470E-03  0.6470E-03  0.1007E-02  0.1007E-02
     -7.407  0.1771E-02  0.1772E-02  0.1138E-02  0.1138E-02
     -7.333  0.3007E-02  0.3007E-02  0.1361E-02  0.1361E-02
     -7.259  0.3717E-02  0.3717E-02  0.1636E-02  0.1636E-02
     -7.185  0.3933E-02  0.3933E-02  0.1927E-02  0.1927E-02
     -7.111  0.4389E-02  0.4389E-02  0.2252E-02  0.2252E-02
     -7.037  0.5242E-02  0.5242E-02  0.2640E-02  0.2640E-02
     -6.963  0.5573E-02  0.5573E-02  0.3052E-02  0.3052E-02
     -6.889  0.4574E-02  0.4574E-02  0.3391E-02  0.3391E-02
     -6.815  0.2605E-02  0.2605E-02  0.3584E-02  0.3584E-02
     -6.741  0.7621E-03  0.7621E-03  0.3640E-02  0.3640E-02
     -6.667 -0.2373E-03 -0.2373E-03  0.3623E-02  0.3623E-02
     -6.593 -0.3503E-03 -0.3503E-03  0.3597E-02  0.3597E-02
     -6.519  0.3304E-03  0.3305E-03  0.3621E-02  0.3621E-02
     -6.445  0.1657E-02  0.1657E-02  0.3744E-02  0.3744E-02
     -6.371  0.2888E-02  0.2888E-02  0.3958E-02  0.3958E-02
     -6.297  0.3038E-02  0.3038E-02  0.4183E-02  0.4183E-02
     -6.223  0.2324E-02  0.2324E-02  0.4355E-02  0.4355E-02
     -6.149  0.2438E-02  0.2438E-02  0.4535E-02  0.4535E-02
     -6.075  0.4662E-02  0.4662E-02  0.4880E-02  0.4880E-02
     -6.001  0.8088E-02  0.8088E-02  0.5479E-02  0.5479E-02
     -5.927  0.1029E-01  0.1029E-01  0.6241E-02  0.6241E-02
     -5.853  0.9782E-02  0.9782E-02  0.6965E-02  0.6965E-02
     -5.779  0.7164E-02  0.7164E-02  0.7495E-02  0.7495E-02
     -5.705  0.4018E-02  0.4017E-02  0.7792E-02  0.7792E-02
     -5.631  0.1610E-02  0.1610E-02  0.7912E-02  0.7912E-02
     -5.557  0.6973E-03  0.6973E-03  0.7963E-02  0.7963E-02
     -5.483  0.1271E-02  0.1271E-02  0.8057E-02  0.8057E-02
     -5.409  0.2427E-02  0.2427E-02  0.8237E-02  0.8237E-02
     -5.335  0.3573E-02  0.3573E-02  0.8501E-02  0.8501E-02
     -5.261  0.5437E-02  0.5437E-02  0.8904E-02  0.8904E-02
     -5.187  0.8280E-02  0.8280E-02  0.9517E-02  0.9517E-02
     -5.113  0.1002E-01  0.1002E-01  0.1026E-01  0.1026E-01
     -5.039  0.8766E-02  0.8766E-02  0.1091E-01  0.1091E-01
     -4.965  0.6077E-02  0.6077E-02  0.1136E-01  0.1136E-01
     -4.891  0.4800E-02  0.4800E-02  0.1171E-01  0.1171E-01
     -4.817  0.5320E-02  0.5320E-02  0.1211E-01  0.1211E-01
     -4.743  0.6628E-02  0.6628E-02  0.1260E-01  0.1260E-01
     -4.668  0.8929E-02  0.8929E-02  0.1326E-01  0.1326E-01
     -4.594  0.1220E-01  0.1220E-01  0.1416E-01  0.1416E-01
     -4.520  0.1402E-01  0.1402E-01  0.1520E-01  0.1520E-01
     -4.446  0.1256E-01  0.1256E-01  0.1613E-01  0.1613E-01
     -4.372  0.1084E-01  0.1084E-01  0.1693E-01  0.1693E-01
     -4.298  0.1425E-01  0.1425E-01  0.1799E-01  0.1799E-01
     -4.224  0.2301E-01  0.2301E-01  0.1969E-01  0.1969E-01
     -4.150  0.3026E-01  0.3026E-01  0.2193E-01  0.2193E-01
     -4.076  0.3007E-01  0.3007E-01  0.2415E-01  0.2415E-01
     -4.002  0.2475E-01  0.2475E-01  0.2599E-01  0.2599E-01
     -3.928  0.2129E-01  0.2129E-01  0.2756E-01  0.2756E-01
     -3.854  0.2360E-01  0.2360E-01  0.2931E-01  0.2931E-01
     -3.780  0.3073E-01  0.3073E-01  0.3158E-01  0.3158E-01
     -3.706  0.3983E-01  0.3983E-01  0.3453E-01  0.3453E-01
     -3.632  0.4851E-01  0.4851E-01  0.3812E-01  0.3812E-01
     -3.558  0.5466E-01  0.5466E-01  0.4217E-01  0.4217E-01
     -3.484  0.5663E-01  0.5663E-01  0.4636E-01  0.4636E-01
     -3.410  0.5528E-01  0.5528E-01  0.5045E-01  0.5045E-01
     -3.336  0.5345E-01  0.5345E-01  0.5441E-01  0.5441E-01
     -3.262  0.5226E-01  0.5226E-01  0.5828E-01  0.5828E-01
     -3.188  0.5066E-01  0.5066E-01  0.6203E-01  0.6203E-01
     -3.114  0.4862E-01  0.4862E-01  0.6563E-01  0.6563E-01
     -3.040  0.4829E-01  0.4829E-01  0.6920E-01  0.6920E-01
     -2.966  0.5249E-01  0.5249E-01  0.7309E-01  0.7309E-01
     -2.892  0.6121E-01  0.6121E-01  0.7762E-01  0.7762E-01
     -2.818  0.6919E-01  0.6919E-01  0.8274E-01  0.8274E-01
     -2.744  0.7096E-01  0.7096E-01  0.8799E-01  0.8799E-01
     -2.670  0.6838E-01  0.6838E-01  0.9305E-01  0.9305E-01
     -2.596  0.6819E-01  0.6819E-01  0.9810E-01  0.9810E-01
     -2.522  0.7358E-01  0.7358E-01  0.1035E+00  0.1035E+00
     -2.448  0.8229E-01  0.8229E-01  0.1096E+00  0.1096E+00
     -2.374  0.9182E-01  0.9182E-01  0.1164E+00  0.1164E+00
     -2.300  0.1019E+00  0.1019E+00  0.1240E+00  0.1240E+00
     -2.226  0.1105E+00  0.1105E+00  0.1322E+00  0.1322E+00
     -2.152  0.1130E+00  0.1130E+00  0.1405E+00  0.1405E+00
     -2.078  0.1095E+00  0.1095E+00  0.1486E+00  0.1486E+00
     -2.004  0.1061E+00  0.1061E+00  0.1565E+00  0.1565E+00
     -1.930  0.1057E+00  0.1057E+00  0.1643E+00  0.1643E+00
     -1.856  0.1046E+00  0.1046E+00  0.1720E+00  0.1720E+00
     -1.782  0.1003E+00  0.1003E+00  0.1795E+00  0.1795E+00
     -1.708  0.9552E-01  0.9552E-01  0.1865E+00  0.1865E+00
     -1.634  0.9401E-01  0.9401E-01  0.1935E+00  0.1935E+00
     -1.560  0.9576E-01  0.9576E-01  0.2006E+00  0.2006E+00
     -1.486  0.9870E-01  0.9870E-01  0.2079E+00  0.2079E+00
     -1.412  0.1024E+00  0.1024E+00  0.2155E+00  0.2155E+00
     -1.338  0.1073E+00  0.1073E+00  0.2234E+00  0.2234E+00
     -1.263  0.1116E+00  0.1116E+00  0.2317E+00  0.2317E+00
     -1.189  0.1144E+00  0.1144E+00  0.2401E+00  0.2401E+00
     -1.115  0.1206E+00  0.1206E+00  0.2491E+00  0.2491E+00
     -1.041  0.1353E+00  0.1353E+00  0.2591E+00  0.2591E+00
     -0.967  0.1498E+00  0.1498E+00  0.2702E+00  0.2702E+00
     -0.893  0.1434E+00  0.1434E+00  0.2808E+00  0.2808E+00
     -0.819  0.1082E+00  0.1082E+00  0.2888E+00  0.2888E+00
     -0.745  0.6135E-01  0.6135E-01  0.2933E+00  0.2933E+00
     -0.671  0.2661E-01  0.2661E-01  0.2953E+00  0.2953E+00
     -0.597  0.1178E-01  0.1178E-01  0.2962E+00  0.2962E+00
     -0.523  0.9027E-02  0.9027E-02  0.2969E+00  0.2969E+00
     -0.449  0.1006E-01  0.1006E-01  0.2976E+00  0.2976E+00
     -0.375  0.1264E-01  0.1264E-01  0.2985E+00  0.2985E+00
     -0.301  0.1555E-01  0.1555E-01  0.2997E+00  0.2997E+00
     -0.227  0.1627E-01  0.1627E-01  0.3009E+00  0.3009E+00
     -0.153  0.1487E-01  0.1487E-01  0.3020E+00  0.3020E+00
     -0.079  0.1392E-01  0.1392E-01  0.3030E+00  0.3030E+00
     -0.005  0.1338E-01  0.1338E-01  0.3040E+00  0.3040E+00
      0.069  0.1063E-01  0.1063E-01  0.3048E+00  0.3048E+00
      0.143  0.5698E-02  0.5698E-02  0.3052E+00  0.3052E+00
      0.217  0.1947E-02  0.1947E-02  0.3054E+00  0.3054E+00
      0.291  0.1612E-02  0.1612E-02  0.3055E+00  0.3055E+00
      0.365  0.3586E-02  0.3586E-02  0.3058E+00  0.3058E+00
      0.439  0.5623E-02  0.5623E-02  0.3062E+00  0.3062E+00
      0.513  0.7461E-02  0.7461E-02  0.3067E+00  0.3067E+00
      0.587  0.1071E-01  0.1071E-01  0.3075E+00  0.3075E+00
      0.661  0.1495E-01  0.1495E-01  0.3086E+00  0.3086E+00
      0.735  0.1634E-01  0.1634E-01  0.3098E+00  0.3098E+00
      0.809  0.1285E-01  0.1285E-01  0.3108E+00  0.3108E+00
      0.883  0.8192E-02  0.8192E-02  0.3114E+00  0.3114E+00
      0.957  0.6975E-02  0.6975E-02  0.3119E+00  0.3119E+00
      1.031  0.8349E-02  0.8349E-02  0.3125E+00  0.3125E+00
      1.105  0.8495E-02  0.8495E-02  0.3131E+00  0.3131E+00
      1.179  0.7291E-02  0.7291E-02  0.3137E+00  0.3137E+00
      1.253  0.8031E-02  0.8031E-02  0.3143E+00  0.3143E+00
      1.327  0.1109E-01  0.1109E-01  0.3151E+00  0.3151E+00
      1.401  0.1262E-01  0.1262E-01  0.3160E+00  0.3160E+00
      1.475  0.1058E-01  0.1058E-01  0.3168E+00  0.3168E+00
      1.549  0.7617E-02  0.7617E-02  0.3174E+00  0.3174E+00
      1.623  0.6325E-02  0.6325E-02  0.3179E+00  0.3179E+00
      1.697  0.5761E-02  0.5761E-02  0.3183E+00  0.3183E+00
      1.771  0.4681E-02  0.4681E-02  0.3186E+00  0.3186E+00
      1.845  0.4244E-02  0.4244E-02  0.3189E+00  0.3189E+00
      1.919  0.5494E-02  0.5494E-02  0.3193E+00  0.3193E+00
      1.993  0.7448E-02  0.7448E-02  0.3199E+00  0.3199E+00
      2.067  0.9352E-02  0.9352E-02  0.3206E+00  0.3206E+00
      2.142  0.1180E-01  0.1180E-01  0.3215E+00  0.3215E+00
      2.216  0.1406E-01  0.1406E-01  0.3225E+00  0.3225E+00
      2.290  0.1348E-01  0.1348E-01  0.3235E+00  0.3235E+00
      2.364  0.9476E-02  0.9475E-02  0.3242E+00  0.3242E+00
      2.438  0.5745E-02  0.5745E-02  0.3246E+00  0.3246E+00
      2.512  0.6199E-02  0.6199E-02  0.3251E+00  0.3251E+00
      2.586  0.9959E-02  0.9959E-02  0.3258E+00  0.3258E+00
      2.660  0.1266E-01  0.1266E-01  0.3268E+00  0.3268E+00
      2.734  0.1228E-01  0.1228E-01  0.3277E+00  0.3277E+00
      2.808  0.1088E-01  0.1088E-01  0.3285E+00  0.3285E+00
      2.882  0.1017E-01  0.1017E-01  0.3292E+00  0.3292E+00
      2.956  0.9577E-02  0.9577E-02  0.3299E+00  0.3299E+00
      3.030  0.9030E-02  0.9030E-02  0.3306E+00  0.3306E+00
      3.104  0.9424E-02  0.9424E-02  0.3313E+00  0.3313E+00
      3.178  0.9755E-02  0.9755E-02  0.3320E+00  0.3320E+00
      3.252  0.7918E-02  0.7918E-02  0.3326E+00  0.3326E+00
      3.326  0.4209E-02  0.4209E-02  0.3329E+00  0.3329E+00
      3.400  0.1003E-02  0.1003E-02  0.3330E+00  0.3330E+00
      3.474 -0.3867E-03 -0.3867E-03  0.3330E+00  0.3330E+00
      3.548 -0.5320E-03 -0.5320E-03  0.3329E+00  0.3329E+00
      3.622 -0.3921E-03 -0.3921E-03  0.3329E+00  0.3329E+00
      3.696 -0.2961E-03 -0.2961E-03  0.3329E+00  0.3329E+00
      3.770 -0.2953E-04 -0.2952E-04  0.3329E+00  0.3329E+00
      3.844  0.7985E-03  0.7986E-03  0.3329E+00  0.3329E+00
      3.918  0.2613E-02  0.2613E-02  0.3331E+00  0.3331E+00
      3.992  0.5780E-02  0.5780E-02  0.3336E+00  0.3336E+00
      4.066  0.9955E-02  0.9956E-02  0.3343E+00  0.3343E+00
      4.140  0.1342E-01  0.1342E-01  0.3353E+00  0.3353E+00
      4.214  0.1416E-01  0.1416E-01  0.3363E+00  0.3363E+00
      4.288  0.1216E-01  0.1216E-01  0.3372E+00  0.3372E+00
      4.362  0.9775E-02  0.9775E-02  0.3380E+00  0.3380E+00
      4.436  0.9012E-02  0.9012E-02  0.3386E+00  0.3386E+00
      4.510  0.9487E-02  0.9487E-02  0.3393E+00  0.3393E+00
      4.584  0.9678E-02  0.9678E-02  0.3400E+00  0.3400E+00
      4.658  0.8891E-02  0.8891E-02  0.3407E+00  0.3407E+00
      4.732  0.7524E-02  0.7524E-02  0.3413E+00  0.3413E+00
      4.806  0.6654E-02  0.6655E-02  0.3418E+00  0.3418E+00
      4.880  0.6982E-02  0.6982E-02  0.3423E+00  0.3423E+00
      4.954  0.7623E-02  0.7624E-02  0.3428E+00  0.3428E+00
      5.028  0.7263E-02  0.7263E-02  0.3434E+00  0.3434E+00
      5.102  0.6332E-02  0.6334E-02  0.3438E+00  0.3438E+00
      5.176  0.6217E-02  0.6222E-02  0.3443E+00  0.3443E+00
      5.250  0.6628E-02  0.6632E-02  0.3448E+00  0.3448E+00
      5.324  0.5951E-02  0.5950E-02  0.3452E+00  0.3452E+00
      5.398  0.4226E-02  0.4220E-02  0.3455E+00  0.3455E+00
      5.472  0.3448E-02  0.3443E-02  0.3458E+00  0.3458E+00
      5.547  0.4679E-02  0.4678E-02  0.3461E+00  0.3461E+00
      5.621  0.7191E-02  0.7196E-02  0.3467E+00  0.3467E+00
      5.695  0.1079E-01  0.1080E-01  0.3475E+00  0.3475E+00
      5.769  0.1584E-01  0.1585E-01  0.3487E+00  0.3487E+00
      5.843  0.2008E-01  0.2008E-01  0.3501E+00  0.3501E+00
      5.917  0.1946E-01  0.1946E-01  0.3516E+00  0.3516E+00
      5.991  0.1360E-01  0.1359E-01  0.3526E+00  0.3526E+00
      6.065  0.6965E-02  0.6964E-02  0.3531E+00  0.3531E+00
      6.139  0.3698E-02  0.3706E-02  0.3534E+00  0.3534E+00
      6.213  0.3925E-02  0.3936E-02  0.3537E+00  0.3537E+00
      6.287  0.5911E-02  0.5917E-02  0.3541E+00  0.3541E+00
      6.361  0.9542E-02  0.9539E-02  0.3548E+00  0.3548E+00
      6.435  0.1550E-01  0.1549E-01  0.3560E+00  0.3560E+00
      6.509  0.2165E-01  0.2164E-01  0.3576E+00  0.3576E+00
      6.583  0.2339E-01  0.2338E-01  0.3593E+00  0.3593E+00
      6.657  0.1876E-01  0.1876E-01  0.3607E+00  0.3607E+00
      6.731  0.1117E-01  0.1118E-01  0.3615E+00  0.3615E+00
      6.805  0.5722E-02  0.5736E-02  0.3619E+00  0.3619E+00
      6.879  0.4463E-02  0.4479E-02  0.3623E+00  0.3623E+00
      6.953  0.6459E-02  0.6464E-02  0.3627E+00  0.3627E+00
      7.027  0.1080E-01  0.1079E-01  0.3635E+00  0.3635E+00
      7.101  0.1683E-01  0.1682E-01  0.3648E+00  0.3648E+00
      7.175  0.2202E-01  0.2202E-01  0.3664E+00  0.3664E+00
      7.249  0.2271E-01  0.2271E-01  0.3681E+00  0.3681E+00
      7.323  0.1789E-01  0.1789E-01  0.3694E+00  0.3694E+00
      7.397  0.1089E-01  0.1088E-01  0.3702E+00  0.3702E+00
      7.471  0.6794E-02  0.6782E-02  0.3707E+00  0.3707E+00
      7.545  0.8100E-02  0.8097E-02  0.3713E+00  0.3713E+00
      7.619  0.1242E-01  0.1243E-01  0.3722E+00  0.3722E+00
      7.693  0.1495E-01  0.1496E-01  0.3734E+00  0.3734E+00
      7.767  0.1366E-01  0.1366E-01  0.3744E+00  0.3744E+00
      7.841  0.1114E-01  0.1115E-01  0.3752E+00  0.3752E+00
      7.915  0.1038E-01  0.1040E-01  0.3760E+00  0.3760E+00
      7.989  0.1084E-01  0.1085E-01  0.3768E+00  0.3768E+00
      8.063  0.1090E-01  0.1089E-01  0.3776E+00  0.3776E+00
      8.137  0.1164E-01  0.1163E-01  0.3784E+00  0.3784E+00
      8.211  0.1515E-01  0.1516E-01  0.3795E+00  0.3796E+00
      8.285  0.2039E-01  0.2041E-01  0.3811E+00  0.3811E+00
      8.359  0.2347E-01  0.2348E-01  0.3828E+00  0.3828E+00
      8.433  0.2176E-01  0.2174E-01  0.3844E+00  0.3844E+00
      8.507  0.1677E-01  0.1675E-01  0.3856E+00  0.3856E+00
      8.581  0.1290E-01  0.1289E-01  0.3866E+00  0.3866E+00
      8.655  0.1325E-01  0.1327E-01  0.3876E+00  0.3876E+00
      8.729  0.1699E-01  0.1701E-01  0.3888E+00  0.3888E+00
      8.803  0.2048E-01  0.2048E-01  0.3904E+00  0.3904E+00
      8.878  0.2054E-01  0.2053E-01  0.3919E+00  0.3919E+00
      8.952  0.1662E-01  0.1662E-01  0.3931E+00  0.3931E+00
      9.026  0.1061E-01  0.1060E-01  0.3939E+00  0.3939E+00
      9.100  0.4884E-02  0.4875E-02  0.3943E+00  0.3943E+00
      9.174  0.1184E-02  0.1174E-02  0.3943E+00  0.3943E+00
      9.248  0.1116E-02  0.1117E-02  0.3944E+00  0.3944E+00
      9.322  0.5839E-02  0.5865E-02  0.3949E+00  0.3949E+00
      9.396  0.1336E-01  0.1340E-01  0.3958E+00  0.3959E+00
      9.470  0.1821E-01  0.1819E-01  0.3972E+00  0.3972E+00
      9.544  0.1676E-01  0.1650E-01  0.3984E+00  0.3984E+00
      9.618  0.1120E-01  0.1065E-01  0.3993E+00  0.3992E+00
      9.692  0.6005E-02  0.5434E-02  0.3997E+00  0.3996E+00
      9.766  0.2929E-02  0.2823E-02  0.3999E+00  0.3998E+00
      9.840  0.1258E-02  0.1717E-02  0.4000E+00  0.3999E+00
      9.914  0.2783E-03  0.8853E-03  0.4000E+00  0.4000E+00
      9.988 -0.1572E-03  0.1984E-03  0.4000E+00  0.4000E+00
     10.062 -0.2006E-03 -0.1217E-03  0.4000E+00  0.4000E+00
     10.136 -0.1092E-03 -0.1399E-03  0.4000E+00  0.4000E+00
     10.210 -0.3794E-04 -0.6936E-04  0.4000E+00  0.4000E+00
     10.284 -0.9174E-05 -0.2183E-04  0.4000E+00  0.4000E+00
     10.358 -0.1598E-05 -0.4766E-05  0.4000E+00  0.4000E+00
     10.432 -0.2041E-06 -0.7480E-06  0.4000E+00  0.4000E+00
     10.506 -0.1930E-07 -0.8597E-07  0.4000E+00  0.4000E+00
     10.580 -0.1361E-08 -0.7313E-08  0.4000E+00  0.4000E+00
     10.654 -0.7185E-10 -0.4637E-09  0.4000E+00  0.4000E+00
     10.728 -0.2849E-11 -0.2201E-10  0.4000E+00  0.4000E+00
     10.802 -0.8503E-13 -0.7851E-12  0.4000E+00  0.4000E+00
     10.876 -0.1914E-14 -0.2109E-13  0.4000E+00  0.4000E+00
     10.950 -0.3333E-16 -0.4266E-15  0.4000E+00  0.4000E+00
     11.024  0.0000E+00 -0.6666E-17  0.4000E+00  0.4000E+00
     11.098  0.0000E+00  0.0000E+00  0.4000E+00  0.4000E+00
     11.172  0.0000E+00  0.0000E+00  0.4000E+00  0.4000E+00
     11.246  0.0000E+00  0.0000E+00  0.4000E+00  0.4000E+00
     11.320  0.0000E+00  0.0000E+00  0.4000E+00  0.4000E+00
     11.394  0.0000E+00  0.0000E+00  0.4000E+00  0.4000E+00
     11.468  0.0000E+00  0.0000E+00  0.4000E+00  0.4000E+00
     11.542  0.0000E+00  0.0000E+00  0.4000E+00  0.4000E+00
     11.616  0.0000E+00  0.0000E+00  0.4000E+00  0.4000E+00
     11.690  0.0000E+00  0.0000E+00  0.4000E+00  0.4000E+00
     11.764  0.0000E+00  0.0000E+00  0.4000E+00  0.4000E+00
