 vasp.6.3.2 27Jun22 (build Aug 17 2022 15:43:34) complex                        
  
 executed on           tv2STDVTST date 2025.01.21  18:24:36
 running   20 mpi-ranks, with    1 threads/rank
 distrk:  each k-point on   20 cores,    1 groups
 distr:  one band on NCORE=   5 cores,    4 groups


--------------------------------------------------------------------------------------------------------


 -----------------------------------------------------------------------------
|                                                                             |
|           W    W    AA    RRRRR   N    N  II  N    N   GGGG   !!!           |
|           W    W   A  A   R    R  NN   N  II  NN   N  G    G  !!!           |
|           W    W  A    A  R    R  N N  N  II  N N  N  G       !!!           |
|           W WW W  AAAAAA  RRRRR   N  N N  II  N  N N  G  GGG   !            |
|           WW  WW  A    A  R   R   N   NN  II  N   NN  G    G                |
|           W    W  A    A  R    R  N    N  II  N    N   GGGG   !!!           |
|                                                                             |
|     Found issues when parsing the INCAR file                                |
|     In line 64: Tagname --- R W I G S contains invalid characters.          |
|     Please check if the interpretation in the OUTCAR file is correct.       |
|                                                                             |
 -----------------------------------------------------------------------------

 INCAR:
    = \=\=\=\=\=\=\=\=\=\=\=\=\=\=\=\=\=\=\=\=\=\=\=\=\=\=\=\=\=\=\=\=\=\=\=\=\=\=\=\=\=\=\=\=\=\=\=\=\=\=\=\=\=\=\=\=\=\=\=\=\=\=\=\=\=\=\=\=\=\=\=\=
    = \=\=\=\=\=\=\=\=\=\=\=\=\=\=\=\=\=\=\=\=\=\=\=\=\=\=\=\=\=\=\=\=\=\=\=\=\=\=\=\=\=\=\=\=\=\=\=\=\=\=\=\=\=\=\=\=\=\=\=\=\=\=\=\=\=\=\=\=\=\=\=\=
   ISTART = 0
   ICHARG = 2
   IPIPOL = 3
   IVDW = 11
   IDIPOL = 3
   IVDW = 11
    = \=\=\=\=\=\=\=\=\=\=\=\=\=\=\=\=\=\=\=\=\=\=\=\=\=\=\=\=\=\=\=\=\=\=\=\=\=\=\=\=\=\=\=\=\=\=\=\=\=\=\=\=\=\=\=\=\=\=\=\=\=\=\=\=\=\=\=\=\=\=\=\=
    = \=\=\=\=\=\=\=\=\=\=\=\=\=\=\=\=\=\=\=\=\=\=\=\=\=\=\=\=\=\=\=\=\=\=\=\=\=\=\=\=\=\=\=\=\=\=\=\=\=\=\=\=\=\=\=\=\=\=\=\=\=\=\=\=\=\=\=\=\=\=\=\=
   ISPIN = 2
    = \=\=\=\=\=\=\=\=\=\=\=\=\=\=\=\=\=\=\=\=\=\=\=\=\=\=\=\=\=\=\=\=\=\=\=\=\=\=\=\=\=\=\=\=\=\=\=\=\=\=\=\=\=\=\=\=\=\=\=\=\=\=\=\=\=\=\=\=\=\=\=\=
    = \=\=\=\=\=\=\=\=\=\=\=\=\=\=\=\=\=\=\=\=\=\=\=\=\=\=\=\=\=\=\=\=\=\=\=\=\=\=\=\=\=\=\=\=\=\=\=\=\=\=\=\=\=\=\=\=\=\=\=\=\=\=\=\=\=\=\=\=\=\=\=\=
   ENCUT = 400
   PREC = Normal
   EDIFF = 2E-04
   GGA = PE
   ISMEAR = 1
   SIGMA = 0.2
   LREAL = .FALSE.
    = \=\=\=\=\=\=\=\=\=\=\=\=\=\=\=\=\=\=\=\=\=\=\=\=\=\=\=\=\=\=\=\=\=\=\=\=\=\=\=\=\=\=\=\=\=\=\=\=\=\=\=\=\=\=\=\=\=\=\=\=\=\=\=\=\=\=\=\=\=\=\=\=
    = \=\=\=\=\=\=\=\=\=\=\=\=\=\=\=\=\=\=\=\=\=\=\=\=\=\=\=\=\=\=\=\=\=\=\=\=\=\=\=\=\=\=\=\=\=\=\=\=\=\=\=\=\=\=\=\=\=\=\=\=\=\=\=\=\=\=\=\=\=\=\=\=
   ISYM = 1
   NSW = 800
   IBRION = 2
   POTIM = 0.5
   ISIF = 2
   EDIFFG = -.03
    = \=\=\=\=\=\=\=\=\=\=\=\=\=\=\=\=\=\=\=\=\=\=\=\=\=\=\=\=\=\=\=\=\=\=\=\=\=\=\=\=\=\=\=\=\=\=\=\=\=\=\=\=\=\=\=\=\=\=\=\=\=\=\=\=\=\=\=\=\=\=\=\=
    = \=\=\=\=\=\=\=\=\=\=\=\=\=\=\=\=\=\=\=\=\=\=\=\=\=\=\=\=\=\=\=\=\=\=\=\=\=\=\=\=\=\=\=\=\=\=\=\=\=\=\=\=\=\=\=\=\=\=\=\=\=\=\=\=\=\=\=\=\=\=\=\=
   NPAR = 4
   LWAVE = .FALSE.
   LCHARG = .FALSE.

 POTCAR:    PAW_PBE Cu 22Jun2005                  
 -----------------------------------------------------------------------------
|                                                                             |
|           W    W    AA    RRRRR   N    N  II  N    N   GGGG   !!!           |
|           W    W   A  A   R    R  NN   N  II  NN   N  G    G  !!!           |
|           W    W  A    A  R    R  N N  N  II  N N  N  G       !!!           |
|           W WW W  AAAAAA  RRRRR   N  N N  II  N  N N  G  GGG   !            |
|           WW  WW  A    A  R   R   N   NN  II  N   NN  G    G                |
|           W    W  A    A  R    R  N    N  II  N    N   GGGG   !!!           |
|                                                                             |
|     You use a magnetic or noncollinear calculation, but did not specify     |
|     the initial magnetic moment with the MAGMOM tag. Note that a            |
|     default of 1 will be used for all atoms. This ferromagnetic setup       |
|     may break the symmetry of the crystal, in particular it may rule        |
|     out finding an antiferromagnetic solution. Thence, we recommend         |
|     setting the initial magnetic moment manually or verifying carefully     |
|     that this magnetic setup is desired.                                    |
|                                                                             |
 -----------------------------------------------------------------------------

 POTCAR:    PAW_PBE Cu 22Jun2005                  
   SHA256 =  0e71e558f37a4e8407882b4609ceaae59938afaad9ced71dfe8490308a0ab630 Cu/POTCAR             
   COPYR  = (c) Copyright 22Jun2005 Georg Kresse                                                    
   COPYR  = This file is part of the software VASP. Any use, copying, and all other rights are regul
   COPYR  = If you do not have a valid VASP license, you may not use, copy or distribute this file. 
   VRHFIN =Cu: d10 p1                                                                               
   LEXCH  = PE                                                                                      
   EATOM  =  1390.9808 eV,  102.2342 Ry                                                             
                                                                                                    
   TITEL  = PAW_PBE Cu 22Jun2005                                                                    
   LULTRA =        F    use ultrasoft PP ?                                                          
   IUNSCR =        1    unscreen: 0-lin 1-nonlin 2-no                                               
   RPACOR =    2.000    partial core radius                                                         
   POMASS =   63.546; ZVAL   =   11.000    mass and valenz                                          
   RCORE  =    2.300    outmost cutoff radius                                                       
   RWIGS  =    2.200; RWIGS  =    1.164    wigner-seitz radius (au A)                               
   ENMAX  =  295.446; ENMIN  =  221.585 eV                                                          
   ICORE  =        3    local potential                                                             
   LCOR   =        T    correct aug charges                                                         
   LPAW   =        T    paw PP                                                                      
   EAUG   =  586.980                                                                                
   DEXC   =    0.000                                                                                
   RMAX   =    2.344    core radius for proj-oper                                                   
   RAUG   =    1.300    factor for augmentation sphere                                              
   RDEP   =    2.302    radius for radial grids                                                     
   RDEPT  =    1.771    core radius for aug-charge                                                  
                                                                                                    
   Atomic configuration                                                                             
    9 entries                                                                                       
     n  l   j            E        occ.                                                              
     1  0  0.50     -8850.2468   2.0000                                                             
     2  0  0.50     -1062.3498   2.0000                                                             
     2  1  1.50      -916.8226   6.0000                                                             
     3  0  0.50      -114.6929   2.0000                                                             
     3  1  1.50       -72.1325   6.0000                                                             
     3  2  2.50        -5.0394  10.0000                                                             
     4  0  0.50        -4.6097   1.0000                                                             
     4  1  0.50        -4.0817   0.0000                                                             
     4  3  2.50        -1.3606   0.0000                                                             
   Description                                                                                      
     l       E           TYP  RCUT    TYP  RCUT                                                     
     2     -5.0393973     23  2.200                                                                 
     2     10.8846608     23  2.200                                                                 
     0     -4.6097109     23  2.200                                                                 
     0      8.2520465     23  2.200                                                                 
     1     -2.7211652     23  2.200                                                                 
     1     21.7055443     23  2.200                                                                 
     3      2.7211652     23  2.300                                                                 
  local pseudopotential read in
  partial core-charges read in
  partial kinetic energy density read in
  atomic valenz-charges read in
  non local Contribution for L=           2  read in
    real space projection operators read in
  non local Contribution for L=           2  read in
    real space projection operators read in
  non local Contribution for L=           0  read in
    real space projection operators read in
  non local Contribution for L=           0  read in
    real space projection operators read in
  non local Contribution for L=           1  read in
    real space projection operators read in
  non local Contribution for L=           1  read in
    real space projection operators read in
    PAW grid and wavefunctions read in
 
   number of l-projection  operators is LMAX  =           6
   number of lm-projection operators is LMMAX =          18
 
 -----------------------------------------------------------------------------
|                                                                             |
|               ----> ADVICE to this user running VASP <----                  |
|                                                                             |
|     You have a (more or less) 'large supercell' and for larger cells it     |
|     might be more efficient to use real-space projection operators.         |
|     Therefore, try LREAL= Auto in the INCAR file.                           |
|     Mind: For very accurate calculation, you might also keep the            |
|     reciprocal projection scheme (i.e. LREAL=.FALSE.).                      |
|                                                                             |
 -----------------------------------------------------------------------------

  PAW_PBE Cu 22Jun2005                  :
 energy of atom  1       EATOM=-1390.9808
 kinetic energy error for atom=    0.0232 (will be added to EATOM!!)
 
 
 POSCAR: FCC Cu
  positions in cartesian coordinates
  velocities in cartesian coordinates
  No initial velocities read in
 exchange correlation table for  LEXCH =        8
   RHO(1)=    0.500       N(1)  =     2000
   RHO(2)=  100.500       N(2)  =     4000

 VTST: version 4.2, (08/11/21)

 CHAIN: initializing optimizer
 
 OPT: Using VASP Conjugate-Gradient optimizer
 CHAIN: Read ICHAIN            0
 
 POSCAR: FCC Cu
  positions in cartesian coordinates
  velocities in cartesian coordinates
  No initial velocities read in
 


--------------------------------------------------------------------------------------------------------


 ion  position               nearest neighbor table
   1  0.000  0.000  0.000-  16 2.57  12 2.57  10 2.57   7 2.57   4 2.57   8 2.57   2 2.57   6 2.57
                             3 2.57
   2  0.000  0.333  0.000-  10 2.57  17 2.57  11 2.57   4 2.57   5 2.57   1 2.57   3 2.57   8 2.57
                             9 2.57
   3  1.000  0.667  0.000-  18 2.57  12 2.57  11 2.57   7 2.57   9 2.57   1 2.57   2 2.57   5 2.57
                             6 2.57
   4  0.333  0.000  0.000-  10 2.57  15 2.57  13 2.57   2 2.57   6 2.57   1 2.57   5 2.57   9 2.57
                             7 2.57
   5  0.333  0.333  0.000-  11 2.57  13 2.57  14 2.57   2 2.57   8 2.57   4 2.57   7 2.57   3 2.57
                             6 2.57
   6  0.333  0.667  0.000-  12 2.57  15 2.57  14 2.57   4 2.57   9 2.57   1 2.57   8 2.57   5 2.57
                             3 2.57
   7  0.667  0.000  0.000-  18 2.57  13 2.57  16 2.57   8 2.57   3 2.57   1 2.57   5 2.57   9 2.57
                             4 2.57
   8  0.667  0.333  0.000-  14 2.57  16 2.57  17 2.57   7 2.57   5 2.57   1 2.57   6 2.57   2 2.57
                             9 2.57
   9  0.667  0.667  0.000-  15 2.57  18 2.57  17 2.57   3 2.57   6 2.57   4 2.57   7 2.57   2 2.57
                             8 2.57
  10  0.111  0.111  0.090-   4 2.57   2 2.57   1 2.57  19 2.57  21 2.57  25 2.57  16 2.57  13 2.57
                            17 2.57  11 2.57  15 2.57  12 2.57
  11  0.111  0.444  0.090-   5 2.57   2 2.57   3 2.57  20 2.57  19 2.57  26 2.57  13 2.57  14 2.57
                            10 2.57  12 2.57  17 2.57  18 2.57
  12  0.111  0.778  0.090-   1 2.57   6 2.57   3 2.57  21 2.57  20 2.57  27 2.57  16 2.57  18 2.57
                            10 2.57  11 2.57  14 2.57  15 2.57
  13  0.444  0.111  0.090-   5 2.57   7 2.57   4 2.57  22 2.57  24 2.57  19 2.57  11 2.57  15 2.57
                            10 2.57  14 2.57  18 2.57  16 2.57
  14  0.444  0.444  0.090-   8 2.57   5 2.57   6 2.57  23 2.57  22 2.57  20 2.57  11 2.57  17 2.57
                            13 2.57  16 2.57  12 2.57  15 2.57
  15  0.444  0.778  0.090-   9 2.57   4 2.57   6 2.57  24 2.57  23 2.57  21 2.57  13 2.57  18 2.57
                            10 2.57  17 2.57  14 2.57  12 2.57
  16  0.778  0.111  0.090-   1 2.57   8 2.57   7 2.57  25 2.57  27 2.57  22 2.57  17 2.57  12 2.57
                            10 2.57  14 2.57  18 2.57  13 2.57
  17  0.778  0.444  0.090-   2 2.57   8 2.57   9 2.57  26 2.57  25 2.57  23 2.57  16 2.57  14 2.57
                            10 2.57  15 2.57  11 2.57  18 2.57
  18  0.778  0.778  0.090-  27 2.57   3 2.57   7 2.57   9 2.57  24 2.57  26 2.57  12 2.57  15 2.57
                            13 2.57  16 2.57  11 2.57  17 2.57
  19  0.222  0.222  0.179-  29 2.57  10 2.57  31 2.57  11 2.57  13 2.57  32 2.57  25 2.57  22 2.57
                            26 2.57  20 2.57  21 2.57  24 2.57
  20  0.222  0.556  0.179-  11 2.57  32 2.57  14 2.57  12 2.57  30 2.57  33 2.57  22 2.57  23 2.57
                            19 2.57  21 2.57  26 2.57  27 2.57
  21  0.222  0.889  0.179-  12 2.57  28 2.57  33 2.57  10 2.57  31 2.57  15 2.57  25 2.57  19 2.57
                            20 2.57  23 2.57  24 2.57  27 2.57
  22  0.556  0.222  0.179-  13 2.57  32 2.57  34 2.57  14 2.57  35 2.57  16 2.57  27 2.57  20 2.57
                            24 2.57  19 2.57  23 2.57  25 2.57
  23  0.556  0.556  0.179-  14 2.57  35 2.57  33 2.57  17 2.57  15 2.57  36 2.57  26 2.57  20 2.57
                            25 2.57  22 2.57  21 2.57  24 2.57
  24  0.556  0.889  0.179-  15 2.57  36 2.57  13 2.57  18 2.57  34 2.57  31 2.57  27 2.57  22 2.57
                            19 2.57  26 2.57  23 2.57  21 2.57
  25  0.889  0.222  0.179-  16 2.57  28 2.57  17 2.57  10 2.57  29 2.57  35 2.57  26 2.57  21 2.57
                            19 2.57  23 2.57  22 2.57  27 2.57
  26  0.889  0.556  0.179-  17 2.57  29 2.57  36 2.57  30 2.57  18 2.57  11 2.57  27 2.57  25 2.57
                            23 2.57  19 2.57  24 2.57  20 2.57
  27  0.889  0.889  0.179-  18 2.57  34 2.57  30 2.57  16 2.57  12 2.57  28 2.57  24 2.57  22 2.57
                            26 2.57  25 2.57  20 2.57  21 2.57
  28  0.000  0.000  0.269-  43 2.57  21 2.57  25 2.57  39 2.57  37 2.57  27 2.57  34 2.57  31 2.57
                            35 2.57  29 2.57  33 2.57  30 2.57
  29  0.000  0.333  0.269-  19 2.57  37 2.57  26 2.57  44 2.57  25 2.57  38 2.57  31 2.57  32 2.57
                            28 2.57  30 2.57  35 2.57  36 2.57
  30  1.000  0.667  0.269-  45 2.57  27 2.57  39 2.57  26 2.57  38 2.57  20 2.57  34 2.57  36 2.57
                            28 2.57  29 2.57  32 2.57  33 2.57
  31  0.333  0.000  0.269-  37 2.57  19 2.57  42 2.57  40 2.57  24 2.57  21 2.57  29 2.57  33 2.57
                            28 2.57  32 2.57  36 2.57  34 2.57
  32  0.333  0.333  0.269-  38 2.57  22 2.57  40 2.57  20 2.57  41 2.57  19 2.57  29 2.57  35 2.57
                            31 2.57  34 2.57  30 2.57  33 2.57
  33  0.333  0.667  0.269-  21 2.57  23 2.57  39 2.57  42 2.57  41 2.57  20 2.57  31 2.57  36 2.57
                            28 2.57  35 2.57  32 2.57  30 2.57
  34  0.667  0.000  0.269-  27 2.57  22 2.57  45 2.57  40 2.57  43 2.57  24 2.57  35 2.57  30 2.57
                            28 2.57  32 2.57  36 2.57  31 2.57
  35  0.667  0.333  0.269-  41 2.57  43 2.57  23 2.57  44 2.57  25 2.57  22 2.57  34 2.57  32 2.57
                            28 2.57  33 2.57  29 2.57  36 2.57
  36  0.667  0.667  0.269-  42 2.57  24 2.57  26 2.57  45 2.57  44 2.57  23 2.57  30 2.57  33 2.57
                            31 2.57  34 2.57  29 2.57  35 2.57
  37  0.111  0.111  0.359-  31 2.57  29 2.57  28 2.57  43 2.57  40 2.57  44 2.57  38 2.57  42 2.57
                            39 2.57
  38  0.111  0.444  0.359-  32 2.57  29 2.57  30 2.57  40 2.57  41 2.57  37 2.57  39 2.57  44 2.57
                            45 2.57
  39  0.111  0.778  0.359-  28 2.57  33 2.57  30 2.57  43 2.57  45 2.57  37 2.57  38 2.57  41 2.57
                            42 2.57
  40  0.444  0.111  0.359-  32 2.57  34 2.57  31 2.57  38 2.57  42 2.57  37 2.57  41 2.57  45 2.57
                            43 2.57
  41  0.444  0.444  0.359-  35 2.57  32 2.57  33 2.57  38 2.57  44 2.57  40 2.57  43 2.57  39 2.57
                            42 2.57
  42  0.444  0.778  0.359-  36 2.57  31 2.57  33 2.57  40 2.57  45 2.57  37 2.57  44 2.57  41 2.57
                            39 2.57
  43  0.778  0.111  0.359-  28 2.57  35 2.57  34 2.57  44 2.57  39 2.57  37 2.57  41 2.57  45 2.57
                            40 2.57
  44  0.778  0.444  0.359-  29 2.57  35 2.57  36 2.57  43 2.57  41 2.57  37 2.57  42 2.57  38 2.57
                            45 2.57
  45  0.778  0.778  0.359-  30 2.57  34 2.57  36 2.57  39 2.57  42 2.57  40 2.57  43 2.57  38 2.57
                            44 2.57
 
  LATTYP: Found a hexagonal cell.
 ALAT       =     7.7003932000
 C/A-ratio  =     3.0366144556
  
  Lattice vectors:
  
 A1 = (  -3.8501966000,  -6.6687361303,   0.0000000000)
 A2 = (   7.7003931999,   0.0000000000,   0.0000000000)
 A3 = (   0.0000000000,   0.0000000000,  23.3831253052)


Analysis of symmetry for initial positions (statically):
=====================================================================
 Subroutine PRICEL returns following result:
 
  LATTYP: Found a hexagonal cell.
 ALAT       =     2.5667977331
 C/A-ratio  =     9.1098433677
  
  Lattice vectors:
  
 A1 = (  -1.2833988670,  -2.2229120430,   0.0000000000)
 A2 = (   2.5667977330,   0.0000000000,   0.0000000000)
 A3 = (   0.0000000000,   0.0000000000,  23.3831253052)
 
   9 primitive cells build up your supercell.
 

 Routine SETGRP: Setting up the symmetry group for a 
 hexagonal supercell.


 Subroutine GETGRP returns: Found 12 space group operations
 (whereof  6 operations were pure point group operations)
 out of a pool of 24 trial point group operations.


The static configuration has the point symmetry C_3v.
 The point group associated with its full space group is D_3d.


Analysis of symmetry for dynamics (positions and initial velocities):
=====================================================================
 Subroutine PRICEL returns following result:
 
  LATTYP: Found a hexagonal cell.
 ALAT       =     2.5667977331
 C/A-ratio  =     9.1098433677
  
  Lattice vectors:
  
 A1 = (  -1.2833988670,  -2.2229120430,   0.0000000000)
 A2 = (   2.5667977330,   0.0000000000,   0.0000000000)
 A3 = (   0.0000000000,   0.0000000000,  23.3831253052)
 
   9 primitive cells build up your supercell.
 

 Routine SETGRP: Setting up the symmetry group for a 
 hexagonal supercell.


 Subroutine GETGRP returns: Found 12 space group operations
 (whereof  6 operations were pure point group operations)
 out of a pool of 24 trial point group operations.


The dynamic configuration has the point symmetry C_3v.
 The point group associated with its full space group is D_3d.


Analysis of constrained symmetry for selective dynamics:
=====================================================================
 Subroutine PRICEL returns following result:
 
  LATTYP: Found a hexagonal cell.
 ALAT       =     2.5667977331
 C/A-ratio  =     9.1098433677
  
  Lattice vectors:
  
 A1 = (  -1.2833988670,  -2.2229120430,   0.0000000000)
 A2 = (   2.5667977330,   0.0000000000,   0.0000000000)
 A3 = (   0.0000000000,   0.0000000000,  23.3831253052)
 
   9 primitive cells build up your supercell.
 

 Routine SETGRP: Setting up the symmetry group for a 
 hexagonal supercell.


 Subroutine GETGRP returns: Found  6 space group operations
 (whereof  6 operations were pure point group operations)
 out of a pool of 24 trial point group operations.


The constrained configuration has the point symmetry C_3v.


Analysis of structural, dynamic, and magnetic symmetry:
=====================================================================
 Subroutine PRICEL returns following result:
 
  LATTYP: Found a hexagonal cell.
 ALAT       =     2.5667977331
 C/A-ratio  =     9.1098433677
  
  Lattice vectors:
  
 A1 = (  -1.2833988670,  -2.2229120430,   0.0000000000)
 A2 = (   2.5667977330,   0.0000000000,   0.0000000000)
 A3 = (   0.0000000000,   0.0000000000,  23.3831253052)
 
   9 primitive cells build up your supercell.
 

 Routine SETGRP: Setting up the symmetry group for a 
 hexagonal supercell.


 Subroutine GETGRP returns: Found  6 space group operations
 (whereof  6 operations were pure point group operations)
 out of a pool of 24 trial point group operations.


The overall configuration has the point symmetry C_3v.


 Subroutine INISYM returns: Found  6 space group operations
 (whereof  6 operations are pure point group operations),
 and found     9 'primitive' translations


----------------------------------------------------------------------------------------

                                     Primitive cell                                     

  volume of cell :     133.4186

  direct lattice vectors                    reciprocal lattice vectors
    -1.283398867 -2.222912043  0.000000000     0.000000000 -0.449860355  0.000000000
     2.566797733  0.000000000  0.000000000     0.389590495 -0.224930177  0.000000000
     0.000000000  0.000000000 23.383125305     0.000000000  0.000000000  0.042765883

  length of vectors
     2.566797733  2.566797733 23.383125305     0.449860355  0.449860355  0.042765883

  position of ions in fractional coordinates (direct lattice)
     0.000000000  0.000000000  0.000000000
     0.666666667  0.333333333  0.089627945
     0.333333333  0.666666665  0.179255889
     0.000000000  0.000000000  0.268883834
     0.666666667  0.333333333  0.358511779

  ion indices of the primitive-cell ions
   primitive index   ion index
                 1           1
                 2          10
                 3          27
                 4          28
                 5          37

----------------------------------------------------------------------------------------

 
 
 KPOINTS: Auto-mesh                               

Automatic generation of k-mesh.
 Grid dimensions read from file:
 generate k-points for:    3    3    1

 Generating k-lattice:

  Cartesian coordinates                     Fractional coordinates (reciprocal lattice)
     0.043287833 -0.024992242  0.000000000     0.333333333  0.000000000  0.000000000
     0.000000000  0.049984484  0.000000000     0.000000000  0.333333333  0.000000000
     0.000000000  0.000000000  0.042765883     0.000000000  0.000000000  1.000000000

  Length of vectors
     0.049984484  0.049984484  0.042765883

  Shift w.r.t. Gamma in fractional coordinates (k-lattice)
     0.000000000  0.000000000  0.000000000

 
 Subroutine IBZKPT returns following result:
 ===========================================
 
 Found      3 irreducible k-points:
 
 Following reciprocal coordinates:
            Coordinates               Weight
  0.000000  0.000000  0.000000      1.000000
  0.333333 -0.000000  0.000000      6.000000
 -0.333333  0.333333  0.000000      2.000000
 
 Following cartesian coordinates:
            Coordinates               Weight
  0.000000  0.000000  0.000000      1.000000
  0.043288 -0.024992  0.000000      6.000000
 -0.043288  0.074977  0.000000      2.000000
 


--------------------------------------------------------------------------------------------------------




 Dimension of arrays:
   k-points           NKPTS =      3   k-points in BZ     NKDIM =      3   number of bands    NBANDS=    320
   number of dos      NEDOS =    301   number of ions     NIONS =     45
   non local maximal  LDIM  =      6   non local SUM 2l+1 LMDIM =     18
   total plane-waves  NPLWV = 192000
   max r-space proj   IRMAX =      1   max aug-charges    IRDMAX=   4831
   dimension x,y,z NGX =    40 NGY =   40 NGZ =  120
   dimension x,y,z NGXF=    80 NGYF=   80 NGZF=  240
   support grid    NGXF=    80 NGYF=   80 NGZF=  240
   ions per type =              45
   NGX,Y,Z   is equivalent  to a cutoff of   8.64,  8.64,  8.53 a.u.
   NGXF,Y,Z  is equivalent  to a cutoff of  17.27, 17.27, 17.06 a.u.

 SYSTEM =  unknown system                          
 POSCAR =  FCC Cu                                  

 Startparameter for this run:
   NWRITE =      2    write-flag & timer
   PREC   = normal    normal or accurate (medium, high low for compatibility)
   ISTART =      0    job   : 0-new  1-cont  2-samecut
   ICHARG =      2    charge: 1-file 2-atom 10-const
   ISPIN  =      2    spin polarized calculation?
   LNONCOLLINEAR =      F non collinear calculations
   LSORBIT =      F    spin-orbit coupling
   INIWAV =      1    electr: 0-lowe 1-rand  2-diag
   LASPH  =      F    aspherical Exc in radial PAW
 Electronic Relaxation 1
   ENCUT  =  400.0 eV  29.40 Ry    5.42 a.u.  12.56 12.56 38.13*2*pi/ulx,y,z
   ENINI  =  400.0     initial cutoff
   ENAUG  =  587.0 eV  augmentation charge cutoff
   NELM   =     60;   NELMIN=  2; NELMDL= -5     # of ELM steps 
   EDIFF  = 0.2E-03   stopping-criterion for ELM
   LREAL  =      F    real-space projection
   NLSPLINE    = F    spline interpolate recip. space projectors
   LCOMPAT=      F    compatible to vasp.4.4
   GGA_COMPAT  = T    GGA compatible to vasp.4.4-vasp.4.6
   LMAXPAW     = -100 max onsite density
   LMAXMIX     =    2 max onsite mixed and CHGCAR
   VOSKOWN=      0    Vosko Wilk Nusair interpolation
   ROPT   =    0.00000
 Ionic relaxation
   EDIFFG = -.3E-01   stopping-criterion for IOM
   NSW    =    800    number of steps for IOM
   NBLOCK =      1;   KBLOCK =    800    inner block; outer block 
   IBRION =      2    ionic relax: 0-MD 1-quasi-New 2-CG
   NFREE  =      1    steps in history (QN), initial steepest desc. (CG)
   ISIF   =      2    stress and relaxation
   IWAVPR =     11    prediction:  0-non 1-charg 2-wave 3-comb
   ISYM   =      1    0-nonsym 1-usesym 2-fastsym
   LCORR  =      T    Harris-Foulkes like correction to forces

   POTIM  = 0.5000    time-step for ionic-motion
   TEIN   =    0.0    initial temperature
   TEBEG  =    0.0;   TEEND  =   0.0 temperature during run
   SMASS  =  -3.00    Nose mass-parameter (am)
   estimated Nose-frequenzy (Omega)   =  0.10E-29 period in steps = 0.13E+47 mass=  -0.136E-26a.u.
   SCALEE = 1.0000    scale energy and forces
   NPACO  =    256;   APACO  = 10.0  distance and # of slots for P.C.
   PSTRESS=    0.0 pullay stress

  Mass of Ions in am
   POMASS =  63.55
  Ionic Valenz
   ZVAL   =  11.00
  Atomic Wigner-Seitz radii
   RWIGS  =  -1.00
  virtual crystal weights 
   VCA    =   1.00
   NELECT =     495.0000    total number of electrons
   NUPDOWN=      -1.0000    fix difference up-down

 DOS related values:
   EMIN   =  10.00;   EMAX   =-10.00  energy-range for DOS
   EFERMI =   0.00
   ISMEAR =     1;   SIGMA  =   0.20  broadening in eV -4-tet -1-fermi 0-gaus

 Electronic relaxation 2 (details)
   IALGO  =     38    algorithm
   LDIAG  =      T    sub-space diagonalisation (order eigenvalues)
   LSUBROT=      F    optimize rotation matrix (better conditioning)
   TURBO    =      0    0=normal 1=particle mesh
   IRESTART =      0    0=no restart 2=restart with 2 vectors
   NREBOOT  =      0    no. of reboots
   NMIN     =      0    reboot dimension
   EREF     =   0.00    reference energy to select bands
   IMIX   =      4    mixing-type and parameters
     AMIX     =   0.40;   BMIX     =  1.00
     AMIX_MAG =   1.60;   BMIX_MAG =  1.00
     AMIN     =   0.10
     WC   =   100.;   INIMIX=   1;  MIXPRE=   1;  MAXMIX= -45

 Intra band minimization:
   WEIMIN = 0.0010     energy-eigenvalue tresh-hold
   EBREAK =  0.16E-06  absolut break condition
   DEPER  =   0.30     relativ break condition  

   TIME   =   0.40     timestep for ELM

  volume/ion in A,a.u.               =      26.68       180.07
  Fermi-wavevector in a.u.,A,eV,Ry     =   1.218401  2.302444 20.197861  1.484501
  Thomas-Fermi vector in A             =   2.353689
 
 Write flags
   LWAVE        =      F    write WAVECAR
   LDOWNSAMPLE  =      F    k-point downsampling of WAVECAR
   LCHARG       =      F    write CHGCAR
   LVTOT        =      F    write LOCPOT, total local potential
   LVHAR        =      F    write LOCPOT, Hartree potential only
   LELF         =      F    write electronic localiz. function (ELF)
   LORBIT       =      0    0 simple, 1 ext, 2 COOP (PROOUT), +10 PAW based schemes


 Dipole corrections
   LMONO  =      F    monopole corrections only (constant potential shift)
   LDIPOL =      F    correct potential (dipole corrections)
   IDIPOL =      3    1-x, 2-y, 3-z, 4-all directions 
   EPSILON=  1.0000000 bulk dielectric constant

 Exchange correlation treatment:
   GGA     =    PE    GGA type
   LEXCH   =     8    internal setting for exchange type
   LIBXC   =     F    Libxc                    
   VOSKOWN =     0    Vosko Wilk Nusair interpolation
   LHFCALC =     F    Hartree Fock is set to
   LHFONE  =     F    Hartree Fock one center treatment
   AEXX    =    0.0000 exact exchange contribution

 Linear response parameters
   LEPSILON=     F    determine dielectric tensor
   LRPA    =     F    only Hartree local field effects (RPA)
   LNABLA  =     F    use nabla operator in PAW spheres
   LVEL    =     F    velocity operator in full k-point grid
   CSHIFT  =0.1000    complex shift for real part using Kramers Kronig
   OMEGAMAX=  -1.0    maximum frequency
   DEG_THRESHOLD= 0.2000000E-02 threshold for treating states as degnerate
   RTIME   =   -0.100 relaxation time in fs
  (WPLASMAI=    0.000 imaginary part of plasma frequency in eV, 0.658/RTIME)
   DFIELD  = 0.0000000 0.0000000 0.0000000 field for delta impulse in time
 
  Optional k-point grid parameters
   LKPOINTS_OPT  =     F    use optional k-point grid
   KPOINTS_OPT_MODE=     1    mode for optional k-point grid
 
 Orbital magnetization related:
   ORBITALMAG=     F  switch on orbital magnetization
   LCHIMAG   =     F  perturbation theory with respect to B field
   DQ        =  0.001000  dq finite difference perturbation B field
   LLRAUG    =     F  two centre corrections for induced B field



--------------------------------------------------------------------------------------------------------


 conjugate gradient relaxation of ions
   using selective dynamics as specified on POSCAR
   WARNING: If single coordinates had been selected the selection of coordinates
            is made according to the corresponding   d i r e c t   coordinates!
            Don't support selection of single cartesian coordinates -- sorry ...
  !
 charge density and potential will be updated during run
 spin polarized calculation
 Variant of blocked Davidson
 Davidson routine will perform the subspace rotation
 perform sub-space diagonalisation
    after iterative eigenvector-optimisation
 modified Broyden-mixing scheme, WC =      100.0
 initial mixing is a Kerker type mixing with AMIX =  0.4000 and BMIX =      1.0000
 Hartree-type preconditioning will be used
 using additional bands           72
 reciprocal scheme for non local part
 use partial core corrections
 calculate Harris-corrections to forces 
   (improved forces if not selfconsistent)
 use gradient corrections 
 use of overlap-Matrix (Vanderbilt PP)
 Methfessel and Paxton  Order N= 1 SIGMA  =   0.20


--------------------------------------------------------------------------------------------------------


  energy-cutoff  :      400.00
  volume of cell :     1200.77
      direct lattice vectors                 reciprocal lattice vectors
     7.700393200  0.000000000  0.000000000     0.129863498 -0.074976726  0.000000000
     3.850196600  6.668736130  0.000000000     0.000000000  0.149953452  0.000000000
     0.000000000  0.000000000 23.383125305     0.000000000  0.000000000  0.042765883

  length of vectors
     7.700393200  7.700393200 23.383125305     0.149953452  0.149953452  0.042765883


 
 k-points in units of 2pi/SCALE and weight: Auto-mesh                               
   0.00000000  0.00000000  0.00000000       0.111
   0.04328783 -0.02499224  0.00000000       0.667
  -0.04328783  0.07497673  0.00000000       0.222
 
 k-points in reciprocal lattice and weights: Auto-mesh                               
   0.00000000  0.00000000  0.00000000       0.111
   0.33333333 -0.00000000  0.00000000       0.667
  -0.33333333  0.33333333  0.00000000       0.222
 
 position of ions in fractional coordinates (direct lattice) 
   0.00000000  0.00000000  0.00000000
   0.00000000  0.33333333  0.00000000
   1.00000000  0.66666667  0.00000000
   0.33333333  0.00000000  0.00000000
   0.33333333  0.33333333  0.00000000
   0.33333333  0.66666667  0.00000000
   0.66666667  0.00000000  0.00000000
   0.66666667  0.33333333  0.00000000
   0.66666667  0.66666667  0.00000000
   0.11111111  0.11111111  0.08962794
   0.11111111  0.44444444  0.08962794
   0.11111111  0.77777778  0.08962794
   0.44444444  0.11111111  0.08962794
   0.44444444  0.44444444  0.08962794
   0.44444444  0.77777778  0.08962794
   0.77777778  0.11111111  0.08962794
   0.77777778  0.44444444  0.08962794
   0.77777778  0.77777778  0.08962794
   0.22222222  0.22222222  0.17925589
   0.22222222  0.55555556  0.17925589
   0.22222222  0.88888889  0.17925589
   0.55555556  0.22222222  0.17925589
   0.55555556  0.55555556  0.17925589
   0.55555556  0.88888889  0.17925589
   0.88888889  0.22222222  0.17925589
   0.88888889  0.55555556  0.17925589
   0.88888889  0.88888889  0.17925589
   0.00000000  0.00000000  0.26888383
   0.00000000  0.33333333  0.26888383
   1.00000000  0.66666667  0.26888383
   0.33333333  0.00000000  0.26888383
   0.33333333  0.33333333  0.26888383
   0.33333333  0.66666667  0.26888383
   0.66666667  0.00000000  0.26888383
   0.66666667  0.33333333  0.26888383
   0.66666667  0.66666667  0.26888383
   0.11111111  0.11111111  0.35851178
   0.11111111  0.44444444  0.35851178
   0.11111111  0.77777778  0.35851178
   0.44444444  0.11111111  0.35851178
   0.44444444  0.44444444  0.35851178
   0.44444444  0.77777778  0.35851178
   0.77777778  0.11111111  0.35851178
   0.77777778  0.44444444  0.35851178
   0.77777778  0.77777778  0.35851178
 
 position of ions in cartesian coordinates  (Angst):
   0.00000000  0.00000000  0.00000000
   1.28339887  2.22291204  0.00000000
  10.26719093  4.44582409  0.00000000
   2.56679773  0.00000000  0.00000000
   3.85019660  2.22291204  0.00000000
   5.13359547  4.44582409  0.00000000
   5.13359547  0.00000000  0.00000000
   6.41699433  2.22291204  0.00000000
   7.70039320  4.44582409  0.00000000
   1.28339887  0.74097068  2.09578146
   2.56679773  2.96388272  2.09578146
   3.85019660  5.18679477  2.09578146
   3.85019660  0.74097068  2.09578146
   5.13359547  2.96388272  2.09578146
   6.41699433  5.18679477  2.09578146
   6.41699433  0.74097068  2.09578146
   7.70039320  2.96388272  2.09578146
   8.98379207  5.18679477  2.09578146
   2.56679773  1.48194136  4.19156292
   3.85019660  3.70485341  4.19156292
   5.13359547  5.92776545  4.19156292
   5.13359547  1.48194136  4.19156292
   6.41699433  3.70485341  4.19156292
   7.70039320  5.92776545  4.19156292
   7.70039320  1.48194136  4.19156292
   8.98379207  3.70485341  4.19156292
  10.26719093  5.92776545  4.19156292
   0.00000000  0.00000000  6.28734439
   1.28339887  2.22291204  6.28734439
  10.26719093  4.44582409  6.28734439
   2.56679773  0.00000000  6.28734439
   3.85019660  2.22291204  6.28734439
   5.13359547  4.44582409  6.28734439
   5.13359547  0.00000000  6.28734439
   6.41699433  2.22291204  6.28734439
   7.70039320  4.44582409  6.28734439
   1.28339887  0.74097068  8.38312585
   2.56679773  2.96388272  8.38312585
   3.85019660  5.18679477  8.38312585
   3.85019660  0.74097068  8.38312585
   5.13359547  2.96388272  8.38312585
   6.41699433  5.18679477  8.38312585
   6.41699433  0.74097068  8.38312585
   7.70039320  2.96388272  8.38312585
   8.98379207  5.18679477  8.38312585
 


--------------------------------------------------------------------------------------------------------


 k-point   1 :   0.0000 0.0000 0.0000  plane waves:   21833
 k-point   2 :   0.3333-0.0000 0.0000  plane waves:   21828
 k-point   3 :  -0.3333 0.3333 0.0000  plane waves:   21780

 maximum and minimum number of plane-waves per node :      4391     4342

 maximum number of plane-waves:     21833
 maximum index in each direction: 
   IXMAX=   12   IYMAX=   12   IZMAX=   38
   IXMIN=  -12   IYMIN=  -12   IZMIN=  -38


 parallel 3D FFT for wavefunctions:
    minimum data exchange during FFTs selected (reduces bandwidth)
 parallel 3D FFT for charge:
    minimum data exchange during FFTs selected (reduces bandwidth)


 total amount of memory used by VASP MPI-rank0    82570. kBytes
=======================================================================

   base      :      30000. kBytes
   nonl-proj :       5036. kBytes
   fftplans  :       3772. kBytes
   grid      :       8647. kBytes
   one-center:        279. kBytes
   wavefun   :      34836. kBytes
 
     INWAV:  cpu time      0.0000: real time      0.0005
 Broyden mixing: mesh for mixing (old mesh)
   NGX = 25   NGY = 25   NGZ = 77
  (NGX  = 80   NGY  = 80   NGZ  =240)
  gives a total of  48125 points

 initial charge density was supplied:
 charge density of overlapping atoms calculated
 number of electron     495.0000000 magnetization      45.0000000
 keeping initial charge density in first step


--------------------------------------------------------------------------------------------------------


 Maximum index for augmentation-charges          302 (set IRDMAX)


--------------------------------------------------------------------------------------------------------


 First call to EWALD:  gamma=   0.167
 Maximum number of real-space cells 4x 4x 2
 Maximum number of reciprocal cells 2x 2x 5

    FEWALD:  cpu time      0.0028: real time      0.0028


--------------------------------------- Iteration      1(   1)  ---------------------------------------


    POTLOK:  cpu time      0.1005: real time      0.1122
    SETDIJ:  cpu time      0.0188: real time      0.0189
     EDDAV:  cpu time     13.3589: real time     13.4615
       DOS:  cpu time      0.0020: real time      0.0020
    --------------------------------------------
      LOOP:  cpu time     13.4801: real time     13.5946

 eigenvalue-minimisations  :  3840
 total energy-change (2. order) : 0.4618640E+04  (-0.1780144E+05)
 number of electron     495.0000000 magnetization      45.0000000
 augmentation part      495.0000000 magnetization      45.0000000

 Free energy of the ion-electron system (eV)
  ---------------------------------------------------
  alpha Z        PSCENC =      1233.32705512
  Ewald energy   TEWEN  =    215048.87522352
  -Hartree energ DENC   =   -275865.67011647
  -exchange      EXHF   =         0.00000000
  -V(xc)+E(xc)   XCENC  =      2055.18804577
  PAW double counting   =     55264.38732220   -60026.44191862
  entropy T*S    EENTRO =        -0.00952231
  eigenvalues    EBANDS =      4315.88996769
  atomic energy  EATOM  =     62593.09380899
  Solvation  Ediel_sol  =         0.00000000
  ---------------------------------------------------
  free energy    TOTEN  =      4618.63986590 eV

  energy without entropy =     4618.64938821  energy(sigma->0) =     4618.64304000


--------------------------------------------------------------------------------------------------------




--------------------------------------- Iteration      1(   2)  ---------------------------------------


     EDDAV:  cpu time     13.1418: real time     13.2451
       DOS:  cpu time      0.0038: real time      0.0038
    --------------------------------------------
      LOOP:  cpu time     13.1455: real time     13.2489

 eigenvalue-minimisations  :  3840
 total energy-change (2. order) :-0.4055818E+04  (-0.3885244E+04)
 number of electron     495.0000000 magnetization      45.0000000
 augmentation part      495.0000000 magnetization      45.0000000

 Free energy of the ion-electron system (eV)
  ---------------------------------------------------
  alpha Z        PSCENC =      1233.32705512
  Ewald energy   TEWEN  =    215048.87522352
  -Hartree energ DENC   =   -275865.67011647
  -exchange      EXHF   =         0.00000000
  -V(xc)+E(xc)   XCENC  =      2055.18804577
  PAW double counting   =     55264.38732220   -60026.44191862
  entropy T*S    EENTRO =         0.02182738
  eigenvalues    EBANDS =       260.04062660
  atomic energy  EATOM  =     62593.09380899
  Solvation  Ediel_sol  =         0.00000000
  ---------------------------------------------------
  free energy    TOTEN  =       562.82187449 eV

  energy without entropy =      562.80004712  energy(sigma->0) =      562.81459870


--------------------------------------------------------------------------------------------------------




--------------------------------------- Iteration      1(   3)  ---------------------------------------


     EDDAV:  cpu time     13.1917: real time     13.2945
       DOS:  cpu time      0.0026: real time      0.0026
    --------------------------------------------
      LOOP:  cpu time     13.1943: real time     13.2972

 eigenvalue-minimisations  :  3840
 total energy-change (2. order) :-0.7018744E+03  (-0.6341355E+03)
 number of electron     495.0000000 magnetization      45.0000000
 augmentation part      495.0000000 magnetization      45.0000000

 Free energy of the ion-electron system (eV)
  ---------------------------------------------------
  alpha Z        PSCENC =      1233.32705512
  Ewald energy   TEWEN  =    215048.87522352
  -Hartree energ DENC   =   -275865.67011647
  -exchange      EXHF   =         0.00000000
  -V(xc)+E(xc)   XCENC  =      2055.18804577
  PAW double counting   =     55264.38732220   -60026.44191862
  entropy T*S    EENTRO =         0.04211828
  eigenvalues    EBANDS =      -441.85405286
  atomic energy  EATOM  =     62593.09380899
  Solvation  Ediel_sol  =         0.00000000
  ---------------------------------------------------
  free energy    TOTEN  =      -139.05251406 eV

  energy without entropy =     -139.09463235  energy(sigma->0) =     -139.06655349


--------------------------------------------------------------------------------------------------------




--------------------------------------- Iteration      1(   4)  ---------------------------------------


     EDDAV:  cpu time     14.2995: real time     14.4063
       DOS:  cpu time      0.0031: real time      0.0031
    --------------------------------------------
      LOOP:  cpu time     14.3026: real time     14.4094

 eigenvalue-minimisations  :  4296
 total energy-change (2. order) :-0.4943836E+02  (-0.4774548E+02)
 number of electron     495.0000000 magnetization      45.0000000
 augmentation part      495.0000000 magnetization      45.0000000

 Free energy of the ion-electron system (eV)
  ---------------------------------------------------
  alpha Z        PSCENC =      1233.32705512
  Ewald energy   TEWEN  =    215048.87522352
  -Hartree energ DENC   =   -275865.67011647
  -exchange      EXHF   =         0.00000000
  -V(xc)+E(xc)   XCENC  =      2055.18804577
  PAW double counting   =     55264.38732220   -60026.44191862
  entropy T*S    EENTRO =         0.03107097
  eigenvalues    EBANDS =      -491.28136676
  atomic energy  EATOM  =     62593.09380899
  Solvation  Ediel_sol  =         0.00000000
  ---------------------------------------------------
  free energy    TOTEN  =      -188.49087527 eV

  energy without entropy =     -188.52194624  energy(sigma->0) =     -188.50123226


--------------------------------------------------------------------------------------------------------




--------------------------------------- Iteration      1(   5)  ---------------------------------------


     EDDAV:  cpu time     14.3685: real time     14.4752
       DOS:  cpu time      0.0032: real time      0.0032
    CHARGE:  cpu time      0.9804: real time      0.9847
    MIXING:  cpu time      0.0140: real time      0.0141
    --------------------------------------------
      LOOP:  cpu time     15.3661: real time     15.4772

 eigenvalue-minimisations  :  4296
 total energy-change (2. order) :-0.1176212E+01  (-0.1172449E+01)
 number of electron     494.9999529 magnetization      41.0678921
 augmentation part      292.1736243 magnetization      40.0736871

 Broyden mixing:
  rms(total) = 0.62346E+01    rms(broyden)= 0.62345E+01
  rms(prec ) = 0.64581E+01
  weight for this iteration     100.00

 Free energy of the ion-electron system (eV)
  ---------------------------------------------------
  alpha Z        PSCENC =      1233.32705512
  Ewald energy   TEWEN  =    215048.87522352
  -Hartree energ DENC   =   -275865.67011647
  -exchange      EXHF   =         0.00000000
  -V(xc)+E(xc)   XCENC  =      2055.18804577
  PAW double counting   =     55264.38732220   -60026.44191862
  entropy T*S    EENTRO =         0.03177091
  eigenvalues    EBANDS =      -492.45827867
  atomic energy  EATOM  =     62593.09380899
  Solvation  Ediel_sol  =         0.00000000
  ---------------------------------------------------
  free energy    TOTEN  =      -189.66708724 eV

  energy without entropy =     -189.69885815  energy(sigma->0) =     -189.67767754


--------------------------------------------------------------------------------------------------------




--------------------------------------- Iteration      1(   6)  ---------------------------------------


    POTLOK:  cpu time      0.1023: real time      0.1031
    SETDIJ:  cpu time      0.0181: real time      0.0182
     EDDAV:  cpu time     13.9489: real time     14.0526
       DOS:  cpu time      0.0028: real time      0.0028
    CHARGE:  cpu time      0.9572: real time      0.9616
    MIXING:  cpu time      0.0172: real time      0.0173
    --------------------------------------------
      LOOP:  cpu time     15.0466: real time     15.1556

 eigenvalue-minimisations  :  4152
 total energy-change (2. order) : 0.3205697E+02  (-0.4608840E+02)
 number of electron     494.9999497 magnetization      38.5410427
 augmentation part      331.2518869 magnetization      28.6696368

 Broyden mixing:
  rms(total) = 0.33363E+01    rms(broyden)= 0.33361E+01
  rms(prec ) = 0.34731E+01
  weight for this iteration     100.00

 eigenvalues of (default mixing * dielectric matrix)
  average eigenvalue GAMMA=   0.7800
  0.7800

 Free energy of the ion-electron system (eV)
  ---------------------------------------------------
  alpha Z        PSCENC =      1233.32705512
  Ewald energy   TEWEN  =    215048.87522352
  -Hartree energ DENC   =   -274581.24725951
  -exchange      EXHF   =         0.00000000
  -V(xc)+E(xc)   XCENC  =      2001.46359674
  PAW double counting   =     55837.36139335   -60348.10174518
  entropy T*S    EENTRO =        -0.01649270
  eigenvalues    EBANDS =     -1942.36570148
  atomic energy  EATOM  =     62593.09380899
  Solvation  Ediel_sol  =         0.00000000
  ---------------------------------------------------
  free energy    TOTEN  =      -157.61012115 eV

  energy without entropy =     -157.59362845  energy(sigma->0) =     -157.60462358


--------------------------------------------------------------------------------------------------------




--------------------------------------- Iteration      1(   7)  ---------------------------------------


    POTLOK:  cpu time      0.0943: real time      0.0951
    SETDIJ:  cpu time      0.0172: real time      0.0172
     EDDAV:  cpu time     14.0414: real time     14.1468
       DOS:  cpu time      0.0029: real time      0.0029
    CHARGE:  cpu time      0.9647: real time      0.9690
    MIXING:  cpu time      0.0149: real time      0.0150
    --------------------------------------------
      LOOP:  cpu time     15.1354: real time     15.2460

 eigenvalue-minimisations  :  4208
 total energy-change (2. order) : 0.2408273E+02  (-0.1228065E+02)
 number of electron     494.9999527 magnetization      34.4314801
 augmentation part      316.6548310 magnetization      23.7707775

 Broyden mixing:
  rms(total) = 0.13950E+01    rms(broyden)= 0.13949E+01
  rms(prec ) = 0.14061E+01
  weight for this iteration     100.00

 eigenvalues of (default mixing * dielectric matrix)
  average eigenvalue GAMMA=   0.9016
  1.1453  0.6579

 Free energy of the ion-electron system (eV)
  ---------------------------------------------------
  alpha Z        PSCENC =      1233.32705512
  Ewald energy   TEWEN  =    215048.87522352
  -Hartree energ DENC   =   -275195.47568272
  -exchange      EXHF   =         0.00000000
  -V(xc)+E(xc)   XCENC  =      2028.85938770
  PAW double counting   =     57014.93582137   -61759.71065682
  entropy T*S    EENTRO =         0.03809146
  eigenvalues    EBANDS =     -1097.47043991
  atomic energy  EATOM  =     62593.09380899
  Solvation  Ediel_sol  =         0.00000000
  ---------------------------------------------------
  free energy    TOTEN  =      -133.52739129 eV

  energy without entropy =     -133.56548275  energy(sigma->0) =     -133.54008844


--------------------------------------------------------------------------------------------------------




--------------------------------------- Iteration      1(   8)  ---------------------------------------


    POTLOK:  cpu time      0.0941: real time      0.0978
    SETDIJ:  cpu time      0.0175: real time      0.0175
     EDDAV:  cpu time     15.1464: real time     15.2603
       DOS:  cpu time      0.0053: real time      0.0053
    CHARGE:  cpu time      0.9685: real time      0.9735
    MIXING:  cpu time      0.0152: real time      0.0152
    --------------------------------------------
      LOOP:  cpu time     16.2470: real time     16.3698

 eigenvalue-minimisations  :  4624
 total energy-change (2. order) : 0.4547970E+01  (-0.1410242E+01)
 number of electron     494.9999503 magnetization      31.3820579
 augmentation part      315.2708194 magnetization      20.0012517

 Broyden mixing:
  rms(total) = 0.12698E+01    rms(broyden)= 0.12698E+01
  rms(prec ) = 0.12839E+01
  weight for this iteration     100.00

 eigenvalues of (default mixing * dielectric matrix)
  average eigenvalue GAMMA=   0.8099
  1.1581  0.6357  0.6357

 Free energy of the ion-electron system (eV)
  ---------------------------------------------------
  alpha Z        PSCENC =      1233.32705512
  Ewald energy   TEWEN  =    215048.87522352
  -Hartree energ DENC   =   -275288.86086355
  -exchange      EXHF   =         0.00000000
  -V(xc)+E(xc)   XCENC  =      2031.15374013
  PAW double counting   =     57993.53495611   -62803.72352041
  entropy T*S    EENTRO =        -0.00262743
  eigenvalues    EBANDS =      -936.37719395
  atomic energy  EATOM  =     62593.09380899
  Solvation  Ediel_sol  =         0.00000000
  ---------------------------------------------------
  free energy    TOTEN  =      -128.97942147 eV

  energy without entropy =     -128.97679404  energy(sigma->0) =     -128.97854566


--------------------------------------------------------------------------------------------------------




--------------------------------------- Iteration      1(   9)  ---------------------------------------


    POTLOK:  cpu time      0.0935: real time      0.0953
    SETDIJ:  cpu time      0.0173: real time      0.0173
     EDDAV:  cpu time     14.9955: real time     15.1064
       DOS:  cpu time      0.0028: real time      0.0028
    CHARGE:  cpu time      0.9632: real time      0.9676
    MIXING:  cpu time      0.0160: real time      0.0161
    --------------------------------------------
      LOOP:  cpu time     16.0883: real time     16.2055

 eigenvalue-minimisations  :  4552
 total energy-change (2. order) :-0.1383338E+00  (-0.4308200E+00)
 number of electron     494.9999545 magnetization      18.4002875
 augmentation part      315.6255435 magnetization       7.2368109

 Broyden mixing:
  rms(total) = 0.11260E+01    rms(broyden)= 0.11260E+01
  rms(prec ) = 0.11480E+01
  weight for this iteration     100.00

 eigenvalues of (default mixing * dielectric matrix)
  average eigenvalue GAMMA=   1.2995
  2.8856  1.1999  0.6833  0.4291

 Free energy of the ion-electron system (eV)
  ---------------------------------------------------
  alpha Z        PSCENC =      1233.32705512
  Ewald energy   TEWEN  =    215048.87522352
  -Hartree energ DENC   =   -275280.55419738
  -exchange      EXHF   =         0.00000000
  -V(xc)+E(xc)   XCENC  =      2028.63080803
  PAW double counting   =     58399.68618151   -63228.95312914
  entropy T*S    EENTRO =         0.00045520
  eigenvalues    EBANDS =      -923.22396115
  atomic energy  EATOM  =     62593.09380899
  Solvation  Ediel_sol  =         0.00000000
  ---------------------------------------------------
  free energy    TOTEN  =      -129.11775529 eV

  energy without entropy =     -129.11821049  energy(sigma->0) =     -129.11790702


--------------------------------------------------------------------------------------------------------




--------------------------------------- Iteration      1(  10)  ---------------------------------------


    POTLOK:  cpu time      0.0940: real time      0.0947
    SETDIJ:  cpu time      0.0172: real time      0.0172
     EDDAV:  cpu time     19.6007: real time     19.7469
       DOS:  cpu time      0.0028: real time      0.0028
    CHARGE:  cpu time      0.9783: real time      0.9828
    MIXING:  cpu time      0.0208: real time      0.0209
    --------------------------------------------
      LOOP:  cpu time     20.7138: real time     20.8653

 eigenvalue-minimisations  :  6336
 total energy-change (2. order) :-0.3107070E+01  (-0.7484614E+00)
 number of electron     494.9999526 magnetization      12.5185394
 augmentation part      317.5183117 magnetization       3.1592117

 Broyden mixing:
  rms(total) = 0.71038E+00    rms(broyden)= 0.71037E+00
  rms(prec ) = 0.76030E+00
  weight for this iteration     100.00

 eigenvalues of (default mixing * dielectric matrix)
  average eigenvalue GAMMA=   1.4919
  4.4489  1.2033  0.7022  0.7022  0.4029

 Free energy of the ion-electron system (eV)
  ---------------------------------------------------
  alpha Z        PSCENC =      1233.32705512
  Ewald energy   TEWEN  =    215048.87522352
  -Hartree energ DENC   =   -275449.03276300
  -exchange      EXHF   =         0.00000000
  -V(xc)+E(xc)   XCENC  =      2018.70500591
  PAW double counting   =     59689.13636318   -64571.79225072
  entropy T*S    EENTRO =        -0.01599551
  eigenvalues    EBANDS =      -694.52127309
  atomic energy  EATOM  =     62593.09380899
  Solvation  Ediel_sol  =         0.00000000
  ---------------------------------------------------
  free energy    TOTEN  =      -132.22482559 eV

  energy without entropy =     -132.20883008  energy(sigma->0) =     -132.21949375


--------------------------------------------------------------------------------------------------------




--------------------------------------- Iteration      1(  11)  ---------------------------------------


    POTLOK:  cpu time      0.0937: real time      0.0948
    SETDIJ:  cpu time      0.0175: real time      0.0175
     EDDAV:  cpu time     16.9479: real time     17.0735
       DOS:  cpu time      0.0033: real time      0.0033
    CHARGE:  cpu time      0.9730: real time      0.9774
    MIXING:  cpu time      0.0225: real time      0.0226
    --------------------------------------------
      LOOP:  cpu time     18.0578: real time     18.1890

 eigenvalue-minimisations  :  5344
 total energy-change (2. order) :-0.1763422E+01  (-0.2142147E+00)
 number of electron     494.9999527 magnetization       9.6962059
 augmentation part      317.5757277 magnetization       1.6899801

 Broyden mixing:
  rms(total) = 0.58185E+00    rms(broyden)= 0.58184E+00
  rms(prec ) = 0.61203E+00
  weight for this iteration     100.00

 eigenvalues of (default mixing * dielectric matrix)
  average eigenvalue GAMMA=   1.6247
  5.8850  1.2535  0.7913  0.7913  0.6336  0.3937

 Free energy of the ion-electron system (eV)
  ---------------------------------------------------
  alpha Z        PSCENC =      1233.32705512
  Ewald energy   TEWEN  =    215048.87522352
  -Hartree energ DENC   =   -275455.11894861
  -exchange      EXHF   =         0.00000000
  -V(xc)+E(xc)   XCENC  =      2018.03087290
  PAW double counting   =     59830.74853599   -64722.46637226
  entropy T*S    EENTRO =         0.00701131
  eigenvalues    EBANDS =      -680.48543494
  atomic energy  EATOM  =     62593.09380899
  Solvation  Ediel_sol  =         0.00000000
  ---------------------------------------------------
  free energy    TOTEN  =      -133.98824798 eV

  energy without entropy =     -133.99525929  energy(sigma->0) =     -133.99058508


--------------------------------------------------------------------------------------------------------




--------------------------------------- Iteration      1(  12)  ---------------------------------------


    POTLOK:  cpu time      0.0974: real time      0.1014
    SETDIJ:  cpu time      0.0174: real time      0.0175
     EDDAV:  cpu time     15.4516: real time     15.5674
       DOS:  cpu time      0.0033: real time      0.0034
    CHARGE:  cpu time      0.9771: real time      0.9817
    MIXING:  cpu time      0.0160: real time      0.0160
    --------------------------------------------
      LOOP:  cpu time     16.5628: real time     16.6874

 eigenvalue-minimisations  :  4760
 total energy-change (2. order) :-0.5924980E+01  (-0.3021237E+00)
 number of electron     494.9999533 magnetization       6.3709026
 augmentation part      316.8598331 magnetization      -0.8208528

 Broyden mixing:
  rms(total) = 0.42254E+00    rms(broyden)= 0.42252E+00
  rms(prec ) = 0.46480E+00
  weight for this iteration     100.00

 eigenvalues of (default mixing * dielectric matrix)
  average eigenvalue GAMMA=   1.9096
  8.1560  1.8643  1.0007  0.7991  0.6962  0.4005  0.4503

 Free energy of the ion-electron system (eV)
  ---------------------------------------------------
  alpha Z        PSCENC =      1233.32705512
  Ewald energy   TEWEN  =    215048.87522352
  -Hartree energ DENC   =   -275486.01796550
  -exchange      EXHF   =         0.00000000
  -V(xc)+E(xc)   XCENC  =      2015.56788783
  PAW double counting   =     59624.66139041   -64511.11657712
  entropy T*S    EENTRO =         0.03478925
  eigenvalues    EBANDS =      -658.33884079
  atomic energy  EATOM  =     62593.09380899
  Solvation  Ediel_sol  =         0.00000000
  ---------------------------------------------------
  free energy    TOTEN  =      -139.91322829 eV

  energy without entropy =     -139.94801754  energy(sigma->0) =     -139.92482471


--------------------------------------------------------------------------------------------------------




--------------------------------------- Iteration      1(  13)  ---------------------------------------


    POTLOK:  cpu time      0.0936: real time      0.0951
    SETDIJ:  cpu time      0.0172: real time      0.0173
     EDDAV:  cpu time     17.5439: real time     17.6758
       DOS:  cpu time      0.0030: real time      0.0030
    CHARGE:  cpu time      0.9567: real time      0.9610
    MIXING:  cpu time      0.0185: real time      0.0185
    --------------------------------------------
      LOOP:  cpu time     18.6330: real time     18.7708

 eigenvalue-minimisations  :  5592
 total energy-change (2. order) :-0.1001682E+02  (-0.9437394E+00)
 number of electron     494.9999519 magnetization       5.6993667
 augmentation part      315.4576760 magnetization       1.0304520

 Broyden mixing:
  rms(total) = 0.23580E+00    rms(broyden)= 0.23570E+00
  rms(prec ) = 0.27201E+00
  weight for this iteration     100.00

 eigenvalues of (default mixing * dielectric matrix)
  average eigenvalue GAMMA=   1.8006
  8.5646  2.0651  1.0521  0.7265  0.7265  0.5141  0.4063  0.3495

 Free energy of the ion-electron system (eV)
  ---------------------------------------------------
  alpha Z        PSCENC =      1233.32705512
  Ewald energy   TEWEN  =    215048.87522352
  -Hartree energ DENC   =   -275463.37802674
  -exchange      EXHF   =         0.00000000
  -V(xc)+E(xc)   XCENC  =      2012.18665818
  PAW double counting   =     58964.21742314   -63825.15713196
  entropy T*S    EENTRO =        -0.02075195
  eigenvalues    EBANDS =      -713.07430918
  atomic energy  EATOM  =     62593.09380899
  Solvation  Ediel_sol  =         0.00000000
  ---------------------------------------------------
  free energy    TOTEN  =      -149.93005087 eV

  energy without entropy =     -149.90929892  energy(sigma->0) =     -149.92313356


--------------------------------------------------------------------------------------------------------




--------------------------------------- Iteration      1(  14)  ---------------------------------------


    POTLOK:  cpu time      0.0935: real time      0.0942
    SETDIJ:  cpu time      0.0174: real time      0.0175
     EDDAV:  cpu time     16.4309: real time     16.5534
       DOS:  cpu time      0.0083: real time      0.0083
    CHARGE:  cpu time      0.9891: real time      0.9935
    MIXING:  cpu time      0.0128: real time      0.0129
    --------------------------------------------
      LOOP:  cpu time     17.5520: real time     17.6798

 eigenvalue-minimisations  :  5144
 total energy-change (2. order) :-0.2119578E+01  (-0.1919575E+00)
 number of electron     494.9999518 magnetization       4.9532602
 augmentation part      315.3308013 magnetization       1.0874703

 Broyden mixing:
  rms(total) = 0.20714E+00    rms(broyden)= 0.20710E+00
  rms(prec ) = 0.22606E+00
  weight for this iteration     100.00

 eigenvalues of (default mixing * dielectric matrix)
  average eigenvalue GAMMA=   1.6856
  8.7512  2.2187  1.0684  0.7261  0.7261  0.4725  0.4725  0.4073  0.3273

 Free energy of the ion-electron system (eV)
  ---------------------------------------------------
  alpha Z        PSCENC =      1233.32705512
  Ewald energy   TEWEN  =    215048.87522352
  -Hartree energ DENC   =   -275444.68810296
  -exchange      EXHF   =         0.00000000
  -V(xc)+E(xc)   XCENC  =      2010.99649722
  PAW double counting   =     58841.70487211   -63695.54341085
  entropy T*S    EENTRO =        -0.01705318
  eigenvalues    EBANDS =      -739.79851878
  atomic energy  EATOM  =     62593.09380899
  Solvation  Ediel_sol  =         0.00000000
  ---------------------------------------------------
  free energy    TOTEN  =      -152.04962880 eV

  energy without entropy =     -152.03257562  energy(sigma->0) =     -152.04394441


--------------------------------------------------------------------------------------------------------




--------------------------------------- Iteration      1(  15)  ---------------------------------------


    POTLOK:  cpu time      0.0948: real time      0.0955
    SETDIJ:  cpu time      0.0171: real time      0.0172
     EDDAV:  cpu time     14.6624: real time     14.7734
       DOS:  cpu time      0.0031: real time      0.0032
    CHARGE:  cpu time      0.9691: real time      0.9734
    MIXING:  cpu time      0.0231: real time      0.0232
    --------------------------------------------
      LOOP:  cpu time     15.7696: real time     15.8859

 eigenvalue-minimisations  :  4488
 total energy-change (2. order) :-0.1912087E+01  (-0.1267412E+00)
 number of electron     494.9999517 magnetization       3.6400732
 augmentation part      315.5467035 magnetization       0.5754604

 Broyden mixing:
  rms(total) = 0.16161E+00    rms(broyden)= 0.16158E+00
  rms(prec ) = 0.17224E+00
  weight for this iteration     100.00

 eigenvalues of (default mixing * dielectric matrix)
  average eigenvalue GAMMA=   1.7603
  9.4201  2.7186  1.0997  0.9466  0.9466  0.7025  0.7025  0.4228  0.3852  0.2584

 Free energy of the ion-electron system (eV)
  ---------------------------------------------------
  alpha Z        PSCENC =      1233.32705512
  Ewald energy   TEWEN  =    215048.87522352
  -Hartree energ DENC   =   -275415.91754633
  -exchange      EXHF   =         0.00000000
  -V(xc)+E(xc)   XCENC  =      2009.30850349
  PAW double counting   =     58732.80770168   -63578.30318724
  entropy T*S    EENTRO =        -0.03660577
  eigenvalues    EBANDS =      -777.11666915
  atomic energy  EATOM  =     62593.09380899
  Solvation  Ediel_sol  =         0.00000000
  ---------------------------------------------------
  free energy    TOTEN  =      -153.96171570 eV

  energy without entropy =     -153.92510993  energy(sigma->0) =     -153.94951378


--------------------------------------------------------------------------------------------------------




--------------------------------------- Iteration      1(  16)  ---------------------------------------


    POTLOK:  cpu time      0.0950: real time      0.0992
    SETDIJ:  cpu time      0.0174: real time      0.0175
     EDDAV:  cpu time     14.6003: real time     14.7088
       DOS:  cpu time      0.0028: real time      0.0028
    CHARGE:  cpu time      0.9663: real time      0.9704
    MIXING:  cpu time      0.0115: real time      0.0118
    --------------------------------------------
      LOOP:  cpu time     15.6933: real time     15.8105

 eigenvalue-minimisations  :  4448
 total energy-change (2. order) :-0.2096124E+01  (-0.1887477E+00)
 number of electron     494.9999517 magnetization       2.5163727
 augmentation part      316.0044273 magnetization       0.8709624

 Broyden mixing:
  rms(total) = 0.11209E+00    rms(broyden)= 0.11202E+00
  rms(prec ) = 0.12228E+00
  weight for this iteration     100.00

 eigenvalues of (default mixing * dielectric matrix)
  average eigenvalue GAMMA=   1.9043
 10.8132  3.4152  1.6982  0.9059  0.9059  0.8606  0.6487  0.6487  0.4126  0.3851
  0.2534

 Free energy of the ion-electron system (eV)
  ---------------------------------------------------
  alpha Z        PSCENC =      1233.32705512
  Ewald energy   TEWEN  =    215048.87522352
  -Hartree energ DENC   =   -275354.44758800
  -exchange      EXHF   =         0.00000000
  -V(xc)+E(xc)   XCENC  =      2007.33554195
  PAW double counting   =     58594.50460645   -63429.42963997
  entropy T*S    EENTRO =        -0.09132270
  eigenvalues    EBANDS =      -849.22552543
  atomic energy  EATOM  =     62593.09380899
  Solvation  Ediel_sol  =         0.00000000
  ---------------------------------------------------
  free energy    TOTEN  =      -156.05784006 eV

  energy without entropy =     -155.96651736  energy(sigma->0) =     -156.02739916


--------------------------------------------------------------------------------------------------------




--------------------------------------- Iteration      1(  17)  ---------------------------------------


    POTLOK:  cpu time      0.0939: real time      0.0955
    SETDIJ:  cpu time      0.0172: real time      0.0173
     EDDAV:  cpu time     14.9331: real time     15.0458
       DOS:  cpu time      0.0029: real time      0.0029
    CHARGE:  cpu time      0.9529: real time      0.9572
    MIXING:  cpu time      0.0212: real time      0.0213
    --------------------------------------------
      LOOP:  cpu time     16.0212: real time     16.1400

 eigenvalue-minimisations  :  4584
 total energy-change (2. order) :-0.1186767E+00  (-0.5055699E-01)
 number of electron     494.9999517 magnetization       1.9461378
 augmentation part      316.0735076 magnetization       1.1548631

 Broyden mixing:
  rms(total) = 0.87963E-01    rms(broyden)= 0.87923E-01
  rms(prec ) = 0.98459E-01
  weight for this iteration     100.00

 eigenvalues of (default mixing * dielectric matrix)
  average eigenvalue GAMMA=   1.8877
 11.3326  2.9586  2.3538  0.9656  0.9656  0.8310  0.8310  0.7483  0.6065  0.4168
  0.3867  0.2562

 Free energy of the ion-electron system (eV)
  ---------------------------------------------------
  alpha Z        PSCENC =      1233.32705512
  Ewald energy   TEWEN  =    215048.87522352
  -Hartree energ DENC   =   -275302.47611871
  -exchange      EXHF   =         0.00000000
  -V(xc)+E(xc)   XCENC  =      2007.39828539
  PAW double counting   =     58552.51679687   -63387.19041560
  entropy T*S    EENTRO =        -0.10273257
  eigenvalues    EBANDS =      -901.61841979
  atomic energy  EATOM  =     62593.09380899
  Solvation  Ediel_sol  =         0.00000000
  ---------------------------------------------------
  free energy    TOTEN  =      -156.17651678 eV

  energy without entropy =     -156.07378421  energy(sigma->0) =     -156.14227259


--------------------------------------------------------------------------------------------------------




--------------------------------------- Iteration      1(  18)  ---------------------------------------


    POTLOK:  cpu time      0.0939: real time      0.0947
    SETDIJ:  cpu time      0.0175: real time      0.0176
     EDDAV:  cpu time     14.9574: real time     15.0677
       DOS:  cpu time      0.0031: real time      0.0031
    CHARGE:  cpu time      0.9606: real time      0.9650
    MIXING:  cpu time      0.0121: real time      0.0121
    --------------------------------------------
      LOOP:  cpu time     16.0447: real time     16.1602

 eigenvalue-minimisations  :  4576
 total energy-change (2. order) :-0.7257136E+00  (-0.2239861E-01)
 number of electron     494.9999517 magnetization       1.5586980
 augmentation part      315.7906970 magnetization       0.9657928

 Broyden mixing:
  rms(total) = 0.77722E-01    rms(broyden)= 0.77715E-01
  rms(prec ) = 0.90976E-01
  weight for this iteration     100.00

 eigenvalues of (default mixing * dielectric matrix)
  average eigenvalue GAMMA=   1.8570
 11.7184  3.1732  2.6266  1.1160  1.0316  0.7706  0.7706  0.7258  0.5774  0.5774
  0.4123  0.3844  0.2570

 Free energy of the ion-electron system (eV)
  ---------------------------------------------------
  alpha Z        PSCENC =      1233.32705512
  Ewald energy   TEWEN  =    215048.87522352
  -Hartree energ DENC   =   -275281.29272817
  -exchange      EXHF   =         0.00000000
  -V(xc)+E(xc)   XCENC  =      2006.97198876
  PAW double counting   =     58648.50082503   -63492.63124586
  entropy T*S    EENTRO =        -0.10058634
  eigenvalues    EBANDS =      -913.64657144
  atomic energy  EATOM  =     62593.09380899
  Solvation  Ediel_sol  =         0.00000000
  ---------------------------------------------------
  free energy    TOTEN  =      -156.90223040 eV

  energy without entropy =     -156.80164406  energy(sigma->0) =     -156.86870162


--------------------------------------------------------------------------------------------------------




--------------------------------------- Iteration      1(  19)  ---------------------------------------


    POTLOK:  cpu time      0.0934: real time      0.0942
    SETDIJ:  cpu time      0.0205: real time      0.0206
     EDDAV:  cpu time     15.7252: real time     15.8424
       DOS:  cpu time      0.0027: real time      0.0027
    CHARGE:  cpu time      0.9683: real time      0.9728
    MIXING:  cpu time      0.0228: real time      0.0228
    --------------------------------------------
      LOOP:  cpu time     16.8329: real time     16.9555

 eigenvalue-minimisations  :  4896
 total energy-change (2. order) :-0.2500602E+00  (-0.7618074E-02)
 number of electron     494.9999518 magnetization       1.0775488
 augmentation part      315.7529504 magnetization       0.6756411

 Broyden mixing:
  rms(total) = 0.64465E-01    rms(broyden)= 0.64461E-01
  rms(prec ) = 0.72773E-01
  weight for this iteration     100.00

 eigenvalues of (default mixing * dielectric matrix)
  average eigenvalue GAMMA=   1.8690
 12.0415  3.6466  2.7245  1.4811  0.9920  0.8446  0.8446  0.7422  0.7422  0.6240
  0.3873  0.4098  0.4283  0.2571

 Free energy of the ion-electron system (eV)
  ---------------------------------------------------
  alpha Z        PSCENC =      1233.32705512
  Ewald energy   TEWEN  =    215048.87522352
  -Hartree energ DENC   =   -275247.71302187
  -exchange      EXHF   =         0.00000000
  -V(xc)+E(xc)   XCENC  =      2006.69991557
  PAW double counting   =     58651.64641306   -63497.42961933
  entropy T*S    EENTRO =        -0.10279255
  eigenvalues    EBANDS =      -945.54927312
  atomic energy  EATOM  =     62593.09380899
  Solvation  Ediel_sol  =         0.00000000
  ---------------------------------------------------
  free energy    TOTEN  =      -157.15229061 eV

  energy without entropy =     -157.04949806  energy(sigma->0) =     -157.11802643


--------------------------------------------------------------------------------------------------------




--------------------------------------- Iteration      1(  20)  ---------------------------------------


    POTLOK:  cpu time      0.0938: real time      0.0978
    SETDIJ:  cpu time      0.0173: real time      0.0173
     EDDAV:  cpu time     16.7259: real time     16.8501
       DOS:  cpu time      0.0030: real time      0.0030
    CHARGE:  cpu time      0.9617: real time      0.9670
    MIXING:  cpu time      0.0172: real time      0.0172
    --------------------------------------------
      LOOP:  cpu time     17.8188: real time     17.9526

 eigenvalue-minimisations  :  5256
 total energy-change (2. order) :-0.5281536E+00  (-0.6094608E-02)
 number of electron     494.9999518 magnetization       0.9256769
 augmentation part      315.8714387 magnetization       0.7262356

 Broyden mixing:
  rms(total) = 0.45043E-01    rms(broyden)= 0.45036E-01
  rms(prec ) = 0.50901E-01
  weight for this iteration     100.00

 eigenvalues of (default mixing * dielectric matrix)
  average eigenvalue GAMMA=   1.8188
 12.0462  3.3470  3.3470  1.6202  1.0455  0.8946  0.8946  0.6593  0.6593  0.6627
  0.6627  0.2570  0.4126  0.3867  0.3867

 Free energy of the ion-electron system (eV)
  ---------------------------------------------------
  alpha Z        PSCENC =      1233.32705512
  Ewald energy   TEWEN  =    215048.87522352
  -Hartree energ DENC   =   -275201.10865799
  -exchange      EXHF   =         0.00000000
  -V(xc)+E(xc)   XCENC  =      2005.88958480
  PAW double counting   =     58646.71270812   -63492.09949538
  entropy T*S    EENTRO =        -0.10517920
  eigenvalues    EBANDS =      -992.26549218
  atomic energy  EATOM  =     62593.09380899
  Solvation  Ediel_sol  =         0.00000000
  ---------------------------------------------------
  free energy    TOTEN  =      -157.68044420 eV

  energy without entropy =     -157.57526499  energy(sigma->0) =     -157.64538446


--------------------------------------------------------------------------------------------------------




--------------------------------------- Iteration      1(  21)  ---------------------------------------


    POTLOK:  cpu time      0.0940: real time      0.0955
    SETDIJ:  cpu time      0.0175: real time      0.0176
     EDDAV:  cpu time     15.9248: real time     16.0435
       DOS:  cpu time      0.0072: real time      0.0072
    CHARGE:  cpu time      0.9671: real time      0.9717
    MIXING:  cpu time      0.0238: real time      0.0240
    --------------------------------------------
      LOOP:  cpu time     17.0344: real time     17.1595

 eigenvalue-minimisations  :  4976
 total energy-change (2. order) :-0.6262465E+00  (-0.2294457E-02)
 number of electron     494.9999518 magnetization       0.5600722
 augmentation part      315.9267717 magnetization       0.3525481

 Broyden mixing:
  rms(total) = 0.31279E-01    rms(broyden)= 0.31278E-01
  rms(prec ) = 0.34260E-01
  weight for this iteration     100.00

 eigenvalues of (default mixing * dielectric matrix)
  average eigenvalue GAMMA=   1.8673
 12.1767  3.7755  3.7755  1.9892  1.1128  1.0462  1.0462  0.9009  0.6790  0.6790
  0.6559  0.6000  0.2569  0.4151  0.3839  0.3839

 Free energy of the ion-electron system (eV)
  ---------------------------------------------------
  alpha Z        PSCENC =      1233.32705512
  Ewald energy   TEWEN  =    215048.87522352
  -Hartree energ DENC   =   -275189.03612903
  -exchange      EXHF   =         0.00000000
  -V(xc)+E(xc)   XCENC  =      2005.11221325
  PAW double counting   =     58667.33498563   -63512.79026752
  entropy T*S    EENTRO =        -0.10491299
  eigenvalues    EBANDS =     -1004.11866763
  atomic energy  EATOM  =     62593.09380899
  Solvation  Ediel_sol  =         0.00000000
  ---------------------------------------------------
  free energy    TOTEN  =      -158.30669065 eV

  energy without entropy =     -158.20177766  energy(sigma->0) =     -158.27171966


--------------------------------------------------------------------------------------------------------




--------------------------------------- Iteration      1(  22)  ---------------------------------------


    POTLOK:  cpu time      0.0935: real time      0.0942
    SETDIJ:  cpu time      0.0250: real time      0.0251
     EDDAV:  cpu time     15.0989: real time     15.2120
       DOS:  cpu time      0.0031: real time      0.0031
    CHARGE:  cpu time      0.9786: real time      0.9831
    MIXING:  cpu time      0.0216: real time      0.0216
    --------------------------------------------
      LOOP:  cpu time     16.2207: real time     16.3391

 eigenvalue-minimisations  :  4640
 total energy-change (2. order) :-0.8125561E+00  (-0.3396852E-02)
 number of electron     494.9999518 magnetization       0.3004893
 augmentation part      315.9452953 magnetization       0.1798819

 Broyden mixing:
  rms(total) = 0.21467E-01    rms(broyden)= 0.21464E-01
  rms(prec ) = 0.22753E-01
  weight for this iteration     100.00

 eigenvalues of (default mixing * dielectric matrix)
  average eigenvalue GAMMA=   1.9478
 12.0706  4.8520  4.8520  2.0380  1.2955  1.2955  0.9666  0.9666  0.7060  0.7060
  0.7183  0.6029  0.6029  0.2569  0.4155  0.3874  0.3802

 Free energy of the ion-electron system (eV)
[...]
  0.000   0.000  -0.001  -0.000  -0.000   0.000  -0.000  -0.043  -0.000  -0.000   1.683  -0.133   0.000   0.127   0.000   0.000
 -0.000  -0.000   0.013  -0.000   0.000  -0.000  -0.000   0.002   0.000   0.000  -0.133   0.016   0.000  -0.022   0.000  -0.000
 -0.000   0.010   0.000   0.000   0.007  -0.000   0.016   0.000   0.000   0.002  -0.000  -0.000   0.202  -0.000   0.000  -0.012
 -0.000   0.000   0.051  -0.000   0.000  -0.000   0.000   0.022   0.000   0.000   0.127  -0.022   0.000   0.126  -0.000   0.000
  0.007   0.000  -0.000   0.010   0.000   0.002   0.000  -0.000   0.016   0.000   0.000   0.000   0.000  -0.000   0.202  -0.000
  0.000  -0.008  -0.000  -0.000  -0.001   0.000  -0.001  -0.000  -0.000  -0.000   0.000  -0.000  -0.012   0.000  -0.000   0.001
  0.000   0.000  -0.013  -0.000  -0.000   0.000   0.000  -0.001   0.000  -0.000  -0.018   0.002  -0.000  -0.008  -0.000  -0.000
 -0.001  -0.000   0.000  -0.008  -0.000  -0.000  -0.000   0.000  -0.001  -0.000  -0.000  -0.000  -0.000   0.000  -0.012   0.000
 total augmentation occupancy for first ion, spin component:           2
 -0.000   0.000   0.000  -0.000  -0.000  -0.000   0.000   0.000  -0.000  -0.000   0.000   0.000   0.000  -0.000  -0.000   0.000
  0.000   0.000  -0.000   0.000  -0.000  -0.000   0.000   0.000   0.000   0.000  -0.000  -0.000   0.000   0.000   0.000  -0.000
  0.000  -0.000   0.000   0.000  -0.000   0.000  -0.000  -0.000   0.000  -0.000  -0.000  -0.000  -0.000   0.000   0.000  -0.000
 -0.000   0.000   0.000   0.000  -0.000   0.000   0.000  -0.000   0.000   0.000   0.000  -0.000   0.000   0.000   0.000  -0.000
 -0.000  -0.000  -0.000  -0.000  -0.000  -0.000  -0.000  -0.000  -0.000  -0.000  -0.000  -0.000  -0.000   0.000  -0.000  -0.000
 -0.000  -0.000   0.000   0.000  -0.000  -0.000  -0.000  -0.000   0.000   0.000  -0.000   0.000   0.000   0.000  -0.000  -0.000
  0.000   0.000  -0.000   0.000  -0.000  -0.000   0.000   0.000   0.000   0.000  -0.000  -0.000  -0.000  -0.000  -0.000   0.000
  0.000   0.000  -0.000  -0.000  -0.000  -0.000   0.000   0.000  -0.000   0.000   0.000  -0.000  -0.000  -0.000   0.000   0.000
 -0.000   0.000   0.000   0.000  -0.000   0.000   0.000  -0.000   0.000   0.000   0.000  -0.000  -0.000  -0.000  -0.000   0.000
 -0.000   0.000  -0.000   0.000  -0.000  -0.000   0.000   0.000   0.000  -0.000   0.000  -0.000  -0.000  -0.000  -0.000   0.000
  0.000   0.000  -0.000   0.000  -0.000  -0.000   0.000   0.000  -0.000   0.000  -0.000   0.000  -0.000  -0.000  -0.000  -0.000
  0.000  -0.000  -0.000   0.000  -0.000   0.000   0.000  -0.000  -0.000  -0.000   0.000  -0.000   0.000   0.000   0.000  -0.000
  0.000   0.000  -0.000   0.000  -0.000   0.000  -0.000  -0.000  -0.000  -0.000   0.000  -0.000  -0.000  -0.000  -0.000   0.000
 -0.000   0.000   0.000  -0.000   0.000   0.000   0.000  -0.000  -0.000  -0.000  -0.000   0.000   0.000  -0.000   0.000  -0.000
 -0.000   0.000   0.000   0.000  -0.000  -0.000  -0.000   0.000  -0.000  -0.000  -0.000   0.000  -0.000   0.000  -0.000   0.000
  0.000  -0.000  -0.000  -0.000  -0.000  -0.000   0.000   0.000   0.000   0.000  -0.000   0.000   0.000  -0.000   0.000  -0.000
  0.000  -0.000  -0.000  -0.000  -0.000  -0.000   0.000   0.000  -0.000   0.000   0.000  -0.000   0.000   0.000  -0.000   0.000
 -0.000  -0.000   0.000  -0.000  -0.000   0.000   0.000  -0.000   0.000   0.000   0.000  -0.000   0.000  -0.000   0.000  -0.000


------------------------ aborting loop because EDIFF is reached ----------------------------------------



 DIPCOR: dipole corrections for dipol
 direction  3 min pos   170,
 dipolmoment           0.000000      0.000000     -0.021685 electrons x Angstroem
 Tr[quadrupol]     -4775.301389

 energy correction for charged system         0.000000 eV
 dipol+quadrupol energy correction            0.000035 eV
 added-field ion interaction          0.000000 eV  (added to PSCEN)

 
  *************** adding dipol energy to TOTEN NOW **************** 
    CHARGE:  cpu time      0.9507: real time      0.9549
    FORLOC:  cpu time      0.0287: real time      0.0288
    FORNL :  cpu time     14.1975: real time     14.2535
    STRESS:  cpu time     11.3622: real time     11.4269
    FORCOR:  cpu time      0.1174: real time      0.1181
    FORHAR:  cpu time      0.0272: real time      0.0273
    MIXING:  cpu time      0.0037: real time      0.0037
    OFIELD:  cpu time      0.0000: real time      0.0000

 ---------------------------------------------------------------------------------------------

         DFTD3 V3.0 Rev 1        
 Edisp (eV)  -17.05417

 E6    (eV) :    -6.9098
 E8    (eV) :   -10.1444
 % E8        : 59.48
    FORVDW:  cpu time      0.2521: real time      0.2532

  FORCE on cell =-STRESS in cart. coord.  units (eV):
  Direction    XX          YY          ZZ          XY          YZ          ZX
  --------------------------------------------------------------------------------------
  Alpha Z  1233.32706  1233.32706  1233.32706
  Ewald  254852.65306254852.65306************    -0.00000     0.00000    -0.00000
  Hartree271680.31093271680.31093************     0.00000     0.00000    -0.00000
  E(xc)   -2890.77794 -2890.77737 -2895.42403    -0.00049     0.00001     0.00002
  Local  ************************543425.30719     0.02250    -0.00001    -0.00001
  n-local  -974.83915  -965.28838  -976.73063     8.27231     0.10992    -0.19572
  augment  4254.65588  4254.67370  4273.05935    -0.01543     0.00020     0.00034
  Kinetic  4026.78995  4028.19067  4061.07597     1.21442     1.60713    -2.78366
  Fock        0.00000     0.00000     0.00000     0.00000     0.00000     0.00000
  vdW       -21.11962   -21.11962   -14.74470     0.00000    -0.00000    -0.00000
  -------------------------------------------------------------------------------------
  Total     -28.16420   -28.16420    -3.48257    -0.00000     0.00000    -0.00000
  in kB     -37.57933   -37.57933    -4.64677    -0.00000     0.00000    -0.00000
  external pressure =      -26.60 kB  Pullay stress =        0.00 kB


 VOLUME and BASIS-vectors are now :
 -----------------------------------------------------------------------------
  energy-cutoff  :      400.00
  volume of cell :     1200.77
      direct lattice vectors                 reciprocal lattice vectors
     7.700393200  0.000000000  0.000000000     0.129863498 -0.074976726  0.000000000
     3.850196600  6.668736130  0.000000000     0.000000000  0.149953452  0.000000000
     0.000000000  0.000000000 23.383125305     0.000000000  0.000000000  0.042765883

  length of vectors
     7.700393200  7.700393200 23.383125305     0.149953452  0.149953452  0.042765883


 FORCES acting on ions
    electron-ion (+dipol)            ewald-force                    non-local-force                 convergence-correction
 -----------------------------------------------------------------------------------------------
   0.162E-07 0.982E-08 0.427E+04   0.804E-07 -.216E-06 -.427E+04   0.147E-16 -.867E-18 -.183E+01   0.607E-08 0.372E-08 -.217E+00
   0.146E-04 0.323E-04 0.427E+04   -.200E-06 0.441E-06 -.427E+04   0.273E-16 -.260E-17 -.183E+01   0.480E-09 -.655E-08 -.217E+00
   -.162E-04 -.302E-04 0.427E+04   0.279E-06 -.310E-06 -.427E+04   0.226E-16 -.347E-17 -.183E+01   0.120E-07 0.139E-07 -.217E+00
   0.357E-04 -.156E-05 0.427E+04   0.190E-06 -.194E-06 -.427E+04   0.152E-16 0.173E-17 -.183E+01   -.523E-08 0.414E-08 -.217E+00
   0.126E-05 0.245E-05 0.427E+04   0.338E-07 0.441E-06 -.427E+04   0.295E-16 -.434E-17 -.183E+01   0.655E-08 0.391E-08 -.217E+00
   0.173E-04 -.308E-04 0.427E+04   -.239E-06 -.235E-06 -.427E+04   0.230E-16 0.867E-18 -.183E+01   0.494E-09 0.134E-07 -.217E+00
   -.360E-04 -.293E-06 0.427E+04   -.248E-06 -.117E-06 -.427E+04   0.221E-16 0.104E-16 -.183E+01   0.179E-07 0.340E-08 -.217E+00
   -.159E-04 0.330E-04 0.427E+04   0.189E-06 0.444E-06 -.427E+04   0.221E-16 -.867E-17 -.183E+01   0.123E-07 -.604E-08 -.217E+00
   -.146E-05 -.120E-05 0.427E+04   -.167E-07 -.286E-06 -.427E+04   0.954E-17 0.347E-17 -.183E+01   0.654E-08 0.367E-08 -.217E+00
   0.326E-04 0.201E-04 0.216E+04   -.916E-07 -.262E-06 -.216E+04   0.127E-17 -.651E-18 -.640E+00   -.561E-07 -.315E-07 -.105E+01
   0.505E-05 -.100E-05 0.216E+04   -.155E-06 0.548E-06 -.216E+04   0.813E-18 -.163E-18 -.640E+00   -.591E-07 -.425E-07 -.105E+01
   0.173E-05 -.399E-04 0.216E+04   0.252E-06 -.298E-06 -.216E+04   0.127E-17 -.271E-18 -.640E+00   -.657E-07 -.498E-07 -.105E+01
   0.884E-06 0.873E-05 0.216E+04   0.818E-07 -.109E-06 -.216E+04   0.114E-17 -.596E-18 -.640E+00   -.651E-07 -.295E-07 -.105E+01
   -.598E-05 -.449E-06 0.216E+04   -.432E-07 0.602E-06 -.216E+04   0.122E-17 -.542E-18 -.640E+00   -.737E-07 -.427E-07 -.105E+01
   0.245E-04 -.182E-04 0.216E+04   -.404E-06 -.322E-06 -.216E+04   0.103E-17 0.298E-18 -.640E+00   -.563E-07 -.431E-07 -.105E+01
   -.365E-04 0.220E-04 0.216E+04   -.885E-08 -.787E-07 -.216E+04   0.136E-17 0.000E+00 -.640E+00   -.776E-07 -.325E-07 -.105E+01
   -.251E-05 0.348E-04 0.216E+04   0.132E-06 0.411E-06 -.216E+04   -.298E-18 -.488E-18 -.640E+00   -.654E-07 -.271E-07 -.105E+01
   -.300E-04 -.164E-04 0.216E+04   -.410E-07 -.495E-06 -.216E+04   0.190E-18 -.867E-18 -.640E+00   -.752E-07 -.419E-07 -.105E+01
   0.298E-04 0.176E-04 0.682E+01   -.697E-07 -.207E-07 -.543E+01   0.244E-18 0.325E-18 0.219E+00   -.328E-05 -.189E-05 -.160E+01
   0.235E-05 -.298E-04 0.682E+01   -.141E-06 0.877E-06 -.543E+01   -.117E-17 0.271E-18 0.219E+00   -.326E-05 -.187E-05 -.160E+01
   0.367E-04 -.208E-04 0.682E+01   -.433E-06 -.470E-06 -.543E+01   -.130E-17 0.271E-18 0.219E+00   -.326E-05 -.189E-05 -.160E+01
   -.246E-04 0.195E-04 0.682E+01   0.239E-06 0.372E-06 -.543E+01   -.705E-18 0.163E-18 0.219E+00   -.325E-05 -.189E-05 -.160E+01
   0.615E-05 0.567E-05 0.682E+01   -.120E-06 0.435E-06 -.543E+01   -.434E-18 0.407E-18 0.219E+00   -.327E-05 -.189E-05 -.160E+01
   -.103E-05 -.790E-05 0.682E+01   -.914E-06 -.339E-06 -.543E+01   -.922E-18 0.596E-18 0.219E+00   -.326E-05 -.188E-05 -.160E+01
   -.175E-05 0.414E-04 0.682E+01   -.210E-06 -.352E-06 -.543E+01   -.379E-18 -.217E-18 0.219E+00   -.326E-05 -.188E-05 -.160E+01
   -.559E-05 0.626E-05 0.682E+01   0.221E-06 -.273E-07 -.543E+01   -.125E-17 -.271E-18 0.219E+00   -.326E-05 -.189E-05 -.160E+01
   -.214E-04 -.188E-04 0.682E+01   0.178E-05 -.383E-06 -.543E+01   -.179E-17 -.325E-18 0.219E+00   -.327E-05 -.189E-05 -.160E+01
   -.197E-06 -.114E-06 -.215E+04   0.520E-07 -.414E-06 0.215E+04   0.179E-17 0.130E-17 0.511E+00   -.233E-06 -.136E-06 -.995E+00
   0.152E-04 0.333E-04 -.215E+04   -.207E-06 0.417E-06 0.215E+04   0.423E-17 0.119E-17 0.511E+00   -.230E-06 -.131E-06 -.995E+00
   -.161E-04 -.319E-04 -.215E+04   0.515E-06 -.302E-06 0.215E+04   0.173E-17 0.119E-17 0.511E+00   -.233E-06 -.138E-06 -.995E+00
   0.368E-04 -.157E-05 -.215E+04   0.628E-07 -.313E-06 0.215E+04   0.445E-17 0.152E-17 0.511E+00   -.229E-06 -.135E-06 -.995E+00
   0.197E-05 0.285E-05 -.215E+04   -.953E-08 0.538E-06 0.215E+04   0.228E-17 0.195E-17 0.511E+00   -.233E-06 -.134E-06 -.995E+00
   0.177E-04 -.332E-04 -.215E+04   -.315E-06 -.103E-06 0.215E+04   0.228E-17 0.195E-17 0.511E+00   -.231E-06 -.138E-06 -.995E+00
   -.374E-04 0.641E-06 -.215E+04   -.235E-06 -.415E-07 0.215E+04   0.173E-17 0.206E-17 0.511E+00   -.237E-06 -.133E-06 -.995E+00
   -.178E-04 0.345E-04 -.215E+04   0.221E-06 0.432E-06 0.215E+04   0.173E-17 0.163E-17 0.511E+00   -.235E-06 -.131E-06 -.995E+00
   -.258E-05 -.185E-05 -.215E+04   -.147E-06 -.306E-06 0.215E+04   0.542E-18 0.217E-17 0.511E+00   -.234E-06 -.134E-06 -.995E+00
   0.324E-04 0.200E-04 -.429E+04   -.164E-07 -.123E-06 0.428E+04   0.000E+00 -.347E-17 0.203E+01   -.772E-06 -.446E-06 -.433E+00
   0.567E-05 -.183E-05 -.429E+04   -.175E-06 0.445E-06 0.428E+04   -.108E-16 -.260E-17 0.203E+01   -.762E-06 -.451E-06 -.433E+00
   0.116E-05 -.404E-04 -.429E+04   0.279E-06 -.370E-06 0.428E+04   0.143E-16 0.867E-18 0.203E+01   -.771E-06 -.443E-06 -.433E+00
   0.468E-06 0.971E-05 -.429E+04   0.210E-06 -.128E-06 0.428E+04   -.781E-17 -.954E-17 0.203E+01   -.771E-06 -.435E-06 -.433E+00
   -.761E-05 -.136E-05 -.429E+04   -.420E-07 0.480E-06 0.428E+04   -.173E-16 -.173E-17 0.203E+01   -.779E-06 -.450E-06 -.433E+00
   0.234E-04 -.175E-04 -.429E+04   -.252E-06 -.308E-06 0.428E+04   -.156E-16 -.954E-17 0.203E+01   -.766E-06 -.448E-06 -.433E+00
   -.373E-04 0.218E-04 -.429E+04   -.219E-06 -.725E-07 0.428E+04   -.781E-17 -.113E-16 0.203E+01   -.769E-06 -.447E-06 -.433E+00
   -.247E-05 0.336E-04 -.429E+04   0.191E-06 0.413E-06 0.428E+04   0.000E+00 -.121E-16 0.203E+01   -.771E-06 -.441E-06 -.433E+00
   -.294E-04 -.160E-04 -.429E+04   -.537E-07 -.302E-06 0.428E+04   -.520E-17 -.434E-17 0.203E+01   -.775E-06 -.448E-06 -.433E+00
 -----------------------------------------------------------------------------------------------
   -.650E-05 0.372E-04 0.359E+02   -.516E-12 0.790E-13 -.164E-10   0.157E-15 -.443E-16 0.256E+01   -.389E-04 -.225E-04 -.387E+02
 
 
 POSITION                                       TOTAL-FORCE (eV/Angst)
 -----------------------------------------------------------------------------------
      0.00000      0.00000      0.00000        -0.000000     -0.000000      0.155172
      1.28340      2.22291      0.00000         0.000000     -0.000000      0.155172
     10.26719      4.44582      0.00000        -0.000000     -0.000000      0.155172
      2.56680      0.00000      0.00000         0.000000     -0.000000      0.155172
      3.85020      2.22291      0.00000         0.000000     -0.000000      0.155172
      5.13360      4.44582      0.00000         0.000000     -0.000000      0.155172
      5.13360      0.00000      0.00000         0.000000     -0.000000      0.155172
      6.41699      2.22291      0.00000         0.000000     -0.000000      0.155172
      7.70039      4.44582      0.00000        -0.000000     -0.000000      0.155172
      1.28340      0.74097      2.09578        -0.000000      0.000000     -0.166212
      2.56680      2.96388      2.09578        -0.000000      0.000000     -0.166212
      3.85020      5.18679      2.09578        -0.000000      0.000000     -0.166212
      3.85020      0.74097      2.09578        -0.000000      0.000000     -0.166212
      5.13360      2.96388      2.09578         0.000000      0.000000     -0.166212
      6.41699      5.18679      2.09578         0.000000     -0.000000     -0.166212
      6.41699      0.74097      2.09578        -0.000000      0.000000     -0.166212
      7.70039      2.96388      2.09578        -0.000000      0.000000     -0.166212
      8.98379      5.18679      2.09578        -0.000000      0.000000     -0.166212
      2.56680      1.48194      4.14288        -0.000000     -0.000000      0.022662
      3.85020      3.70485      4.14288        -0.000000     -0.000000      0.022662
      5.13360      5.92777      4.14288        -0.000000     -0.000000      0.022662
      5.13360      1.48194      4.14288        -0.000000     -0.000000      0.022662
      6.41699      3.70485      4.14288        -0.000000     -0.000000      0.022662
      7.70039      5.92777      4.14288        -0.000000     -0.000000      0.022662
      7.70039      1.48194      4.14288        -0.000000     -0.000000      0.022662
      8.98379      3.70485      4.14288        -0.000000     -0.000000      0.022662
     10.26719      5.92777      4.14288         0.000000     -0.000000      0.022662
     -0.00000     -0.00000      6.19552         0.000000      0.000000     -0.028927
      1.28340      2.22291      6.19552        -0.000000      0.000000     -0.028927
     10.26719      4.44582      6.19552         0.000000      0.000000     -0.028927
      2.56680     -0.00000      6.19552        -0.000000      0.000000     -0.028927
      3.85020      2.22291      6.19552        -0.000000      0.000000     -0.028927
      5.13360      4.44582      6.19552        -0.000000      0.000000     -0.028927
      5.13360     -0.00000      6.19552         0.000000      0.000000     -0.028927
      6.41699      2.22291      6.19552        -0.000000      0.000000     -0.028927
      7.70039      4.44582      6.19552         0.000000      0.000000     -0.028927
      1.28340      0.74097      8.24872         0.000000      0.000000      0.017306
      2.56680      2.96388      8.24872         0.000000     -0.000000      0.017306
      3.85020      5.18679      8.24872         0.000000      0.000000      0.017306
      3.85020      0.74097      8.24872         0.000000      0.000000      0.017306
      5.13360      2.96388      8.24872         0.000000      0.000000      0.017306
      6.41699      5.18679      8.24872         0.000000      0.000000      0.017306
      6.41699      0.74097      8.24872         0.000000      0.000000      0.017306
      7.70039      2.96388      8.24872         0.000000      0.000000      0.017306
      8.98379      5.18679      8.24872         0.000000      0.000000      0.017306
 -----------------------------------------------------------------------------------
    total drift:                               -0.000045      0.000015     -0.201679


--------------------------------------------------------------------------------------------------------



  FREE ENERGIE OF THE ION-ELECTRON SYSTEM (eV)
  ---------------------------------------------------
  free  energy   TOTEN  =      -176.39079761 eV

  energy  without entropy=     -176.27782891  energy(sigma->0) =     -176.35314138
 
 d Force = 0.4962047E-02[-0.359E-02, 0.135E-01]  d Energy = 0.6587923E-02-0.163E-02
 d Force =-0.2639367E+03[-0.264E+03,-0.263E+03]  d Ewald  =-0.2639368E+03 0.657E-04


--------------------------------------------------------------------------------------------------------


    POTLOK:  cpu time      0.1151: real time      0.1158


--------------------------------------------------------------------------------------------------------


 stress matrix after NEB project (eV)
    -28.16420     -0.00000     -0.00000
     -0.00000    -28.16420     -0.00000
     -0.00000      0.00000     -3.48257
  FORCES: max atom, RMS     0.028927    0.018165
  FORCE total and by dimension    0.121855    0.028927
  Stress total and by dimension   39.982152   28.164199
 Conjugate gradient step on ions:
 trial-energy change:   -0.006588  1 .order   -0.004962   -0.013512    0.003588
  (g-gl).g = 0.487E-02      g.g   = 0.619E-02  gl.gl    = 0.155E-01
 g(Force)  = 0.619E-02   g(Stress)= 0.000E+00 ortho     = 0.854E-03
 gamma     =   0.31343
 trial     =   2.09303
 opt step  =   1.79835  (harmonic =   1.65390) maximal distance =0.00000000
 next E    =  -176.391046   (d E  =  -0.00684)


--------------------------------------------------------------------------------------------------------


  
 reached required accuracy - stopping structural energy minimisation
     LOOP+:  cpu time    101.0123: real time    101.7824
    4ORBIT:  cpu time      0.0000: real time      0.0000

 total amount of memory used by VASP MPI-rank0    82570. kBytes
=======================================================================

   base      :      30000. kBytes
   nonl-proj :       5036. kBytes
   fftplans  :       3772. kBytes
   grid      :       8647. kBytes
   one-center:        279. kBytes
   wavefun   :      34836. kBytes
 
  
  
 General timing and accounting informations for this job:
 ========================================================
  
                  Total CPU time used (sec):     1605.175
                            User time (sec):     1568.329
                          System time (sec):       36.846
                         Elapsed time (sec):     1618.843
  
                   Maximum memory used (kb):      362016.
                   Average memory used (kb):          N/A
  
                          Minor page faults:       921612
                          Major page faults:         6843
                 Voluntary context switches:        17768
