<?xml version="1.0" encoding="ISO-8859-1"?>
<modeling>
 <generator>
  <i name="program" type="string">vasp </i>
  <i name="version" type="string">6.3.2  </i>
  <i name="subversion" type="string">27Jun22 (build Aug 17 2022 15:43:34) complex                          parallel </i>
  <i name="platform" type="string">tv2STDVTST </i>
  <i name="date" type="string">2025 01 21 </i>
  <i name="time" type="string">18:24:36 </i>
 </generator>
 <incar>
  <i type="int" name="ISTART">     0</i>
  <i type="string" name="PREC">Normal</i>
  <i type="int" name="ISPIN">     2</i>
  <i type="int" name="ICHARG">     2</i>
  <i type="int" name="IBRION">     2</i>
  <i name="EDIFF">      0.00020000</i>
  <i name="EDIFFG">     -0.03000000</i>
  <i type="int" name="NSW">   800</i>
  <i type="int" name="ISIF">     2</i>
  <i type="int" name="ISYM">     1</i>
  <i name="ENCUT">    400.00000000</i>
  <i name="POTIM">      0.50000000</i>
  <i type="logical" name="LREAL"> F  </i>
  <i type="int" name="ISMEAR">     1</i>
  <i name="SIGMA">      0.20000000</i>
  <i type="logical" name="LWAVE"> F  </i>
  <i type="logical" name="LCHARG"> F  </i>
  <i type="string" name="GGA">PE</i>
  <i type="int" name="IDIPOL">     3</i>
  <i type="int" name="IVDW">    11</i>
 </incar>
 <primitive_cell>
  <structure name="primitive_cell" >
   <crystal>
    <varray name="basis" >
     <v>      -1.28339887      -2.22291204       0.00000000 </v>
     <v>       2.56679773       0.00000000       0.00000000 </v>
     <v>       0.00000000       0.00000000      23.38312531 </v>
    </varray>
    <i name="volume">    133.41863181 </i>
    <varray name="rec_basis" >
     <v>       0.00000000      -0.44986035       0.00000000 </v>
     <v>       0.38959050      -0.22493018       0.00000000 </v>
     <v>       0.00000000       0.00000000       0.04276588 </v>
    </varray>
   </crystal>
   <varray name="positions" >
    <v>       0.00000000       0.00000000       0.00000000 </v>
    <v>       0.66666667       0.33333333       0.08962794 </v>
    <v>       0.33333333       0.66666667       0.17925589 </v>
    <v>       0.00000000       0.00000000       0.26888383 </v>
    <v>       0.66666667       0.33333333       0.35851178 </v>
   </varray>
  </structure>
  <varray name="primitive_index" >
   <v type="int" >        1 </v>
   <v type="int" >       10 </v>
   <v type="int" >       27 </v>
   <v type="int" >       28 </v>
   <v type="int" >       37 </v>
  </varray>
 </primitive_cell>
 <kpoints>
  <generation param="Monkhorst-Pack">
   <v type="int" name="divisions">       3        3        1 </v>
   <v name="usershift">      0.00000000       0.00000000       0.00000000 </v>
   <v name="genvec1">      0.33333333       0.00000000       0.00000000 </v>
   <v name="genvec2">      0.00000000       0.33333333       0.00000000 </v>
   <v name="genvec3">      0.00000000       0.00000000       1.00000000 </v>
   <v name="shift">      0.00000000       0.00000000       0.00000000 </v>
  </generation>
  <varray name="kpointlist" >
   <v>       0.00000000       0.00000000       0.00000000 </v>
   <v>       0.33333333      -0.00000000       0.00000000 </v>
   <v>      -0.33333333       0.33333333       0.00000000 </v>
  </varray>
  <varray name="weights" >
   <v>       0.11111111 </v>
   <v>       0.66666667 </v>
   <v>       0.22222222 </v>
  </varray>
 </kpoints>
 <parameters>
  <separator name="general" >
   <i type="string" name="SYSTEM">unknown system</i>
   <i type="logical" name="LCOMPAT"> F  </i>
  </separator>
  <separator name="electronic" >
   <i type="string" name="PREC">normal</i>
   <i name="ENMAX">    400.00000000</i>
   <i name="ENAUG">    586.98000000</i>
   <i name="EDIFF">      0.00020000</i>
   <i type="int" name="IALGO">    38</i>
   <i type="int" name="IWAVPR">    11</i>
   <i type="int" name="NBANDS">   320</i>
   <i type="int" name="NBANDSLOW">    -1</i>
   <i type="int" name="NBANDSHIGH">    -1</i>
   <i name="NELECT">    495.00000000</i>
   <i type="int" name="TURBO">     0</i>
   <i type="int" name="IRESTART">     0</i>
   <i type="int" name="NREBOOT">     0</i>
   <i type="int" name="NMIN">     0</i>
   <i name="EREF">      0.00000000</i>
   <separator name="electronic smearing" >
    <i type="int" name="ISMEAR">     1</i>
    <i name="SIGMA">      0.20000000</i>
    <i name="KSPACING">      0.50000000</i>
    <i type="logical" name="KGAMMA"> T  </i>
    <i type="logical" name="KBLOWUP"> T  </i>
   </separator>
   <separator name="electronic projectors" >
    <i type="logical" name="LREAL"> F  </i>
    <v name="ROPT">      0.00000000</v>
    <i type="int" name="LMAXPAW">  -100</i>
    <i type="int" name="LMAXMIX">     2</i>
    <i type="logical" name="NLSPLINE"> F  </i>
   </separator>
   <separator name="electronic startup" >
    <i type="int" name="ISTART">     0</i>
    <i type="int" name="ICHARG">     2</i>
    <i type="int" name="INIWAV">     1</i>
   </separator>
   <separator name="electronic spin" >
    <i type="int" name="ISPIN">     2</i>
    <i type="logical" name="LNONCOLLINEAR"> F  </i>
    <v name="MAGMOM">      1.00000000      1.00000000      1.00000000      1.00000000      1.00000000      1.00000000      1.00000000      1.00000000      1.00000000      1.00000000      1.00000000      1.00000000      1.00000000      1.00000000      1.00000000      1.00000000      1.00000000      1.00000000      1.00000000      1.00000000
      1.00000000      1.00000000      1.00000000      1.00000000      1.00000000      1.00000000      1.00000000      1.00000000      1.00000000      1.00000000      1.00000000      1.00000000      1.00000000      1.00000000      1.00000000      1.00000000      1.00000000      1.00000000      1.00000000      1.00000000
      1.00000000      1.00000000      1.00000000      1.00000000      1.00000000</v>
    <i name="NUPDOWN">     -1.00000000</i>
    <i type="logical" name="LSORBIT"> F  </i>
    <v name="SAXIS">      0.00000000      0.00000000      1.00000000</v>
    <i type="logical" name="LSPIRAL"> F  </i>
    <v name="QSPIRAL">      0.00000000      0.00000000      0.00000000</v>
    <i type="logical" name="LZEROZ"> F  </i>
   </separator>
   <separator name="electronic exchange-correlation" >
    <i type="logical" name="LASPH"> F  </i>
    <i type="logical" name="LMETAGGA"> F  </i>
   </separator>
   <separator name="electronic convergence" >
    <i type="int" name="NELM">    60</i>
    <i type="int" name="NELMDL">    -5</i>
    <i type="int" name="NELMIN">     2</i>
    <i name="ENINI">    400.00000000</i>
    <separator name="electronic convergence detail" >
     <i type="logical" name="LDIAG"> T  </i>
     <i type="logical" name="LSUBROT"> F  </i>
     <i name="WEIMIN">      0.00100000</i>
     <i name="EBREAK">      0.00000016</i>
     <i name="DEPER">      0.30000000</i>
     <i type="int" name="NRMM">     4</i>
     <i name="TIME">      0.40000000</i>
    </separator>
   </separator>
   <separator name="electronic mixer" >
    <i name="AMIX">      0.40000000</i>
    <i name="BMIX">      1.00000000</i>
    <i name="AMIN">      0.10000000</i>
    <i name="AMIX_MAG">      1.60000000</i>
    <i name="BMIX_MAG">      1.00000000</i>
    <separator name="electronic mixer details" >
     <i type="int" name="IMIX">     4</i>
     <i type="logical" name="MIXFIRST"> F  </i>
     <i type="int" name="MAXMIX">   -45</i>
     <i name="WC">    100.00000000</i>
     <i type="int" name="INIMIX">     1</i>
     <i type="int" name="MIXPRE">     1</i>
     <i type="int" name="MREMOVE">     5</i>
    </separator>
   </separator>
   <separator name="electronic dipolcorrection" >
    <i type="logical" name="LDIPOL"> F  </i>
    <i type="logical" name="LMONO"> F  </i>
    <i type="int" name="IDIPOL">     3</i>
    <i name="EPSILON">      1.00000000</i>
    <v name="DIPOL">   -100.00000000   -100.00000000   -100.00000000</v>
    <i name="EFIELD">      0.00000000</i>
   </separator>
  </separator>
  <separator name="grids" >
   <i type="int" name="NGX">    40</i>
   <i type="int" name="NGY">    40</i>
   <i type="int" name="NGZ">   120</i>
   <i type="int" name="NGXF">    80</i>
   <i type="int" name="NGYF">    80</i>
   <i type="int" name="NGZF">   240</i>
   <i type="logical" name="ADDGRID"> F  </i>
  </separator>
  <separator name="ionic" >
   <i type="int" name="NSW">   800</i>
   <i type="int" name="IBRION">     2</i>
   <i type="int" name="MDALGO">     0</i>
   <i type="int" name="ISIF">     2</i>
   <i name="PSTRESS">      0.00000000</i>
   <i name="EDIFFG">     -0.03000000</i>
   <i type="int" name="NFREE">     1</i>
   <i name="POTIM">      0.50000000</i>
   <i name="SMASS">     -3.00000000</i>
   <i name="SCALEE">      1.00000000</i>
  </separator>
  <separator name="ionic md" >
   <i name="TEBEG">      0.00010000</i>
   <i name="TEEND">      0.00010000</i>
   <i type="int" name="NBLOCK">     1</i>
   <i type="int" name="KBLOCK">   800</i>
   <i type="int" name="NPACO">   256</i>
   <i name="APACO">     10.00000000</i>
  </separator>
  <separator name="symmetry" >
   <i type="int" name="ISYM">     1</i>
   <i name="SYMPREC">      0.00001000</i>
  </separator>
  <separator name="dos" >
   <i type="int" name="LORBIT">     0</i>
   <v name="RWIGS">     -1.00000000</v>
   <i type="int" name="NEDOS">   301</i>
   <i name="EMIN">     10.00000000</i>
   <i name="EMAX">    -10.00000000</i>
   <i name="EFERMI">      0.00000000</i>
  </separator>
  <separator name="writing" >
   <i type="int" name="NWRITE">     2</i>
   <i type="logical" name="LWAVE"> F  </i>
   <i type="logical" name="LDOWNSAMPLE"> F  </i>
   <i type="logical" name="LCHARG"> F  </i>
   <i type="logical" name="LPARD"> F  </i>
   <i type="logical" name="LVTOT"> F  </i>
   <i type="logical" name="LVHAR"> F  </i>
   <i type="logical" name="LELF"> F  </i>
   <i type="logical" name="LOPTICS"> F  </i>
   <v name="STM">      0.00000000      0.00000000      0.00000000      0.00000000      0.00000000      0.00000000      0.00000000</v>
  </separator>
  <separator name="performance" >
   <i type="int" name="NPAR">     4</i>
   <i type="int" name="NSIM">     4</i>
   <i type="int" name="NBLK">    -1</i>
   <i type="logical" name="LPLANE"> T  </i>
   <i type="logical" name="LSCALAPACK"> T  </i>
   <i type="logical" name="LSCAAWARE"> F  </i>
   <i type="logical" name="LSCALU"> F  </i>
   <i type="logical" name="LASYNC"> F  </i>
   <i type="logical" name="LORBITALREAL"> F  </i>
  </separator>
  <separator name="miscellaneous" >
   <i type="int" name="IDIOT">     3</i>
   <i type="int" name="PHON_NSTRUCT">    -1</i>
   <i type="logical" name="LMUSIC"> F  </i>
   <v name="POMASS">     63.54600000</v>
   <v name="DARWINR">      0.00000000</v>
   <v name="DARWINV">      1.00000000</v>
   <i type="logical" name="LCORR"> T  </i>
  </separator>
  <i type="logical" name="GGA_COMPAT"> T  </i>
  <i type="logical" name="LBERRY"> F  </i>
  <i type="int" name="ICORELEVEL">     0</i>
  <i type="logical" name="LDAU"> F  </i>
  <i type="int" name="I_CONSTRAINED_M">     0</i>
  <separator name="electronic exchange-correlation" >
   <i type="string" name="GGA">PE</i>
   <i type="int" name="VOSKOWN">     0</i>
   <i type="logical" name="LHFCALC"> F  </i>
   <i type="string" name="PRECFOCK"></i>
   <i type="logical" name="LSYMGRAD"> F  </i>
   <i type="logical" name="LHFONE"> F  </i>
   <i type="logical" name="LRHFCALC"> F  </i>
   <i type="logical" name="LTHOMAS"> F  </i>
   <i type="logical" name="LMODELHF"> F  </i>
   <i type="logical" name="LFOCKACE"> F  </i>
   <i name="ENCUT4O">     -1.00000000</i>
   <i type="int" name="EXXOEP">     0</i>
   <i type="int" name="FOURORBIT">     0</i>
   <i name="AEXX">      0.00000000</i>
   <i name="HFALPHA">      0.00000000</i>
   <i name="MCALPHA">      0.00000000</i>
   <i name="ALDAX">      1.00000000</i>
   <i name="AGGAX">      1.00000000</i>
   <i name="ALDAC">      1.00000000</i>
   <i name="AGGAC">      1.00000000</i>
   <i type="int" name="NKREDX">     1</i>
   <i type="int" name="NKREDY">     1</i>
   <i type="int" name="NKREDZ">     1</i>
   <i type="logical" name="SHIFTRED"> F  </i>
   <i type="logical" name="ODDONLY"> F  </i>
   <i type="logical" name="EVENONLY"> F  </i>
   <i type="int" name="LMAXFOCK">     0</i>
   <i type="int" name="NMAXFOCKAE">     0</i>
   <i type="logical" name="LFOCKAEDFT"> F  </i>
   <i name="HFSCREEN">      0.00000000</i>
   <i name="HFSCREENC">      0.00000000</i>
   <i type="int" name="NBANDSGWLOW">     0</i>
  </separator>
  <separator name="vdW DFT" >
   <i type="logical" name="LUSE_VDW"> F  </i>
   <i name="Zab_VDW">     -0.84910000</i>
   <i name="PARAM1">      0.12340000</i>
   <i name="PARAM2">      1.00000000</i>
   <i name="PARAM3">      0.00000000</i>
  </separator>
  <separator name="model GW" >
   <i type="int" name="MODEL_GW">     0</i>
   <i name="MODEL_EPS0">     16.01023582</i>
   <i name="MODEL_ALPHA">      1.00000000</i>
  </separator>
  <separator name="linear response parameters" >
   <i type="logical" name="LEPSILON"> F  </i>
   <i type="logical" name="LRPA"> F  </i>
   <i type="logical" name="LNABLA"> F  </i>
   <i type="logical" name="LVEL"> F  </i>
   <i name="CSHIFT">      0.10000000</i>
   <i name="OMEGAMAX">     -1.00000000</i>
   <i name="DEG_THRESHOLD">      0.00200000</i>
   <i name="RTIME">     -0.10000000</i>
   <i name="WPLASMAI">      0.00000000</i>
   <v name="DFIELD">      0.00000000      0.00000000      0.00000000</v>
   <v name="WPLASMA">      0.00000000      0.00000000      0.00000000      0.00000000      0.00000000      0.00000000      0.00000000      0.00000000      0.00000000</v>
  </separator>
  <separator name="orbital magnetization" >
   <i type="logical" name="NUCIND"> F  </i>
   <v name="MAGPOS">      0.00000000      0.00000000      0.00000000</v>
   <i type="logical" name="LNICSALL"> T  </i>
   <i type="logical" name="ORBITALMAG"> F  </i>
   <i type="logical" name="LMAGBLOCH"> F  </i>
   <i type="logical" name="LCHIMAG"> F  </i>
   <i type="logical" name="LGAUGE"> T  </i>
   <i type="int" name="MAGATOM">     0</i>
   <v name="MAGDIPOL">      0.00000000      0.00000000      0.00000000</v>
   <v name="AVECCONST">      0.00000000      0.00000000      0.00000000</v>
  </separator>
  <separator name="response functions" >
   <i type="logical" name="LFINITE_TEMPERATURE"> F  </i>
   <i type="logical" name="LADDER"> F  </i>
   <i type="logical" name="LRPAFORCE"> F  </i>
   <i type="logical" name="LFXC"> F  </i>
   <i type="logical" name="LHARTREE"> T  </i>
   <i type="int" name="IBSE">     0</i>
   <v type="int" name="KPOINT">    -1     0     0     0</v>
   <i type="logical" name="LTCTC"> F  </i>
   <i type="logical" name="LTCTE"> F  </i>
   <i type="logical" name="LTETE"> F  </i>
   <i type="logical" name="LTRIPLET"> F  </i>
   <i type="logical" name="LFXCEPS"> F  </i>
   <i type="logical" name="LFXHEG"> F  </i>
   <i type="int" name="NATURALO">     2</i>
   <i type="logical" name="LHOLEGF"> F  </i>
   <i type="logical" name="L2ORDER"> F  </i>
   <i type="logical" name="LDMP1"> F  </i>
   <i type="logical" name="LMP2LT"> F  </i>
   <i type="logical" name="LSMP2LT"> F  </i>
   <i type="logical" name="LGWLF"> F  </i>
   <i name="ENCUTGW">     -2.00000000</i>
   <i name="ENCUTGWSOFT">     -2.00000000</i>
   <i name="ENCUTLF">     -1.00000000</i>
   <i type="logical" name="LESF_SPLINES"> F  </i>
   <i type="int" name="LMAXMP2">    -1</i>
   <i name="SCISSOR">      0.00000000</i>
   <i type="int" name="NOMEGA">     0</i>
   <i type="int" name="NOMEGAR">     0</i>
   <i type="int" name="NBANDSGW">    -1</i>
   <i type="int" name="NBANDSO">    -1</i>
   <i type="int" name="NBANDSV">    -1</i>
   <i type="int" name="NELMGW">     1</i>
   <i type="int" name="NELMHF">     1</i>
   <i type="int" name="DIM">     3</i>
   <i type="int" name="IESPILON">     4</i>
   <i type="int" name="ANTIRES">     0</i>
   <i name="OMEGAMAX">    -30.00000000</i>
   <i name="OMEGAMIN">    -30.00000000</i>
   <i name="OMEGATL">   -200.00000000</i>
   <i type="int" name="OMEGAGRID">     0</i>
   <i name="CSHIFT">     -0.10000000</i>
   <i type="logical" name="LSELFENERGY"> F  </i>
   <i type="logical" name="LSPECTRAL"> F  </i>
   <i type="logical" name="LSPECTRALGW"> F  </i>
   <i type="logical" name="LSINGLES"> F  </i>
   <i type="logical" name="LFERMIGW"> F  </i>
   <i type="logical" name="ODDONLYGW"> F  </i>
   <i type="logical" name="EVENONLYGW"> F  </i>
   <i type="int" name="NKREDLFX">     1</i>
   <i type="int" name="NKREDLFY">     1</i>
   <i type="int" name="NKREDLFZ">     1</i>
   <i type="int" name="MAXMEM">  2800</i>
   <i type="int" name="TELESCOPE">     0</i>
   <i type="int" name="NTAUPAR">    -1</i>
   <i type="int" name="NOMEGAPAR">    -1</i>
   <i name="DAMP_NEWTON">      0.80000001</i>
   <i name="LAMBDA">      1.00000000</i>
  </separator>
  <separator name="External order field" >
   <i name="OFIELD_KAPPA">      0.00000000</i>
   <v name="OFIELD_K">      0.00000000      0.00000000      0.00000000</v>
   <i name="OFIELD_Q6_NEAR">      0.00000000</i>
   <i name="OFIELD_Q6_FAR">      0.00000000</i>
   <i name="OFIELD_A">      0.00000000</i>
  </separator>
  <separator name="optional k-points parameters" >
   <i type="int" name="KPOINTS_OPT_MODE">     1</i>
   <i type="logical" name="LKPOINTS_OPT"> F  </i>
  </separator>
 </parameters>
 <atominfo>
  <atoms>      45 </atoms>
  <types>       1 </types>
  <array name="atoms" >
   <dimension dim="1">ion</dimension>
   <field type="string">element</field>
   <field type="int">atomtype</field>
   <set>
    <rc><c>Cu</c><c>   1</c></rc>
    <rc><c>Cu</c><c>   1</c></rc>
    <rc><c>Cu</c><c>   1</c></rc>
    <rc><c>Cu</c><c>   1</c></rc>
    <rc><c>Cu</c><c>   1</c></rc>
    <rc><c>Cu</c><c>   1</c></rc>
    <rc><c>Cu</c><c>   1</c></rc>
    <rc><c>Cu</c><c>   1</c></rc>
    <rc><c>Cu</c><c>   1</c></rc>
    <rc><c>Cu</c><c>   1</c></rc>
    <rc><c>Cu</c><c>   1</c></rc>
    <rc><c>Cu</c><c>   1</c></rc>
    <rc><c>Cu</c><c>   1</c></rc>
    <rc><c>Cu</c><c>   1</c></rc>
    <rc><c>Cu</c><c>   1</c></rc>
    <rc><c>Cu</c><c>   1</c></rc>
    <rc><c>Cu</c><c>   1</c></rc>
    <rc><c>Cu</c><c>   1</c></rc>
    <rc><c>Cu</c><c>   1</c></rc>
    <rc><c>Cu</c><c>   1</c></rc>
    <rc><c>Cu</c><c>   1</c></rc>
    <rc><c>Cu</c><c>   1</c></rc>
    <rc><c>Cu</c><c>   1</c></rc>
    <rc><c>Cu</c><c>   1</c></rc>
    <rc><c>Cu</c><c>   1</c></rc>
    <rc><c>Cu</c><c>   1</c></rc>
    <rc><c>Cu</c><c>   1</c></rc>
    <rc><c>Cu</c><c>   1</c></rc>
    <rc><c>Cu</c><c>   1</c></rc>
    <rc><c>Cu</c><c>   1</c></rc>
    <rc><c>Cu</c><c>   1</c></rc>
    <rc><c>Cu</c><c>   1</c></rc>
    <rc><c>Cu</c><c>   1</c></rc>
    <rc><c>Cu</c><c>   1</c></rc>
    <rc><c>Cu</c><c>   1</c></rc>
    <rc><c>Cu</c><c>   1</c></rc>
    <rc><c>Cu</c><c>   1</c></rc>
    <rc><c>Cu</c><c>   1</c></rc>
    <rc><c>Cu</c><c>   1</c></rc>
    <rc><c>Cu</c><c>   1</c></rc>
    <rc><c>Cu</c><c>   1</c></rc>
    <rc><c>Cu</c><c>   1</c></rc>
    <rc><c>Cu</c><c>   1</c></rc>
    <rc><c>Cu</c><c>   1</c></rc>
    <rc><c>Cu</c><c>   1</c></rc>
   </set>
  </array>
  <array name="atomtypes" >
   <dimension dim="1">type</dimension>
   <field type="int">atomspertype</field>
   <field type="string">element</field>
   <field>mass</field>
   <field>valence</field>
   <field type="string">pseudopotential</field>
   <set>
    <rc><c>  45</c><c>Cu</c><c>     63.54600000</c><c>     11.00000000</c><c>  PAW_PBE Cu 22Jun2005                  </c></rc>
   </set>
  </array>
 </atominfo>
 <structure name="initialpos" >
  <crystal>
   <varray name="basis" >
    <v>       7.70039320       0.00000000       0.00000000 </v>
    <v>       3.85019660       6.66873613       0.00000000 </v>
    <v>       0.00000000       0.00000000      23.38312531 </v>
   </varray>
   <i name="volume">   1200.76768671 </i>
   <varray name="rec_basis" >
    <v>       0.12986350      -0.07497673       0.00000000 </v>
    <v>       0.00000000       0.14995345       0.00000000 </v>
    <v>       0.00000000       0.00000000       0.04276588 </v>
   </varray>
  </crystal>
  <varray name="positions" >
   <v>       0.00000000       0.00000000       0.00000000 </v>
   <v>       0.00000000       0.33333333       0.00000000 </v>
   <v>       1.00000000       0.66666667       0.00000000 </v>
   <v>       0.33333333       0.00000000       0.00000000 </v>
   <v>       0.33333333       0.33333333       0.00000000 </v>
   <v>       0.33333333       0.66666667       0.00000000 </v>
   <v>       0.66666667       0.00000000       0.00000000 </v>
   <v>       0.66666667       0.33333333       0.00000000 </v>
   <v>       0.66666667       0.66666667       0.00000000 </v>
   <v>       0.11111111       0.11111111       0.08962794 </v>
   <v>       0.11111111       0.44444444       0.08962794 </v>
   <v>       0.11111111       0.77777778       0.08962794 </v>
   <v>       0.44444444       0.11111111       0.08962794 </v>
   <v>       0.44444444       0.44444444       0.08962794 </v>
   <v>       0.44444444       0.77777778       0.08962794 </v>
   <v>       0.77777778       0.11111111       0.08962794 </v>
   <v>       0.77777778       0.44444444       0.08962794 </v>
   <v>       0.77777778       0.77777778       0.08962794 </v>
   <v>       0.22222222       0.22222222       0.17925589 </v>
   <v>       0.22222222       0.55555556       0.17925589 </v>
   <v>       0.22222222       0.88888889       0.17925589 </v>
   <v>       0.55555556       0.22222222       0.17925589 </v>
   <v>       0.55555556       0.55555556       0.17925589 </v>
   <v>       0.55555556       0.88888889       0.17925589 </v>
   <v>       0.88888889       0.22222222       0.17925589 </v>
   <v>       0.88888889       0.55555556       0.17925589 </v>
   <v>       0.88888889       0.88888889       0.17925589 </v>
   <v>       0.00000000       0.00000000       0.26888383 </v>
   <v>       0.00000000       0.33333333       0.26888383 </v>
   <v>       1.00000000       0.66666667       0.26888383 </v>
   <v>       0.33333333       0.00000000       0.26888383 </v>
   <v>       0.33333333       0.33333333       0.26888383 </v>
   <v>       0.33333333       0.66666667       0.26888383 </v>
   <v>       0.66666667       0.00000000       0.26888383 </v>
   <v>       0.66666667       0.33333333       0.26888383 </v>
   <v>       0.66666667       0.66666667       0.26888383 </v>
   <v>       0.11111111       0.11111111       0.35851178 </v>
   <v>       0.11111111       0.44444444       0.35851178 </v>
   <v>       0.11111111       0.77777778       0.35851178 </v>
   <v>       0.44444444       0.11111111       0.35851178 </v>
   <v>       0.44444444       0.44444444       0.35851178 </v>
   <v>       0.44444444       0.77777778       0.35851178 </v>
   <v>       0.77777778       0.11111111       0.35851178 </v>
   <v>       0.77777778       0.44444444       0.35851178 </v>
   <v>       0.77777778       0.77777778       0.35851178 </v>
  </varray>
  <varray name="selective"  type="logical" >
   <v type="logical" >  F  F  F </v>
   <v type="logical" >  F  F  F </v>
   <v type="logical" >  F  F  F </v>
   <v type="logical" >  F  F  F </v>
   <v type="logical" >  F  F  F </v>
   <v type="logical" >  F  F  F </v>
   <v type="logical" >  F  F  F </v>
   <v type="logical" >  F  F  F </v>
   <v type="logical" >  F  F  F </v>
   <v type="logical" >  F  F  F </v>
   <v type="logical" >  F  F  F </v>
   <v type="logical" >  F  F  F </v>
   <v type="logical" >  F  F  F </v>
   <v type="logical" >  F  F  F </v>
   <v type="logical" >  F  F  F </v>
   <v type="logical" >  F  F  F </v>
   <v type="logical" >  F  F  F </v>
   <v type="logical" >  F  F  F </v>
   <v type="logical" >  T  T  T </v>
   <v type="logical" >  T  T  T </v>
   <v type="logical" >  T  T  T </v>
   <v type="logical" >  T  T  T </v>
   <v type="logical" >  T  T  T </v>
   <v type="logical" >  T  T  T </v>
   <v type="logical" >  T  T  T </v>
   <v type="logical" >  T  T  T </v>
   <v type="logical" >  T  T  T </v>
   <v type="logical" >  T  T  T </v>
   <v type="logical" >  T  T  T </v>
   <v type="logical" >  T  T  T </v>
   <v type="logical" >  T  T  T </v>
   <v type="logical" >  T  T  T </v>
   <v type="logical" >  T  T  T </v>
   <v type="logical" >  T  T  T </v>
   <v type="logical" >  T  T  T </v>
   <v type="logical" >  T  T  T </v>
   <v type="logical" >  T  T  T </v>
   <v type="logical" >  T  T  T </v>
   <v type="logical" >  T  T  T </v>
   <v type="logical" >  T  T  T </v>
   <v type="logical" >  T  T  T </v>
   <v type="logical" >  T  T  T </v>
   <v type="logical" >  T  T  T </v>
   <v type="logical" >  T  T  T </v>
   <v type="logical" >  T  T  T </v>
  </varray>
  <nose>
   <v>      -3.00000000       0.00000000       0.00010000       0.00010000 </v>
  </nose>
 </structure>
 <calculation>
  <scstep>
   <time name="dav">   13.36   13.46</time>
   <time name="total">   13.48   13.59</time>
   <energy>
    <i name="alphaZ">   1233.32705512 </i>
    <i name="ewald"> 215048.87522352 </i>
    <i name="hartreedc">-275865.67011647 </i>
    <i name="XCdc">   2055.18804577 </i>
    <i name="pawpsdc">  55264.38732220 </i>
    <i name="pawaedc"> -60026.44191862 </i>
    <i name="eentropy">     -0.00952231 </i>
    <i name="bandstr">   4315.88996769 </i>
    <i name="atom">  62593.09380899 </i>
    <i name="e_fr_energy">   4618.63986590 </i>
    <i name="e_wo_entrp">   4618.64938821 </i>
    <i name="e_0_energy">   4618.64304000 </i>
   </energy>
  </scstep>
  <scstep>
   <time name="dav">   13.14   13.25</time>
   <time name="total">   13.15   13.25</time>
   <energy>
    <i name="e_fr_energy">    562.82187449 </i>
    <i name="e_wo_entrp">    562.80004712 </i>
    <i name="e_0_energy">    562.81459870 </i>
   </energy>
  </scstep>
  <scstep>
   <time name="dav">   13.19   13.29</time>
   <time name="total">   13.19   13.30</time>
   <energy>
    <i name="e_fr_energy">   -139.05251406 </i>
    <i name="e_wo_entrp">   -139.09463235 </i>
    <i name="e_0_energy">   -139.06655349 </i>
   </energy>
  </scstep>
  <scstep>
   <time name="dav">   14.30   14.41</time>
   <time name="total">   14.30   14.41</time>
   <energy>
    <i name="e_fr_energy">   -188.49087527 </i>
    <i name="e_wo_entrp">   -188.52194624 </i>
    <i name="e_0_energy">   -188.50123226 </i>
   </energy>
  </scstep>
  <scstep>
   <time name="dav">   14.37   14.48</time>
   <time name="total">   15.37   15.48</time>
   <energy>
    <i name="e_fr_energy">   -189.66708724 </i>
    <i name="e_wo_entrp">   -189.69885815 </i>
    <i name="e_0_energy">   -189.67767754 </i>
   </energy>
  </scstep>
  <scstep>
   <time name="dav">   13.95   14.05</time>
   <time name="total">   15.05   15.16</time>
   <energy>
    <i name="e_fr_energy">   -157.61012115 </i>
    <i name="e_wo_entrp">   -157.59362845 </i>
    <i name="e_0_energy">   -157.60462358 </i>
   </energy>
  </scstep>
  <scstep>
   <time name="dav">   14.04   14.15</time>
   <time name="total">   15.14   15.25</time>
   <energy>
    <i name="e_fr_energy">   -133.52739129 </i>
    <i name="e_wo_entrp">   -133.56548275 </i>
    <i name="e_0_energy">   -133.54008844 </i>
   </energy>
  </scstep>
  <scstep>
   <time name="dav">   15.15   15.26</time>
   <time name="total">   16.25   16.37</time>
   <energy>
    <i name="e_fr_energy">   -128.97942147 </i>
    <i name="e_wo_entrp">   -128.97679404 </i>
    <i name="e_0_energy">   -128.97854566 </i>
   </energy>
  </scstep>
  <scstep>
   <time name="dav">   15.00   15.11</time>
   <time name="total">   16.09   16.21</time>
   <energy>
    <i name="e_fr_energy">   -129.11775529 </i>
    <i name="e_wo_entrp">   -129.11821049 </i>
    <i name="e_0_energy">   -129.11790702 </i>
   </energy>
  </scstep>
  <scstep>
   <time name="dav">   19.60   19.75</time>
   <time name="total">   20.71   20.87</time>
   <energy>
    <i name="e_fr_energy">   -132.22482559 </i>
    <i name="e_wo_entrp">   -132.20883008 </i>
    <i name="e_0_energy">   -132.21949375 </i>
   </energy>
  </scstep>
  <scstep>
   <time name="dav">   16.95   17.07</time>
   <time name="total">   18.06   18.19</time>
   <energy>
    <i name="e_fr_energy">   -133.98824798 </i>
    <i name="e_wo_entrp">   -133.99525929 </i>
    <i name="e_0_energy">   -133.99058508 </i>
   </energy>
  </scstep>
  <scstep>
   <time name="dav">   15.45   15.57</time>
   <time name="total">   16.56   16.69</time>
   <energy>
    <i name="e_fr_energy">   -139.91322829 </i>
    <i name="e_wo_entrp">   -139.94801754 </i>
    <i name="e_0_energy">   -139.92482471 </i>
   </energy>
  </scstep>
  <scstep>
   <time name="dav">   17.54   17.68</time>
   <time name="total">   18.63   18.77</time>
   <energy>
    <i name="e_fr_energy">   -149.93005087 </i>
    <i name="e_wo_entrp">   -149.90929892 </i>
    <i name="e_0_energy">   -149.92313356 </i>
   </energy>
  </scstep>
  <scstep>
   <time name="dav">   16.43   16.55</time>
   <time name="total">   17.55   17.68</time>
   <energy>
    <i name="e_fr_energy">   -152.04962880 </i>
    <i name="e_wo_entrp">   -152.03257562 </i>
    <i name="e_0_energy">   -152.04394441 </i>
   </energy>
  </scstep>
  <scstep>
   <time name="dav">   14.66   14.77</time>
   <time name="total">   15.77   15.89</time>
   <energy>
    <i name="e_fr_energy">   -153.96171570 </i>
    <i name="e_wo_entrp">   -153.92510993 </i>
    <i name="e_0_energy">   -153.94951378 </i>
   </energy>
  </scstep>
  <scstep>
   <time name="dav">   14.60   14.71</time>
   <time name="total">   15.69   15.81</time>
   <energy>
    <i name="e_fr_energy">   -156.05784006 </i>
    <i name="e_wo_entrp">   -155.96651736 </i>
    <i name="e_0_energy">   -156.02739916 </i>
   </energy>
  </scstep>
  <scstep>
   <time name="dav">   14.93   15.05</time>
   <time name="total">   16.02   16.14</time>
   <energy>
    <i name="e_fr_energy">   -156.17651678 </i>
    <i name="e_wo_entrp">   -156.07378421 </i>
    <i name="e_0_energy">   -156.14227259 </i>
   </energy>
  </scstep>
  <scstep>
   <time name="dav">   14.96   15.07</time>
   <time name="total">   16.04   16.16</time>
   <energy>
    <i name="e_fr_energy">   -156.90223040 </i>
    <i name="e_wo_entrp">   -156.80164406 </i>
    <i name="e_0_energy">   -156.86870162 </i>
   </energy>
  </scstep>
  <scstep>
   <time name="dav">   15.73   15.84</time>
   <time name="total">   16.83   16.96</time>
   <energy>
    <i name="e_fr_energy">   -157.15229061 </i>
    <i name="e_wo_entrp">   -157.04949806 </i>
    <i name="e_0_energy">   -157.11802643 </i>
   </energy>
  </scstep>
  <scstep>
   <time name="dav">   16.73   16.85</time>
   <time name="total">   17.82   17.95</time>
   <energy>
    <i name="e_fr_energy">   -157.68044420 </i>
    <i name="e_wo_entrp">   -157.57526499 </i>
    <i name="e_0_energy">   -157.64538446 </i>
   </energy>
  </scstep>
  <scstep>
   <time name="dav">   15.92   16.04</time>
   <time name="total">   17.03   17.16</time>
   <energy>
    <i name="e_fr_energy">   -158.30669065 </i>
    <i name="e_wo_entrp">   -158.20177766 </i>
    <i name="e_0_energy">   -158.27171966 </i>
   </energy>
  </scstep>
  <scstep>
   <time name="dav">   15.10   15.21</time>
   <time name="total">   16.22   16.34</time>
   <energy>
    <i name="e_fr_energy">   -159.11924679 </i>
    <i name="e_wo_entrp">   -159.01475107 </i>
    <i name="e_0_energy">   -159.08441488 </i>
   </energy>
  </scstep>
  <scstep>
   <time name="dav">   14.66   14.78</time>
   <time name="total">   15.75   15.87</time>
   <energy>
    <i name="e_fr_energy">   -159.37576107 </i>
    <i name="e_wo_entrp">   -159.27069107 </i>
    <i name="e_0_energy">   -159.34073774 </i>
   </energy>
  </scstep>
  <scstep>
   <time name="dav">   14.09   14.20</time>
   <time name="total">   15.20   15.31</time>
   <energy>
    <i name="e_fr_energy">   -159.42757219 </i>
    <i name="e_wo_entrp">   -159.32239118 </i>
    <i name="e_0_energy">   -159.39251185 </i>
   </energy>
  </scstep>
  <scstep>
   <time name="dav">   12.05   12.14</time>
   <time name="total">   13.14   13.23</time>
   <energy>
    <i name="e_fr_energy">   -159.45961660 </i>
    <i name="e_wo_entrp">   -159.35457848 </i>
    <i name="e_0_energy">   -159.42460390 </i>
   </energy>
  </scstep>
  <scstep>
   <time name="dav">   10.34   10.42</time>
   <time name="total">   11.46   11.54</time>
   <energy>
    <i name="e_fr_energy">   -159.46763323 </i>
    <i name="e_wo_entrp">   -159.36249353 </i>
    <i name="e_0_energy">   -159.43258666 </i>
   </energy>
  </scstep>
  <scstep>
   <time name="dav">   10.02   10.10</time>
   <time name="total">   11.12   11.19</time>
   <energy>
    <i name="e_fr_energy">   -159.47190000 </i>
    <i name="e_wo_entrp">   -159.36678671 </i>
    <i name="e_0_energy">   -159.43686224 </i>
   </energy>
  </scstep>
  <scstep>
   <time name="dav">    9.64    9.71</time>
   <time name="total">   10.75   10.82</time>
   <energy>
    <i name="e_fr_energy">   -159.47221153 </i>
    <i name="e_wo_entrp">   -159.36708995 </i>
    <i name="e_0_energy">   -159.43717100 </i>
   </energy>
  </scstep>
  <scstep>
   <time name="dav">    9.55    9.63</time>
   <time name="total">    9.67    9.74</time>
   <energy>
    <i name="alphaZ">   1233.32705512 </i>
    <i name="ewald"> 215048.87522352 </i>
    <i name="hartreedc">-275125.95587444 </i>
    <i name="XCdc">   2003.98053546 </i>
    <i name="pawpsdc">  58636.56997910 </i>
    <i name="pawaedc"> -63479.46627429 </i>
    <i name="eentropy">     -0.10512127 </i>
    <i name="bandstr">  -1069.79166260 </i>
    <i name="atom">  62593.09380899 </i>
    <i name="e_fr_energy">   -159.47233040 </i>
    <i name="e_wo_entrp">   -159.36720913 </i>
    <i name="e_0_energy">   -159.43728998 </i>
   </energy>
  </scstep>
  <dipole>
   <v name="dipole">      0.00000000       0.00000000       0.02333800 </v>
   <i name="Tr[quadrupol]">  -4775.53249768 </i>
   <i name="Echarged">      0.00000000 </i>
   <i name="Edipol_quadrupol">      0.00000000 </i>
   <i name="Eion">      0.00000000 </i>
  </dipole>
  <structure>
   <crystal>
    <varray name="basis" >
     <v>       7.70039320       0.00000000       0.00000000 </v>
     <v>       3.85019660       6.66873613       0.00000000 </v>
     <v>       0.00000000       0.00000000      23.38312531 </v>
    </varray>
    <i name="volume">   1200.76768671 </i>
    <varray name="rec_basis" >
     <v>       0.12986350      -0.07497673       0.00000000 </v>
     <v>       0.00000000       0.14995345       0.00000000 </v>
     <v>       0.00000000       0.00000000       0.04276588 </v>
    </varray>
   </crystal>
   <varray name="positions" >
    <v>       0.00000000       0.00000000       0.00000000 </v>
    <v>       0.00000000       0.33333333       0.00000000 </v>
    <v>       1.00000000       0.66666667       0.00000000 </v>
    <v>       0.33333333       0.00000000       0.00000000 </v>
    <v>       0.33333333       0.33333333       0.00000000 </v>
    <v>       0.33333333       0.66666667       0.00000000 </v>
    <v>       0.66666667       0.00000000       0.00000000 </v>
    <v>       0.66666667       0.33333333       0.00000000 </v>
    <v>       0.66666667       0.66666667       0.00000000 </v>
    <v>       0.11111111       0.11111111       0.08962794 </v>
    <v>       0.11111111       0.44444444       0.08962794 </v>
    <v>       0.11111111       0.77777778       0.08962794 </v>
    <v>       0.44444444       0.11111111       0.08962794 </v>
    <v>       0.44444444       0.44444444       0.08962794 </v>
    <v>       0.44444444       0.77777778       0.08962794 </v>
    <v>       0.77777778       0.11111111       0.08962794 </v>
    <v>       0.77777778       0.44444444       0.08962794 </v>
    <v>       0.77777778       0.77777778       0.08962794 </v>
    <v>       0.22222222       0.22222222       0.17925589 </v>
    <v>       0.22222222       0.55555556       0.17925589 </v>
    <v>       0.22222222       0.88888889       0.17925589 </v>
    <v>       0.55555556       0.22222222       0.17925589 </v>
    <v>       0.55555556       0.55555556       0.17925589 </v>
    <v>       0.55555556       0.88888889       0.17925589 </v>
    <v>       0.88888889       0.22222222       0.17925589 </v>
    <v>       0.88888889       0.55555556       0.17925589 </v>
    <v>       0.88888889       0.88888889       0.17925589 </v>
    <v>       0.00000000       0.00000000       0.26888383 </v>
    <v>       0.00000000       0.33333333       0.26888383 </v>
    <v>       1.00000000       0.66666667       0.26888383 </v>
    <v>       0.33333333       0.00000000       0.26888383 </v>
    <v>       0.33333333       0.33333333       0.26888383 </v>
    <v>       0.33333333       0.66666667       0.26888383 </v>
    <v>       0.66666667       0.00000000       0.26888383 </v>
    <v>       0.66666667       0.33333333       0.26888383 </v>
    <v>       0.66666667       0.66666667       0.26888383 </v>
    <v>       0.11111111       0.11111111       0.35851178 </v>
    <v>       0.11111111       0.44444444       0.35851178 </v>
    <v>       0.11111111       0.77777778       0.35851178 </v>
    <v>       0.44444444       0.11111111       0.35851178 </v>
    <v>       0.44444444       0.44444444       0.35851178 </v>
    <v>       0.44444444       0.77777778       0.35851178 </v>
    <v>       0.77777778       0.11111111       0.35851178 </v>
    <v>       0.77777778       0.44444444       0.35851178 </v>
    <v>       0.77777778       0.77777778       0.35851178 </v>
   </varray>
  </structure>
  <varray name="forces" >
   <v>      -0.00000000      -0.00000000       0.16068176 </v>
   <v>      -0.00000000       0.00000000       0.16068176 </v>
   <v>      -0.00000000       0.00000000       0.16068176 </v>
   <v>       0.00000000       0.00000000       0.16068176 </v>
   <v>       0.00000000       0.00000000       0.16068176 </v>
   <v>       0.00000000      -0.00000000       0.16068176 </v>
   <v>      -0.00000000       0.00000000       0.16068176 </v>
   <v>      -0.00000000      -0.00000000       0.16068176 </v>
   <v>       0.00000000       0.00000000       0.16068176 </v>
   <v>       0.00000000       0.00000000       0.04769915 </v>
   <v>       0.00000000       0.00000000       0.04769915 </v>
   <v>       0.00000000       0.00000000       0.04769915 </v>
   <v>      -0.00000000       0.00000000       0.04769915 </v>
   <v>       0.00000000       0.00000000       0.04769915 </v>
   <v>       0.00000000       0.00000000       0.04769915 </v>
   <v>       0.00000000       0.00000000       0.04769915 </v>
   <v>       0.00000000       0.00000000       0.04769915 </v>
   <v>       0.00000000       0.00000000       0.04769915 </v>
   <v>       0.00000000      -0.00000000       0.00075056 </v>
   <v>       0.00000000      -0.00000000       0.00075056 </v>
   <v>       0.00000000      -0.00000000       0.00075056 </v>
   <v>       0.00000000       0.00000000       0.00075056 </v>
   <v>       0.00000000       0.00000000       0.00075056 </v>
   <v>       0.00000000      -0.00000000       0.00075056 </v>
   <v>       0.00000000      -0.00000000       0.00075056 </v>
   <v>      -0.00000000      -0.00000000       0.00075056 </v>
   <v>       0.00000000       0.00000000       0.00075056 </v>
   <v>      -0.00000000      -0.00000000      -0.04952043 </v>
   <v>      -0.00000000      -0.00000000      -0.04952043 </v>
   <v>       0.00000000      -0.00000000      -0.04952043 </v>
   <v>      -0.00000000      -0.00000000      -0.04952043 </v>
   <v>      -0.00000000      -0.00000000      -0.04952043 </v>
   <v>      -0.00000000       0.00000000      -0.04952043 </v>
   <v>      -0.00000000      -0.00000000      -0.04952043 </v>
   <v>      -0.00000000      -0.00000000      -0.04952043 </v>
   <v>      -0.00000000      -0.00000000      -0.04952043 </v>
   <v>      -0.00000000       0.00000000      -0.15961105 </v>
   <v>      -0.00000000       0.00000000      -0.15961105 </v>
   <v>       0.00000000      -0.00000000      -0.15961105 </v>
   <v>      -0.00000000      -0.00000000      -0.15961105 </v>
   <v>       0.00000000       0.00000000      -0.15961105 </v>
   <v>       0.00000000       0.00000000      -0.15961105 </v>
   <v>      -0.00000000       0.00000000      -0.15961105 </v>
   <v>      -0.00000000       0.00000000      -0.15961105 </v>
   <v>       0.00000000      -0.00000000      -0.15961105 </v>
  </varray>
  <varray name="stress" >
   <v>     -45.77311486      -0.00000000       0.00000000 </v>
   <v>      -0.00000000     -45.77311486      -0.00000000 </v>
   <v>      -0.00000000      -0.00000000     -22.90159887 </v>
  </varray>
  <energy>
   <i name="e_fr_energy">   -176.26856723 </i>
   <i name="e_wo_entrp">   -176.16344597 </i>
   <i name="e_0_energy">   -176.23352681 </i>
  </energy>
  <time name="totalsc">  471.00  474.52</time>
 </calculation>
 <calculation>
  <scstep>
   <time name="dav">   14.61   14.73</time>
   <time name="total">   15.71   15.84</time>
   <energy>
    <i name="alphaZ">   1233.32705512 </i>
    <i name="ewald"> 215387.03810719 </i>
    <i name="hartreedc">-275463.04973992 </i>
    <i name="XCdc">   2004.08119200 </i>
    <i name="pawpsdc">  58635.99089281 </i>
    <i name="pawaedc"> -63478.85669139 </i>
    <i name="eentropy">     -0.10627003 </i>
    <i name="bandstr">  -1070.98570238 </i>
    <i name="atom">  62593.09380899 </i>
    <i name="e_fr_energy">   -159.46734760 </i>
    <i name="e_wo_entrp">   -159.36107757 </i>
    <i name="e_0_energy">   -159.43192426 </i>
   </energy>
  </scstep>
  <scstep>
   <time name="dav">   17.94   18.07</time>
   <time name="total">   19.03   19.17</time>
   <energy>
    <i name="e_fr_energy">   -159.47281932 </i>
    <i name="e_wo_entrp">   -159.36614849 </i>
    <i name="e_0_energy">   -159.43726238 </i>
   </energy>
  </scstep>
  <scstep>
   <time name="dav">   13.78   13.89</time>
   <time name="total">   14.89   15.00</time>
   <energy>
    <i name="e_fr_energy">   -159.47269164 </i>
    <i name="e_wo_entrp">   -159.36635000 </i>
    <i name="e_0_energy">   -159.43724443 </i>
   </energy>
  </scstep>
  <scstep>
   <time name="dav">   12.35   12.44</time>
   <time name="total">   12.46   12.56</time>
   <energy>
    <i name="alphaZ">   1233.32705512 </i>
    <i name="ewald"> 215387.03810719 </i>
    <i name="hartreedc">-275462.52287680 </i>
    <i name="XCdc">   2004.04663911 </i>
    <i name="pawpsdc">  58641.54238304 </i>
    <i name="pawaedc"> -63484.31381011 </i>
    <i name="eentropy">     -0.10628987 </i>
    <i name="bandstr">  -1071.57768358 </i>
    <i name="atom">  62593.09380899 </i>
    <i name="e_fr_energy">   -159.47266691 </i>
    <i name="e_wo_entrp">   -159.36637704 </i>
    <i name="e_0_energy">   -159.43723696 </i>
   </energy>
  </scstep>
  <dipole>
   <v name="dipole">      0.00000000       0.00000000      -0.00179677 </v>
   <i name="Tr[quadrupol]">  -4775.49732954 </i>
   <i name="Echarged">      0.00000000 </i>
   <i name="Edipol_quadrupol">      0.00000000 </i>
   <i name="Eion">      0.00000000 </i>
  </dipole>
  <structure>
   <crystal>
    <varray name="basis" >
     <v>       7.70039320       0.00000000       0.00000000 </v>
     <v>       3.85019660       6.66873613       0.00000000 </v>
     <v>       0.00000000       0.00000000      23.38312531 </v>
    </varray>
    <i name="volume">   1200.76768671 </i>
    <varray name="rec_basis" >
     <v>       0.12986350      -0.07497673       0.00000000 </v>
     <v>       0.00000000       0.14995345       0.00000000 </v>
     <v>       0.00000000       0.00000000       0.04276588 </v>
    </varray>
   </crystal>
   <varray name="positions" >
    <v>       0.00000000       0.00000000       0.00000000 </v>
    <v>       0.00000000       0.33333333       0.00000000 </v>
    <v>       1.00000000       0.66666667       0.00000000 </v>
    <v>       0.33333333       0.00000000       0.00000000 </v>
    <v>       0.33333333       0.33333333       0.00000000 </v>
    <v>       0.33333333       0.66666667       0.00000000 </v>
    <v>       0.66666667       0.00000000       0.00000000 </v>
    <v>       0.66666667       0.33333333       0.00000000 </v>
    <v>       0.66666667       0.66666667       0.00000000 </v>
    <v>       0.11111111       0.11111111       0.08962794 </v>
    <v>       0.11111111       0.44444444       0.08962794 </v>
    <v>       0.11111111       0.77777778       0.08962794 </v>
    <v>       0.44444444       0.11111111       0.08962794 </v>
    <v>       0.44444444       0.44444444       0.08962794 </v>
    <v>       0.44444444       0.77777778       0.08962794 </v>
    <v>       0.77777778       0.11111111       0.08962794 </v>
    <v>       0.77777778       0.44444444       0.08962794 </v>
    <v>       0.77777778       0.77777778       0.08962794 </v>
    <v>       0.22222222       0.22222222       0.17925744 </v>
    <v>       0.22222222       0.55555556       0.17925744 </v>
    <v>       0.22222222       0.88888889       0.17925744 </v>
    <v>       0.55555556       0.22222222       0.17925744 </v>
    <v>       0.55555556       0.55555556       0.17925744 </v>
    <v>       0.55555556       0.88888889       0.17925744 </v>
    <v>       0.88888889       0.22222222       0.17925744 </v>
    <v>       0.88888889       0.55555556       0.17925744 </v>
    <v>       0.88888889       0.88888889       0.17925744 </v>
    <v>       0.00000000      -0.00000000       0.26878167 </v>
    <v>       0.00000000       0.33333333       0.26878167 </v>
    <v>       1.00000000       0.66666667       0.26878167 </v>
    <v>       0.33333333      -0.00000000       0.26878167 </v>
    <v>       0.33333333       0.33333333       0.26878167 </v>
    <v>       0.33333333       0.66666667       0.26878167 </v>
    <v>       0.66666667      -0.00000000       0.26878167 </v>
    <v>       0.66666667       0.33333333       0.26878167 </v>
    <v>       0.66666667       0.66666667       0.26878167 </v>
    <v>       0.11111111       0.11111111       0.35818248 </v>
    <v>       0.11111111       0.44444444       0.35818248 </v>
    <v>       0.11111111       0.77777778       0.35818248 </v>
    <v>       0.44444444       0.11111111       0.35818248 </v>
    <v>       0.44444444       0.44444444       0.35818248 </v>
    <v>       0.44444444       0.77777778       0.35818248 </v>
    <v>       0.77777778       0.11111111       0.35818248 </v>
    <v>       0.77777778       0.44444444       0.35818248 </v>
    <v>       0.77777778       0.77777778       0.35818248 </v>
   </varray>
  </structure>
  <varray name="forces" >
   <v>       0.00000000      -0.00000000       0.15969563 </v>
   <v>      -0.00000000      -0.00000000       0.15969563 </v>
   <v>      -0.00000000      -0.00000000       0.15969563 </v>
   <v>      -0.00000000      -0.00000000       0.15969563 </v>
   <v>      -0.00000000      -0.00000000       0.15969563 </v>
   <v>       0.00000000      -0.00000000       0.15969563 </v>
   <v>       0.00000000      -0.00000000       0.15969563 </v>
   <v>      -0.00000000      -0.00000000       0.15969563 </v>
   <v>      -0.00000000      -0.00000000       0.15969563 </v>
   <v>       0.00000000      -0.00000000       0.04469715 </v>
   <v>       0.00000000       0.00000000       0.04469715 </v>
   <v>       0.00000000       0.00000000       0.04469715 </v>
   <v>      -0.00000000       0.00000000       0.04469715 </v>
   <v>      -0.00000000       0.00000000       0.04469715 </v>
   <v>      -0.00000000       0.00000000       0.04469715 </v>
   <v>      -0.00000000      -0.00000000       0.04469715 </v>
   <v>       0.00000000      -0.00000000       0.04469715 </v>
   <v>      -0.00000000       0.00000000       0.04469715 </v>
   <v>       0.00000000       0.00000000      -0.01308368 </v>
   <v>      -0.00000000      -0.00000000      -0.01308368 </v>
   <v>      -0.00000000      -0.00000000      -0.01308368 </v>
   <v>      -0.00000000      -0.00000000      -0.01308368 </v>
   <v>      -0.00000000      -0.00000000      -0.01308368 </v>
   <v>      -0.00000000      -0.00000000      -0.01308368 </v>
   <v>      -0.00000000      -0.00000000      -0.01308368 </v>
   <v>      -0.00000000      -0.00000000      -0.01308368 </v>
   <v>      -0.00000000      -0.00000000      -0.01308368 </v>
   <v>      -0.00000000      -0.00000000      -0.05574928 </v>
   <v>       0.00000000      -0.00000000      -0.05574928 </v>
   <v>      -0.00000000      -0.00000000      -0.05574928 </v>
   <v>      -0.00000000       0.00000000      -0.05574928 </v>
   <v>       0.00000000      -0.00000000      -0.05574928 </v>
   <v>       0.00000000      -0.00000000      -0.05574928 </v>
   <v>      -0.00000000      -0.00000000      -0.05574928 </v>
   <v>       0.00000000      -0.00000000      -0.05574928 </v>
   <v>      -0.00000000      -0.00000000      -0.05574928 </v>
   <v>       0.00000000       0.00000000      -0.13555983 </v>
   <v>       0.00000000       0.00000000      -0.13555983 </v>
   <v>       0.00000000       0.00000000      -0.13555983 </v>
   <v>       0.00000000       0.00000000      -0.13555983 </v>
   <v>       0.00000000       0.00000000      -0.13555983 </v>
   <v>       0.00000000       0.00000000      -0.13555983 </v>
   <v>       0.00000000       0.00000000      -0.13555983 </v>
   <v>       0.00000000       0.00000000      -0.13555983 </v>
   <v>       0.00000000       0.00000000      -0.13555983 </v>
  </varray>
  <varray name="stress" >
   <v>     -43.04680574      -0.00000000      -0.00000000 </v>
   <v>      -0.00000000     -43.04680574      -0.00000000 </v>
   <v>      -0.00000000      -0.00000000     -19.70203745 </v>
  </varray>
  <energy>
   <i name="e_fr_energy">   -176.28051112 </i>
   <i name="e_wo_entrp">   -176.17422125 </i>
   <i name="e_0_energy">   -176.24508116 </i>
  </energy>
  <time name="totalsc">   91.38   92.18</time>
 </calculation>
 <calculation>
  <scstep>
   <time name="dav">   13.90   13.99</time>
   <time name="total">   15.01   15.10</time>
   <energy>
    <i name="alphaZ">   1233.32705512 </i>
    <i name="ewald"> 216403.43220379 </i>
    <i name="hartreedc">-276477.25800914 </i>
    <i name="XCdc">   2004.36111187 </i>
    <i name="pawpsdc">  58643.22139243 </i>
    <i name="pawaedc"> -63486.14819692 </i>
    <i name="eentropy">     -0.10970679 </i>
    <i name="bandstr">  -1073.33662781 </i>
    <i name="atom">  62593.09380899 </i>
    <i name="e_fr_energy">   -159.41696845 </i>
    <i name="e_wo_entrp">   -159.30726166 </i>
    <i name="e_0_energy">   -159.38039952 </i>
   </energy>
  </scstep>
  <scstep>
   <time name="dav">   18.42   18.54</time>
   <time name="total">   19.52   19.65</time>
   <energy>
    <i name="e_fr_energy">   -159.47277544 </i>
    <i name="e_wo_entrp">   -159.36211294 </i>
    <i name="e_0_energy">   -159.43588794 </i>
   </energy>
  </scstep>
  <scstep>
   <time name="dav">   14.89   14.99</time>
   <time name="total">   16.00   16.10</time>
   <energy>
    <i name="e_fr_energy">   -159.46840034 </i>
    <i name="e_wo_entrp">   -159.35853610 </i>
    <i name="e_0_energy">   -159.43177893 </i>
   </energy>
  </scstep>
  <scstep>
   <time name="dav">   14.25   14.34</time>
   <time name="total">   15.34   15.44</time>
   <energy>
    <i name="e_fr_energy">   -159.46775115 </i>
    <i name="e_wo_entrp">   -159.35822017 </i>
    <i name="e_0_energy">   -159.43124083 </i>
   </energy>
  </scstep>
  <scstep>
   <time name="dav">   14.78   14.90</time>
   <time name="total">   15.89   16.02</time>
   <energy>
    <i name="e_fr_energy">   -159.46745848 </i>
    <i name="e_wo_entrp">   -159.35694175 </i>
    <i name="e_0_energy">   -159.43061957 </i>
   </energy>
  </scstep>
  <scstep>
   <time name="dav">   15.47   15.59</time>
   <time name="total">   16.57   16.70</time>
   <energy>
    <i name="e_fr_energy">   -159.46675015 </i>
    <i name="e_wo_entrp">   -159.35706651 </i>
    <i name="e_0_energy">   -159.43018894 </i>
   </energy>
  </scstep>
  <scstep>
   <time name="dav">   15.07   15.18</time>
   <time name="total">   16.16   16.27</time>
   <energy>
    <i name="e_fr_energy">   -159.46648271 </i>
    <i name="e_wo_entrp">   -159.35658506 </i>
    <i name="e_0_energy">   -159.42985016 </i>
   </energy>
  </scstep>
  <scstep>
   <time name="dav">   10.51   10.58</time>
   <time name="total">   10.63   10.70</time>
   <energy>
    <i name="alphaZ">   1233.32705512 </i>
    <i name="ewald"> 216403.43220379 </i>
    <i name="hartreedc">-276473.93885724 </i>
    <i name="XCdc">   2004.24354110 </i>
    <i name="pawpsdc">  58680.04240024 </i>
    <i name="pawaedc"> -63523.69853068 </i>
    <i name="eentropy">     -0.10962148 </i>
    <i name="bandstr">  -1075.85839420 </i>
    <i name="atom">  62593.09380899 </i>
    <i name="e_fr_energy">   -159.46639436 </i>
    <i name="e_wo_entrp">   -159.35677288 </i>
    <i name="e_0_energy">   -159.42985386 </i>
   </energy>
  </scstep>
  <dipole>
   <v name="dipole">      0.00000000       0.00000000      -0.00409180 </v>
   <i name="Tr[quadrupol]">  -4775.46440680 </i>
   <i name="Echarged">      0.00000000 </i>
   <i name="Edipol_quadrupol">      0.00000000 </i>
   <i name="Eion">      0.00000000 </i>
  </dipole>
  <structure>
   <crystal>
    <varray name="basis" >
     <v>       7.70039320       0.00000000       0.00000000 </v>
     <v>       3.85019660       6.66873613       0.00000000 </v>
     <v>       0.00000000       0.00000000      23.38312531 </v>
    </varray>
    <i name="volume">   1200.76768671 </i>
    <varray name="rec_basis" >
     <v>       0.12986350      -0.07497673       0.00000000 </v>
     <v>       0.00000000       0.14995345       0.00000000 </v>
     <v>       0.00000000       0.00000000       0.04276588 </v>
    </varray>
   </crystal>
   <varray name="positions" >
    <v>       0.00000000       0.00000000       0.00000000 </v>
    <v>       0.00000000       0.33333333       0.00000000 </v>
    <v>       1.00000000       0.66666667       0.00000000 </v>
    <v>       0.33333333       0.00000000       0.00000000 </v>
    <v>       0.33333333       0.33333333       0.00000000 </v>
    <v>       0.33333333       0.66666667       0.00000000 </v>
    <v>       0.66666667       0.00000000       0.00000000 </v>
    <v>       0.66666667       0.33333333       0.00000000 </v>
    <v>       0.66666667       0.66666667       0.00000000 </v>
    <v>       0.11111111       0.11111111       0.08962794 </v>
    <v>       0.11111111       0.44444444       0.08962794 </v>
    <v>       0.11111111       0.77777778       0.08962794 </v>
    <v>       0.44444444       0.11111111       0.08962794 </v>
    <v>       0.44444444       0.44444444       0.08962794 </v>
    <v>       0.44444444       0.77777778       0.08962794 </v>
    <v>       0.77777778       0.11111111       0.08962794 </v>
    <v>       0.77777778       0.44444444       0.08962794 </v>
    <v>       0.77777778       0.77777778       0.08962794 </v>
    <v>       0.22222222       0.22222222       0.17926208 </v>
    <v>       0.22222222       0.55555556       0.17926208 </v>
    <v>       0.22222222       0.88888889       0.17926208 </v>
    <v>       0.55555556       0.22222222       0.17926208 </v>
    <v>       0.55555556       0.55555556       0.17926208 </v>
    <v>       0.55555556       0.88888889       0.17926208 </v>
    <v>       0.88888889       0.22222222       0.17926208 </v>
    <v>       0.88888889       0.55555556       0.17926208 </v>
    <v>       0.88888889       0.88888889       0.17926208 </v>
    <v>       0.00000000      -0.00000000       0.26847516 </v>
    <v>       0.00000000       0.33333333       0.26847516 </v>
    <v>       1.00000000       0.66666667       0.26847516 </v>
    <v>       0.33333333      -0.00000000       0.26847516 </v>
    <v>       0.33333333       0.33333333       0.26847516 </v>
    <v>       0.33333333       0.66666667       0.26847516 </v>
    <v>       0.66666667      -0.00000000       0.26847516 </v>
    <v>       0.66666667       0.33333333       0.26847516 </v>
    <v>       0.66666667       0.66666667       0.26847516 </v>
    <v>       0.11111111       0.11111111       0.35719458 </v>
    <v>       0.11111111       0.44444444       0.35719458 </v>
    <v>       0.11111111       0.77777778       0.35719458 </v>
    <v>       0.44444444       0.11111111       0.35719458 </v>
    <v>       0.44444444       0.44444444       0.35719458 </v>
    <v>       0.44444444       0.77777778       0.35719458 </v>
    <v>       0.77777778       0.11111111       0.35719458 </v>
    <v>       0.77777778       0.44444444       0.35719458 </v>
    <v>       0.77777778       0.77777778       0.35719458 </v>
   </varray>
  </structure>
  <varray name="forces" >
   <v>       0.00000000       0.00000000       0.16083610 </v>
   <v>      -0.00000000       0.00000000       0.16083610 </v>
   <v>      -0.00000000      -0.00000000       0.16083610 </v>
   <v>       0.00000000       0.00000000       0.16083610 </v>
   <v>      -0.00000000       0.00000000       0.16083610 </v>
   <v>      -0.00000000       0.00000000       0.16083610 </v>
   <v>      -0.00000000       0.00000000       0.16083610 </v>
   <v>      -0.00000000      -0.00000000       0.16083610 </v>
   <v>      -0.00000000      -0.00000000       0.16083610 </v>
   <v>       0.00000000      -0.00000000       0.04391857 </v>
   <v>       0.00000000      -0.00000000       0.04391857 </v>
   <v>       0.00000000      -0.00000000       0.04391857 </v>
   <v>       0.00000000      -0.00000000       0.04391857 </v>
   <v>      -0.00000000      -0.00000000       0.04391857 </v>
   <v>       0.00000000      -0.00000000       0.04391857 </v>
   <v>      -0.00000000      -0.00000000       0.04391857 </v>
   <v>       0.00000000      -0.00000000       0.04391857 </v>
   <v>       0.00000000      -0.00000000       0.04391857 </v>
   <v>       0.00000000      -0.00000000      -0.03969428 </v>
   <v>      -0.00000000      -0.00000000      -0.03969428 </v>
   <v>       0.00000000      -0.00000000      -0.03969428 </v>
   <v>       0.00000000       0.00000000      -0.03969428 </v>
   <v>       0.00000000       0.00000000      -0.03969428 </v>
   <v>      -0.00000000       0.00000000      -0.03969428 </v>
   <v>      -0.00000000       0.00000000      -0.03969428 </v>
   <v>      -0.00000000       0.00000000      -0.03969428 </v>
   <v>      -0.00000000       0.00000000      -0.03969428 </v>
   <v>       0.00000000       0.00000000      -0.07655255 </v>
   <v>      -0.00000000       0.00000000      -0.07655255 </v>
   <v>      -0.00000000      -0.00000000      -0.07655255 </v>
   <v>       0.00000000       0.00000000      -0.07655255 </v>
   <v>      -0.00000000      -0.00000000      -0.07655255 </v>
   <v>       0.00000000       0.00000000      -0.07655255 </v>
   <v>       0.00000000       0.00000000      -0.07655255 </v>
   <v>       0.00000000       0.00000000      -0.07655255 </v>
   <v>       0.00000000      -0.00000000      -0.07655255 </v>
   <v>      -0.00000000       0.00000000      -0.08850784 </v>
   <v>      -0.00000000      -0.00000000      -0.08850784 </v>
   <v>      -0.00000000      -0.00000000      -0.08850784 </v>
   <v>      -0.00000000      -0.00000000      -0.08850784 </v>
   <v>      -0.00000000       0.00000000      -0.08850784 </v>
   <v>       0.00000000      -0.00000000      -0.08850784 </v>
   <v>      -0.00000000       0.00000000      -0.08850784 </v>
   <v>      -0.00000000      -0.00000000      -0.08850784 </v>
   <v>      -0.00000000      -0.00000000      -0.08850784 </v>
  </varray>
  <varray name="stress" >
   <v>     -44.62685731      -0.00000000      -0.00000000 </v>
   <v>      -0.00000000     -44.62685731       0.00000000 </v>
   <v>      -0.00000000       0.00000000     -19.74756221 </v>
  </varray>
  <energy>
   <i name="e_fr_energy">   -176.30914300 </i>
   <i name="e_wo_entrp">   -176.19952152 </i>
   <i name="e_0_energy">   -176.27260251 </i>
  </energy>
  <time name="totalsc">  153.87  154.96</time>
 </calculation>
 <calculation>
  <scstep>
   <time name="dav">   13.95   14.05</time>
   <time name="total">   15.05   15.16</time>
   <energy>
    <i name="alphaZ">   1233.32705512 </i>
    <i name="ewald"> 218444.77871104 </i>
    <i name="hartreedc">-278511.61925591 </i>
    <i name="XCdc">   2004.89309588 </i>
    <i name="pawpsdc">  58680.18568949 </i>
    <i name="pawaedc"> -63523.85548842 </i>
    <i name="eentropy">     -0.11427485 </i>
    <i name="bandstr">  -1079.88344296 </i>
    <i name="atom">  62593.09380899 </i>
    <i name="e_fr_energy">   -159.19410162 </i>
    <i name="e_wo_entrp">   -159.07982677 </i>
    <i name="e_0_energy">   -159.15601000 </i>
   </energy>
  </scstep>
  <scstep>
   <time name="dav">   19.23   19.37</time>
   <time name="total">   20.33   20.48</time>
   <energy>
    <i name="e_fr_energy">   -159.45739597 </i>
    <i name="e_wo_entrp">   -159.34046598 </i>
    <i name="e_0_energy">   -159.41841930 </i>
   </energy>
  </scstep>
  <scstep>
   <time name="dav">   18.02   18.16</time>
   <time name="total">   19.12   19.27</time>
   <energy>
    <i name="e_fr_energy">   -159.42729984 </i>
    <i name="e_wo_entrp">   -159.31173208 </i>
    <i name="e_0_energy">   -159.38877725 </i>
   </energy>
  </scstep>
  <scstep>
   <time name="dav">   17.02   17.25</time>
   <time name="total">   18.12   18.36</time>
   <energy>
    <i name="e_fr_energy">   -159.42261638 </i>
    <i name="e_wo_entrp">   -159.30798337 </i>
    <i name="e_0_energy">   -159.38440538 </i>
   </energy>
  </scstep>
  <scstep>
   <time name="dav">   13.90   14.01</time>
   <time name="total">   15.00   15.11</time>
   <energy>
    <i name="e_fr_energy">   -159.42198287 </i>
    <i name="e_wo_entrp">   -159.30628193 </i>
    <i name="e_0_energy">   -159.38341589 </i>
   </energy>
  </scstep>
  <scstep>
   <time name="dav">   15.64   15.75</time>
   <time name="total">   16.74   16.85</time>
   <energy>
    <i name="e_fr_energy">   -159.41753224 </i>
    <i name="e_wo_entrp">   -159.30251876 </i>
    <i name="e_0_energy">   -159.37919441 </i>
   </energy>
  </scstep>
  <scstep>
   <time name="dav">   20.49   20.63</time>
   <time name="total">   21.60   21.75</time>
   <energy>
    <i name="e_fr_energy">   -159.41738498 </i>
    <i name="e_wo_entrp">   -159.30205139 </i>
    <i name="e_0_energy">   -159.37894045 </i>
   </energy>
  </scstep>
  <scstep>
   <time name="dav">   13.26   13.35</time>
   <time name="total">   13.38   13.47</time>
   <energy>
    <i name="alphaZ">   1233.32705512 </i>
    <i name="ewald"> 218444.77871104 </i>
    <i name="hartreedc">-278506.89669640 </i>
    <i name="XCdc">   2004.67182569 </i>
    <i name="pawpsdc">  58751.19327740 </i>
    <i name="pawaedc"> -63596.22850422 </i>
    <i name="eentropy">     -0.11488194 </i>
    <i name="bandstr">  -1083.24183404 </i>
    <i name="atom">  62593.09380899 </i>
    <i name="e_fr_energy">   -159.41723836 </i>
    <i name="e_wo_entrp">   -159.30235642 </i>
    <i name="e_0_energy">   -159.37894438 </i>
   </energy>
  </scstep>
  <dipole>
   <v name="dipole">      0.00000000       0.00000000      -0.01846880 </v>
   <i name="Tr[quadrupol]">  -4775.43545622 </i>
   <i name="Echarged">      0.00000000 </i>
   <i name="Edipol_quadrupol">      0.00000000 </i>
   <i name="Eion">      0.00000000 </i>
  </dipole>
  <structure>
   <crystal>
    <varray name="basis" >
     <v>       7.70039320       0.00000000       0.00000000 </v>
     <v>       3.85019660       6.66873613       0.00000000 </v>
     <v>       0.00000000       0.00000000      23.38312531 </v>
    </varray>
    <i name="volume">   1200.76768671 </i>
    <varray name="rec_basis" >
     <v>       0.12986350      -0.07497673       0.00000000 </v>
     <v>       0.00000000       0.14995345       0.00000000 </v>
     <v>       0.00000000       0.00000000       0.04276588 </v>
    </varray>
   </crystal>
   <varray name="positions" >
    <v>       0.00000000       0.00000000       0.00000000 </v>
    <v>       0.00000000       0.33333333       0.00000000 </v>
    <v>       1.00000000       0.66666667       0.00000000 </v>
    <v>       0.33333333       0.00000000       0.00000000 </v>
    <v>       0.33333333       0.33333333       0.00000000 </v>
    <v>       0.33333333       0.66666667       0.00000000 </v>
    <v>       0.66666667       0.00000000       0.00000000 </v>
    <v>       0.66666667       0.33333333       0.00000000 </v>
    <v>       0.66666667       0.66666667       0.00000000 </v>
    <v>       0.11111111       0.11111111       0.08962794 </v>
    <v>       0.11111111       0.44444444       0.08962794 </v>
    <v>       0.11111111       0.77777778       0.08962794 </v>
    <v>       0.44444444       0.11111111       0.08962794 </v>
    <v>       0.44444444       0.44444444       0.08962794 </v>
    <v>       0.44444444       0.77777778       0.08962794 </v>
    <v>       0.77777778       0.11111111       0.08962794 </v>
    <v>       0.77777778       0.44444444       0.08962794 </v>
    <v>       0.77777778       0.77777778       0.08962794 </v>
    <v>       0.22222222       0.22222222       0.17927137 </v>
    <v>       0.22222222       0.55555556       0.17927137 </v>
    <v>       0.22222222       0.88888889       0.17927137 </v>
    <v>       0.55555556       0.22222222       0.17927137 </v>
    <v>       0.55555556       0.55555556       0.17927137 </v>
    <v>       0.55555556       0.88888889       0.17927137 </v>
    <v>       0.88888889       0.22222222       0.17927137 </v>
    <v>       0.88888889       0.55555556       0.17927137 </v>
    <v>       0.88888889       0.88888889       0.17927137 </v>
    <v>       0.00000000      -0.00000000       0.26786216 </v>
    <v>       0.00000000       0.33333333       0.26786216 </v>
    <v>       1.00000000       0.66666667       0.26786216 </v>
    <v>       0.33333333      -0.00000000       0.26786216 </v>
    <v>       0.33333333       0.33333333       0.26786216 </v>
    <v>       0.33333333       0.66666667       0.26786216 </v>
    <v>       0.66666667      -0.00000000       0.26786216 </v>
    <v>       0.66666667       0.33333333       0.26786216 </v>
    <v>       0.66666667       0.66666667       0.26786216 </v>
    <v>       0.11111111       0.11111111       0.35521878 </v>
    <v>       0.11111111       0.44444444       0.35521878 </v>
    <v>       0.11111111       0.77777778       0.35521878 </v>
    <v>       0.44444444       0.11111111       0.35521878 </v>
    <v>       0.44444444       0.44444444       0.35521878 </v>
    <v>       0.44444444       0.77777778       0.35521878 </v>
    <v>       0.77777778       0.11111111       0.35521878 </v>
    <v>       0.77777778       0.44444444       0.35521878 </v>
    <v>       0.77777778       0.77777778       0.35521878 </v>
   </varray>
  </structure>
  <varray name="forces" >
   <v>      -0.00000000       0.00000000       0.15645423 </v>
   <v>       0.00000000       0.00000000       0.15645423 </v>
   <v>       0.00000000      -0.00000000       0.15645423 </v>
   <v>      -0.00000000       0.00000000       0.15645423 </v>
   <v>      -0.00000000       0.00000000       0.15645423 </v>
   <v>       0.00000000       0.00000000       0.15645423 </v>
   <v>      -0.00000000       0.00000000       0.15645423 </v>
   <v>       0.00000000       0.00000000       0.15645423 </v>
   <v>      -0.00000000      -0.00000000       0.15645423 </v>
   <v>      -0.00000000      -0.00000000       0.03385472 </v>
   <v>      -0.00000000      -0.00000000       0.03385472 </v>
   <v>      -0.00000000       0.00000000       0.03385472 </v>
   <v>       0.00000000      -0.00000000       0.03385472 </v>
   <v>      -0.00000000      -0.00000000       0.03385472 </v>
   <v>       0.00000000       0.00000000       0.03385472 </v>
   <v>       0.00000000      -0.00000000       0.03385472 </v>
   <v>       0.00000000      -0.00000000       0.03385472 </v>
   <v>       0.00000000      -0.00000000       0.03385472 </v>
   <v>      -0.00000000      -0.00000000      -0.11053423 </v>
   <v>      -0.00000000      -0.00000000      -0.11053423 </v>
   <v>      -0.00000000      -0.00000000      -0.11053423 </v>
   <v>      -0.00000000      -0.00000000      -0.11053423 </v>
   <v>      -0.00000000       0.00000000      -0.11053423 </v>
   <v>      -0.00000000      -0.00000000      -0.11053423 </v>
   <v>      -0.00000000      -0.00000000      -0.11053423 </v>
   <v>      -0.00000000      -0.00000000      -0.11053423 </v>
   <v>      -0.00000000      -0.00000000      -0.11053423 </v>
   <v>      -0.00000000       0.00000000      -0.14086977 </v>
   <v>       0.00000000      -0.00000000      -0.14086977 </v>
   <v>      -0.00000000       0.00000000      -0.14086977 </v>
   <v>      -0.00000000      -0.00000000      -0.14086977 </v>
   <v>      -0.00000000       0.00000000      -0.14086977 </v>
   <v>       0.00000000       0.00000000      -0.14086977 </v>
   <v>      -0.00000000       0.00000000      -0.14086977 </v>
   <v>       0.00000000       0.00000000      -0.14086977 </v>
   <v>      -0.00000000       0.00000000      -0.14086977 </v>
   <v>       0.00000000       0.00000000       0.06109505 </v>
   <v>       0.00000000       0.00000000       0.06109505 </v>
   <v>       0.00000000      -0.00000000       0.06109505 </v>
   <v>       0.00000000       0.00000000       0.06109505 </v>
   <v>       0.00000000       0.00000000       0.06109505 </v>
   <v>       0.00000000      -0.00000000       0.06109505 </v>
   <v>       0.00000000       0.00000000       0.06109505 </v>
   <v>       0.00000000       0.00000000       0.06109505 </v>
   <v>       0.00000000       0.00000000       0.06109505 </v>
  </varray>
  <varray name="stress" >
   <v>     -42.87414252      -0.00000000      -0.00000000 </v>
   <v>      -0.00000000     -42.87414252       0.00000000 </v>
   <v>      -0.00000000      -0.00000000     -14.64831501 </v>
  </varray>
  <energy>
   <i name="e_fr_energy">   -176.33073405 </i>
   <i name="e_wo_entrp">   -176.21585211 </i>
   <i name="e_0_energy">   -176.29244007 </i>
  </energy>
  <time name="totalsc">  168.45  169.80</time>
 </calculation>
 <calculation>
  <scstep>
   <time name="dav">   13.93   14.03</time>
   <time name="total">   15.03   15.13</time>
   <energy>
    <i name="alphaZ">   1233.32705512 </i>
    <i name="ewald"> 218914.08588788 </i>
    <i name="hartreedc">-278975.88919873 </i>
    <i name="XCdc">   2004.77295715 </i>
    <i name="pawpsdc">  58750.83010806 </i>
    <i name="pawaedc"> -63595.84271765 </i>
    <i name="eentropy">     -0.11428760 </i>
    <i name="bandstr">  -1083.66002895 </i>
    <i name="atom">  62593.09380899 </i>
    <i name="e_fr_energy">   -159.39641573 </i>
    <i name="e_wo_entrp">   -159.28212813 </i>
    <i name="e_0_energy">   -159.35831987 </i>
   </energy>
  </scstep>
  <scstep>
   <time name="dav">   18.47   18.65</time>
   <time name="total">   19.58   19.76</time>
   <energy>
    <i name="e_fr_energy">   -159.41176017 </i>
    <i name="e_wo_entrp">   -159.29661128 </i>
    <i name="e_0_energy">   -159.37337721 </i>
   </energy>
  </scstep>
  <scstep>
   <time name="dav">   13.79   13.88</time>
   <time name="total">   14.87   14.98</time>
   <energy>
    <i name="e_fr_energy">   -159.41152236 </i>
    <i name="e_wo_entrp">   -159.29685620 </i>
    <i name="e_0_energy">   -159.37330031 </i>
   </energy>
  </scstep>
  <scstep>
   <time name="dav">   13.42   13.51</time>
   <time name="total">   13.55   13.64</time>
   <energy>
    <i name="alphaZ">   1233.32705512 </i>
    <i name="ewald"> 218914.08588788 </i>
    <i name="hartreedc">-278975.09411501 </i>
    <i name="XCdc">   2004.72601166 </i>
    <i name="pawpsdc">  58756.16893781 </i>
    <i name="pawaedc"> -63600.98803987 </i>
    <i name="eentropy">     -0.11456783 </i>
    <i name="bandstr">  -1084.61636792 </i>
    <i name="atom">  62593.09380899 </i>
    <i name="e_fr_energy">   -159.41138916 </i>
    <i name="e_wo_entrp">   -159.29682134 </i>
    <i name="e_0_energy">   -159.37319989 </i>
   </energy>
  </scstep>
  <dipole>
   <v name="dipole">      0.00000000       0.00000000      -0.02154008 </v>
   <i name="Tr[quadrupol]">  -4775.43060906 </i>
   <i name="Echarged">      0.00000000 </i>
   <i name="Edipol_quadrupol">      0.00000000 </i>
   <i name="Eion">      0.00000000 </i>
  </dipole>
  <structure>
   <crystal>
    <varray name="basis" >
     <v>       7.70039320       0.00000000       0.00000000 </v>
     <v>       3.85019660       6.66873613       0.00000000 </v>
     <v>       0.00000000       0.00000000      23.38312531 </v>
    </varray>
    <i name="volume">   1200.76768671 </i>
    <varray name="rec_basis" >
     <v>       0.12986350      -0.07497673       0.00000000 </v>
     <v>       0.00000000       0.14995345       0.00000000 </v>
     <v>       0.00000000       0.00000000       0.04276588 </v>
    </varray>
   </crystal>
   <varray name="positions" >
    <v>       0.00000000       0.00000000       0.00000000 </v>
    <v>       0.00000000       0.33333333       0.00000000 </v>
    <v>       1.00000000       0.66666667       0.00000000 </v>
    <v>       0.33333333       0.00000000       0.00000000 </v>
    <v>       0.33333333       0.33333333       0.00000000 </v>
    <v>       0.33333333       0.66666667       0.00000000 </v>
    <v>       0.66666667       0.00000000       0.00000000 </v>
    <v>       0.66666667       0.33333333       0.00000000 </v>
    <v>       0.66666667       0.66666667       0.00000000 </v>
    <v>       0.11111111       0.11111111       0.08962794 </v>
    <v>       0.11111111       0.44444444       0.08962794 </v>
    <v>       0.11111111       0.77777778       0.08962794 </v>
    <v>       0.44444444       0.11111111       0.08962794 </v>
    <v>       0.44444444       0.44444444       0.08962794 </v>
    <v>       0.44444444       0.77777778       0.08962794 </v>
    <v>       0.77777778       0.11111111       0.08962794 </v>
    <v>       0.77777778       0.44444444       0.08962794 </v>
    <v>       0.77777778       0.77777778       0.08962794 </v>
    <v>       0.22222222       0.22222222       0.17905429 </v>
    <v>       0.22222222       0.55555556       0.17905429 </v>
    <v>       0.22222222       0.88888889       0.17905429 </v>
    <v>       0.55555556       0.22222222       0.17905429 </v>
    <v>       0.55555556       0.55555556       0.17905429 </v>
    <v>       0.55555556       0.88888889       0.17905429 </v>
    <v>       0.88888889       0.22222222       0.17905429 </v>
    <v>       0.88888889       0.55555556       0.17905429 </v>
    <v>       0.88888889       0.88888889       0.17905429 </v>
    <v>      -0.00000000      -0.00000000       0.26744700 </v>
    <v>       0.00000000       0.33333333       0.26744700 </v>
    <v>       1.00000000       0.66666667       0.26744700 </v>
    <v>       0.33333333      -0.00000000       0.26744700 </v>
    <v>       0.33333333       0.33333333       0.26744700 </v>
    <v>       0.33333333       0.66666667       0.26744700 </v>
    <v>       0.66666667      -0.00000000       0.26744700 </v>
    <v>       0.66666667       0.33333333       0.26744700 </v>
    <v>       0.66666667       0.66666667       0.26744700 </v>
    <v>       0.11111111       0.11111111       0.35490195 </v>
    <v>       0.11111111       0.44444444       0.35490195 </v>
    <v>       0.11111111       0.77777778       0.35490195 </v>
    <v>       0.44444444       0.11111111       0.35490195 </v>
    <v>       0.44444444       0.44444444       0.35490195 </v>
    <v>       0.44444444       0.77777778       0.35490195 </v>
    <v>       0.77777778       0.11111111       0.35490195 </v>
    <v>       0.77777778       0.44444444       0.35490195 </v>
    <v>       0.77777778       0.77777778       0.35490195 </v>
   </varray>
  </structure>
  <varray name="forces" >
   <v>      -0.00000000      -0.00000000       0.15772575 </v>
   <v>      -0.00000000      -0.00000000       0.15772575 </v>
   <v>      -0.00000000      -0.00000000       0.15772575 </v>
   <v>      -0.00000000       0.00000000       0.15772575 </v>
   <v>      -0.00000000      -0.00000000       0.15772575 </v>
   <v>      -0.00000000       0.00000000       0.15772575 </v>
   <v>      -0.00000000       0.00000000       0.15772575 </v>
   <v>      -0.00000000      -0.00000000       0.15772575 </v>
   <v>      -0.00000000      -0.00000000       0.15772575 </v>
   <v>      -0.00000000       0.00000000       0.01578801 </v>
   <v>      -0.00000000      -0.00000000       0.01578801 </v>
   <v>      -0.00000000       0.00000000       0.01578801 </v>
   <v>       0.00000000      -0.00000000       0.01578801 </v>
   <v>       0.00000000      -0.00000000       0.01578801 </v>
   <v>       0.00000000      -0.00000000       0.01578801 </v>
   <v>       0.00000000      -0.00000000       0.01578801 </v>
   <v>      -0.00000000       0.00000000       0.01578801 </v>
   <v>       0.00000000      -0.00000000       0.01578801 </v>
   <v>       0.00000000       0.00000000      -0.10921620 </v>
   <v>       0.00000000       0.00000000      -0.10921620 </v>
   <v>       0.00000000       0.00000000      -0.10921620 </v>
   <v>       0.00000000       0.00000000      -0.10921620 </v>
   <v>       0.00000000       0.00000000      -0.10921620 </v>
   <v>       0.00000000       0.00000000      -0.10921620 </v>
   <v>       0.00000000       0.00000000      -0.10921620 </v>
   <v>       0.00000000       0.00000000      -0.10921620 </v>
   <v>       0.00000000       0.00000000      -0.10921620 </v>
   <v>       0.00000000       0.00000000      -0.11291222 </v>
   <v>       0.00000000       0.00000000      -0.11291222 </v>
   <v>       0.00000000       0.00000000      -0.11291222 </v>
   <v>       0.00000000      -0.00000000      -0.11291222 </v>
   <v>       0.00000000       0.00000000      -0.11291222 </v>
   <v>       0.00000000       0.00000000      -0.11291222 </v>
   <v>       0.00000000      -0.00000000      -0.11291222 </v>
   <v>       0.00000000       0.00000000      -0.11291222 </v>
   <v>       0.00000000       0.00000000      -0.11291222 </v>
   <v>      -0.00000000      -0.00000000       0.04861467 </v>
   <v>      -0.00000000      -0.00000000       0.04861467 </v>
   <v>       0.00000000      -0.00000000       0.04861467 </v>
   <v>      -0.00000000      -0.00000000       0.04861467 </v>
   <v>      -0.00000000      -0.00000000       0.04861467 </v>
   <v>      -0.00000000      -0.00000000       0.04861467 </v>
   <v>      -0.00000000      -0.00000000       0.04861467 </v>
   <v>      -0.00000000      -0.00000000       0.04861467 </v>
   <v>       0.00000000      -0.00000000       0.04861467 </v>
  </varray>
  <varray name="stress" >
   <v>     -39.18943044      -0.00000000       0.00000000 </v>
   <v>      -0.00000000     -39.18943044       0.00000000 </v>
   <v>      -0.00000000      -0.00000000     -10.49097507 </v>
  </varray>
  <energy>
   <i name="e_fr_energy">   -176.34380167 </i>
   <i name="e_wo_entrp">   -176.22923384 </i>
   <i name="e_0_energy">   -176.30561239 </i>
  </energy>
  <time name="totalsc">   92.25   93.23</time>
 </calculation>
 <calculation>
  <scstep>
   <time name="dav">   13.96   14.06</time>
   <time name="total">   15.05   15.15</time>
   <energy>
    <i name="alphaZ">   1233.32705512 </i>
    <i name="ewald"> 220325.26547290 </i>
    <i name="hartreedc">-280385.21732587 </i>
    <i name="XCdc">   2005.06396784 </i>
    <i name="pawpsdc">  58757.79621734 </i>
    <i name="pawaedc"> -63602.76368438 </i>
    <i name="eentropy">     -0.11287811 </i>
    <i name="bandstr">  -1085.70336226 </i>
    <i name="atom">  62593.09380899 </i>
    <i name="e_fr_energy">   -159.25072844 </i>
    <i name="e_wo_entrp">   -159.13785033 </i>
    <i name="e_0_energy">   -159.21310240 </i>
   </energy>
  </scstep>
  <scstep>
   <time name="dav">   18.96   19.12</time>
   <time name="total">   20.05   20.22</time>
   <energy>
    <i name="e_fr_energy">   -159.39718954 </i>
    <i name="e_wo_entrp">   -159.28347241 </i>
[...]
       <r>   -10.2201     0.0000     0.0000 </r>
       <r>   -10.1461     0.0000     0.0000 </r>
       <r>   -10.0721    -0.0000    -0.0000 </r>
       <r>    -9.9981    -0.0000    -0.0000 </r>
       <r>    -9.9240    -0.0000    -0.0000 </r>
       <r>    -9.8500    -0.0000    -0.0000 </r>
       <r>    -9.7760    -0.0000    -0.0000 </r>
       <r>    -9.7020    -0.0000    -0.0000 </r>
       <r>    -9.6280    -0.0000    -0.0000 </r>
       <r>    -9.5539    -0.0000    -0.0000 </r>
       <r>    -9.4799    -0.0000    -0.0000 </r>
       <r>    -9.4059    -0.0000    -0.0000 </r>
       <r>    -9.3319    -0.0000    -0.0000 </r>
       <r>    -9.2578    -0.0000    -0.0000 </r>
       <r>    -9.1838    -0.0000    -0.0000 </r>
       <r>    -9.1098    -0.0000    -0.0000 </r>
       <r>    -9.0358    -0.0001    -0.0000 </r>
       <r>    -8.9618    -0.0009    -0.0001 </r>
       <r>    -8.8877    -0.0043    -0.0004 </r>
       <r>    -8.8137    -0.0131    -0.0014 </r>
       <r>    -8.7397    -0.0239    -0.0031 </r>
       <r>    -8.6657    -0.0083    -0.0038 </r>
       <r>    -8.5917     0.0837     0.0024 </r>
       <r>    -8.5176     0.2523     0.0211 </r>
       <r>    -8.4436     0.3736     0.0488 </r>
       <r>    -8.3696     0.3073     0.0715 </r>
       <r>    -8.2956     0.1720     0.0842 </r>
       <r>    -8.2215     0.4047     0.1142 </r>
       <r>    -8.1475     1.2950     0.2101 </r>
       <r>    -8.0735     2.3868     0.3867 </r>
       <r>    -7.9995     2.7257     0.5885 </r>
       <r>    -7.9255     1.9695     0.7343 </r>
       <r>    -7.8514     0.8036     0.7938 </r>
       <r>    -7.7774     0.0288     0.7959 </r>
       <r>    -7.7034    -0.2154     0.7799 </r>
       <r>    -7.6294    -0.1842     0.7663 </r>
       <r>    -7.5553     0.0137     0.7673 </r>
       <r>    -7.4813     0.5176     0.8056 </r>
       <r>    -7.4073     1.4172     0.9105 </r>
       <r>    -7.3333     2.4054     1.0886 </r>
       <r>    -7.2593     2.9734     1.3087 </r>
       <r>    -7.1852     3.1462     1.5416 </r>
       <r>    -7.1112     3.5113     1.8015 </r>
       <r>    -7.0372     4.1935     2.1119 </r>
       <r>    -6.9632     4.4582     2.4419 </r>
       <r>    -6.8891     3.6593     2.7128 </r>
       <r>    -6.8151     2.0843     2.8671 </r>
       <r>    -6.7411     0.6097     2.9122 </r>
       <r>    -6.6671    -0.1899     2.8981 </r>
       <r>    -6.5931    -0.2803     2.8774 </r>
       <r>    -6.5190     0.2644     2.8970 </r>
       <r>    -6.4450     1.3259     2.9951 </r>
       <r>    -6.3710     2.3103     3.1661 </r>
       <r>    -6.2970     2.4302     3.3460 </r>
       <r>    -6.2230     1.8588     3.4836 </r>
       <r>    -6.1489     1.9502     3.6280 </r>
       <r>    -6.0749     3.7298     3.9041 </r>
       <r>    -6.0009     6.4702     4.3830 </r>
       <r>    -5.9269     8.2352     4.9926 </r>
       <r>    -5.8528     7.8253     5.5718 </r>
       <r>    -5.7788     5.7310     5.9960 </r>
       <r>    -5.7048     3.2140     6.2339 </r>
       <r>    -5.6308     1.2879     6.3293 </r>
       <r>    -5.5568     0.5578     6.3706 </r>
       <r>    -5.4827     1.0170     6.4458 </r>
       <r>    -5.4087     1.9414     6.5896 </r>
       <r>    -5.3347     2.8584     6.8011 </r>
       <r>    -5.2607     4.3494     7.1231 </r>
       <r>    -5.1866     6.6243     7.6134 </r>
       <r>    -5.1126     8.0163     8.2068 </r>
       <r>    -5.0386     7.0126     8.7259 </r>
       <r>    -4.9646     4.8616     9.0858 </r>
       <r>    -4.8906     3.8397     9.3700 </r>
       <r>    -4.8165     4.2558     9.6850 </r>
       <r>    -4.7425     5.3023    10.0775 </r>
       <r>    -4.6685     7.1430    10.6062 </r>
       <r>    -4.5945     9.7562    11.3284 </r>
       <r>    -4.5205    11.2133    12.1584 </r>
       <r>    -4.4464    10.0470    12.9021 </r>
       <r>    -4.3724     8.6722    13.5441 </r>
       <r>    -4.2984    11.4020    14.3881 </r>
       <r>    -4.2244    18.4099    15.7508 </r>
       <r>    -4.1503    24.2044    17.5424 </r>
       <r>    -4.0763    24.0535    19.3229 </r>
       <r>    -4.0023    19.8001    20.7886 </r>
       <r>    -3.9283    17.0327    22.0494 </r>
       <r>    -3.8543    18.8839    23.4472 </r>
       <r>    -3.7802    24.5816    25.2668 </r>
       <r>    -3.7062    31.8663    27.6256 </r>
       <r>    -3.6322    38.8099    30.4983 </r>
       <r>    -3.5582    43.7262    33.7350 </r>
       <r>    -3.4841    45.3072    37.0888 </r>
       <r>    -3.4101    44.2213    40.3621 </r>
       <r>    -3.3361    42.7578    43.5271 </r>
       <r>    -3.2621    41.8105    46.6220 </r>
       <r>    -3.1881    40.5296    49.6221 </r>
       <r>    -3.1140    38.8934    52.5010 </r>
       <r>    -3.0400    38.6338    55.3608 </r>
       <r>    -2.9660    41.9950    58.4693 </r>
       <r>    -2.8920    48.9718    62.0943 </r>
       <r>    -2.8179    55.3522    66.1916 </r>
       <r>    -2.7439    56.7693    70.3938 </r>
       <r>    -2.6699    54.7021    74.4429 </r>
       <r>    -2.5959    54.5519    78.4809 </r>
       <r>    -2.5219    58.8623    82.8380 </r>
       <r>    -2.4478    65.8343    87.7112 </r>
       <r>    -2.3738    73.4570    93.1486 </r>
       <r>    -2.2998    81.5263    99.1834 </r>
       <r>    -2.2258    88.4099   105.7276 </r>
       <r>    -2.1518    90.4050   112.4196 </r>
       <r>    -2.0777    87.5943   118.9035 </r>
       <r>    -2.0037    84.8804   125.1865 </r>
       <r>    -1.9297    84.5452   131.4447 </r>
       <r>    -1.8557    83.6952   137.6399 </r>
       <r>    -1.7816    80.2458   143.5799 </r>
       <r>    -1.7076    76.4127   149.2361 </r>
       <r>    -1.6336    75.2065   154.8030 </r>
       <r>    -1.5596    76.6080   160.4737 </r>
       <r>    -1.4856    78.9612   166.3185 </r>
       <r>    -1.4115    81.9440   172.3842 </r>
       <r>    -1.3375    85.8112   178.7361 </r>
       <r>    -1.2635    89.2727   185.3442 </r>
       <r>    -1.1895    91.5244   192.1190 </r>
       <r>    -1.1154    96.4488   199.2583 </r>
       <r>    -1.0414   108.2585   207.2718 </r>
       <r>    -0.9674   119.8464   216.1431 </r>
       <r>    -0.8934   114.7291   224.6355 </r>
       <r>    -0.8194    86.5777   231.0442 </r>
       <r>    -0.7453    49.0813   234.6773 </r>
       <r>    -0.6713    21.2886   236.2531 </r>
       <r>    -0.5973     9.4210   236.9504 </r>
       <r>    -0.5233     7.2216   237.4850 </r>
       <r>    -0.4492     8.0512   238.0810 </r>
       <r>    -0.3752    10.1099   238.8293 </r>
       <r>    -0.3012    12.4400   239.7502 </r>
       <r>    -0.2272    13.0194   240.7139 </r>
       <r>    -0.1532    11.8939   241.5943 </r>
       <r>    -0.0791    11.1356   242.4186 </r>
       <r>    -0.0051    10.7072   243.2111 </r>
       <r>     0.0689     8.5037   243.8406 </r>
       <r>     0.1429     4.5583   244.1780 </r>
       <r>     0.2169     1.5580   244.2933 </r>
       <r>     0.2910     1.2893   244.3888 </r>
       <r>     0.3650     2.8690   244.6011 </r>
       <r>     0.4390     4.4982   244.9341 </r>
       <r>     0.5130     5.9690   245.3759 </r>
       <r>     0.5871     8.5656   246.0100 </r>
       <r>     0.6611    11.9584   246.8952 </r>
       <r>     0.7351    13.0737   247.8629 </r>
       <r>     0.8091    10.2770   248.6236 </r>
       <r>     0.8831     6.5536   249.1087 </r>
       <r>     0.9572     5.5797   249.5217 </r>
       <r>     1.0312     6.6794   250.0162 </r>
       <r>     1.1052     6.7964   250.5192 </r>
       <r>     1.1792     5.8325   250.9510 </r>
       <r>     1.2533     6.4247   251.4266 </r>
       <r>     1.3273     8.8716   252.0832 </r>
       <r>     1.4013    10.0957   252.8305 </r>
       <r>     1.4753     8.4607   253.4568 </r>
       <r>     1.5493     6.0934   253.9079 </r>
       <r>     1.6234     5.0600   254.2824 </r>
       <r>     1.6974     4.6085   254.6236 </r>
       <r>     1.7714     3.7452   254.9008 </r>
       <r>     1.8454     3.3953   255.1521 </r>
       <r>     1.9194     4.3950   255.4774 </r>
       <r>     1.9935     5.9584   255.9185 </r>
       <r>     2.0675     7.4819   256.4723 </r>
       <r>     2.1415     9.4385   257.1710 </r>
       <r>     2.2155    11.2514   258.0038 </r>
       <r>     2.2896    10.7870   258.8023 </r>
       <r>     2.3636     7.5804   259.3634 </r>
       <r>     2.4376     4.5957   259.7036 </r>
       <r>     2.5116     4.9593   260.0707 </r>
       <r>     2.5856     7.9674   260.6604 </r>
       <r>     2.6597    10.1253   261.4099 </r>
       <r>     2.7337     9.8268   262.1373 </r>
       <r>     2.8077     8.7016   262.7814 </r>
       <r>     2.8817     8.1389   263.3839 </r>
       <r>     2.9558     7.6618   263.9510 </r>
       <r>     3.0298     7.2241   264.4858 </r>
       <r>     3.1038     7.5396   265.0439 </r>
       <r>     3.1778     7.8043   265.6216 </r>
       <r>     3.2518     6.3346   266.0905 </r>
       <r>     3.3259     3.3673   266.3397 </r>
       <r>     3.3999     0.8024   266.3991 </r>
       <r>     3.4739    -0.3094   266.3762 </r>
       <r>     3.5479    -0.4256   266.3447 </r>
       <r>     3.6220    -0.3137   266.3215 </r>
       <r>     3.6960    -0.2369   266.3039 </r>
       <r>     3.7700    -0.0236   266.3022 </r>
       <r>     3.8440     0.6388   266.3495 </r>
       <r>     3.9180     2.0907   266.5042 </r>
       <r>     3.9921     4.6242   266.8465 </r>
       <r>     4.0661     7.9645   267.4361 </r>
       <r>     4.1401    10.7392   268.2310 </r>
       <r>     4.2141    11.3300   269.0697 </r>
       <r>     4.2881     9.7310   269.7900 </r>
       <r>     4.3622     7.8200   270.3688 </r>
       <r>     4.4362     7.2098   270.9025 </r>
       <r>     4.5102     7.5899   271.4644 </r>
       <r>     4.5842     7.7425   272.0375 </r>
       <r>     4.6583     7.1130   272.5640 </r>
       <r>     4.7323     6.0192   273.0095 </r>
       <r>     4.8063     5.3240   273.4036 </r>
       <r>     4.8803     5.5860   273.8171 </r>
       <r>     4.9543     6.0988   274.2686 </r>
       <r>     5.0284     5.8108   274.6987 </r>
       <r>     5.1024     5.0675   275.0738 </r>
       <r>     5.1764     4.9776   275.4422 </r>
       <r>     5.2504     5.3054   275.8349 </r>
       <r>     5.3245     4.7602   276.1873 </r>
       <r>     5.3985     3.3762   276.4372 </r>
       <r>     5.4725     2.7543   276.6411 </r>
       <r>     5.5465     3.7421   276.9181 </r>
       <r>     5.6205     5.7565   277.3442 </r>
       <r>     5.6946     8.6421   277.9839 </r>
       <r>     5.7686    12.6769   278.9223 </r>
       <r>     5.8426    16.0616   280.1112 </r>
       <r>     5.9166    15.5653   281.2633 </r>
       <r>     5.9907    10.8756   282.0684 </r>
       <r>     6.0647     5.5712   282.4808 </r>
       <r>     6.1387     2.9645   282.7002 </r>
       <r>     6.2127     3.1487   282.9333 </r>
       <r>     6.2867     4.7336   283.2837 </r>
       <r>     6.3608     7.6311   283.8485 </r>
       <r>     6.4348    12.3908   284.7657 </r>
       <r>     6.5088    17.3128   286.0473 </r>
       <r>     6.5828    18.7038   287.4317 </r>
       <r>     6.6568    15.0053   288.5425 </r>
       <r>     6.7309     8.9418   289.2044 </r>
       <r>     6.8049     4.5887   289.5440 </r>
       <r>     6.8789     3.5830   289.8092 </r>
       <r>     6.9529     5.1712   290.1920 </r>
       <r>     7.0270     8.6320   290.8310 </r>
       <r>     7.1010    13.4580   291.8272 </r>
       <r>     7.1750    17.6131   293.1309 </r>
       <r>     7.2490    18.1694   294.4758 </r>
       <r>     7.3230    14.3140   295.5354 </r>
       <r>     7.3971     8.7012   296.1795 </r>
       <r>     7.4711     5.4254   296.5811 </r>
       <r>     7.5451     6.4777   297.0606 </r>
       <r>     7.6191     9.9421   297.7965 </r>
       <r>     7.6932    11.9650   298.6822 </r>
       <r>     7.7672    10.9280   299.4911 </r>
       <r>     7.8412     8.9188   300.1513 </r>
       <r>     7.9152     8.3168   300.7669 </r>
       <r>     7.9892     8.6796   301.4094 </r>
       <r>     8.0633     8.7114   302.0542 </r>
       <r>     8.1373     9.3079   302.7432 </r>
       <r>     8.2113    12.1314   303.6412 </r>
       <r>     8.2853    16.3307   304.8500 </r>
       <r>     8.3594    18.7835   306.2404 </r>
       <r>     8.4334    17.3944   307.5280 </r>
       <r>     8.5074    13.3993   308.5198 </r>
       <r>     8.5814    10.3129   309.2832 </r>
       <r>     8.6554    10.6133   310.0688 </r>
       <r>     8.7295    13.6045   311.0758 </r>
       <r>     8.8035    16.3862   312.2888 </r>
       <r>     8.8775    16.4272   313.5047 </r>
       <r>     8.9515    13.2945   314.4888 </r>
       <r>     9.0255     8.4799   315.1165 </r>
       <r>     9.0996     3.9000   315.4052 </r>
       <r>     9.1736     0.9393   315.4747 </r>
       <r>     9.2476     0.8932   315.5408 </r>
       <r>     9.3216     4.6917   315.8881 </r>
       <r>     9.3957    10.7221   316.6818 </r>
       <r>     9.4697    14.5494   317.7588 </r>
       <r>     9.5437    13.2028   318.7361 </r>
       <r>     9.6177     8.5161   319.3664 </r>
       <r>     9.6917     4.3473   319.6882 </r>
       <r>     9.7658     2.2582   319.8554 </r>
       <r>     9.8398     1.3732   319.9570 </r>
       <r>     9.9138     0.7083   320.0095 </r>
       <r>     9.9878     0.1587   320.0212 </r>
       <r>    10.0619    -0.0973   320.0140 </r>
       <r>    10.1359    -0.1119   320.0057 </r>
       <r>    10.2099    -0.0555   320.0016 </r>
       <r>    10.2839    -0.0175   320.0003 </r>
       <r>    10.3579    -0.0038   320.0000 </r>
       <r>    10.4320    -0.0006   320.0000 </r>
       <r>    10.5060    -0.0001   320.0000 </r>
       <r>    10.5800    -0.0000   320.0000 </r>
       <r>    10.6540    -0.0000   320.0000 </r>
       <r>    10.7280    -0.0000   320.0000 </r>
       <r>    10.8021    -0.0000   320.0000 </r>
       <r>    10.8761    -0.0000   320.0000 </r>
       <r>    10.9501    -0.0000   320.0000 </r>
       <r>    11.0241    -0.0000   320.0000 </r>
       <r>    11.0982     0.0000   320.0000 </r>
       <r>    11.1722     0.0000   320.0000 </r>
       <r>    11.2462     0.0000   320.0000 </r>
       <r>    11.3202     0.0000   320.0000 </r>
       <r>    11.3942     0.0000   320.0000 </r>
       <r>    11.4683     0.0000   320.0000 </r>
       <r>    11.5423     0.0000   320.0000 </r>
       <r>    11.6163     0.0000   320.0000 </r>
       <r>    11.6903     0.0000   320.0000 </r>
       <r>    11.7644     0.0000   320.0000 </r>
      </set>
     </set>
    </array>
   </total>
  </dos>
 </calculation>
 <structure name="finalpos" >
  <crystal>
   <varray name="basis" >
    <v>       7.70039320       0.00000000       0.00000000 </v>
    <v>       3.85019660       6.66873613       0.00000000 </v>
    <v>       0.00000000       0.00000000      23.38312531 </v>
   </varray>
   <i name="volume">   1200.76768671 </i>
   <varray name="rec_basis" >
    <v>       0.12986350      -0.07497673       0.00000000 </v>
    <v>       0.00000000       0.14995345       0.00000000 </v>
    <v>       0.00000000       0.00000000       0.04276588 </v>
   </varray>
  </crystal>
  <varray name="positions" >
   <v>       0.00000000       0.00000000       0.00000000 </v>
   <v>       0.00000000       0.33333333       0.00000000 </v>
   <v>       1.00000000       0.66666667       0.00000000 </v>
   <v>       0.33333333       0.00000000       0.00000000 </v>
   <v>       0.33333333       0.33333333       0.00000000 </v>
   <v>       0.33333333       0.66666667       0.00000000 </v>
   <v>       0.66666667       0.00000000       0.00000000 </v>
   <v>       0.66666667       0.33333333       0.00000000 </v>
   <v>       0.66666667       0.66666667       0.00000000 </v>
   <v>       0.11111111       0.11111111       0.08962794 </v>
   <v>       0.11111111       0.44444444       0.08962794 </v>
   <v>       0.11111111       0.77777778       0.08962794 </v>
   <v>       0.44444444       0.11111111       0.08962794 </v>
   <v>       0.44444444       0.44444444       0.08962794 </v>
   <v>       0.44444444       0.77777778       0.08962794 </v>
   <v>       0.77777778       0.11111111       0.08962794 </v>
   <v>       0.77777778       0.44444444       0.08962794 </v>
   <v>       0.77777778       0.77777778       0.08962794 </v>
   <v>       0.22222222       0.22222222       0.17717390 </v>
   <v>       0.22222222       0.55555556       0.17717390 </v>
   <v>       0.22222222       0.88888889       0.17717390 </v>
   <v>       0.55555556       0.22222222       0.17717390 </v>
   <v>       0.55555556       0.55555556       0.17717390 </v>
   <v>       0.55555556       0.88888889       0.17717390 </v>
   <v>       0.88888889       0.22222222       0.17717390 </v>
   <v>       0.88888889       0.55555556       0.17717390 </v>
   <v>       0.88888889       0.88888889       0.17717390 </v>
   <v>      -0.00000000      -0.00000000       0.26495689 </v>
   <v>       0.00000000       0.33333333       0.26495689 </v>
   <v>       1.00000000       0.66666667       0.26495689 </v>
   <v>       0.33333333      -0.00000000       0.26495689 </v>
   <v>       0.33333333       0.33333333       0.26495689 </v>
   <v>       0.33333333       0.66666667       0.26495689 </v>
   <v>       0.66666667      -0.00000000       0.26495689 </v>
   <v>       0.66666667       0.33333333       0.26495689 </v>
   <v>       0.66666667       0.66666667       0.26495689 </v>
   <v>       0.11111111       0.11111111       0.35276397 </v>
   <v>       0.11111111       0.44444444       0.35276397 </v>
   <v>       0.11111111       0.77777778       0.35276397 </v>
   <v>       0.44444444       0.11111111       0.35276397 </v>
   <v>       0.44444444       0.44444444       0.35276397 </v>
   <v>       0.44444444       0.77777778       0.35276397 </v>
   <v>       0.77777778       0.11111111       0.35276397 </v>
   <v>       0.77777778       0.44444444       0.35276397 </v>
   <v>       0.77777778       0.77777778       0.35276397 </v>
  </varray>
  <varray name="selective"  type="logical" >
   <v type="logical" >  F  F  F </v>
   <v type="logical" >  F  F  F </v>
   <v type="logical" >  F  F  F </v>
   <v type="logical" >  F  F  F </v>
   <v type="logical" >  F  F  F </v>
   <v type="logical" >  F  F  F </v>
   <v type="logical" >  F  F  F </v>
   <v type="logical" >  F  F  F </v>
   <v type="logical" >  F  F  F </v>
   <v type="logical" >  F  F  F </v>
   <v type="logical" >  F  F  F </v>
   <v type="logical" >  F  F  F </v>
   <v type="logical" >  F  F  F </v>
   <v type="logical" >  F  F  F </v>
   <v type="logical" >  F  F  F </v>
   <v type="logical" >  F  F  F </v>
   <v type="logical" >  F  F  F </v>
   <v type="logical" >  F  F  F </v>
   <v type="logical" >  T  T  T </v>
   <v type="logical" >  T  T  T </v>
   <v type="logical" >  T  T  T </v>
   <v type="logical" >  T  T  T </v>
   <v type="logical" >  T  T  T </v>
   <v type="logical" >  T  T  T </v>
   <v type="logical" >  T  T  T </v>
   <v type="logical" >  T  T  T </v>
   <v type="logical" >  T  T  T </v>
   <v type="logical" >  T  T  T </v>
   <v type="logical" >  T  T  T </v>
   <v type="logical" >  T  T  T </v>
   <v type="logical" >  T  T  T </v>
   <v type="logical" >  T  T  T </v>
   <v type="logical" >  T  T  T </v>
   <v type="logical" >  T  T  T </v>
   <v type="logical" >  T  T  T </v>
   <v type="logical" >  T  T  T </v>
   <v type="logical" >  T  T  T </v>
   <v type="logical" >  T  T  T </v>
   <v type="logical" >  T  T  T </v>
   <v type="logical" >  T  T  T </v>
   <v type="logical" >  T  T  T </v>
   <v type="logical" >  T  T  T </v>
   <v type="logical" >  T  T  T </v>
   <v type="logical" >  T  T  T </v>
   <v type="logical" >  T  T  T </v>
  </varray>
  <nose>
   <v>      -3.00000000       0.00000000       0.00010000       0.00010000 </v>
  </nose>
 </structure>
</modeling>
