  66  66   0   0
  0.2212521E+02  0.7260000E-09  0.7260000E-09  0.2770500E-08  0.5000000E-15
  1.000000000000000E-004
  CAR 
 unknown system                          
     13.39690511     -9.49384845  301      1.92793940      1.00000000
     -9.494  0.0000E+00  0.0000E+00  0.0000E+00  0.0000E+00
     -9.418  0.0000E+00  0.0000E+00  0.0000E+00  0.0000E+00
     -9.341  0.0000E+00  0.0000E+00  0.0000E+00  0.0000E+00
     -9.265  0.0000E+00  0.0000E+00  0.0000E+00  0.0000E+00
     -9.189  0.0000E+00  0.0000E+00  0.0000E+00  0.0000E+00
     -9.112 -0.1506E-30 -0.1506E-30 -0.1149E-31 -0.1149E-31
     -9.036 -0.5944E-28 -0.5944E-28 -0.4547E-29 -0.4547E-29
     -8.960 -0.1753E-25 -0.1753E-25 -0.1342E-26 -0.1342E-26
     -8.883 -0.3851E-23 -0.3851E-23 -0.2952E-24 -0.2952E-24
     -8.807 -0.6303E-21 -0.6303E-21 -0.4839E-22 -0.4839E-22
     -8.731 -0.7680E-19 -0.7680E-19 -0.5908E-20 -0.5908E-20
     -8.655 -0.6761E-17 -0.6761E-17 -0.5218E-18 -0.5218E-18
     -8.578 -0.4536E-15 -0.4536E-15 -0.3513E-16 -0.3513E-16
     -8.502 -0.2259E-13 -0.2259E-13 -0.1759E-14 -0.1759E-14
     -8.426 -0.8331E-12 -0.8331E-12 -0.6533E-13 -0.6533E-13
     -8.349 -0.2271E-10 -0.2271E-10 -0.1798E-11 -0.1798E-11
     -8.273 -0.4562E-09 -0.4562E-09 -0.3661E-10 -0.3661E-10
     -8.197 -0.6722E-08 -0.6722E-08 -0.5495E-09 -0.5495E-09
     -8.120 -0.7218E-07 -0.7218E-07 -0.6057E-08 -0.6057E-08
     -8.044 -0.5587E-06 -0.5587E-06 -0.4869E-07 -0.4869E-07
     -7.968 -0.3060E-05 -0.3060E-05 -0.2822E-06 -0.2822E-06
     -7.891 -0.1143E-04 -0.1143E-04 -0.1154E-05 -0.1154E-05
     -7.815 -0.2646E-04 -0.2646E-04 -0.3173E-05 -0.3173E-05
     -7.739 -0.2441E-04 -0.2441E-04 -0.5035E-05 -0.5035E-05
     -7.663  0.5600E-04  0.5600E-04 -0.7623E-06 -0.7623E-06
     -7.586  0.2434E-03  0.2434E-03  0.1781E-04  0.1781E-04
     -7.510  0.4214E-03  0.4214E-03  0.4997E-04  0.4997E-04
     -7.434  0.4412E-03  0.4412E-03  0.8363E-04  0.8363E-04
     -7.357  0.4611E-03  0.4611E-03  0.1188E-03  0.1188E-03
     -7.281  0.8820E-03  0.8820E-03  0.1861E-03  0.1861E-03
     -7.205  0.1663E-02  0.1663E-02  0.3130E-03  0.3130E-03
     -7.128  0.2143E-02  0.2143E-02  0.4765E-03  0.4765E-03
     -7.052  0.2083E-02  0.2083E-02  0.6354E-03  0.6354E-03
     -6.976  0.2329E-02  0.2329E-02  0.8131E-03  0.8131E-03
     -6.900  0.3678E-02  0.3678E-02  0.1094E-02  0.1094E-02
     -6.823  0.5489E-02  0.5489E-02  0.1513E-02  0.1513E-02
     -6.747  0.6259E-02  0.6259E-02  0.1990E-02  0.1990E-02
     -6.671  0.5457E-02  0.5457E-02  0.2407E-02  0.2407E-02
     -6.594  0.3979E-02  0.3979E-02  0.2710E-02  0.2710E-02
     -6.518  0.2780E-02  0.2780E-02  0.2922E-02  0.2922E-02
     -6.442  0.2071E-02  0.2071E-02  0.3080E-02  0.3080E-02
     -6.365  0.2057E-02  0.2057E-02  0.3237E-02  0.3237E-02
     -6.289  0.2963E-02  0.2963E-02  0.3463E-02  0.3463E-02
     -6.213  0.3984E-02  0.3984E-02  0.3767E-02  0.3767E-02
     -6.137  0.3935E-02  0.3935E-02  0.4068E-02  0.4068E-02
     -6.060  0.3198E-02  0.3198E-02  0.4312E-02  0.4312E-02
     -5.984  0.3310E-02  0.3310E-02  0.4564E-02  0.4564E-02
     -5.908  0.4556E-02  0.4556E-02  0.4912E-02  0.4912E-02
     -5.831  0.5643E-02  0.5643E-02  0.5342E-02  0.5342E-02
     -5.755  0.5661E-02  0.5661E-02  0.5774E-02  0.5774E-02
     -5.679  0.4910E-02  0.4910E-02  0.6149E-02  0.6149E-02
     -5.602  0.4169E-02  0.4169E-02  0.6467E-02  0.6467E-02
     -5.526  0.4261E-02  0.4261E-02  0.6792E-02  0.6792E-02
     -5.450  0.5374E-02  0.5374E-02  0.7202E-02  0.7202E-02
     -5.374  0.6205E-02  0.6205E-02  0.7676E-02  0.7676E-02
     -5.297  0.5226E-02  0.5226E-02  0.8074E-02  0.8074E-02
     -5.221  0.2963E-02  0.2963E-02  0.8301E-02  0.8301E-02
     -5.145  0.1472E-02  0.1472E-02  0.8413E-02  0.8413E-02
     -5.068  0.1736E-02  0.1736E-02  0.8545E-02  0.8545E-02
     -4.992  0.2906E-02  0.2906E-02  0.8767E-02  0.8767E-02
     -4.916  0.3954E-02  0.3954E-02  0.9069E-02  0.9069E-02
     -4.839  0.5055E-02  0.5055E-02  0.9454E-02  0.9454E-02
     -4.763  0.7077E-02  0.7077E-02  0.9994E-02  0.9994E-02
     -4.687  0.9997E-02  0.9997E-02  0.1076E-01  0.1076E-01
     -4.610  0.1226E-01  0.1226E-01  0.1169E-01  0.1169E-01
     -4.534  0.1224E-01  0.1224E-01  0.1263E-01  0.1263E-01
     -4.458  0.9950E-02  0.9950E-02  0.1339E-01  0.1339E-01
     -4.382  0.6827E-02  0.6827E-02  0.1391E-01  0.1391E-01
     -4.305  0.4391E-02  0.4391E-02  0.1424E-01  0.1424E-01
     -4.229  0.3618E-02  0.3618E-02  0.1452E-01  0.1452E-01
     -4.153  0.4647E-02  0.4647E-02  0.1487E-01  0.1487E-01
     -4.076  0.6465E-02  0.6465E-02  0.1537E-01  0.1537E-01
     -4.000  0.7847E-02  0.7847E-02  0.1596E-01  0.1596E-01
     -3.924  0.8890E-02  0.8890E-02  0.1664E-01  0.1664E-01
     -3.847  0.1026E-01  0.1026E-01  0.1743E-01  0.1743E-01
     -3.771  0.1180E-01  0.1180E-01  0.1833E-01  0.1833E-01
     -3.695  0.1342E-01  0.1342E-01  0.1935E-01  0.1935E-01
     -3.619  0.1540E-01  0.1540E-01  0.2052E-01  0.2052E-01
     -3.542  0.1708E-01  0.1708E-01  0.2183E-01  0.2183E-01
     -3.466  0.1734E-01  0.1734E-01  0.2315E-01  0.2315E-01
     -3.390  0.1616E-01  0.1616E-01  0.2438E-01  0.2438E-01
     -3.313  0.1448E-01  0.1448E-01  0.2549E-01  0.2549E-01
     -3.237  0.1414E-01  0.1414E-01  0.2657E-01  0.2657E-01
     -3.161  0.1813E-01  0.1813E-01  0.2795E-01  0.2795E-01
     -3.084  0.2815E-01  0.2815E-01  0.3010E-01  0.3010E-01
     -3.008  0.4063E-01  0.4063E-01  0.3320E-01  0.3320E-01
     -2.932  0.4778E-01  0.4778E-01  0.3684E-01  0.3684E-01
     -2.856  0.4575E-01  0.4575E-01  0.4034E-01  0.4034E-01
     -2.779  0.4042E-01  0.4042E-01  0.4342E-01  0.4342E-01
     -2.703  0.4061E-01  0.4061E-01  0.4652E-01  0.4652E-01
     -2.627  0.4751E-01  0.4751E-01  0.5014E-01  0.5014E-01
     -2.550  0.5573E-01  0.5573E-01  0.5440E-01  0.5440E-01
     -2.474  0.6369E-01  0.6369E-01  0.5926E-01  0.5926E-01
     -2.398  0.7574E-01  0.7574E-01  0.6504E-01  0.6504E-01
     -2.321  0.9175E-01  0.9175E-01  0.7204E-01  0.7204E-01
     -2.245  0.1013E+00  0.1013E+00  0.7977E-01  0.7977E-01
     -2.169  0.9507E-01  0.9507E-01  0.8702E-01  0.8702E-01
     -2.093  0.7825E-01  0.7825E-01  0.9299E-01  0.9299E-01
     -2.016  0.6611E-01  0.6611E-01  0.9804E-01  0.9804E-01
     -1.940  0.6715E-01  0.6715E-01  0.1032E+00  0.1032E+00
     -1.864  0.7722E-01  0.7722E-01  0.1091E+00  0.1091E+00
     -1.787  0.8739E-01  0.8739E-01  0.1157E+00  0.1157E+00
     -1.711  0.9228E-01  0.9228E-01  0.1228E+00  0.1228E+00
     -1.635  0.9255E-01  0.9255E-01  0.1298E+00  0.1298E+00
     -1.558  0.9332E-01  0.9332E-01  0.1369E+00  0.1369E+00
     -1.482  0.9963E-01  0.9963E-01  0.1445E+00  0.1445E+00
     -1.406  0.1117E+00  0.1117E+00  0.1531E+00  0.1531E+00
     -1.329  0.1244E+00  0.1244E+00  0.1626E+00  0.1626E+00
     -1.253  0.1324E+00  0.1324E+00  0.1727E+00  0.1727E+00
     -1.177  0.1357E+00  0.1357E+00  0.1830E+00  0.1830E+00
     -1.101  0.1378E+00  0.1378E+00  0.1935E+00  0.1935E+00
     -1.024  0.1384E+00  0.1384E+00  0.2041E+00  0.2041E+00
     -0.948  0.1342E+00  0.1342E+00  0.2143E+00  0.2143E+00
     -0.872  0.1263E+00  0.1263E+00  0.2240E+00  0.2240E+00
     -0.795  0.1195E+00  0.1195E+00  0.2331E+00  0.2331E+00
     -0.719  0.1166E+00  0.1166E+00  0.2420E+00  0.2420E+00
     -0.643  0.1199E+00  0.1199E+00  0.2511E+00  0.2511E+00
     -0.566  0.1301E+00  0.1301E+00  0.2611E+00  0.2611E+00
     -0.490  0.1412E+00  0.1412E+00  0.2718E+00  0.2718E+00
     -0.414  0.1456E+00  0.1456E+00  0.2829E+00  0.2829E+00
     -0.338  0.1436E+00  0.1436E+00  0.2939E+00  0.2939E+00
     -0.261  0.1414E+00  0.1414E+00  0.3047E+00  0.3047E+00
     -0.185  0.1418E+00  0.1418E+00  0.3155E+00  0.3155E+00
     -0.109  0.1435E+00  0.1435E+00  0.3264E+00  0.3264E+00
     -0.032  0.1483E+00  0.1483E+00  0.3378E+00  0.3378E+00
      0.044  0.1620E+00  0.1620E+00  0.3501E+00  0.3501E+00
      0.120  0.1839E+00  0.1839E+00  0.3642E+00  0.3642E+00
      0.197  0.2000E+00  0.2000E+00  0.3794E+00  0.3794E+00
      0.273  0.1935E+00  0.1935E+00  0.3942E+00  0.3942E+00
      0.349  0.1594E+00  0.1594E+00  0.4063E+00  0.4063E+00
      0.425  0.1093E+00  0.1093E+00  0.4147E+00  0.4147E+00
      0.502  0.6287E-01  0.6287E-01  0.4195E+00  0.4195E+00
      0.578  0.3347E-01  0.3347E-01  0.4220E+00  0.4220E+00
      0.654  0.2060E-01  0.2060E-01  0.4236E+00  0.4236E+00
      0.731  0.1676E-01  0.1676E-01  0.4249E+00  0.4249E+00
      0.807  0.1648E-01  0.1648E-01  0.4261E+00  0.4261E+00
      0.883  0.1732E-01  0.1732E-01  0.4275E+00  0.4275E+00
      0.960  0.1815E-01  0.1815E-01  0.4288E+00  0.4288E+00
      1.036  0.1895E-01  0.1895E-01  0.4303E+00  0.4303E+00
      1.112  0.1934E-01  0.1934E-01  0.4318E+00  0.4318E+00
      1.189  0.1780E-01  0.1780E-01  0.4331E+00  0.4331E+00
      1.265  0.1378E-01  0.1378E-01  0.4342E+00  0.4342E+00
      1.341  0.8959E-02  0.8959E-02  0.4349E+00  0.4349E+00
      1.417  0.5394E-02  0.5394E-02  0.4353E+00  0.4353E+00
      1.494  0.3689E-02  0.3689E-02  0.4356E+00  0.4356E+00
      1.570  0.3511E-02  0.3511E-02  0.4358E+00  0.4358E+00
      1.646  0.5054E-02  0.5054E-02  0.4362E+00  0.4362E+00
      1.723  0.9121E-02  0.9121E-02  0.4369E+00  0.4369E+00
      1.799  0.1571E-01  0.1571E-01  0.4381E+00  0.4381E+00
      1.875  0.2281E-01  0.2281E-01  0.4398E+00  0.4398E+00
      1.952  0.2681E-01  0.2681E-01  0.4419E+00  0.4419E+00
      2.028  0.2486E-01  0.2486E-01  0.4438E+00  0.4438E+00
      2.104  0.1767E-01  0.1767E-01  0.4451E+00  0.4451E+00
      2.180  0.9439E-02  0.9439E-02  0.4459E+00  0.4459E+00
      2.257  0.4510E-02  0.4510E-02  0.4462E+00  0.4462E+00
      2.333  0.4120E-02  0.4120E-02  0.4465E+00  0.4465E+00
      2.409  0.6238E-02  0.6238E-02  0.4470E+00  0.4470E+00
      2.486  0.8339E-02  0.8339E-02  0.4476E+00  0.4476E+00
      2.562  0.9819E-02  0.9819E-02  0.4484E+00  0.4484E+00
      2.638  0.1137E-01  0.1137E-01  0.4492E+00  0.4492E+00
      2.715  0.1333E-01  0.1333E-01  0.4503E+00  0.4503E+00
      2.791  0.1497E-01  0.1497E-01  0.4514E+00  0.4514E+00
      2.867  0.1461E-01  0.1461E-01  0.4525E+00  0.4525E+00
      2.943  0.1158E-01  0.1158E-01  0.4534E+00  0.4534E+00
      3.020  0.8539E-02  0.8539E-02  0.4541E+00  0.4541E+00
      3.096  0.9256E-02  0.9256E-02  0.4548E+00  0.4548E+00
      3.172  0.1379E-01  0.1379E-01  0.4558E+00  0.4558E+00
      3.249  0.1809E-01  0.1809E-01  0.4572E+00  0.4572E+00
      3.325  0.1848E-01  0.1848E-01  0.4586E+00  0.4586E+00
      3.401  0.1504E-01  0.1504E-01  0.4597E+00  0.4597E+00
      3.478  0.1041E-01  0.1041E-01  0.4605E+00  0.4605E+00
      3.554  0.6703E-02  0.6703E-02  0.4611E+00  0.4611E+00
      3.630  0.4982E-02  0.4982E-02  0.4614E+00  0.4614E+00
      3.706  0.6244E-02  0.6244E-02  0.4619E+00  0.4619E+00
      3.783  0.9970E-02  0.9970E-02  0.4627E+00  0.4627E+00
      3.859  0.1301E-01  0.1301E-01  0.4637E+00  0.4637E+00
      3.935  0.1264E-01  0.1264E-01  0.4646E+00  0.4646E+00
      4.012  0.9683E-02  0.9683E-02  0.4654E+00  0.4654E+00
      4.088  0.7225E-02  0.7225E-02  0.4659E+00  0.4659E+00
      4.164  0.7223E-02  0.7223E-02  0.4665E+00  0.4665E+00
      4.241  0.8704E-02  0.8704E-02  0.4671E+00  0.4671E+00
      4.317  0.9360E-02  0.9360E-02  0.4678E+00  0.4678E+00
      4.393  0.8615E-02  0.8615E-02  0.4685E+00  0.4685E+00
      4.470  0.7733E-02  0.7733E-02  0.4691E+00  0.4691E+00
      4.546  0.7655E-02  0.7655E-02  0.4697E+00  0.4697E+00
      4.622  0.8717E-02  0.8717E-02  0.4703E+00  0.4703E+00
      4.698  0.1101E-01  0.1101E-01  0.4712E+00  0.4712E+00
      4.775  0.1346E-01  0.1346E-01  0.4722E+00  0.4722E+00
      4.851  0.1398E-01  0.1398E-01  0.4733E+00  0.4733E+00
      4.927  0.1198E-01  0.1198E-01  0.4742E+00  0.4742E+00
      5.004  0.9563E-02  0.9563E-02  0.4749E+00  0.4749E+00
      5.080  0.9183E-02  0.9183E-02  0.4756E+00  0.4756E+00
      5.156  0.1060E-01  0.1060E-01  0.4764E+00  0.4764E+00
      5.233  0.1151E-01  0.1151E-01  0.4773E+00  0.4773E+00
      5.309  0.1078E-01  0.1078E-01  0.4781E+00  0.4781E+00
      5.385  0.1006E-01  0.1006E-01  0.4789E+00  0.4789E+00
      5.461  0.1154E-01  0.1154E-01  0.4798E+00  0.4798E+00
      5.538  0.1432E-01  0.1432E-01  0.4809E+00  0.4809E+00
      5.614  0.1461E-01  0.1461E-01  0.4820E+00  0.4820E+00
      5.690  0.1068E-01  0.1068E-01  0.4828E+00  0.4828E+00
      5.767  0.5891E-02  0.5891E-02  0.4833E+00  0.4833E+00
      5.843  0.4962E-02  0.4962E-02  0.4836E+00  0.4836E+00
      5.919  0.8621E-02  0.8621E-02  0.4843E+00  0.4843E+00
      5.996  0.1320E-01  0.1320E-01  0.4853E+00  0.4853E+00
      6.072  0.1490E-01  0.1490E-01  0.4864E+00  0.4864E+00
      6.148  0.1327E-01  0.1327E-01  0.4874E+00  0.4874E+00
      6.224  0.1074E-01  0.1074E-01  0.4883E+00  0.4883E+00
      6.301  0.1023E-01  0.1023E-01  0.4890E+00  0.4890E+00
      6.377  0.1298E-01  0.1298E-01  0.4900E+00  0.4900E+00
      6.453  0.1742E-01  0.1742E-01  0.4914E+00  0.4914E+00
      6.530  0.2032E-01  0.2032E-01  0.4929E+00  0.4929E+00
      6.606  0.1985E-01  0.1985E-01  0.4944E+00  0.4944E+00
      6.682  0.1706E-01  0.1706E-01  0.4957E+00  0.4957E+00
      6.759  0.1459E-01  0.1459E-01  0.4968E+00  0.4968E+00
      6.835  0.1417E-01  0.1417E-01  0.4979E+00  0.4979E+00
      6.911  0.1495E-01  0.1495E-01  0.4991E+00  0.4991E+00
      6.987  0.1464E-01  0.1464E-01  0.5002E+00  0.5002E+00
      7.064  0.1254E-01  0.1254E-01  0.5011E+00  0.5011E+00
      7.140  0.1043E-01  0.1043E-01  0.5019E+00  0.5019E+00
      7.216  0.9945E-02  0.9945E-02  0.5027E+00  0.5027E+00
      7.293  0.1092E-01  0.1092E-01  0.5035E+00  0.5035E+00
      7.369  0.1221E-01  0.1221E-01  0.5045E+00  0.5045E+00
      7.445  0.1326E-01  0.1326E-01  0.5055E+00  0.5055E+00
      7.522  0.1429E-01  0.1429E-01  0.5066E+00  0.5066E+00
      7.598  0.1560E-01  0.1560E-01  0.5078E+00  0.5078E+00
      7.674  0.1704E-01  0.1704E-01  0.5091E+00  0.5091E+00
      7.751  0.1835E-01  0.1835E-01  0.5105E+00  0.5105E+00
      7.827  0.1974E-01  0.1974E-01  0.5120E+00  0.5120E+00
      7.903  0.2128E-01  0.2128E-01  0.5136E+00  0.5136E+00
      7.979  0.2151E-01  0.2151E-01  0.5152E+00  0.5152E+00
      8.056  0.1843E-01  0.1843E-01  0.5166E+00  0.5166E+00
      8.132  0.1266E-01  0.1266E-01  0.5176E+00  0.5176E+00
      8.208  0.8171E-02  0.8171E-02  0.5182E+00  0.5182E+00
      8.285  0.9022E-02  0.9022E-02  0.5189E+00  0.5189E+00
      8.361  0.1497E-01  0.1497E-01  0.5200E+00  0.5200E+00
      8.437  0.2070E-01  0.2070E-01  0.5216E+00  0.5216E+00
      8.514  0.2108E-01  0.2108E-01  0.5232E+00  0.5232E+00
      8.590  0.1685E-01  0.1685E-01  0.5245E+00  0.5245E+00
      8.666  0.1287E-01  0.1287E-01  0.5255E+00  0.5255E+00
      8.742  0.1176E-01  0.1176E-01  0.5264E+00  0.5264E+00
      8.819  0.1275E-01  0.1275E-01  0.5274E+00  0.5274E+00
      8.895  0.1493E-01  0.1493E-01  0.5285E+00  0.5285E+00
      8.971  0.1809E-01  0.1809E-01  0.5299E+00  0.5299E+00
      9.048  0.2120E-01  0.2120E-01  0.5315E+00  0.5315E+00
      9.124  0.2263E-01  0.2263E-01  0.5332E+00  0.5332E+00
      9.200  0.2191E-01  0.2191E-01  0.5349E+00  0.5349E+00
      9.277  0.2021E-01  0.2021E-01  0.5365E+00  0.5365E+00
      9.353  0.1878E-01  0.1878E-01  0.5379E+00  0.5379E+00
      9.429  0.1797E-01  0.1797E-01  0.5393E+00  0.5393E+00
      9.505  0.1769E-01  0.1769E-01  0.5406E+00  0.5406E+00
      9.582  0.1764E-01  0.1764E-01  0.5420E+00  0.5420E+00
      9.658  0.1707E-01  0.1708E-01  0.5433E+00  0.5433E+00
      9.734  0.1575E-01  0.1575E-01  0.5445E+00  0.5445E+00
      9.811  0.1469E-01  0.1469E-01  0.5456E+00  0.5456E+00
      9.887  0.1478E-01  0.1478E-01  0.5467E+00  0.5467E+00
      9.963  0.1541E-01  0.1541E-01  0.5479E+00  0.5479E+00
     10.040  0.1537E-01  0.1537E-01  0.5491E+00  0.5491E+00
     10.116  0.1461E-01  0.1461E-01  0.5502E+00  0.5502E+00
     10.192  0.1475E-01  0.1475E-01  0.5513E+00  0.5513E+00
     10.269  0.1754E-01  0.1754E-01  0.5526E+00  0.5526E+00
     10.345  0.2293E-01  0.2293E-01  0.5544E+00  0.5544E+00
     10.421  0.2807E-01  0.2807E-01  0.5565E+00  0.5565E+00
     10.497  0.2903E-01  0.2903E-01  0.5587E+00  0.5587E+00
     10.574  0.2443E-01  0.2443E-01  0.5606E+00  0.5606E+00
     10.650  0.1717E-01  0.1717E-01  0.5619E+00  0.5619E+00
     10.726  0.1150E-01  0.1150E-01  0.5628E+00  0.5628E+00
     10.803  0.9219E-02  0.9219E-02  0.5635E+00  0.5635E+00
     10.879  0.9758E-02  0.9758E-02  0.5642E+00  0.5642E+00
     10.955  0.1204E-01  0.1204E-01  0.5652E+00  0.5652E+00
     11.032  0.1437E-01  0.1437E-01  0.5663E+00  0.5663E+00
     11.108  0.1435E-01  0.1435E-01  0.5674E+00  0.5674E+00
     11.184  0.1132E-01  0.1132E-01  0.5682E+00  0.5682E+00
     11.260  0.7662E-02  0.7663E-02  0.5688E+00  0.5688E+00
     11.337  0.5701E-02  0.5701E-02  0.5692E+00  0.5692E+00
     11.413  0.4937E-02  0.4937E-02  0.5696E+00  0.5696E+00
     11.489  0.3665E-02  0.3665E-02  0.5699E+00  0.5699E+00
     11.566  0.1737E-02  0.1737E-02  0.5700E+00  0.5700E+00
     11.642  0.2622E-03  0.2622E-03  0.5700E+00  0.5700E+00
     11.718 -0.2529E-03 -0.2530E-03  0.5700E+00  0.5700E+00
     11.795 -0.2119E-03 -0.2119E-03  0.5700E+00  0.5700E+00
     11.871 -0.8491E-04 -0.8491E-04  0.5700E+00  0.5700E+00
     11.947 -0.2176E-04 -0.2176E-04  0.5700E+00  0.5700E+00
     12.023 -0.3843E-05 -0.3843E-05  0.5700E+00  0.5700E+00
     12.100 -0.4829E-06 -0.4829E-06  0.5700E+00  0.5700E+00
     12.176 -0.4388E-07 -0.4388E-07  0.5700E+00  0.5700E+00
     12.252 -0.2911E-08 -0.2911E-08  0.5700E+00  0.5700E+00
     12.329 -0.1418E-09 -0.1418E-09  0.5700E+00  0.5700E+00
     12.405 -0.5097E-11 -0.5097E-11  0.5700E+00  0.5700E+00
     12.481 -0.1355E-12 -0.1355E-12  0.5700E+00  0.5700E+00
     12.558 -0.2669E-14 -0.2669E-14  0.5700E+00  0.5700E+00
     12.634 -0.3961E-16 -0.3961E-16  0.5700E+00  0.5700E+00
     12.710  0.0000E+00  0.0000E+00  0.5700E+00  0.5700E+00
     12.786  0.0000E+00  0.0000E+00  0.5700E+00  0.5700E+00
     12.863  0.0000E+00  0.0000E+00  0.5700E+00  0.5700E+00
     12.939  0.0000E+00  0.0000E+00  0.5700E+00  0.5700E+00
     13.015  0.0000E+00  0.0000E+00  0.5700E+00  0.5700E+00
     13.092  0.0000E+00  0.0000E+00  0.5700E+00  0.5700E+00
     13.168  0.0000E+00  0.0000E+00  0.5700E+00  0.5700E+00
     13.244  0.0000E+00  0.0000E+00  0.5700E+00  0.5700E+00
     13.321  0.0000E+00  0.0000E+00  0.5700E+00  0.5700E+00
     13.397  0.0000E+00  0.0000E+00  0.5700E+00  0.5700E+00
