<?xml version="1.0" encoding="ISO-8859-1"?>
<modeling>
 <generator>
  <i name="program" type="string">vasp </i>
  <i name="version" type="string">6.3.2  </i>
  <i name="subversion" type="string">27Jun22 (build Aug 17 2022 15:43:34) complex                          parallel </i>
  <i name="platform" type="string">tv2STDVTST </i>
  <i name="date" type="string">2025 02 17 </i>
  <i name="time" type="string">15:53:41 </i>
 </generator>
 <incar>
  <i type="int" name="ISTART">     0</i>
  <i type="string" name="PREC">Normal</i>
  <i type="int" name="ISPIN">     2</i>
  <i type="int" name="ICHARG">     2</i>
  <i type="int" name="IBRION">     2</i>
  <i name="EDIFF">      0.00020000</i>
  <i name="EDIFFG">     -0.03000000</i>
  <i type="int" name="NSW">   800</i>
  <i type="int" name="ISIF">     2</i>
  <i type="int" name="ISYM">     1</i>
  <i name="ENCUT">    400.00000000</i>
  <i name="POTIM">      0.50000000</i>
  <i type="logical" name="LREAL"> F  </i>
  <i type="int" name="ISMEAR">     1</i>
  <i name="SIGMA">      0.20000000</i>
  <i type="logical" name="LWAVE"> F  </i>
  <i type="logical" name="LCHARG"> F  </i>
  <i type="string" name="GGA">PE</i>
  <i type="int" name="IVDW">    11</i>
 </incar>
 <primitive_cell>
  <structure name="primitive_cell" >
   <crystal>
    <varray name="basis" >
     <v>       7.26000023       0.00000000       0.00000000 </v>
     <v>       0.00000000       7.26000023       0.00000000 </v>
     <v>       0.00000000       0.00000000      27.70499992 </v>
    </varray>
    <i name="volume">   1460.26414606 </i>
    <varray name="rec_basis" >
     <v>       0.13774104       0.00000000       0.00000000 </v>
     <v>       0.00000000       0.13774104       0.00000000 </v>
     <v>       0.00000000       0.00000000       0.03609457 </v>
    </varray>
   </crystal>
   <varray name="positions" >
    <v>       0.00000000       0.00000000       0.00000000 </v>
    <v>       0.00000000       0.50000000       0.00000000 </v>
    <v>       0.50000000       0.00000000       0.00000000 </v>
    <v>       0.50000000       0.50000000       0.00000000 </v>
    <v>       0.25000000       0.25000000       0.00000000 </v>
    <v>       0.25000000       0.75000000       0.00000000 </v>
    <v>       0.75000000       0.25000000       0.00000000 </v>
    <v>       0.75000000       0.75000000       0.00000000 </v>
    <v>       0.00000000       0.25000000       0.06551164 </v>
    <v>       0.00000000       0.75000000       0.06551164 </v>
    <v>       0.50000000       0.25000000       0.06551164 </v>
    <v>       0.50000000       0.75000000       0.06551164 </v>
    <v>       0.25000000       0.00000000       0.06551164 </v>
    <v>       0.25000000       0.50000000       0.06551164 </v>
    <v>       0.75000000       0.00000000       0.06551164 </v>
    <v>       0.75000000       0.50000000       0.06551164 </v>
    <v>       0.00000000       0.00000000       0.13164128 </v>
    <v>       0.00000000       0.50000000       0.13164128 </v>
    <v>       0.50000000       0.00000000       0.13164128 </v>
    <v>       0.50000000       0.50000000       0.13164128 </v>
    <v>       0.25000000       0.25000000       0.13164128 </v>
    <v>       0.25000000       0.75000000       0.13164128 </v>
    <v>       0.75000000       0.25000000       0.13164128 </v>
    <v>       0.75000000       0.75000000       0.13164128 </v>
    <v>       0.00000000       0.25000000       0.19677891 </v>
    <v>       0.00000000       0.75000000       0.19677891 </v>
    <v>       0.50000000       0.25000000       0.19677891 </v>
    <v>       0.50000000       0.75000000       0.19677891 </v>
    <v>       0.25000000       0.00000000       0.19677891 </v>
    <v>       0.25000000       0.50000000       0.19677891 </v>
    <v>       0.75000000       0.00000000       0.19677891 </v>
    <v>       0.75000000       0.50000000       0.19677891 </v>
    <v>       0.00000000       0.00000000       0.26184662 </v>
    <v>       0.00000000       0.50000000       0.26184662 </v>
    <v>       0.50000000       0.00000000       0.26184662 </v>
    <v>       0.50000000       0.50000000       0.26184662 </v>
    <v>       0.25000000       0.25000000       0.26184662 </v>
    <v>       0.25000000       0.75000000       0.26184662 </v>
    <v>       0.75000000       0.25000000       0.26184662 </v>
    <v>       0.75000000       0.75000000       0.26184662 </v>
    <v>       0.00000000       0.25000000       0.32758887 </v>
    <v>       0.00000000       0.75000000       0.32758887 </v>
    <v>       0.50000000       0.25000000       0.32758887 </v>
    <v>       0.50000000       0.75000000       0.32758887 </v>
    <v>       0.25000000       0.00000000       0.32758887 </v>
    <v>       0.25000000       0.50000000       0.32758887 </v>
    <v>       0.75000000       0.00000000       0.32758887 </v>
    <v>       0.75000000       0.50000000       0.32758887 </v>
    <v>       0.00000000       0.00000000       0.39185763 </v>
    <v>       0.00000000       0.50000000       0.39185763 </v>
    <v>       0.50000000       0.00000000       0.39185763 </v>
    <v>       0.50000000       0.50000000       0.39185763 </v>
    <v>       0.25000000       0.25000000       0.39185763 </v>
    <v>       0.25000000       0.75000000       0.39185763 </v>
    <v>       0.75000000       0.25000000       0.39185763 </v>
    <v>       0.75000000       0.75000000       0.39185763 </v>
    <v>       0.00000000       0.25000000       0.45475490 </v>
    <v>       0.00000000       0.75000000       0.45475490 </v>
    <v>       0.50000000       0.25000000       0.45475490 </v>
    <v>       0.50000000       0.75000000       0.45475490 </v>
    <v>       0.25000000       0.00000000       0.45475490 </v>
    <v>       0.25000000       0.50000000       0.45475490 </v>
    <v>       0.75000000       0.00000000       0.45475490 </v>
    <v>       0.75000000       0.50000000       0.45475490 </v>
    <v>       0.37500000       0.62500000       0.50150658 </v>
    <v>       0.37500000       0.69765863       0.52054652 </v>
   </varray>
  </structure>
  <varray name="primitive_index" >
   <v type="int" >        1 </v>
   <v type="int" >        2 </v>
   <v type="int" >        3 </v>
   <v type="int" >        4 </v>
   <v type="int" >        5 </v>
   <v type="int" >        6 </v>
   <v type="int" >        7 </v>
   <v type="int" >        8 </v>
   <v type="int" >        9 </v>
   <v type="int" >       10 </v>
   <v type="int" >       11 </v>
   <v type="int" >       12 </v>
   <v type="int" >       13 </v>
   <v type="int" >       14 </v>
   <v type="int" >       15 </v>
   <v type="int" >       16 </v>
   <v type="int" >       17 </v>
   <v type="int" >       18 </v>
   <v type="int" >       19 </v>
   <v type="int" >       20 </v>
   <v type="int" >       21 </v>
   <v type="int" >       22 </v>
   <v type="int" >       23 </v>
   <v type="int" >       24 </v>
   <v type="int" >       25 </v>
   <v type="int" >       26 </v>
   <v type="int" >       27 </v>
   <v type="int" >       28 </v>
   <v type="int" >       29 </v>
   <v type="int" >       30 </v>
   <v type="int" >       31 </v>
   <v type="int" >       32 </v>
   <v type="int" >       33 </v>
   <v type="int" >       34 </v>
   <v type="int" >       35 </v>
   <v type="int" >       36 </v>
   <v type="int" >       37 </v>
   <v type="int" >       38 </v>
   <v type="int" >       39 </v>
   <v type="int" >       40 </v>
   <v type="int" >       41 </v>
   <v type="int" >       42 </v>
   <v type="int" >       43 </v>
   <v type="int" >       44 </v>
   <v type="int" >       45 </v>
   <v type="int" >       46 </v>
   <v type="int" >       47 </v>
   <v type="int" >       48 </v>
   <v type="int" >       49 </v>
   <v type="int" >       50 </v>
   <v type="int" >       51 </v>
   <v type="int" >       52 </v>
   <v type="int" >       53 </v>
   <v type="int" >       54 </v>
   <v type="int" >       55 </v>
   <v type="int" >       56 </v>
   <v type="int" >       57 </v>
   <v type="int" >       58 </v>
   <v type="int" >       59 </v>
   <v type="int" >       60 </v>
   <v type="int" >       61 </v>
   <v type="int" >       62 </v>
   <v type="int" >       63 </v>
   <v type="int" >       64 </v>
   <v type="int" >       65 </v>
   <v type="int" >       66 </v>
  </varray>
 </primitive_cell>
 <kpoints>
  <generation param="Monkhorst-Pack">
   <v type="int" name="divisions">       3        3        1 </v>
   <v name="usershift">      0.00000000       0.00000000       0.00000000 </v>
   <v name="genvec1">      0.33333333       0.00000000       0.00000000 </v>
   <v name="genvec2">      0.00000000       0.33333333       0.00000000 </v>
   <v name="genvec3">      0.00000000       0.00000000       1.00000000 </v>
   <v name="shift">      0.00000000       0.00000000       0.00000000 </v>
  </generation>
  <varray name="kpointlist" >
   <v>       0.00000000       0.00000000       0.00000000 </v>
   <v>       0.33333333       0.00000000       0.00000000 </v>
   <v>       0.00000000       0.33333333       0.00000000 </v>
   <v>       0.33333333       0.33333333       0.00000000 </v>
   <v>      -0.33333333       0.33333333       0.00000000 </v>
  </varray>
  <varray name="weights" >
   <v>       0.11111111 </v>
   <v>       0.22222222 </v>
   <v>       0.22222222 </v>
   <v>       0.22222222 </v>
   <v>       0.22222222 </v>
  </varray>
 </kpoints>
 <parameters>
  <separator name="general" >
   <i type="string" name="SYSTEM">unknown system</i>
   <i type="logical" name="LCOMPAT"> F  </i>
  </separator>
  <separator name="electronic" >
   <i type="string" name="PREC">normal</i>
   <i name="ENMAX">    400.00000000</i>
   <i name="ENAUG">    586.98000000</i>
   <i name="EDIFF">      0.00020000</i>
   <i type="int" name="IALGO">    38</i>
   <i type="int" name="IWAVPR">    11</i>
   <i type="int" name="NBANDS">   456</i>
   <i type="int" name="NBANDSLOW">    -1</i>
   <i type="int" name="NBANDSHIGH">    -1</i>
   <i name="NELECT">    706.00000000</i>
   <i type="int" name="TURBO">     0</i>
   <i type="int" name="IRESTART">     0</i>
   <i type="int" name="NREBOOT">     0</i>
   <i type="int" name="NMIN">     0</i>
   <i name="EREF">      0.00000000</i>
   <separator name="electronic smearing" >
    <i type="int" name="ISMEAR">     1</i>
    <i name="SIGMA">      0.20000000</i>
    <i name="KSPACING">      0.50000000</i>
    <i type="logical" name="KGAMMA"> T  </i>
    <i type="logical" name="KBLOWUP"> T  </i>
   </separator>
   <separator name="electronic projectors" >
    <i type="logical" name="LREAL"> F  </i>
    <v name="ROPT">      0.00000000      0.00000000</v>
    <i type="int" name="LMAXPAW">  -100</i>
    <i type="int" name="LMAXMIX">     2</i>
    <i type="logical" name="NLSPLINE"> F  </i>
   </separator>
   <separator name="electronic startup" >
    <i type="int" name="ISTART">     0</i>
    <i type="int" name="ICHARG">     2</i>
    <i type="int" name="INIWAV">     1</i>
   </separator>
   <separator name="electronic spin" >
    <i type="int" name="ISPIN">     2</i>
    <i type="logical" name="LNONCOLLINEAR"> F  </i>
    <v name="MAGMOM">      1.00000000      1.00000000      1.00000000      1.00000000      1.00000000      1.00000000      1.00000000      1.00000000      1.00000000      1.00000000      1.00000000      1.00000000      1.00000000      1.00000000      1.00000000      1.00000000      1.00000000      1.00000000      1.00000000      1.00000000
      1.00000000      1.00000000      1.00000000      1.00000000      1.00000000      1.00000000      1.00000000      1.00000000      1.00000000      1.00000000      1.00000000      1.00000000      1.00000000      1.00000000      1.00000000      1.00000000      1.00000000      1.00000000      1.00000000      1.00000000
      1.00000000      1.00000000      1.00000000      1.00000000      1.00000000      1.00000000      1.00000000      1.00000000      1.00000000      1.00000000      1.00000000      1.00000000      1.00000000      1.00000000      1.00000000      1.00000000      1.00000000      1.00000000      1.00000000      1.00000000
      1.00000000      1.00000000      1.00000000      1.00000000      1.00000000      1.00000000</v>
    <i name="NUPDOWN">     -1.00000000</i>
    <i type="logical" name="LSORBIT"> F  </i>
    <v name="SAXIS">      0.00000000      0.00000000      1.00000000</v>
    <i type="logical" name="LSPIRAL"> F  </i>
    <v name="QSPIRAL">      0.00000000      0.00000000      0.00000000</v>
    <i type="logical" name="LZEROZ"> F  </i>
   </separator>
   <separator name="electronic exchange-correlation" >
    <i type="logical" name="LASPH"> F  </i>
    <i type="logical" name="LMETAGGA"> F  </i>
   </separator>
   <separator name="electronic convergence" >
    <i type="int" name="NELM">    60</i>
    <i type="int" name="NELMDL">    -5</i>
    <i type="int" name="NELMIN">     2</i>
    <i name="ENINI">    400.00000000</i>
    <separator name="electronic convergence detail" >
     <i type="logical" name="LDIAG"> T  </i>
     <i type="logical" name="LSUBROT"> F  </i>
     <i name="WEIMIN">      0.00100000</i>
     <i name="EBREAK">      0.00000011</i>
     <i name="DEPER">      0.30000000</i>
     <i type="int" name="NRMM">     4</i>
     <i name="TIME">      0.40000000</i>
    </separator>
   </separator>
   <separator name="electronic mixer" >
    <i name="AMIX">      0.40000000</i>
    <i name="BMIX">      1.00000000</i>
    <i name="AMIN">      0.10000000</i>
    <i name="AMIX_MAG">      1.60000000</i>
    <i name="BMIX_MAG">      1.00000000</i>
    <separator name="electronic mixer details" >
     <i type="int" name="IMIX">     4</i>
     <i type="logical" name="MIXFIRST"> F  </i>
     <i type="int" name="MAXMIX">   -45</i>
     <i name="WC">    100.00000000</i>
     <i type="int" name="INIMIX">     1</i>
     <i type="int" name="MIXPRE">     1</i>
     <i type="int" name="MREMOVE">     5</i>
    </separator>
   </separator>
   <separator name="electronic dipolcorrection" >
    <i type="logical" name="LDIPOL"> F  </i>
    <i type="logical" name="LMONO"> F  </i>
    <i type="int" name="IDIPOL">     0</i>
    <i name="EPSILON">      1.00000000</i>
    <v name="DIPOL">   -100.00000000   -100.00000000   -100.00000000</v>
    <i name="EFIELD">      0.00000000</i>
   </separator>
  </separator>
  <separator name="grids" >
   <i type="int" name="NGX">    36</i>
   <i type="int" name="NGY">    36</i>
   <i type="int" name="NGZ">   140</i>
   <i type="int" name="NGXF">    72</i>
   <i type="int" name="NGYF">    72</i>
   <i type="int" name="NGZF">   280</i>
   <i type="logical" name="ADDGRID"> F  </i>
  </separator>
  <separator name="ionic" >
   <i type="int" name="NSW">   800</i>
   <i type="int" name="IBRION">     2</i>
   <i type="int" name="MDALGO">     0</i>
   <i type="int" name="ISIF">     2</i>
   <i name="PSTRESS">      0.00000000</i>
   <i name="EDIFFG">     -0.03000000</i>
   <i type="int" name="NFREE">     1</i>
   <i name="POTIM">      0.50000000</i>
   <i name="SMASS">     -3.00000000</i>
   <i name="SCALEE">      1.00000000</i>
  </separator>
  <separator name="ionic md" >
   <i name="TEBEG">      0.00010000</i>
   <i name="TEEND">      0.00010000</i>
   <i type="int" name="NBLOCK">     1</i>
   <i type="int" name="KBLOCK">   800</i>
   <i type="int" name="NPACO">   256</i>
   <i name="APACO">     10.00000000</i>
  </separator>
  <separator name="symmetry" >
   <i type="int" name="ISYM">     1</i>
   <i name="SYMPREC">      0.00001000</i>
  </separator>
  <separator name="dos" >
   <i type="int" name="LORBIT">     0</i>
   <v name="RWIGS">     -1.00000000     -1.00000000</v>
   <i type="int" name="NEDOS">   301</i>
   <i name="EMIN">     10.00000000</i>
   <i name="EMAX">    -10.00000000</i>
   <i name="EFERMI">      0.00000000</i>
  </separator>
  <separator name="writing" >
   <i type="int" name="NWRITE">     2</i>
   <i type="logical" name="LWAVE"> F  </i>
   <i type="logical" name="LDOWNSAMPLE"> F  </i>
   <i type="logical" name="LCHARG"> F  </i>
   <i type="logical" name="LPARD"> F  </i>
   <i type="logical" name="LVTOT"> F  </i>
   <i type="logical" name="LVHAR"> F  </i>
   <i type="logical" name="LELF"> F  </i>
   <i type="logical" name="LOPTICS"> F  </i>
   <v name="STM">      0.00000000      0.00000000      0.00000000      0.00000000      0.00000000      0.00000000      0.00000000</v>
  </separator>
  <separator name="performance" >
   <i type="int" name="NPAR">     4</i>
   <i type="int" name="NSIM">     4</i>
   <i type="int" name="NBLK">    -1</i>
   <i type="logical" name="LPLANE"> T  </i>
   <i type="logical" name="LSCALAPACK"> T  </i>
   <i type="logical" name="LSCAAWARE"> F  </i>
   <i type="logical" name="LSCALU"> F  </i>
   <i type="logical" name="LASYNC"> F  </i>
   <i type="logical" name="LORBITALREAL"> F  </i>
  </separator>
  <separator name="miscellaneous" >
   <i type="int" name="IDIOT">     3</i>
   <i type="int" name="PHON_NSTRUCT">    -1</i>
   <i type="logical" name="LMUSIC"> F  </i>
   <v name="POMASS">     63.54600000      1.00000000</v>
   <v name="DARWINR">      0.00000000      0.00000000</v>
   <v name="DARWINV">      1.00000000      1.00000000</v>
   <i type="logical" name="LCORR"> T  </i>
  </separator>
  <i type="logical" name="GGA_COMPAT"> T  </i>
  <i type="logical" name="LBERRY"> F  </i>
  <i type="int" name="ICORELEVEL">     0</i>
  <i type="logical" name="LDAU"> F  </i>
  <i type="int" name="I_CONSTRAINED_M">     0</i>
  <separator name="electronic exchange-correlation" >
   <i type="string" name="GGA">PE</i>
   <i type="int" name="VOSKOWN">     0</i>
   <i type="logical" name="LHFCALC"> F  </i>
   <i type="string" name="PRECFOCK"></i>
   <i type="logical" name="LSYMGRAD"> F  </i>
   <i type="logical" name="LHFONE"> F  </i>
   <i type="logical" name="LRHFCALC"> F  </i>
   <i type="logical" name="LTHOMAS"> F  </i>
   <i type="logical" name="LMODELHF"> F  </i>
   <i type="logical" name="LFOCKACE"> F  </i>
   <i name="ENCUT4O">     -1.00000000</i>
   <i type="int" name="EXXOEP">     0</i>
   <i type="int" name="FOURORBIT">     0</i>
   <i name="AEXX">      0.00000000</i>
   <i name="HFALPHA">      0.00000000</i>
   <i name="MCALPHA">      0.00000000</i>
   <i name="ALDAX">      1.00000000</i>
   <i name="AGGAX">      1.00000000</i>
   <i name="ALDAC">      1.00000000</i>
   <i name="AGGAC">      1.00000000</i>
   <i type="int" name="NKREDX">     1</i>
   <i type="int" name="NKREDY">     1</i>
   <i type="int" name="NKREDZ">     1</i>
   <i type="logical" name="SHIFTRED"> F  </i>
   <i type="logical" name="ODDONLY"> F  </i>
   <i type="logical" name="EVENONLY"> F  </i>
   <i type="int" name="LMAXFOCK">     0</i>
   <i type="int" name="NMAXFOCKAE">     0</i>
   <i type="logical" name="LFOCKAEDFT"> F  </i>
   <i name="HFSCREEN">      0.00000000</i>
   <i name="HFSCREENC">      0.00000000</i>
   <i type="int" name="NBANDSGWLOW">     0</i>
  </separator>
  <separator name="vdW DFT" >
   <i type="logical" name="LUSE_VDW"> F  </i>
   <i name="Zab_VDW">     -0.84910000</i>
   <i name="PARAM1">      0.12340000</i>
   <i name="PARAM2">      1.00000000</i>
   <i name="PARAM3">      0.00000000</i>
  </separator>
  <separator name="model GW" >
   <i type="int" name="MODEL_GW">     0</i>
   <i name="MODEL_EPS0">     13.27512860</i>
   <i name="MODEL_ALPHA">      1.00000000</i>
  </separator>
  <separator name="linear response parameters" >
   <i type="logical" name="LEPSILON"> F  </i>
   <i type="logical" name="LRPA"> F  </i>
   <i type="logical" name="LNABLA"> F  </i>
   <i type="logical" name="LVEL"> F  </i>
   <i name="CSHIFT">      0.10000000</i>
   <i name="OMEGAMAX">     -1.00000000</i>
   <i name="DEG_THRESHOLD">      0.00200000</i>
   <i name="RTIME">     -0.10000000</i>
   <i name="WPLASMAI">      0.00000000</i>
   <v name="DFIELD">      0.00000000      0.00000000      0.00000000</v>
   <v name="WPLASMA">      0.00000000      0.00000000      0.00000000      0.00000000      0.00000000      0.00000000      0.00000000      0.00000000      0.00000000</v>
  </separator>
  <separator name="orbital magnetization" >
   <i type="logical" name="NUCIND"> F  </i>
   <v name="MAGPOS">      0.00000000      0.00000000      0.00000000</v>
   <i type="logical" name="LNICSALL"> T  </i>
   <i type="logical" name="ORBITALMAG"> F  </i>
   <i type="logical" name="LMAGBLOCH"> F  </i>
   <i type="logical" name="LCHIMAG"> F  </i>
   <i type="logical" name="LGAUGE"> T  </i>
   <i type="int" name="MAGATOM">     0</i>
   <v name="MAGDIPOL">      0.00000000      0.00000000      0.00000000</v>
   <v name="AVECCONST">      0.00000000      0.00000000      0.00000000</v>
  </separator>
  <separator name="response functions" >
   <i type="logical" name="LFINITE_TEMPERATURE"> F  </i>
   <i type="logical" name="LADDER"> F  </i>
   <i type="logical" name="LRPAFORCE"> F  </i>
   <i type="logical" name="LFXC"> F  </i>
   <i type="logical" name="LHARTREE"> T  </i>
   <i type="int" name="IBSE">     0</i>
   <v type="int" name="KPOINT">    -1     0     0     0</v>
   <i type="logical" name="LTCTC"> F  </i>
   <i type="logical" name="LTCTE"> F  </i>
   <i type="logical" name="LTETE"> F  </i>
   <i type="logical" name="LTRIPLET"> F  </i>
   <i type="logical" name="LFXCEPS"> F  </i>
   <i type="logical" name="LFXHEG"> F  </i>
   <i type="int" name="NATURALO">     2</i>
   <i type="logical" name="LHOLEGF"> F  </i>
   <i type="logical" name="L2ORDER"> F  </i>
   <i type="logical" name="LDMP1"> F  </i>
   <i type="logical" name="LMP2LT"> F  </i>
   <i type="logical" name="LSMP2LT"> F  </i>
   <i type="logical" name="LGWLF"> F  </i>
   <i name="ENCUTGW">     -2.00000000</i>
   <i name="ENCUTGWSOFT">     -2.00000000</i>
   <i name="ENCUTLF">     -1.00000000</i>
   <i type="logical" name="LESF_SPLINES"> F  </i>
   <i type="int" name="LMAXMP2">    -1</i>
   <i name="SCISSOR">      0.00000000</i>
   <i type="int" name="NOMEGA">     0</i>
   <i type="int" name="NOMEGAR">     0</i>
   <i type="int" name="NBANDSGW">    -1</i>
   <i type="int" name="NBANDSO">    -1</i>
   <i type="int" name="NBANDSV">    -1</i>
   <i type="int" name="NELMGW">     1</i>
   <i type="int" name="NELMHF">     1</i>
   <i type="int" name="DIM">     3</i>
   <i type="int" name="IESPILON">     4</i>
   <i type="int" name="ANTIRES">     0</i>
   <i name="OMEGAMAX">    -30.00000000</i>
   <i name="OMEGAMIN">    -30.00000000</i>
   <i name="OMEGATL">   -200.00000000</i>
   <i type="int" name="OMEGAGRID">     0</i>
   <i name="CSHIFT">     -0.10000000</i>
   <i type="logical" name="LSELFENERGY"> F  </i>
   <i type="logical" name="LSPECTRAL"> F  </i>
   <i type="logical" name="LSPECTRALGW"> F  </i>
   <i type="logical" name="LSINGLES"> F  </i>
   <i type="logical" name="LFERMIGW"> F  </i>
   <i type="logical" name="ODDONLYGW"> F  </i>
   <i type="logical" name="EVENONLYGW"> F  </i>
   <i type="int" name="NKREDLFX">     1</i>
   <i type="int" name="NKREDLFY">     1</i>
   <i type="int" name="NKREDLFZ">     1</i>
   <i type="int" name="MAXMEM">  2800</i>
   <i type="int" name="TELESCOPE">     0</i>
   <i type="int" name="NTAUPAR">    -1</i>
   <i type="int" name="NOMEGAPAR">    -1</i>
   <i name="DAMP_NEWTON">      0.80000001</i>
   <i name="LAMBDA">      1.00000000</i>
  </separator>
  <separator name="External order field" >
   <i name="OFIELD_KAPPA">      0.00000000</i>
   <v name="OFIELD_K">      0.00000000      0.00000000      0.00000000</v>
   <i name="OFIELD_Q6_NEAR">      0.00000000</i>
   <i name="OFIELD_Q6_FAR">      0.00000000</i>
   <i name="OFIELD_A">      0.00000000</i>
  </separator>
  <separator name="optional k-points parameters" >
   <i type="int" name="KPOINTS_OPT_MODE">     1</i>
   <i type="logical" name="LKPOINTS_OPT"> F  </i>
  </separator>
 </parameters>
 <atominfo>
  <atoms>      66 </atoms>
  <types>       2 </types>
  <array name="atoms" >
   <dimension dim="1">ion</dimension>
   <field type="string">element</field>
   <field type="int">atomtype</field>
   <set>
    <rc><c>Cu</c><c>   1</c></rc>
    <rc><c>Cu</c><c>   1</c></rc>
    <rc><c>Cu</c><c>   1</c></rc>
    <rc><c>Cu</c><c>   1</c></rc>
    <rc><c>Cu</c><c>   1</c></rc>
    <rc><c>Cu</c><c>   1</c></rc>
    <rc><c>Cu</c><c>   1</c></rc>
    <rc><c>Cu</c><c>   1</c></rc>
    <rc><c>Cu</c><c>   1</c></rc>
    <rc><c>Cu</c><c>   1</c></rc>
    <rc><c>Cu</c><c>   1</c></rc>
    <rc><c>Cu</c><c>   1</c></rc>
    <rc><c>Cu</c><c>   1</c></rc>
    <rc><c>Cu</c><c>   1</c></rc>
    <rc><c>Cu</c><c>   1</c></rc>
    <rc><c>Cu</c><c>   1</c></rc>
    <rc><c>Cu</c><c>   1</c></rc>
    <rc><c>Cu</c><c>   1</c></rc>
    <rc><c>Cu</c><c>   1</c></rc>
    <rc><c>Cu</c><c>   1</c></rc>
    <rc><c>Cu</c><c>   1</c></rc>
    <rc><c>Cu</c><c>   1</c></rc>
    <rc><c>Cu</c><c>   1</c></rc>
    <rc><c>Cu</c><c>   1</c></rc>
    <rc><c>Cu</c><c>   1</c></rc>
    <rc><c>Cu</c><c>   1</c></rc>
    <rc><c>Cu</c><c>   1</c></rc>
    <rc><c>Cu</c><c>   1</c></rc>
    <rc><c>Cu</c><c>   1</c></rc>
    <rc><c>Cu</c><c>   1</c></rc>
    <rc><c>Cu</c><c>   1</c></rc>
    <rc><c>Cu</c><c>   1</c></rc>
    <rc><c>Cu</c><c>   1</c></rc>
    <rc><c>Cu</c><c>   1</c></rc>
    <rc><c>Cu</c><c>   1</c></rc>
    <rc><c>Cu</c><c>   1</c></rc>
    <rc><c>Cu</c><c>   1</c></rc>
    <rc><c>Cu</c><c>   1</c></rc>
    <rc><c>Cu</c><c>   1</c></rc>
    <rc><c>Cu</c><c>   1</c></rc>
    <rc><c>Cu</c><c>   1</c></rc>
    <rc><c>Cu</c><c>   1</c></rc>
    <rc><c>Cu</c><c>   1</c></rc>
    <rc><c>Cu</c><c>   1</c></rc>
    <rc><c>Cu</c><c>   1</c></rc>
    <rc><c>Cu</c><c>   1</c></rc>
    <rc><c>Cu</c><c>   1</c></rc>
    <rc><c>Cu</c><c>   1</c></rc>
    <rc><c>Cu</c><c>   1</c></rc>
    <rc><c>Cu</c><c>   1</c></rc>
    <rc><c>Cu</c><c>   1</c></rc>
    <rc><c>Cu</c><c>   1</c></rc>
    <rc><c>Cu</c><c>   1</c></rc>
    <rc><c>Cu</c><c>   1</c></rc>
    <rc><c>Cu</c><c>   1</c></rc>
    <rc><c>Cu</c><c>   1</c></rc>
    <rc><c>Cu</c><c>   1</c></rc>
    <rc><c>Cu</c><c>   1</c></rc>
    <rc><c>Cu</c><c>   1</c></rc>
    <rc><c>Cu</c><c>   1</c></rc>
    <rc><c>Cu</c><c>   1</c></rc>
    <rc><c>Cu</c><c>   1</c></rc>
    <rc><c>Cu</c><c>   1</c></rc>
    <rc><c>Cu</c><c>   1</c></rc>
    <rc><c>H </c><c>   2</c></rc>
    <rc><c>H </c><c>   2</c></rc>
   </set>
  </array>
  <array name="atomtypes" >
   <dimension dim="1">type</dimension>
   <field type="int">atomspertype</field>
   <field type="string">element</field>
   <field>mass</field>
   <field>valence</field>
   <field type="string">pseudopotential</field>
   <set>
    <rc><c>  64</c><c>Cu</c><c>     63.54600000</c><c>     11.00000000</c><c>  PAW_PBE Cu 22Jun2005                  </c></rc>
    <rc><c>   2</c><c>H </c><c>      1.00000000</c><c>      1.00000000</c><c>  PAW_PBE H 15Jun2001                   </c></rc>
   </set>
  </array>
 </atominfo>
 <structure name="initialpos" >
  <crystal>
   <varray name="basis" >
    <v>       7.26000023       0.00000000       0.00000000 </v>
    <v>       0.00000000       7.26000023       0.00000000 </v>
    <v>       0.00000000       0.00000000      27.70499992 </v>
   </varray>
   <i name="volume">   1460.26414606 </i>
   <varray name="rec_basis" >
    <v>       0.13774104       0.00000000       0.00000000 </v>
    <v>       0.00000000       0.13774104       0.00000000 </v>
    <v>       0.00000000       0.00000000       0.03609457 </v>
   </varray>
  </crystal>
  <varray name="positions" >
   <v>       0.00000000       0.00000000       0.00000000 </v>
   <v>       0.00000000       0.50000000       0.00000000 </v>
   <v>       0.50000000       0.00000000       0.00000000 </v>
   <v>       0.50000000       0.50000000       0.00000000 </v>
   <v>       0.25000000       0.25000000       0.00000000 </v>
   <v>       0.25000000       0.75000000       0.00000000 </v>
   <v>       0.75000000       0.25000000       0.00000000 </v>
   <v>       0.75000000       0.75000000       0.00000000 </v>
   <v>       0.00000000       0.25000000       0.06551164 </v>
   <v>       0.00000000       0.75000000       0.06551164 </v>
   <v>       0.50000000       0.25000000       0.06551164 </v>
   <v>       0.50000000       0.75000000       0.06551164 </v>
   <v>       0.25000000       0.00000000       0.06551164 </v>
   <v>       0.25000000       0.50000000       0.06551164 </v>
   <v>       0.75000000       0.00000000       0.06551164 </v>
   <v>       0.75000000       0.50000000       0.06551164 </v>
   <v>       0.00000000       0.00000000       0.13164128 </v>
   <v>       0.00000000       0.50000000       0.13164128 </v>
   <v>       0.50000000       0.00000000       0.13164128 </v>
   <v>       0.50000000       0.50000000       0.13164128 </v>
   <v>       0.25000000       0.25000000       0.13164128 </v>
   <v>       0.25000000       0.75000000       0.13164128 </v>
   <v>       0.75000000       0.25000000       0.13164128 </v>
   <v>       0.75000000       0.75000000       0.13164128 </v>
   <v>       0.00000000       0.25000000       0.19677891 </v>
   <v>       0.00000000       0.75000000       0.19677891 </v>
   <v>       0.50000000       0.25000000       0.19677891 </v>
   <v>       0.50000000       0.75000000       0.19677891 </v>
   <v>       0.25000000       0.00000000       0.19677891 </v>
   <v>       0.25000000       0.50000000       0.19677891 </v>
   <v>       0.75000000       0.00000000       0.19677891 </v>
   <v>       0.75000000       0.50000000       0.19677891 </v>
   <v>       0.00000000       0.00000000       0.26184662 </v>
   <v>       0.00000000       0.50000000       0.26184662 </v>
   <v>       0.50000000       0.00000000       0.26184662 </v>
   <v>       0.50000000       0.50000000       0.26184662 </v>
   <v>       0.25000000       0.25000000       0.26184662 </v>
   <v>       0.25000000       0.75000000       0.26184662 </v>
   <v>       0.75000000       0.25000000       0.26184662 </v>
   <v>       0.75000000       0.75000000       0.26184662 </v>
   <v>       0.00000000       0.25000000       0.32758887 </v>
   <v>       0.00000000       0.75000000       0.32758887 </v>
   <v>       0.50000000       0.25000000       0.32758887 </v>
   <v>       0.50000000       0.75000000       0.32758887 </v>
   <v>       0.25000000       0.00000000       0.32758887 </v>
   <v>       0.25000000       0.50000000       0.32758887 </v>
   <v>       0.75000000       0.00000000       0.32758887 </v>
   <v>       0.75000000       0.50000000       0.32758887 </v>
   <v>       0.00000000       0.00000000       0.39185763 </v>
   <v>       0.00000000       0.50000000       0.39185763 </v>
   <v>       0.50000000       0.00000000       0.39185763 </v>
   <v>       0.50000000       0.50000000       0.39185763 </v>
   <v>       0.25000000       0.25000000       0.39185763 </v>
   <v>       0.25000000       0.75000000       0.39185763 </v>
   <v>       0.75000000       0.25000000       0.39185763 </v>
   <v>       0.75000000       0.75000000       0.39185763 </v>
   <v>       0.00000000       0.25000000       0.45475490 </v>
   <v>       0.00000000       0.75000000       0.45475490 </v>
   <v>       0.50000000       0.25000000       0.45475490 </v>
   <v>       0.50000000       0.75000000       0.45475490 </v>
   <v>       0.25000000       0.00000000       0.45475490 </v>
   <v>       0.25000000       0.50000000       0.45475490 </v>
   <v>       0.75000000       0.00000000       0.45475490 </v>
   <v>       0.75000000       0.50000000       0.45475490 </v>
   <v>       0.37500000       0.62500000       0.50150658 </v>
   <v>       0.37500000       0.69765863       0.52054652 </v>
  </varray>
 </structure>
 <calculation>
  <scstep>
   <time name="dav">   52.53   52.96</time>
   <time name="total">   52.66   53.10</time>
   <energy>
    <i name="alphaZ">   2059.53800561 </i>
    <i name="ewald"> 387552.80121726 </i>
    <i name="hartreedc">-475071.84339636 </i>
    <i name="XCdc">   2932.92768447 </i>
    <i name="pawpsdc">  78601.82840687 </i>
    <i name="pawaedc"> -85374.54502045 </i>
    <i name="eentropy">      0.00247453 </i>
    <i name="bandstr">   7103.15671341 </i>
    <i name="atom">  89046.24623812 </i>
    <i name="e_fr_energy">   6850.11232346 </i>
    <i name="e_wo_entrp">   6850.10984892 </i>
    <i name="e_0_energy">   6850.11149861 </i>
   </energy>
  </scstep>
  <scstep>
   <time name="dav">   54.89   55.79</time>
   <time name="total">   54.90   55.79</time>
   <energy>
    <i name="e_fr_energy">    961.20231226 </i>
    <i name="e_wo_entrp">    961.19684125 </i>
    <i name="e_0_energy">    961.20048859 </i>
   </energy>
  </scstep>
  <scstep>
   <time name="dav">   52.08   52.47</time>
   <time name="total">   52.08   52.48</time>
   <energy>
    <i name="e_fr_energy">   -179.69005134 </i>
    <i name="e_wo_entrp">   -179.77463667 </i>
    <i name="e_0_energy">   -179.71824645 </i>
   </energy>
  </scstep>
  <scstep>
   <time name="dav">   55.24   55.58</time>
   <time name="total">   55.25   55.59</time>
   <energy>
    <i name="e_fr_energy">   -271.96718228 </i>
    <i name="e_wo_entrp">   -272.08840051 </i>
    <i name="e_0_energy">   -272.00758836 </i>
   </energy>
  </scstep>
  <scstep>
   <time name="dav">   55.29   55.72</time>
   <time name="total">   56.06   56.50</time>
   <energy>
    <i name="e_fr_energy">   -274.35299040 </i>
    <i name="e_wo_entrp">   -274.47589106 </i>
    <i name="e_0_energy">   -274.39395729 </i>
   </energy>
  </scstep>
  <scstep>
   <time name="dav">   55.43   55.81</time>
   <time name="total">   56.31   56.70</time>
   <energy>
    <i name="e_fr_energy">   -224.44580438 </i>
    <i name="e_wo_entrp">   -224.46326008 </i>
    <i name="e_0_energy">   -224.45162295 </i>
   </energy>
  </scstep>
  <scstep>
   <time name="dav">   57.55   58.10</time>
   <time name="total">   58.43   58.98</time>
   <energy>
    <i name="e_fr_energy">   -197.81875433 </i>
    <i name="e_wo_entrp">   -197.88592853 </i>
    <i name="e_0_energy">   -197.84114573 </i>
   </energy>
  </scstep>
  <scstep>
   <time name="dav">   60.82   61.45</time>
   <time name="total">   61.69   62.33</time>
   <energy>
    <i name="e_fr_energy">   -200.30697435 </i>
    <i name="e_wo_entrp">   -200.49313671 </i>
    <i name="e_0_energy">   -200.36902847 </i>
   </energy>
  </scstep>
  <scstep>
   <time name="dav">   61.74   62.16</time>
   <time name="total">   62.64   63.07</time>
   <energy>
    <i name="e_fr_energy">   -197.22748290 </i>
    <i name="e_wo_entrp">   -197.30994933 </i>
    <i name="e_0_energy">   -197.25497171 </i>
   </energy>
  </scstep>
  <scstep>
   <time name="dav">   67.50   67.95</time>
   <time name="total">   68.37   68.83</time>
   <energy>
    <i name="e_fr_energy">   -193.86041790 </i>
    <i name="e_wo_entrp">   -193.91888705 </i>
    <i name="e_0_energy">   -193.87990762 </i>
   </energy>
  </scstep>
  <scstep>
   <time name="dav">   71.81   72.31</time>
   <time name="total">   73.29   73.90</time>
   <energy>
    <i name="e_fr_energy">   -194.88134997 </i>
    <i name="e_wo_entrp">   -194.94761072 </i>
    <i name="e_0_energy">   -194.90343688 </i>
   </energy>
  </scstep>
  <scstep>
   <time name="dav">   60.42   61.48</time>
   <time name="total">   61.39   62.46</time>
   <energy>
    <i name="e_fr_energy">   -199.54220435 </i>
    <i name="e_wo_entrp">   -199.57243556 </i>
    <i name="e_0_energy">   -199.55228142 </i>
   </energy>
  </scstep>
  <scstep>
   <time name="dav">   57.12   57.49</time>
   <time name="total">   58.00   58.37</time>
   <energy>
    <i name="e_fr_energy">   -203.42951023 </i>
    <i name="e_wo_entrp">   -203.45654508 </i>
    <i name="e_0_energy">   -203.43852184 </i>
   </energy>
  </scstep>
  <scstep>
   <time name="dav">   58.25   58.62</time>
   <time name="total">   59.17   59.54</time>
   <energy>
    <i name="e_fr_energy">   -210.36897095 </i>
    <i name="e_wo_entrp">   -210.38477855 </i>
    <i name="e_0_energy">   -210.37424015 </i>
   </energy>
  </scstep>
  <scstep>
   <time name="dav">   59.58   59.97</time>
   <time name="total">   60.48   60.87</time>
   <energy>
    <i name="e_fr_energy">   -215.73397131 </i>
    <i name="e_wo_entrp">   -215.76548470 </i>
    <i name="e_0_energy">   -215.74447577 </i>
   </energy>
  </scstep>
  <scstep>
   <time name="dav">   62.22   62.80</time>
   <time name="total">   63.09   63.69</time>
   <energy>
    <i name="e_fr_energy">   -223.66850012 </i>
    <i name="e_wo_entrp">   -223.65548762 </i>
    <i name="e_0_energy">   -223.66416262 </i>
   </energy>
  </scstep>
  <scstep>
   <time name="dav">   59.19   59.78</time>
   <time name="total">   60.08   60.67</time>
   <energy>
    <i name="e_fr_energy">   -226.23360088 </i>
    <i name="e_wo_entrp">   -226.19033651 </i>
    <i name="e_0_energy">   -226.21917942 </i>
   </energy>
  </scstep>
  <scstep>
   <time name="dav">   57.64   58.09</time>
   <time name="total">   58.52   58.99</time>
   <energy>
    <i name="e_fr_energy">   -227.27658967 </i>
    <i name="e_wo_entrp">   -227.21147644 </i>
    <i name="e_0_energy">   -227.25488526 </i>
   </energy>
  </scstep>
  <scstep>
   <time name="dav">   60.12   60.50</time>
   <time name="total">   60.98   61.37</time>
   <energy>
    <i name="e_fr_energy">   -229.29342798 </i>
    <i name="e_wo_entrp">   -229.18919934 </i>
    <i name="e_0_energy">   -229.25868510 </i>
   </energy>
  </scstep>
  <scstep>
   <time name="dav">   59.17   59.55</time>
   <time name="total">   60.06   60.44</time>
   <energy>
    <i name="e_fr_energy">   -230.87771127 </i>
    <i name="e_wo_entrp">   -230.74072810 </i>
    <i name="e_0_energy">   -230.83205022 </i>
   </energy>
  </scstep>
  <scstep>
   <time name="dav">   66.49   66.94</time>
   <time name="total">   67.37   67.83</time>
   <energy>
    <i name="e_fr_energy">   -232.05495674 </i>
    <i name="e_wo_entrp">   -231.89149105 </i>
    <i name="e_0_energy">   -232.00046818 </i>
   </energy>
  </scstep>
  <scstep>
   <time name="dav">   69.97   70.89</time>
   <time name="total">   70.87   71.79</time>
   <energy>
    <i name="e_fr_energy">   -232.90089152 </i>
    <i name="e_wo_entrp">   -232.72006482 </i>
    <i name="e_0_energy">   -232.84061595 </i>
   </energy>
  </scstep>
  <scstep>
   <time name="dav">   59.59   59.99</time>
   <time name="total">   60.45   60.86</time>
   <energy>
    <i name="e_fr_energy">   -233.58006962 </i>
    <i name="e_wo_entrp">   -233.39394035 </i>
    <i name="e_0_energy">   -233.51802653 </i>
   </energy>
  </scstep>
  <scstep>
   <time name="dav">   62.98   63.37</time>
   <time name="total">   63.85   64.24</time>
   <energy>
    <i name="e_fr_energy">   -233.94570301 </i>
    <i name="e_wo_entrp">   -233.75541020 </i>
    <i name="e_0_energy">   -233.88227208 </i>
   </energy>
  </scstep>
  <scstep>
   <time name="dav">   59.26   59.65</time>
   <time name="total">   60.14   60.54</time>
   <energy>
    <i name="e_fr_energy">   -234.27890506 </i>
    <i name="e_wo_entrp">   -234.09134115 </i>
    <i name="e_0_energy">   -234.21638376 </i>
   </energy>
  </scstep>
  <scstep>
   <time name="dav">   63.93   64.71</time>
   <time name="total">   64.81   65.60</time>
   <energy>
    <i name="e_fr_energy">   -234.52605447 </i>
    <i name="e_wo_entrp">   -234.33889045 </i>
    <i name="e_0_energy">   -234.46366646 </i>
   </energy>
  </scstep>
  <scstep>
   <time name="dav">   64.85   65.37</time>
   <time name="total">   65.72   66.25</time>
   <energy>
    <i name="e_fr_energy">   -234.75413352 </i>
    <i name="e_wo_entrp">   -234.56590619 </i>
    <i name="e_0_energy">   -234.69139107 </i>
   </energy>
  </scstep>
  <scstep>
   <time name="dav">   60.56   60.98</time>
   <time name="total">   61.45   61.88</time>
   <energy>
    <i name="e_fr_energy">   -234.91784911 </i>
    <i name="e_wo_entrp">   -234.73009147 </i>
    <i name="e_0_energy">   -234.85526323 </i>
   </energy>
  </scstep>
  <scstep>
   <time name="dav">   56.86   57.21</time>
   <time name="total">   57.74   58.12</time>
   <energy>
    <i name="e_fr_energy">   -234.96146252 </i>
    <i name="e_wo_entrp">   -234.77441655 </i>
    <i name="e_0_energy">   -234.89911386 </i>
   </energy>
  </scstep>
  <scstep>
   <time name="dav">   43.03   43.31</time>
   <time name="total">   43.90   44.19</time>
   <energy>
    <i name="e_fr_energy">   -234.97642639 </i>
    <i name="e_wo_entrp">   -234.78870547 </i>
    <i name="e_0_energy">   -234.91385275 </i>
   </energy>
  </scstep>
  <scstep>
   <time name="dav">   39.34   39.59</time>
   <time name="total">   40.23   40.48</time>
   <energy>
    <i name="e_fr_energy">   -234.98032912 </i>
    <i name="e_wo_entrp">   -234.79282247 </i>
    <i name="e_0_energy">   -234.91782690 </i>
   </energy>
  </scstep>
  <scstep>
   <time name="dav">   39.58   39.98</time>
   <time name="total">   40.47   40.87</time>
   <energy>
    <i name="e_fr_energy">   -234.98089644 </i>
    <i name="e_wo_entrp">   -234.79352558 </i>
    <i name="e_0_energy">   -234.91843949 </i>
   </energy>
  </scstep>
  <scstep>
   <time name="dav">   40.55   40.92</time>
   <time name="total">   40.69   41.06</time>
   <energy>
    <i name="alphaZ">   2059.53800561 </i>
    <i name="ewald"> 387552.80121726 </i>
    <i name="hartreedc">-474115.03410320 </i>
    <i name="XCdc">   2858.88099031 </i>
    <i name="pawpsdc">  83702.70024417 </i>
    <i name="pawaedc"> -90595.36377456 </i>
    <i name="eentropy">     -0.18744886 </i>
    <i name="bandstr">   -744.56245452 </i>
    <i name="atom">  89046.24623812 </i>
    <i name="e_fr_energy">   -234.98108567 </i>
    <i name="e_wo_entrp">   -234.79363681 </i>
    <i name="e_0_energy">   -234.91860272 </i>
   </energy>
  </scstep>
  <structure>
   <crystal>
    <varray name="basis" >
     <v>       7.26000023       0.00000000       0.00000000 </v>
     <v>       0.00000000       7.26000023       0.00000000 </v>
     <v>       0.00000000       0.00000000      27.70499992 </v>
    </varray>
    <i name="volume">   1460.26414606 </i>
    <varray name="rec_basis" >
     <v>       0.13774104       0.00000000       0.00000000 </v>
     <v>       0.00000000       0.13774104       0.00000000 </v>
     <v>       0.00000000       0.00000000       0.03609457 </v>
    </varray>
   </crystal>
   <varray name="positions" >
    <v>       0.00000000       0.00000000       0.00000000 </v>
    <v>       0.00000000       0.50000000       0.00000000 </v>
    <v>       0.50000000       0.00000000       0.00000000 </v>
    <v>       0.50000000       0.50000000       0.00000000 </v>
    <v>       0.25000000       0.25000000       0.00000000 </v>
    <v>       0.25000000       0.75000000       0.00000000 </v>
    <v>       0.75000000       0.25000000       0.00000000 </v>
    <v>       0.75000000       0.75000000       0.00000000 </v>
    <v>       0.00000000       0.25000000       0.06551164 </v>
    <v>       0.00000000       0.75000000       0.06551164 </v>
    <v>       0.50000000       0.25000000       0.06551164 </v>
    <v>       0.50000000       0.75000000       0.06551164 </v>
    <v>       0.25000000       0.00000000       0.06551164 </v>
    <v>       0.25000000       0.50000000       0.06551164 </v>
    <v>       0.75000000       0.00000000       0.06551164 </v>
    <v>       0.75000000       0.50000000       0.06551164 </v>
    <v>       0.00000000       0.00000000       0.13164128 </v>
    <v>       0.00000000       0.50000000       0.13164128 </v>
    <v>       0.50000000       0.00000000       0.13164128 </v>
    <v>       0.50000000       0.50000000       0.13164128 </v>
    <v>       0.25000000       0.25000000       0.13164128 </v>
    <v>       0.25000000       0.75000000       0.13164128 </v>
    <v>       0.75000000       0.25000000       0.13164128 </v>
    <v>       0.75000000       0.75000000       0.13164128 </v>
    <v>       0.00000000       0.25000000       0.19677891 </v>
    <v>       0.00000000       0.75000000       0.19677891 </v>
    <v>       0.50000000       0.25000000       0.19677891 </v>
    <v>       0.50000000       0.75000000       0.19677891 </v>
    <v>       0.25000000       0.00000000       0.19677891 </v>
    <v>       0.25000000       0.50000000       0.19677891 </v>
    <v>       0.75000000       0.00000000       0.19677891 </v>
    <v>       0.75000000       0.50000000       0.19677891 </v>
    <v>       0.00000000       0.00000000       0.26184662 </v>
    <v>       0.00000000       0.50000000       0.26184662 </v>
    <v>       0.50000000       0.00000000       0.26184662 </v>
    <v>       0.50000000       0.50000000       0.26184662 </v>
    <v>       0.25000000       0.25000000       0.26184662 </v>
    <v>       0.25000000       0.75000000       0.26184662 </v>
    <v>       0.75000000       0.25000000       0.26184662 </v>
    <v>       0.75000000       0.75000000       0.26184662 </v>
    <v>       0.00000000       0.25000000       0.32758887 </v>
    <v>       0.00000000       0.75000000       0.32758887 </v>
    <v>       0.50000000       0.25000000       0.32758887 </v>
    <v>       0.50000000       0.75000000       0.32758887 </v>
    <v>       0.25000000       0.00000000       0.32758887 </v>
    <v>       0.25000000       0.50000000       0.32758887 </v>
    <v>       0.75000000       0.00000000       0.32758887 </v>
    <v>       0.75000000       0.50000000       0.32758887 </v>
    <v>       0.00000000       0.00000000       0.39185763 </v>
    <v>       0.00000000       0.50000000       0.39185763 </v>
    <v>       0.50000000       0.00000000       0.39185763 </v>
    <v>       0.50000000       0.50000000       0.39185763 </v>
    <v>       0.25000000       0.25000000       0.39185763 </v>
    <v>       0.25000000       0.75000000       0.39185763 </v>
    <v>       0.75000000       0.25000000       0.39185763 </v>
    <v>       0.75000000       0.75000000       0.39185763 </v>
    <v>       0.00000000       0.25000000       0.45475490 </v>
    <v>       0.00000000       0.75000000       0.45475490 </v>
    <v>       0.50000000       0.25000000       0.45475490 </v>
    <v>       0.50000000       0.75000000       0.45475490 </v>
    <v>       0.25000000       0.00000000       0.45475490 </v>
    <v>       0.25000000       0.50000000       0.45475490 </v>
    <v>       0.75000000       0.00000000       0.45475490 </v>
    <v>       0.75000000       0.50000000       0.45475490 </v>
    <v>       0.37500000       0.62500000       0.50150658 </v>
    <v>       0.37500000       0.69765863       0.52054652 </v>
   </varray>
  </structure>
  <varray name="forces" >
   <v>       0.00939656      -0.01263720       0.31272631 </v>
   <v>       0.00268030       0.01412349       0.31656501 </v>
   <v>      -0.00983231       0.00591848       0.31750786 </v>
   <v>       0.00029812      -0.01029980       0.31699326 </v>
   <v>       0.01425854       0.00009864       0.31320167 </v>
   <v>      -0.01246917       0.00380506       0.31453616 </v>
   <v>      -0.01067552       0.00624586       0.30702298 </v>
   <v>       0.00636545      -0.00721509       0.31666954 </v>
   <v>       0.00318926       0.00413457      -0.06074867 </v>
   <v>       0.00477316      -0.00123574      -0.06755269 </v>
   <v>      -0.00383431       0.00737090      -0.06450053 </v>
   <v>       0.01750435       0.01215861      -0.05229115 </v>
   <v>       0.00262165      -0.00514809      -0.06880222 </v>
   <v>      -0.00813133      -0.01352515      -0.06409499 </v>
   <v>      -0.00787074      -0.00766487      -0.06324965 </v>
   <v>      -0.00825748       0.00395166      -0.06682338 </v>
   <v>       0.01659096      -0.01744656      -0.04938128 </v>
   <v>       0.01305369       0.00832055      -0.05059151 </v>
   <v>      -0.00455536      -0.00662776      -0.05165935 </v>
   <v>       0.00431861      -0.00828930      -0.06170650 </v>
   <v>       0.00578399       0.00893247      -0.05492153 </v>
   <v>      -0.01131637       0.00609265      -0.07259272 </v>
   <v>      -0.01683480       0.01191216      -0.05167290 </v>
   <v>      -0.00731149      -0.00277055      -0.05675271 </v>
   <v>       0.00450564       0.00353552       0.02417719 </v>
   <v>       0.00823804      -0.00373600       0.05652810 </v>
   <v>      -0.00632779       0.00812140       0.06151420 </v>
   <v>      -0.00398132      -0.00197807       0.02234242 </v>
   <v>       0.00886854      -0.01382689       0.03301751 </v>
   <v>       0.01050714       0.00909241       0.01587552 </v>
   <v>      -0.00958737      -0.01064855       0.02816679 </v>
   <v>      -0.01176611       0.00943266       0.03960249 </v>
   <v>       0.00481044       0.00341037       0.01009992 </v>
   <v>       0.01405446      -0.00917042       0.00077876 </v>
   <v>       0.00786691      -0.01483554       0.01889080 </v>
   <v>       0.00582448      -0.00533366       0.05347610 </v>
   <v>      -0.01046667       0.01157875      -0.02025437 </v>
   <v>      -0.00985489       0.00735412       0.05359077 </v>
   <v>       0.00508714      -0.00008446       0.00574392 </v>
   <v>      -0.01731308       0.00716554      -0.00051211 </v>
   <v>      -0.00681885      -0.00480791      -0.17649892 </v>
   <v>      -0.03768302      -0.00351922      -0.21630861 </v>
   <v>      -0.00360037      -0.02256920      -0.20253935 </v>
   <v>      -0.00206578      -0.00321812      -0.19200120 </v>
   <v>       0.00747131       0.03082177      -0.22091497 </v>
   <v>       0.00052273      -0.00850034      -0.21219865 </v>
   <v>       0.01364499       0.00927441      -0.20073153 </v>
   <v>       0.02473171       0.00290408      -0.21676727 </v>
   <v>       0.02927401      -0.01600827       0.00524883 </v>
   <v>       0.04241194       0.01890268       0.01698581 </v>
   <v>      -0.01122742      -0.05397661       0.03174405 </v>
   <v>       0.03124210      -0.04350950      -0.08612170 </v>
   <v>       0.01553644       0.03733012      -0.00028242 </v>
   <v>      -0.07475868       0.04400766      -0.17019172 </v>
   <v>      -0.00376115       0.01276571      -0.02101252 </v>
   <v>      -0.07177335      -0.01016816       0.02797527 </v>
   <v>       0.00843775       0.00926833      -0.00728155 </v>
   <v>      -0.13682370       0.01502500      -0.09424225 </v>
   <v>      -0.00954175      -0.05562001      -0.04272225 </v>
   <v>       0.20305658       0.20703912      -0.00674109 </v>
   <v>      -0.04147496       0.16745642      -0.09181298 </v>
   <v>      -0.35534249      -0.43357715      -0.41870144 </v>
   <v>      -0.01380018      -0.00954665      -0.00650497 </v>
   <v>       0.09723479      -0.02774016      -0.06766414 </v>
   <v>       0.15855788      -1.22637403      -0.61540187 </v>
   <v>       0.13633818       1.36405784       1.22376840 </v>
  </varray>
  <varray name="stress" >
   <v>     -45.47783593      -0.08933242       0.59610945 </v>
   <v>      -0.08933235     -44.50950851       0.98615918 </v>
   <v>       0.59610954       0.98615888     -24.51815299 </v>
  </varray>
  <energy>
   <i name="e_fr_energy">   -261.41990105 </i>
   <i name="e_wo_entrp">   -261.23245219 </i>
   <i name="e_0_energy">   -261.35741810 </i>
  </energy>
  <time name="totalsc"> 2050.62 2067.48</time>
 </calculation>
 <calculation>
  <scstep>
   <time name="dav">   52.22   52.58</time>
   <time name="total">   53.10   53.46</time>
   <energy>
    <i name="alphaZ">   2059.53800561 </i>
    <i name="ewald"> 388475.52845575 </i>
    <i name="hartreedc">-475036.22007917 </i>
    <i name="XCdc">   2858.98299767 </i>
    <i name="pawpsdc">  83702.81972574 </i>
    <i name="pawaedc"> -90595.49874987 </i>
    <i name="eentropy">     -0.17975875 </i>
    <i name="bandstr">   -746.18406056 </i>
    <i name="atom">  89046.24623812 </i>
    <i name="e_fr_energy">   -234.96722547 </i>
    <i name="e_wo_entrp">   -234.78746671 </i>
    <i name="e_0_energy">   -234.90730588 </i>
   </energy>
  </scstep>
  <scstep>
   <time name="dav">   69.71   70.14</time>
   <time name="total">   70.58   71.02</time>
   <energy>
    <i name="e_fr_energy">   -235.02579754 </i>
    <i name="e_wo_entrp">   -234.84416939 </i>
    <i name="e_0_energy">   -234.96525482 </i>
   </energy>
  </scstep>
  <scstep>
   <time name="dav">   61.36   61.98</time>
   <time name="total">   62.23   62.87</time>
   <energy>
    <i name="e_fr_energy">   -235.02732616 </i>
    <i name="e_wo_entrp">   -234.84515697 </i>
    <i name="e_0_energy">   -234.96660310 </i>
   </energy>
  </scstep>
  <scstep>
   <time name="dav">   58.36   58.79</time>
   <time name="total">   59.23   59.67</time>
   <energy>
    <i name="e_fr_energy">   -235.04345803 </i>
    <i name="e_wo_entrp">   -234.86873692 </i>
    <i name="e_0_energy">   -234.98521766 </i>
   </energy>
  </scstep>
  <scstep>
   <time name="dav">   71.00   71.48</time>
   <time name="total">   71.89   72.38</time>
   <energy>
    <i name="e_fr_energy">   -235.02328224 </i>
    <i name="e_wo_entrp">   -234.84086915 </i>
    <i name="e_0_energy">   -234.96247788 </i>
   </energy>
  </scstep>
  <scstep>
   <time name="dav">   81.27   81.80</time>
   <time name="total">   82.20   82.74</time>
   <energy>
    <i name="e_fr_energy">   -235.01795434 </i>
    <i name="e_wo_entrp">   -234.83592803 </i>
    <i name="e_0_energy">   -234.95727890 </i>
   </energy>
  </scstep>
  <scstep>
   <time name="dav">   65.03   65.60</time>
   <time name="total">   65.92   66.49</time>
   <energy>
    <i name="e_fr_energy">   -235.01730610 </i>
    <i name="e_wo_entrp">   -234.83476947 </i>
    <i name="e_0_energy">   -234.95646056 </i>
   </energy>
  </scstep>
  <scstep>
   <time name="dav">   58.37   59.07</time>
   <time name="total">   59.24   59.94</time>
   <energy>
    <i name="e_fr_energy">   -235.01767826 </i>
    <i name="e_wo_entrp">   -234.83513042 </i>
    <i name="e_0_energy">   -234.95682898 </i>
   </energy>
  </scstep>
  <scstep>
   <time name="dav">   53.16   53.56</time>
   <time name="total">   53.29   53.69</time>
   <energy>
    <i name="alphaZ">   2059.53800561 </i>
    <i name="ewald"> 388475.52845575 </i>
    <i name="hartreedc">-475026.74299995 </i>
    <i name="XCdc">   2858.74401836 </i>
    <i name="pawpsdc">  83720.40814287 </i>
    <i name="pawaedc"> -90613.35307324 </i>
    <i name="eentropy">     -0.18261089 </i>
    <i name="bandstr">   -755.20401166 </i>
    <i name="atom">  89046.24623812 </i>
    <i name="e_fr_energy">   -235.01783505 </i>
    <i name="e_wo_entrp">   -234.83522415 </i>
    <i name="e_0_energy">   -234.95696475 </i>
   </energy>
  </scstep>
  <structure>
   <crystal>
    <varray name="basis" >
     <v>       7.26000023       0.00000000       0.00000000 </v>
     <v>       0.00000000       7.26000023       0.00000000 </v>
     <v>       0.00000000       0.00000000      27.70499992 </v>
    </varray>
    <i name="volume">   1460.26414606 </i>
    <varray name="rec_basis" >
     <v>       0.13774104       0.00000000       0.00000000 </v>
     <v>       0.00000000       0.13774104       0.00000000 </v>
     <v>       0.00000000       0.00000000       0.03609457 </v>
    </varray>
   </crystal>
   <varray name="positions" >
    <v>       0.00006244      -0.00008397       0.00054455 </v>
    <v>       0.00001781       0.50009385       0.00055123 </v>
    <v>       0.49993466       0.00003933       0.00055288 </v>
    <v>       0.50000198       0.49993156       0.00055198 </v>
    <v>       0.25009475       0.25000066       0.00054538 </v>
    <v>       0.24991714       0.75002528       0.00054770 </v>
    <v>       0.74992906       0.25004150       0.00053462 </v>
    <v>       0.75004230       0.74995206       0.00055142 </v>
    <v>       0.00002119       0.25002747       0.06540586 </v>
    <v>       0.00003172       0.74999179       0.06539401 </v>
    <v>       0.49997452       0.25004898       0.06539933 </v>
    <v>       0.50011632       0.75008079       0.06542059 </v>
    <v>       0.25001742      -0.00003421       0.06539184 </v>
    <v>       0.24994597       0.49991013       0.06540003 </v>
    <v>       0.74994770      -0.00005093       0.06540151 </v>
    <v>       0.74994513       0.50002626       0.06539528 </v>
    <v>       0.00011025      -0.00011593       0.13155529 </v>
    <v>       0.00008674       0.50005529       0.13155319 </v>
    <v>       0.49996973      -0.00004404       0.13155133 </v>
    <v>       0.50002870       0.49994492       0.13153383 </v>
    <v>       0.25003843       0.25005936       0.13154565 </v>
    <v>       0.24992480       0.75004049       0.13151488 </v>
    <v>       0.74988813       0.25007916       0.13155130 </v>
    <v>       0.74995142       0.74998159       0.13154246 </v>
    <v>       0.00002994       0.25002349       0.19682101 </v>
    <v>       0.00005474       0.74997517       0.19687735 </v>
    <v>       0.49995795       0.25005397       0.19688603 </v>
    <v>       0.49997354       0.74998686       0.19681782 </v>
    <v>       0.25005893      -0.00009188       0.19683641 </v>
    <v>       0.25006982       0.50006042       0.19680656 </v>
    <v>       0.74993629      -0.00007076       0.19682796 </v>
    <v>       0.74992181       0.50006268       0.19684787 </v>
    <v>       0.00003197       0.00002266       0.26186421 </v>
    <v>       0.00009339       0.49993906       0.26184798 </v>
    <v>       0.50005228      -0.00009858       0.26187952 </v>
    <v>       0.50003870       0.49996456       0.26193974 </v>
    <v>       0.24993045       0.25007694       0.26181136 </v>
    <v>       0.24993451       0.75004887       0.26193994 </v>
    <v>       0.75003380       0.24999944       0.26185663 </v>
    <v>       0.74988495       0.75004761       0.26184573 </v>
    <v>      -0.00004531       0.24996805       0.32728153 </v>
    <v>      -0.00025040       0.74997661       0.32721221 </v>
    <v>       0.49997608       0.24985003       0.32723619 </v>
    <v>       0.49998627       0.74997862       0.32725454 </v>
    <v>       0.25004965       0.00020481       0.32720419 </v>
    <v>       0.25000347       0.49994352       0.32721937 </v>
    <v>       0.75009067       0.00006163       0.32723934 </v>
    <v>       0.75016434       0.50001930       0.32721141 </v>
    <v>       0.00019453      -0.00010637       0.39186677 </v>
    <v>       0.00028183       0.50012561       0.39188720 </v>
    <v>       0.49992539      -0.00035867       0.39191290 </v>
    <v>       0.50020760       0.49971088       0.39170766 </v>
    <v>       0.25010324       0.25024806       0.39185713 </v>
    <v>       0.24950323       0.75029243       0.39156127 </v>
    <v>       0.74997501       0.25008483       0.39182104 </v>
    <v>       0.74952307       0.74993243       0.39190634 </v>
    <v>       0.00005607       0.25006159       0.45474222 </v>
    <v>      -0.00090919       0.75009984       0.45459079 </v>
    <v>       0.49993660       0.24963041       0.45468050 </v>
    <v>       0.50134931       0.75137577       0.45474316 </v>
    <v>       0.24972440       0.00111275       0.45459502 </v>
    <v>       0.24763875       0.49711888       0.45402581 </v>
    <v>       0.74990830      -0.00006344       0.45474357 </v>
    <v>       0.75064612       0.49981567       0.45463707 </v>
    <v>       0.37605362       0.61685075       0.50043498 </v>
    <v>       0.37590597       0.70672278       0.52267747 </v>
   </varray>
  </structure>
  <varray name="forces" >
   <v>       0.00533542      -0.00793319       0.24485224 </v>
   <v>       0.00340336       0.00896590       0.24567898 </v>
   <v>      -0.00658861       0.00333047       0.24555258 </v>
   <v>      -0.00421768      -0.00431509       0.24498046 </v>
   <v>       0.00981870       0.00097332       0.24142705 </v>
   <v>      -0.00552337      -0.00071192       0.24326509 </v>
   <v>      -0.00714094       0.00268445       0.23921335 </v>
   <v>       0.00307747      -0.00368745       0.24525079 </v>
   <v>      -0.00076562       0.00054580      -0.00188021 </v>
   <v>      -0.00086361      -0.00128885      -0.00686575 </v>
   <v>      -0.00383629       0.00262866      -0.00380350 </v>
   <v>       0.00945997       0.00601392       0.00323827 </v>
   <v>       0.00263604      -0.00040979      -0.00812122 </v>
   <v>      -0.00245553      -0.00768511      -0.00683236 </v>
   <v>      -0.00319439      -0.00345503      -0.00459033 </v>
   <v>      -0.00283135       0.00290649      -0.00640036 </v>
   <v>       0.00943677      -0.01086637      -0.02834889 </v>
   <v>       0.00649220       0.00797526      -0.02878724 </v>
   <v>      -0.00508797       0.00007867      -0.02919366 </v>
   <v>       0.00037069      -0.00490271      -0.03698972 </v>
   <v>       0.00590726       0.00315813      -0.03198185 </v>
   <v>      -0.00691263       0.00141240      -0.04734037 </v>
   <v>      -0.01119074       0.00582270      -0.02927121 </v>
   <v>      -0.00125342      -0.00344829      -0.03350180 </v>
   <v>       0.00196893       0.00122315       0.00229429 </v>
   <v>       0.00391919      -0.00270305       0.03191557 </v>
   <v>      -0.00533356       0.00463635       0.03662970 </v>
   <v>      -0.00711823      -0.00360987       0.00722308 </v>
   <v>       0.00788951      -0.01090349       0.00988045 </v>
   <v>       0.01266808       0.01088626       0.00104695 </v>
   <v>      -0.00733627      -0.00838055       0.00851836 </v>
   <v>      -0.00803791       0.00799513       0.01594753 </v>
   <v>       0.00367310       0.00511540      -0.01957663 </v>
   <v>       0.00926198      -0.00693076      -0.02761609 </v>
   <v>       0.00501630      -0.01058646      -0.00983048 </v>
   <v>       0.00002204      -0.00008123       0.01134030 </v>
   <v>      -0.00768086       0.00682760      -0.04685892 </v>
   <v>      -0.00395240       0.00181426       0.01178690 </v>
   <v>       0.00559551      -0.00120318      -0.02411217 </v>
   <v>      -0.01407258       0.00441070      -0.02750361 </v>
   <v>      -0.00449557      -0.00239183      -0.10783852 </v>
   <v>      -0.04319002      -0.00093096      -0.14678256 </v>
   <v>      -0.00126841      -0.02313015      -0.12889472 </v>
   <v>       0.00362995       0.00153479      -0.11957399 </v>
   <v>       0.00587539       0.03204208      -0.15115233 </v>
   <v>      -0.00492339      -0.01579903      -0.14408578 </v>
   <v>       0.01096564       0.00508784      -0.12637444 </v>
   <v>       0.02348405       0.00195070      -0.14416814 </v>
   <v>       0.01086579      -0.00435783      -0.03712179 </v>
   <v>      -0.01398132       0.01401347      -0.07667526 </v>
   <v>      -0.00887513      -0.02586446      -0.03051315 </v>
   <v>       0.01636533      -0.00853383      -0.08143116 </v>
   <v>       0.01033864      -0.02012444      -0.09976756 </v>
   <v>      -0.03701056       0.02482261      -0.14362427 </v>
   <v>       0.00201643      -0.00028095      -0.05388985 </v>
   <v>      -0.04645348      -0.00725386      -0.03875329 </v>
   <v>      -0.03309434      -0.02474828      -0.01686948 </v>
   <v>      -0.08387320       0.01637395      -0.07914070 </v>
   <v>      -0.00067614      -0.02252460      -0.03192214 </v>
   <v>      -0.04173668       0.01203096       0.24408501 </v>
   <v>      -0.02870003       0.09223006      -0.04864349 </v>
   <v>      -0.13400976      -0.18900493      -0.18873802 </v>
   <v>      -0.00006723       0.01411202      -0.00934393 </v>
   <v>       0.05863688      -0.03083132      -0.05632974 </v>
   <v>       0.17009148       0.70567645       1.04956117 </v>
   <v>       0.17952711      -0.54040107      -0.86264748 </v>
  </varray>
  <varray name="stress" >
   <v>     -43.94746588      -0.16069757       0.77628523 </v>
   <v>      -0.16069763     -44.07554392      -0.08190006 </v>
   <v>       0.77628501      -0.08190013     -24.66368647 </v>
  </varray>
  <energy>
   <i name="e_fr_energy">   -261.52607177 </i>
   <i name="e_wo_entrp">   -261.34346087 </i>
   <i name="e_0_energy">   -261.46520147 </i>
  </energy>
  <time name="totalsc">  696.85  702.06</time>
 </calculation>
 <calculation>
  <scstep>
   <time name="dav">   52.61   53.00</time>
   <time name="total">   53.46   53.86</time>
   <energy>
    <i name="alphaZ">   2059.53800561 </i>
    <i name="ewald"> 388224.98803406 </i>
    <i name="hartreedc">-474775.32707919 </i>
    <i name="XCdc">   2858.71479491 </i>
    <i name="pawpsdc">  83720.68941417 </i>
    <i name="pawaedc"> -90613.67953064 </i>
    <i name="eentropy">     -0.18472013 </i>
    <i name="bandstr">   -756.03277864 </i>
    <i name="atom">  89046.24623812 </i>
    <i name="e_fr_energy">   -235.04762173 </i>
    <i name="e_wo_entrp">   -234.86290160 </i>
    <i name="e_0_energy">   -234.98604835 </i>
   </energy>
  </scstep>
  <scstep>
   <time name="dav">   72.58   73.45</time>
   <time name="total">   73.47   74.35</time>
   <energy>
    <i name="e_fr_energy">   -235.05290846 </i>
    <i name="e_wo_entrp">   -234.86896051 </i>
    <i name="e_0_energy">   -234.99159248 </i>
   </energy>
  </scstep>
  <scstep>
   <time name="dav">   58.29   58.71</time>
   <time name="total">   59.21   59.64</time>
   <energy>
    <i name="e_fr_energy">   -235.05363918 </i>
    <i name="e_wo_entrp">   -234.86873274 </i>
    <i name="e_0_energy">   -234.99200370 </i>
   </energy>
  </scstep>
  <scstep>
   <time name="dav">   54.17   54.52</time>
   <time name="total">   55.03   55.39</time>
   <energy>
    <i name="e_fr_energy">   -235.05292841 </i>
    <i name="e_wo_entrp">   -234.86941413 </i>
    <i name="e_0_energy">   -234.99175698 </i>
   </energy>
  </scstep>
  <scstep>
   <time name="dav">   42.20   42.48</time>
   <time name="total">   42.33   42.61</time>
   <energy>
    <i name="alphaZ">   2059.53800561 </i>
    <i name="ewald"> 388224.98803406 </i>
    <i name="hartreedc">-474778.12163133 </i>
    <i name="XCdc">   2858.77603583 </i>
    <i name="pawpsdc">  83716.51515016 </i>
    <i name="pawaedc"> -90609.51919470 </i>
    <i name="eentropy">     -0.18408099 </i>
    <i name="bandstr">   -753.29129220 </i>
    <i name="atom">  89046.24623812 </i>
    <i name="e_fr_energy">   -235.05273544 </i>
    <i name="e_wo_entrp">   -234.86865445 </i>
    <i name="e_0_energy">   -234.99137511 </i>
   </energy>
  </scstep>
  <structure>
   <crystal>
    <varray name="basis" >
     <v>       7.26000023       0.00000000       0.00000000 </v>
     <v>       0.00000000       7.26000023       0.00000000 </v>
     <v>       0.00000000       0.00000000      27.70499992 </v>
    </varray>
    <i name="volume">   1460.26414606 </i>
    <varray name="rec_basis" >
     <v>       0.13774104       0.00000000       0.00000000 </v>
     <v>       0.00000000       0.13774104       0.00000000 </v>
     <v>       0.00000000       0.00000000       0.03609457 </v>
    </varray>
   </crystal>
   <varray name="positions" >
    <v>       0.00004552      -0.00006122       0.00039697 </v>
    <v>       0.00001298       0.50006842       0.00040184 </v>
    <v>       0.49995237       0.00002867       0.00040304 </v>
    <v>       0.50000144       0.49995011       0.00040239 </v>
    <v>       0.25006907       0.25000048       0.00039757 </v>
    <v>       0.24993960       0.75001843       0.00039927 </v>
    <v>       0.74994829       0.25003026       0.00038973 </v>
    <v>       0.75003083       0.74996505       0.00040198 </v>
    <v>       0.00001545       0.25002003       0.06543453 </v>
    <v>       0.00002312       0.74999401       0.06542589 </v>
    <v>       0.49998143       0.25003571       0.06542977 </v>
    <v>       0.50008479       0.75005890       0.06544526 </v>
    <v>       0.25001270      -0.00002494       0.06542431 </v>
    <v>       0.24996061       0.49993448       0.06543028 </v>
    <v>       0.74996187      -0.00003713       0.06543135 </v>
    <v>       0.74996000       0.50001914       0.06542682 </v>
    <v>       0.00008037      -0.00008451       0.13157860 </v>
    <v>       0.00006323       0.50004031       0.13157706 </v>
    <v>       0.49997793      -0.00003211       0.13157571 </v>
    <v>       0.50002092       0.49995985       0.13156295 </v>
    <v>       0.25002802       0.25004327       0.13157156 </v>
    <v>       0.24994518       0.75002951       0.13154913 </v>
    <v>       0.74991845       0.25005770       0.13157569 </v>
    <v>       0.74996458       0.74998658       0.13156924 </v>
    <v>       0.00002183       0.25001713       0.19680960 </v>
    <v>       0.00003991       0.74998190       0.19685067 </v>
    <v>       0.49996935       0.25003934       0.19685700 </v>
    <v>       0.49998071       0.74999042       0.19680728 </v>
    <v>       0.25004296      -0.00006698       0.19682083 </v>
    <v>       0.25005090       0.50004404       0.19679907 </v>
    <v>       0.74995356      -0.00005158       0.19681467 </v>
    <v>       0.74994300       0.50004569       0.19682919 </v>
    <v>       0.00002330       0.00001652       0.26185945 </v>
    <v>       0.00006808       0.49995558       0.26184761 </v>
    <v>       0.50003811      -0.00007187       0.26187060 </v>
    <v>       0.50002821       0.49997416       0.26191451 </v>
    <v>       0.24994930       0.25005609       0.26182091 </v>
    <v>       0.24995226       0.75003562       0.26191465 </v>
    <v>       0.75002464       0.24999959       0.26185392 </v>
    <v>       0.74991613       0.75003471       0.26184597 </v>
    <v>      -0.00003303       0.24997671       0.32736483 </v>
    <v>      -0.00018254       0.74998295       0.32731429 </v>
    <v>       0.49998256       0.24989067       0.32733177 </v>
    <v>       0.49998999       0.74998441       0.32734515 </v>
    <v>       0.25003619       0.00014930       0.32730844 </v>
    <v>       0.25000253       0.49995882       0.32731951 </v>
    <v>       0.75006610       0.00004493       0.32733407 </v>
    <v>       0.75011980       0.50001407       0.32731371 </v>
    <v>       0.00014181      -0.00007755       0.39186429 </v>
    <v>       0.00020545       0.50009157       0.39187919 </v>
    <v>       0.49994561      -0.00026147       0.39189792 </v>
    <v>       0.50015134       0.49978923       0.39174830 </v>
    <v>       0.25007526       0.25018083       0.39185727 </v>
    <v>       0.24963786       0.75021318       0.39164159 </v>
    <v>       0.74998178       0.25006184       0.39183095 </v>
    <v>       0.74965232       0.74995074       0.39189314 </v>
    <v>       0.00004087       0.25004490       0.45474565 </v>
    <v>      -0.00066279       0.75007278       0.45463527 </v>
    <v>       0.49995378       0.24973057       0.45470066 </v>
    <v>       0.50098363       0.75100292       0.45474634 </v>
    <v>       0.24979909       0.00081118       0.45463835 </v>
    <v>       0.24827868       0.49789970       0.45422340 </v>
    <v>       0.74993315      -0.00004625       0.45474664 </v>
    <v>       0.75047102       0.49986562       0.45466900 </v>
    <v>       0.37576807       0.61905930       0.50072540 </v>
    <v>       0.37566044       0.70426629       0.52209996 </v>
   </varray>
  </structure>
  <varray name="forces" >
   <v>       0.00758793      -0.01012256       0.28232301 </v>
   <v>       0.00361466       0.01162910       0.28412282 </v>
   <v>      -0.00801968       0.00460896       0.28431750 </v>
   <v>      -0.00225330      -0.00682261       0.28370573 </v>
   <v>       0.01239535       0.00077392       0.27985333 </v>
   <v>      -0.00831210       0.00123211       0.28163401 </v>
   <v>      -0.00874183       0.00434971       0.27623838 </v>
   <v>       0.00469748      -0.00529869       0.28402712 </v>
   <v>       0.00112175       0.00223956      -0.02144725 </v>
   <v>       0.00167149      -0.00134827      -0.02739641 </v>
   <v>      -0.00395528       0.00478593      -0.02400977 </v>
   <v>       0.01353115       0.00907817      -0.01417831 </v>
   <v>       0.00330428      -0.00225396      -0.02885147 </v>
   <v>      -0.00454958      -0.01041469      -0.02612163 </v>
   <v>      -0.00514885      -0.00533887      -0.02427123 </v>
   <v>      -0.00491126       0.00368730      -0.02693384 </v>
   <v>       0.01334509      -0.01432725      -0.03469929 </v>
   <v>       0.00996465       0.00880615      -0.03553751 </v>
   <v>      -0.00485511      -0.00254516      -0.03625760 </v>
   <v>       0.00242366      -0.00659579      -0.04541909 </v>
   <v>       0.00665711       0.00586064      -0.03970512 </v>
   <v>      -0.00895101       0.00363643      -0.05667313 </v>
   <v>      -0.01419751       0.00886166      -0.03622072 </v>
   <v>      -0.00366132      -0.00321165      -0.04135966 </v>
   <v>       0.00348745       0.00238605       0.01496057 </v>
   <v>       0.00616438      -0.00319073       0.04769425 </v>
   <v>      -0.00595432       0.00640665       0.05294912 </v>
   <v>      -0.00627410      -0.00313178       0.01720507 </v>
   <v>       0.00931654      -0.01275057       0.02326253 </v>
   <v>       0.01309279       0.01112859       0.01041734 </v>
   <v>      -0.00845201      -0.00985027       0.02056532 </v>
   <v>      -0.00981236       0.00932554       0.02997952 </v>
   <v>       0.00468925       0.00489881      -0.00767903 </v>
   <v>       0.01209686      -0.00825242      -0.01686275 </v>
   <v>       0.00685627      -0.01288753       0.00258206 </v>
   <v>       0.00277912      -0.00209793       0.03056457 </v>
   <v>      -0.00897581       0.00918843      -0.03830753 </v>
   <v>      -0.00622831       0.00436897       0.03072012 </v>
   <v>       0.00590881      -0.00077593      -0.01252473 </v>
   <v>      -0.01621745       0.00598782      -0.01720723 </v>
   <v>      -0.00536200      -0.00350864      -0.14059994 </v>
   <v>      -0.04413871      -0.00189684      -0.18311363 </v>
   <v>      -0.00203322      -0.02491920      -0.16552765 </v>
   <v>       0.00201226       0.00013488      -0.15590917 </v>
   <v>       0.00723613       0.03448636      -0.18771560 </v>
   <v>      -0.00295246      -0.01421054      -0.18074501 </v>
   <v>       0.01326060       0.00743049      -0.16291479 </v>
   <v>       0.02640867       0.00243919      -0.18142075 </v>
   <v>       0.01895539      -0.00841957      -0.02511305 </v>
   <v>       0.00690134       0.01653710      -0.04752405 </v>
   <v>      -0.00949525      -0.03743757      -0.01174145 </v>
   <v>       0.02467311      -0.02409086      -0.09320399 </v>
   <v>       0.01341954       0.00080027      -0.06940266 </v>
   <v>      -0.05501283       0.03469241      -0.17021967 </v>
   <v>       0.00071079       0.00477950      -0.04666183 </v>
   <v>      -0.05883279      -0.00866170      -0.01803966 </v>
   <v>      -0.01869319      -0.01344253      -0.01172902 </v>
   <v>      -0.11367451       0.01810670      -0.09062690 </v>
   <v>      -0.00275258      -0.03908223      -0.03818167 </v>
   <v>       0.04266026       0.08051397       0.16809316 </v>
   <v>      -0.03739510       0.13213950      -0.07030125 </v>
   <v>      -0.22341061      -0.28896086      -0.29023372 </v>
   <v>      -0.00365174       0.00719445      -0.00670334 </v>
   <v>       0.07947012      -0.03313661      -0.06275569 </v>
   <v>       0.17050326       0.31654274       0.74500760 </v>
   <v>       0.16595859      -0.16005426      -0.42817530 </v>
  </varray>
  <varray name="stress" >
   <v>     -46.07741812      -0.14746375       0.72075730 </v>
   <v>      -0.14746356     -45.94612896       0.15387425 </v>
   <v>       0.72075733       0.15387439     -26.52527868 </v>
  </varray>
  <energy>
   <i name="e_fr_energy">   -261.52294588 </i>
   <i name="e_wo_entrp">   -261.33886489 </i>
   <i name="e_0_energy">   -261.46158555 </i>
  </energy>
  <time name="totalsc">  402.69  406.13</time>
 </calculation>
 <calculation>
  <scstep>
   <time name="dav">   57.63   58.51</time>
   <time name="total">   58.51   59.39</time>
   <energy>
    <i name="alphaZ">   2059.53800561 </i>
    <i name="ewald"> 389324.90141598 </i>
    <i name="hartreedc">-475873.45912407 </i>
    <i name="XCdc">   2859.01974380 </i>
    <i name="pawpsdc">  83715.68554060 </i>
    <i name="pawaedc"> -90608.60875042 </i>
    <i name="eentropy">     -0.18359453 </i>
    <i name="bandstr">   -758.19522288 </i>
    <i name="atom">  89046.24623812 </i>
    <i name="e_fr_energy">   -235.05574779 </i>
    <i name="e_wo_entrp">   -234.87215327 </i>
    <i name="e_0_energy">   -234.99454962 </i>
   </energy>
  </scstep>
  <scstep>
   <time name="dav">   72.58   73.02</time>
   <time name="total">   73.46   73.91</time>
   <energy>
    <i name="e_fr_energy">   -235.11169223 </i>
    <i name="e_wo_entrp">   -234.92828457 </i>
    <i name="e_0_energy">   -235.05055634 </i>
   </energy>
  </scstep>
  <scstep>
   <time name="dav">   56.09   56.51</time>
   <time name="total">   56.97   57.40</time>
   <energy>
    <i name="e_fr_energy">   -235.10917540 </i>
    <i name="e_wo_entrp">   -234.92489449 </i>
    <i name="e_0_energy">   -235.04774843 </i>
   </energy>
  </scstep>
  <scstep>
   <time name="dav">   55.77   56.20</time>
   <time name="total">   56.65   57.08</time>
   <energy>
    <i name="e_fr_energy">   -235.10854664 </i>
    <i name="e_wo_entrp">   -234.92557454 </i>
    <i name="e_0_energy">   -235.04755594 </i>
   </energy>
  </scstep>
  <scstep>
   <time name="dav">   62.63   63.21</time>
   <time name="total">   63.51   64.10</time>
   <energy>
    <i name="e_fr_energy">   -235.10802399 </i>
    <i name="e_wo_entrp">   -234.92406744 </i>
    <i name="e_0_energy">   -235.04670514 </i>
   </energy>
  </scstep>
  <scstep>
   <time name="dav">   57.36   58.37</time>
   <time name="total">   58.22   59.24</time>
   <energy>
    <i name="e_fr_energy">   -235.10765528 </i>
    <i name="e_wo_entrp">   -234.92402886 </i>
    <i name="e_0_energy">   -235.04644648 </i>
   </energy>
  </scstep>
  <scstep>
   <time name="dav">   55.59   55.96</time>
   <time name="total">   56.47   56.84</time>
   <energy>
    <i name="e_fr_energy">   -235.10697299 </i>
    <i name="e_wo_entrp">   -234.92339033 </i>
    <i name="e_0_energy">   -235.04577877 </i>
   </energy>
  </scstep>
  <scstep>
   <time name="dav">   58.82   59.18</time>
   <time name="total">   58.95   59.31</time>
   <energy>
    <i name="alphaZ">   2059.53800561 </i>
    <i name="ewald"> 389324.90141598 </i>
    <i name="hartreedc">-475875.26372579 </i>
    <i name="XCdc">   2858.95121923 </i>
    <i name="pawpsdc">  83745.78233159 </i>
    <i name="pawaedc"> -90639.44706966 </i>
    <i name="eentropy">     -0.18367652 </i>
    <i name="bandstr">   -755.63177120 </i>
    <i name="atom">  89046.24623812 </i>
    <i name="e_fr_energy">   -235.10703266 </i>
    <i name="e_wo_entrp">   -234.92335614 </i>
    <i name="e_0_energy">   -235.04580715 </i>
   </energy>
  </scstep>
  <structure>
   <crystal>
    <varray name="basis" >
     <v>       7.26000023       0.00000000       0.00000000 </v>
     <v>       0.00000000       7.26000023       0.00000000 </v>
     <v>       0.00000000       0.00000000      27.70499992 </v>
    </varray>
    <i name="volume">   1460.26414606 </i>
    <varray name="rec_basis" >
     <v>       0.13774104       0.00000000       0.00000000 </v>
     <v>       0.00000000       0.13774104       0.00000000 </v>
     <v>       0.00000000       0.00000000       0.03609457 </v>
    </varray>
   </crystal>
   <varray name="positions" >
    <v>       0.00011141      -0.00014931       0.00102067 </v>
    <v>       0.00004089       0.50016886       0.00103046 </v>
    <v>       0.49988292       0.00006910       0.00103245 </v>
    <v>       0.49998786       0.49988728       0.00103053 </v>
    <v>       0.25017459       0.25000553       0.00101745 </v>
    <v>       0.24986320       0.75003355       0.00102275 </v>
    <v>       0.74987267       0.25006969       0.00100051 </v>
    <v>       0.75007269       0.74991777       0.00103048 </v>
    <v>       0.00002868       0.25004211       0.06536837 </v>
    <v>       0.00004287       0.74998315       0.06534648 </v>
    <v>       0.49994914       0.25008006       0.06535748 </v>
    <v>       0.50020374       0.75013950       0.06539537 </v>
[...]
       <r>    12.9391     0.0000   456.0000 </r>
       <r>    13.0154     0.0000   456.0000 </r>
       <r>    13.0917     0.0000   456.0000 </r>
       <r>    13.1680     0.0000   456.0000 </r>
       <r>    13.2443     0.0000   456.0000 </r>
       <r>    13.3206     0.0000   456.0000 </r>
       <r>    13.3969     0.0000   456.0000 </r>
      </set>
      <set comment="spin 2">
       <r>    -9.4938     0.0000     0.0000 </r>
       <r>    -9.4175     0.0000     0.0000 </r>
       <r>    -9.3412     0.0000     0.0000 </r>
       <r>    -9.2649     0.0000     0.0000 </r>
       <r>    -9.1886     0.0000     0.0000 </r>
       <r>    -9.1123    -0.0000    -0.0000 </r>
       <r>    -9.0360    -0.0000    -0.0000 </r>
       <r>    -8.9597    -0.0000    -0.0000 </r>
       <r>    -8.8834    -0.0000    -0.0000 </r>
       <r>    -8.8071    -0.0000    -0.0000 </r>
       <r>    -8.7308    -0.0000    -0.0000 </r>
       <r>    -8.6545    -0.0000    -0.0000 </r>
       <r>    -8.5782    -0.0000    -0.0000 </r>
       <r>    -8.5019    -0.0000    -0.0000 </r>
       <r>    -8.4256    -0.0000    -0.0000 </r>
       <r>    -8.3493    -0.0000    -0.0000 </r>
       <r>    -8.2730    -0.0000    -0.0000 </r>
       <r>    -8.1967    -0.0000    -0.0000 </r>
       <r>    -8.1204    -0.0001    -0.0000 </r>
       <r>    -8.0441    -0.0004    -0.0000 </r>
       <r>    -7.9678    -0.0024    -0.0002 </r>
       <r>    -7.8915    -0.0091    -0.0009 </r>
       <r>    -7.8152    -0.0212    -0.0025 </r>
       <r>    -7.7389    -0.0195    -0.0040 </r>
       <r>    -7.6626     0.0448    -0.0006 </r>
       <r>    -7.5863     0.1947     0.0142 </r>
       <r>    -7.5100     0.3371     0.0400 </r>
       <r>    -7.4337     0.3529     0.0669 </r>
       <r>    -7.3574     0.3688     0.0950 </r>
       <r>    -7.2811     0.7056     0.1489 </r>
       <r>    -7.2048     1.3301     0.2504 </r>
       <r>    -7.1285     1.7146     0.3812 </r>
       <r>    -7.0522     1.6661     0.5083 </r>
       <r>    -6.9759     1.8629     0.6505 </r>
       <r>    -6.8996     2.9426     0.8750 </r>
       <r>    -6.8233     4.3910     1.2101 </r>
       <r>    -6.7470     5.0075     1.5921 </r>
       <r>    -6.6707     4.3654     1.9252 </r>
       <r>    -6.5944     3.1835     2.1681 </r>
       <r>    -6.5181     2.2243     2.3379 </r>
       <r>    -6.4417     1.6565     2.4642 </r>
       <r>    -6.3654     1.6455     2.5898 </r>
       <r>    -6.2891     2.3703     2.7707 </r>
       <r>    -6.2128     3.1872     3.0139 </r>
       <r>    -6.1365     3.1484     3.2541 </r>
       <r>    -6.0602     2.5588     3.4493 </r>
       <r>    -5.9839     2.6478     3.6514 </r>
       <r>    -5.9076     3.6452     3.9295 </r>
       <r>    -5.8313     4.5142     4.2739 </r>
       <r>    -5.7550     4.5285     4.6195 </r>
       <r>    -5.6787     3.9281     4.9192 </r>
       <r>    -5.6024     3.3349     5.1737 </r>
       <r>    -5.5261     3.4087     5.4338 </r>
       <r>    -5.4498     4.2995     5.7618 </r>
       <r>    -5.3735     4.9637     6.1406 </r>
       <r>    -5.2972     4.1810     6.4596 </r>
       <r>    -5.2209     2.3702     6.6404 </r>
       <r>    -5.1446     1.1773     6.7303 </r>
       <r>    -5.0683     1.3890     6.8362 </r>
       <r>    -4.9920     2.3245     7.0136 </r>
       <r>    -4.9157     3.1631     7.2550 </r>
       <r>    -4.8394     4.0439     7.5635 </r>
       <r>    -4.7631     5.6617     7.9955 </r>
       <r>    -4.6868     7.9973     8.6057 </r>
       <r>    -4.6105     9.8071     9.3541 </r>
       <r>    -4.5342     9.7892    10.1010 </r>
       <r>    -4.4579     7.9601    10.7084 </r>
       <r>    -4.3816     5.4614    11.1251 </r>
       <r>    -4.3053     3.5127    11.3931 </r>
       <r>    -4.2290     2.8943    11.6140 </r>
       <r>    -4.1527     3.7180    11.8977 </r>
       <r>    -4.0764     5.1722    12.2923 </r>
       <r>    -4.0001     6.2772    12.7713 </r>
       <r>    -3.9238     7.1122    13.3140 </r>
       <r>    -3.8475     8.2091    13.9403 </r>
       <r>    -3.7712     9.4410    14.6607 </r>
       <r>    -3.6949    10.7340    15.4797 </r>
       <r>    -3.6186    12.3218    16.4199 </r>
       <r>    -3.5423    13.6636    17.4625 </r>
       <r>    -3.4660    13.8688    18.5207 </r>
       <r>    -3.3896    12.9261    19.5070 </r>
       <r>    -3.3133    11.5864    20.3911 </r>
       <r>    -3.2370    11.3141    21.2544 </r>
       <r>    -3.1607    14.5020    22.3609 </r>
       <r>    -3.0844    22.5161    24.0790 </r>
       <r>    -3.0081    32.5073    26.5593 </r>
       <r>    -2.9318    38.2217    29.4758 </r>
       <r>    -2.8555    36.6031    32.2687 </r>
       <r>    -2.7792    32.3357    34.7360 </r>
       <r>    -2.7029    32.4914    37.2151 </r>
       <r>    -2.6266    38.0081    40.1153 </r>
       <r>    -2.5503    44.5862    43.5173 </r>
       <r>    -2.4740    50.9557    47.4053 </r>
       <r>    -2.3977    60.5922    52.0287 </r>
       <r>    -2.3214    73.4013    57.6294 </r>
       <r>    -2.2451    81.0703    63.8153 </r>
       <r>    -2.1688    76.0580    69.6187 </r>
       <r>    -2.0925    62.5992    74.3951 </r>
       <r>    -2.0162    52.8853    78.4304 </r>
       <r>    -1.9399    53.7203    82.5294 </r>
       <r>    -1.8636    61.7747    87.2430 </r>
       <r>    -1.7873    69.9134    92.5775 </r>
       <r>    -1.7110    73.8239    98.2105 </r>
       <r>    -1.6347    74.0379   103.8598 </r>
       <r>    -1.5584    74.6559   109.5562 </r>
       <r>    -1.4821    79.7023   115.6377 </r>
       <r>    -1.4058    89.3486   122.4552 </r>
       <r>    -1.3295    99.5213   130.0489 </r>
       <r>    -1.2532   105.9099   138.1301 </r>
       <r>    -1.1769   108.5469   146.4125 </r>
       <r>    -1.1006   110.2461   154.8246 </r>
       <r>    -1.0243   110.7131   163.2723 </r>
       <r>    -0.9480   107.3288   171.4617 </r>
       <r>    -0.8717   101.0726   179.1738 </r>
       <r>    -0.7954    95.6047   186.4687 </r>
       <r>    -0.7191    93.2458   193.5836 </r>
       <r>    -0.6428    95.9093   200.9017 </r>
       <r>    -0.5665   104.0522   208.8412 </r>
       <r>    -0.4902   112.9241   217.4576 </r>
       <r>    -0.4138   116.4688   226.3444 </r>
       <r>    -0.3375   114.9015   235.1117 </r>
       <r>    -0.2612   113.1405   243.7446 </r>
       <r>    -0.1849   113.4288   252.3995 </r>
       <r>    -0.1086   114.7695   261.1567 </r>
       <r>    -0.0323   118.6542   270.2103 </r>
       <r>     0.0440   129.6355   280.1018 </r>
       <r>     0.1203   147.1043   291.3263 </r>
       <r>     0.1966   160.0325   303.5371 </r>
       <r>     0.2729   154.8012   315.3489 </r>
       <r>     0.3492   127.4806   325.0760 </r>
       <r>     0.4255    87.4018   331.7449 </r>
       <r>     0.5018    50.2958   335.5826 </r>
       <r>     0.5781    26.7758   337.6257 </r>
       <r>     0.6544    16.4783   338.8830 </r>
       <r>     0.7307    13.4062   339.9059 </r>
       <r>     0.8070    13.1866   340.9121 </r>
       <r>     0.8833    13.8570   341.9694 </r>
       <r>     0.9596    14.5216   343.0775 </r>
       <r>     1.0359    15.1587   344.2341 </r>
       <r>     1.1122    15.4722   345.4147 </r>
       <r>     1.1885    14.2437   346.5015 </r>
       <r>     1.2648    11.0271   347.3429 </r>
       <r>     1.3411     7.1670   347.8898 </r>
       <r>     1.4174     4.3148   348.2190 </r>
       <r>     1.4937     2.9510   348.4442 </r>
       <r>     1.5700     2.8088   348.6585 </r>
       <r>     1.6463     4.0431   348.9670 </r>
       <r>     1.7226     7.2968   349.5238 </r>
       <r>     1.7989    12.5692   350.4828 </r>
       <r>     1.8752    18.2500   351.8753 </r>
       <r>     1.9515    21.4450   353.5117 </r>
       <r>     2.0278    19.8849   355.0289 </r>
       <r>     2.1041    14.1347   356.1074 </r>
       <r>     2.1804     7.5514   356.6836 </r>
       <r>     2.2567     3.6080   356.9589 </r>
       <r>     2.3330     3.2959   357.2104 </r>
       <r>     2.4093     4.9905   357.5912 </r>
       <r>     2.4856     6.6708   358.1002 </r>
       <r>     2.5619     7.8553   358.6996 </r>
       <r>     2.6383     9.1000   359.3939 </r>
       <r>     2.7146    10.6625   360.2075 </r>
       <r>     2.7909    11.9731   361.1211 </r>
       <r>     2.8672    11.6855   362.0127 </r>
       <r>     2.9435     9.2622   362.7194 </r>
       <r>     3.0198     6.8308   363.2407 </r>
       <r>     3.0961     7.4048   363.8057 </r>
       <r>     3.1724    11.0298   364.6473 </r>
       <r>     3.2487    14.4708   365.7514 </r>
       <r>     3.3250    14.7828   366.8794 </r>
       <r>     3.4013    12.0306   367.7974 </r>
       <r>     3.4776     8.3297   368.4329 </r>
       <r>     3.5539     5.3623   368.8421 </r>
       <r>     3.6302     3.9855   369.1462 </r>
       <r>     3.7065     4.9953   369.5273 </r>
       <r>     3.7828     7.9761   370.1359 </r>
       <r>     3.8591    10.4099   370.9302 </r>
       <r>     3.9354    10.1156   371.7021 </r>
       <r>     4.0117     7.7466   372.2932 </r>
       <r>     4.0880     5.7799   372.7342 </r>
       <r>     4.1643     5.7785   373.1751 </r>
       <r>     4.2406     6.9635   373.7064 </r>
       <r>     4.3169     7.4876   374.2778 </r>
       <r>     4.3932     6.8923   374.8037 </r>
       <r>     4.4695     6.1862   375.2757 </r>
       <r>     4.5458     6.1244   375.7430 </r>
       <r>     4.6221     6.9733   376.2751 </r>
       <r>     4.6984     8.8114   376.9474 </r>
       <r>     4.7747    10.7669   377.7689 </r>
       <r>     4.8510    11.1863   378.6225 </r>
       <r>     4.9273     9.5845   379.3538 </r>
       <r>     5.0036     7.6507   379.9376 </r>
       <r>     5.0799     7.3467   380.4981 </r>
       <r>     5.1562     8.4813   381.1453 </r>
       <r>     5.2325     9.2045   381.8476 </r>
       <r>     5.3088     8.6249   382.5057 </r>
       <r>     5.3851     8.0511   383.1200 </r>
       <r>     5.4614     9.2320   383.8244 </r>
       <r>     5.5377    11.4582   384.6987 </r>
       <r>     5.6140    11.6868   385.5905 </r>
       <r>     5.6904     8.5438   386.2424 </r>
       <r>     5.7667     4.7126   386.6020 </r>
       <r>     5.8430     3.9699   386.9049 </r>
       <r>     5.9193     6.8964   387.4311 </r>
       <r>     5.9956    10.5610   388.2369 </r>
       <r>     6.0719    11.9222   389.1466 </r>
       <r>     6.1482    10.6168   389.9567 </r>
       <r>     6.2245     8.5956   390.6126 </r>
       <r>     6.3008     8.1851   391.2371 </r>
       <r>     6.3771    10.3839   392.0294 </r>
       <r>     6.4534    13.9353   393.0927 </r>
       <r>     6.5297    16.2582   394.3333 </r>
       <r>     6.6060    15.8787   395.5449 </r>
       <r>     6.6823    13.6491   396.5863 </r>
       <r>     6.7586    11.6737   397.4771 </r>
       <r>     6.8349    11.3322   398.3417 </r>
       <r>     6.9112    11.9599   399.2543 </r>
       <r>     6.9875    11.7084   400.1477 </r>
       <r>     7.0638    10.0355   400.9134 </r>
       <r>     7.1401     8.3408   401.5498 </r>
       <r>     7.2164     7.9558   402.1569 </r>
       <r>     7.2927     8.7331   402.8232 </r>
       <r>     7.3690     9.7676   403.5685 </r>
       <r>     7.4453    10.6050   404.3777 </r>
       <r>     7.5216    11.4320   405.2500 </r>
       <r>     7.5979    12.4806   406.2023 </r>
       <r>     7.6742    13.6315   407.2424 </r>
       <r>     7.7505    14.6786   408.3625 </r>
       <r>     7.8268    15.7892   409.5672 </r>
       <r>     7.9031    17.0209   410.8659 </r>
       <r>     7.9794    17.2078   412.1789 </r>
       <r>     8.0557    14.7451   413.3040 </r>
       <r>     8.1320    10.1255   414.0766 </r>
       <r>     8.2083     6.5368   414.5754 </r>
       <r>     8.2846     7.2178   415.1261 </r>
       <r>     8.3609    11.9745   416.0398 </r>
       <r>     8.4372    16.5631   417.3036 </r>
       <r>     8.5135    16.8640   418.5904 </r>
       <r>     8.5898    13.4813   419.6191 </r>
       <r>     8.6661    10.2934   420.4045 </r>
       <r>     8.7425     9.4086   421.1224 </r>
       <r>     8.8188    10.2001   421.9007 </r>
       <r>     8.8951    11.9420   422.8119 </r>
       <r>     8.9714    14.4683   423.9158 </r>
       <r>     9.0477    16.9602   425.2099 </r>
       <r>     9.1240    18.1058   426.5915 </r>
       <r>     9.2003    17.5315   427.9292 </r>
       <r>     9.2766    16.1668   429.1627 </r>
       <r>     9.3529    15.0263   430.3093 </r>
       <r>     9.4292    14.3791   431.4064 </r>
       <r>     9.5055    14.1541   432.4864 </r>
       <r>     9.5818    14.1122   433.5632 </r>
       <r>     9.6581    13.6600   434.6055 </r>
       <r>     9.7344    12.6039   435.5672 </r>
       <r>     9.8107    11.7521   436.4639 </r>
       <r>     9.8870    11.8205   437.3659 </r>
       <r>     9.9633    12.3299   438.3067 </r>
       <r>    10.0396    12.2951   439.2448 </r>
       <r>    10.1159    11.6893   440.1368 </r>
       <r>    10.1922    11.7971   441.0369 </r>
       <r>    10.2685    14.0343   442.1078 </r>
       <r>    10.3448    18.3422   443.5073 </r>
       <r>    10.4211    22.4593   445.2210 </r>
       <r>    10.4974    23.2241   446.9931 </r>
       <r>    10.5737    19.5422   448.4842 </r>
       <r>    10.6500    13.7379   449.5324 </r>
       <r>    10.7263     9.1990   450.2343 </r>
       <r>    10.8026     7.3752   450.7971 </r>
       <r>    10.8789     7.8062   451.3927 </r>
       <r>    10.9552     9.6300   452.1275 </r>
       <r>    11.0315    11.4995   453.0050 </r>
       <r>    11.1078    11.4819   453.8810 </r>
       <r>    11.1841     9.0587   454.5722 </r>
       <r>    11.2604     6.1300   455.0400 </r>
       <r>    11.3367     4.5606   455.3880 </r>
       <r>    11.4130     3.9499   455.6894 </r>
       <r>    11.4893     2.9323   455.9131 </r>
       <r>    11.5656     1.3899   456.0191 </r>
       <r>    11.6419     0.2098   456.0352 </r>
       <r>    11.7182    -0.2024   456.0197 </r>
       <r>    11.7946    -0.1696   456.0068 </r>
       <r>    11.8709    -0.0679   456.0016 </r>
       <r>    11.9472    -0.0174   456.0003 </r>
       <r>    12.0235    -0.0031   456.0000 </r>
       <r>    12.0998    -0.0004   456.0000 </r>
       <r>    12.1761    -0.0000   456.0000 </r>
       <r>    12.2524    -0.0000   456.0000 </r>
       <r>    12.3287    -0.0000   456.0000 </r>
       <r>    12.4050    -0.0000   456.0000 </r>
       <r>    12.4813    -0.0000   456.0000 </r>
       <r>    12.5576    -0.0000   456.0000 </r>
       <r>    12.6339    -0.0000   456.0000 </r>
       <r>    12.7102     0.0000   456.0000 </r>
       <r>    12.7865     0.0000   456.0000 </r>
       <r>    12.8628     0.0000   456.0000 </r>
       <r>    12.9391     0.0000   456.0000 </r>
       <r>    13.0154     0.0000   456.0000 </r>
       <r>    13.0917     0.0000   456.0000 </r>
       <r>    13.1680     0.0000   456.0000 </r>
       <r>    13.2443     0.0000   456.0000 </r>
       <r>    13.3206     0.0000   456.0000 </r>
       <r>    13.3969     0.0000   456.0000 </r>
      </set>
     </set>
    </array>
   </total>
  </dos>
 </calculation>
 <structure name="finalpos" >
  <crystal>
   <varray name="basis" >
    <v>       7.26000023       0.00000000       0.00000000 </v>
    <v>       0.00000000       7.26000023       0.00000000 </v>
    <v>       0.00000000       0.00000000      27.70499992 </v>
   </varray>
   <i name="volume">   1460.26414606 </i>
   <varray name="rec_basis" >
    <v>       0.13774104       0.00000000       0.00000000 </v>
    <v>       0.00000000       0.13774104       0.00000000 </v>
    <v>       0.00000000       0.00000000       0.03609457 </v>
   </varray>
  </crystal>
  <varray name="positions" >
   <v>      -0.00250214      -0.00192898       0.00870982 </v>
   <v>      -0.00254864       0.49836312       0.00869641 </v>
   <v>       0.49738815      -0.00170764       0.00867287 </v>
   <v>       0.49748638       0.49813535       0.00868086 </v>
   <v>       0.24769835       0.24817940       0.00866743 </v>
   <v>       0.24744062       0.74823847       0.00868998 </v>
   <v>       0.74724446       0.24822553       0.00867720 </v>
   <v>       0.74753571       0.74813970       0.00868614 </v>
   <v>      -0.00245132       0.24828470       0.07104545 </v>
   <v>      -0.00246890       0.74826854       0.07092915 </v>
   <v>       0.49755439       0.24826385       0.07094963 </v>
   <v>       0.49759767       0.74829605       0.07112629 </v>
   <v>       0.24761438      -0.00172769       0.07097263 </v>
   <v>       0.24759347       0.49826824       0.07096385 </v>
   <v>       0.74750070      -0.00175414       0.07097140 </v>
   <v>       0.74752058       0.49828768       0.07097299 </v>
   <v>      -0.00256334      -0.00226528       0.13467776 </v>
   <v>      -0.00259386       0.49860440       0.13468164 </v>
   <v>       0.49739182      -0.00151830       0.13464531 </v>
   <v>       0.49735316       0.49779492       0.13464867 </v>
   <v>       0.24777049       0.24821601       0.13467373 </v>
   <v>       0.24697589       0.74815940       0.13460907 </v>
   <v>       0.74690882       0.24824449       0.13468107 </v>
   <v>       0.74763332       0.74818485       0.13461520 </v>
   <v>      -0.00290794       0.24804304       0.19724851 </v>
   <v>      -0.00290213       0.74801640       0.19782500 </v>
   <v>       0.49706340       0.24804434       0.19784364 </v>
   <v>       0.49706243       0.74799361       0.19740054 </v>
   <v>       0.24753130      -0.00239094       0.19745751 </v>
   <v>       0.24755033       0.49847744       0.19745268 </v>
   <v>       0.74677431      -0.00227608       0.19746111 </v>
   <v>       0.74667829       0.49842701       0.19747628 </v>
   <v>      -0.00313366      -0.00179850       0.25986836 </v>
   <v>      -0.00311234       0.49748370       0.25984832 </v>
   <v>       0.49686968      -0.00239912       0.26015691 </v>
   <v>       0.49692728       0.49800254       0.26019357 </v>
   <v>       0.24649075       0.24787027       0.25979107 </v>
   <v>       0.24703353       0.74792121       0.26014589 </v>
   <v>       0.74715320       0.24784964       0.25984361 </v>
   <v>       0.74652262       0.74788134       0.26010567 </v>
   <v>      -0.00357777       0.24749806       0.32278270 </v>
   <v>      -0.00385529       0.74757249       0.32275380 </v>
   <v>       0.49649391       0.24738983       0.32287045 </v>
   <v>       0.49636114       0.74752682       0.32296243 </v>
   <v>       0.24642982      -0.00230106       0.32266381 </v>
   <v>       0.24645484       0.49748270       0.32263028 </v>
   <v>       0.74643968      -0.00247750       0.32269128 </v>
   <v>       0.74654532       0.49753655       0.32268447 </v>
   <v>      -0.00390448      -0.00314025       0.38607696 </v>
   <v>      -0.00408506       0.49762463       0.38601355 </v>
   <v>       0.49593340      -0.00439180       0.38676500 </v>
   <v>       0.49594725       0.49862971       0.38668287 </v>
   <v>       0.24664216       0.24713730       0.38595946 </v>
   <v>       0.24716817       0.74728951       0.38650759 </v>
   <v>       0.74567058       0.24727346       0.38603271 </v>
   <v>       0.74400006       0.74724480       0.38667786 </v>
   <v>      -0.00444053       0.24672570       0.44828586 </v>
   <v>      -0.00460539       0.74703657       0.44811492 </v>
   <v>       0.49574891       0.24702857       0.44847405 </v>
   <v>       0.49562787       0.74756938       0.45096860 </v>
   <v>       0.24404685      -0.00047880       0.44837507 </v>
   <v>       0.24273002       0.49355929       0.44807604 </v>
   <v>       0.74732162      -0.00084799       0.44839485 </v>
   <v>       0.74746966       0.49494941       0.44834156 </v>
   <v>       0.48925201       0.67779202       0.51195961 </v>
   <v>       0.46750402       0.78703066       0.51338295 </v>
  </varray>
 </structure>
</modeling>
