unknown system                          
           1
     7.260000    0.000000    0.000000
     0.000000    7.260000    0.000000
     0.000000    0.000000   27.705000
   Cu   H 
    64     2
Direct configuration=     1
   0.00000000  0.00000000  0.00000000
   0.00000000  0.50000000  0.00000000
   0.50000000  0.00000000  0.00000000
   0.50000000  0.50000000  0.00000000
   0.25000000  0.25000000  0.00000000
   0.25000000  0.75000000  0.00000000
   0.75000000  0.25000000  0.00000000
   0.75000000  0.75000000  0.00000000
   0.00000000  0.25000000  0.06551164
   0.00000000  0.75000000  0.06551164
   0.50000000  0.25000000  0.06551164
   0.50000000  0.75000000  0.06551164
   0.25000000  0.00000000  0.06551164
   0.25000000  0.50000000  0.06551164
   0.75000000  0.00000000  0.06551164
   0.75000000  0.50000000  0.06551164
   0.00000000  0.00000000  0.13164128
   0.00000000  0.50000000  0.13164128
   0.50000000  0.00000000  0.13164128
   0.50000000  0.50000000  0.13164128
   0.25000000  0.25000000  0.13164128
   0.25000000  0.75000000  0.13164128
   0.75000000  0.25000000  0.13164128
   0.75000000  0.75000000  0.13164128
   0.00000000  0.25000000  0.19677891
   0.00000000  0.75000000  0.19677891
   0.50000000  0.25000000  0.19677891
   0.50000000  0.75000000  0.19677891
   0.25000000  0.00000000  0.19677891
   0.25000000  0.50000000  0.19677891
   0.75000000  0.00000000  0.19677891
   0.75000000  0.50000000  0.19677891
   0.00000000  0.00000000  0.26184662
   0.00000000  0.50000000  0.26184662
   0.50000000  0.00000000  0.26184662
   0.50000000  0.50000000  0.26184662
   0.25000000  0.25000000  0.26184662
   0.25000000  0.75000000  0.26184662
   0.75000000  0.25000000  0.26184662
   0.75000000  0.75000000  0.26184662
   0.00000000  0.25000000  0.32758887
   0.00000000  0.75000000  0.32758887
   0.50000000  0.25000000  0.32758887
   0.50000000  0.75000000  0.32758887
   0.25000000  0.00000000  0.32758887
   0.25000000  0.50000000  0.32758887
   0.75000000  0.00000000  0.32758887
   0.75000000  0.50000000  0.32758887
   0.00000000  0.00000000  0.39185763
   0.00000000  0.50000000  0.39185763
   0.50000000  0.00000000  0.39185763
   0.50000000  0.50000000  0.39185763
   0.25000000  0.25000000  0.39185763
   0.25000000  0.75000000  0.39185763
   0.75000000  0.25000000  0.39185763
   0.75000000  0.75000000  0.39185763
   0.00000000  0.25000000  0.45475490
   0.00000000  0.75000000  0.45475490
   0.50000000  0.25000000  0.45475490
   0.50000000  0.75000000  0.45475490
   0.25000000  0.00000000  0.45475490
   0.25000000  0.50000000  0.45475490
   0.75000000  0.00000000  0.45475490
   0.75000000  0.50000000  0.45475490
   0.37500000  0.62500000  0.50150658
   0.37500000  0.69765863  0.52054652
Direct configuration=     2
   0.00006244 -0.00008397  0.00054455
   0.00001781  0.50009385  0.00055123
   0.49993466  0.00003933  0.00055288
   0.50000198  0.49993156  0.00055198
   0.25009475  0.25000066  0.00054538
   0.24991714  0.75002528  0.00054770
   0.74992906  0.25004150  0.00053462
   0.75004230  0.74995206  0.00055142
   0.00002119  0.25002747  0.06540586
   0.00003172  0.74999179  0.06539401
   0.49997452  0.25004898  0.06539933
   0.50011632  0.75008079  0.06542059
   0.25001742 -0.00003421  0.06539184
   0.24994597  0.49991013  0.06540003
   0.74994770 -0.00005093  0.06540151
   0.74994513  0.50002626  0.06539528
   0.00011025 -0.00011593  0.13155529
   0.00008674  0.50005529  0.13155319
   0.49996973 -0.00004404  0.13155133
   0.50002870  0.49994492  0.13153383
   0.25003843  0.25005936  0.13154565
   0.24992480  0.75004049  0.13151488
   0.74988813  0.25007916  0.13155130
   0.74995142  0.74998159  0.13154246
   0.00002994  0.25002349  0.19682101
   0.00005474  0.74997517  0.19687735
   0.49995795  0.25005397  0.19688603
   0.49997354  0.74998686  0.19681782
   0.25005893 -0.00009188  0.19683641
   0.25006982  0.50006042  0.19680656
   0.74993629 -0.00007076  0.19682796
   0.74992181  0.50006268  0.19684787
   0.00003197  0.00002266  0.26186421
   0.00009339  0.49993906  0.26184798
   0.50005228 -0.00009858  0.26187952
   0.50003870  0.49996456  0.26193974
   0.24993045  0.25007694  0.26181136
   0.24993451  0.75004887  0.26193994
   0.75003380  0.24999944  0.26185663
   0.74988495  0.75004761  0.26184573
  -0.00004531  0.24996805  0.32728153
  -0.00025040  0.74997661  0.32721221
   0.49997608  0.24985003  0.32723619
   0.49998627  0.74997862  0.32725454
   0.25004965  0.00020481  0.32720419
   0.25000347  0.49994352  0.32721937
   0.75009067  0.00006163  0.32723934
   0.75016434  0.50001930  0.32721141
   0.00019453 -0.00010637  0.39186677
   0.00028183  0.50012561  0.39188720
   0.49992539 -0.00035867  0.39191290
   0.50020760  0.49971088  0.39170766
   0.25010324  0.25024806  0.39185713
   0.24950323  0.75029243  0.39156127
   0.74997501  0.25008483  0.39182104
   0.74952307  0.74993243  0.39190634
   0.00005607  0.25006159  0.45474222
  -0.00090919  0.75009984  0.45459079
   0.49993660  0.24963041  0.45468050
   0.50134931  0.75137577  0.45474316
   0.24972440  0.00111275  0.45459502
   0.24763875  0.49711888  0.45402581
   0.74990830 -0.00006344  0.45474357
   0.75064612  0.49981567  0.45463707
   0.37605362  0.61685075  0.50043498
   0.37590597  0.70672278  0.52267747
Direct configuration=     3
   0.00004552 -0.00006122  0.00039697
   0.00001298  0.50006842  0.00040184
   0.49995237  0.00002867  0.00040304
   0.50000144  0.49995011  0.00040239
   0.25006907  0.25000048  0.00039757
   0.24993960  0.75001843  0.00039927
   0.74994829  0.25003026  0.00038973
   0.75003083  0.74996505  0.00040198
   0.00001545  0.25002003  0.06543453
   0.00002312  0.74999401  0.06542589
   0.49998143  0.25003571  0.06542977
   0.50008479  0.75005890  0.06544526
   0.25001270 -0.00002494  0.06542431
   0.24996061  0.49993448  0.06543028
   0.74996187 -0.00003713  0.06543135
   0.74996000  0.50001914  0.06542682
   0.00008037 -0.00008451  0.13157860
   0.00006323  0.50004031  0.13157706
   0.49997793 -0.00003211  0.13157571
   0.50002092  0.49995985  0.13156295
   0.25002802  0.25004327  0.13157156
   0.24994518  0.75002951  0.13154913
   0.74991845  0.25005770  0.13157569
   0.74996458  0.74998658  0.13156924
   0.00002183  0.25001713  0.19680960
   0.00003991  0.74998190  0.19685067
   0.49996935  0.25003934  0.19685700
   0.49998071  0.74999042  0.19680728
   0.25004296 -0.00006698  0.19682083
   0.25005090  0.50004404  0.19679907
   0.74995356 -0.00005158  0.19681467
   0.74994300  0.50004569  0.19682919
   0.00002330  0.00001652  0.26185945
   0.00006808  0.49995558  0.26184761
   0.50003811 -0.00007187  0.26187060
   0.50002821  0.49997416  0.26191451
   0.24994930  0.25005609  0.26182091
   0.24995226  0.75003562  0.26191465
   0.75002464  0.24999959  0.26185392
   0.74991613  0.75003471  0.26184597
  -0.00003303  0.24997671  0.32736483
  -0.00018254  0.74998295  0.32731429
   0.49998256  0.24989067  0.32733177
   0.49998999  0.74998441  0.32734515
   0.25003619  0.00014930  0.32730844
   0.25000253  0.49995882  0.32731951
   0.75006610  0.00004493  0.32733407
   0.75011980  0.50001407  0.32731371
   0.00014181 -0.00007755  0.39186429
   0.00020545  0.50009157  0.39187919
   0.49994561 -0.00026147  0.39189792
   0.50015134  0.49978923  0.39174830
   0.25007526  0.25018083  0.39185727
   0.24963786  0.75021318  0.39164159
   0.74998178  0.25006184  0.39183095
   0.74965232  0.74995074  0.39189314
   0.00004087  0.25004490  0.45474565
  -0.00066279  0.75007278  0.45463527
   0.49995378  0.24973057  0.45470066
   0.50098363  0.75100292  0.45474634
   0.24979909  0.00081118  0.45463835
   0.24827868  0.49789970  0.45422340
   0.74993315 -0.00004625  0.45474664
   0.75047102  0.49986562  0.45466900
   0.37576807  0.61905930  0.50072540
   0.37566044  0.70426629  0.52209996
Direct configuration=     4
   0.00011141 -0.00014931  0.00102067
   0.00004089  0.50016886  0.00103046
   0.49988292  0.00006910  0.00103245
   0.49998786  0.49988728  0.00103053
   0.25017459  0.25000553  0.00101745
   0.24986320  0.75003355  0.00102275
   0.74987267  0.25006969  0.00100051
   0.75007269  0.74991777  0.00103048
   0.00002868  0.25004211  0.06536837
   0.00004287  0.74998315  0.06534648
   0.49994914  0.25008006  0.06535748
   0.50020374  0.75013950  0.06539537
   0.25003854 -0.00004908  0.06534187
   0.24991627  0.49984283  0.06535473
   0.74991427 -0.00008553  0.06535928
   0.74991314  0.50004997  0.06534854
   0.00019638 -0.00020835  0.13149639
   0.00015115  0.50011177  0.13149285
   0.49993860 -0.00006094  0.13148977
   0.50004452  0.49990234  0.13145683
   0.25008106  0.25009741  0.13147830
   0.24986701  0.75006417  0.13141895
   0.74979661  0.25013647  0.13148981
   0.74992741  0.74996103  0.13147232
   0.00005247  0.25003897  0.19684652
   0.00009461  0.74995461  0.19695791
   0.49991967  0.25009534  0.19697543
   0.49993357  0.74996690  0.19684695
   0.25011869 -0.00017390  0.19687590
   0.25015354  0.50013160  0.19682428
   0.74988187 -0.00013412  0.19686284
   0.74985854  0.50012257  0.19689866
   0.00006209  0.00005391  0.26185193
   0.00017133  0.49988595  0.26182024
   0.50009644 -0.00018160  0.26188445
   0.50005696  0.49995065  0.26199199
   0.24987261  0.25013626  0.26174754
   0.24989403  0.75007733  0.26199245
   0.75007163  0.24999455  0.26183620
   0.74978067  0.75008622  0.26181738
  -0.00007994  0.24994535  0.32704368
  -0.00053294  0.74996421  0.32690292
   0.49996281  0.24969034  0.32695635
   0.49999864  0.74997903  0.32699092
   0.25009614  0.00042575  0.32688716
   0.24998499  0.49985305  0.32691413
   0.75017587  0.00010959  0.32696387
   0.75033368  0.50003502  0.32690490
   0.00031764 -0.00016147  0.39182559
   0.00033098  0.50023211  0.39180954
   0.49986419 -0.00060131  0.39189470
   0.50036692  0.49955355  0.39155109
   0.25018969  0.25025817  0.39174282
   0.24914730  0.75051646  0.39127486
   0.74997896  0.25011660  0.39174344
   0.74914354  0.74987661  0.39187763
  -0.00006027  0.24997837  0.45472264
  -0.00164225  0.75021568  0.45443817
   0.49991800  0.24937721  0.45461610
   0.50164507  0.75190998  0.45501975
   0.24948373  0.00196602  0.45447597
   0.24618627  0.49524378  0.45353288
   0.74988347 -0.00001952  0.45473230
   0.75115882  0.49960363  0.45453130
   0.37714679  0.61867319  0.50163999
   0.37696755  0.70590260  0.52201596
Direct configuration=     5
   0.00022264 -0.00029803  0.00207355
   0.00008801  0.50033842  0.00209163
   0.49976569  0.00013735  0.00209497
   0.49996493  0.49978121  0.00209091
   0.25035272  0.25001407  0.00206387
   0.24973424  0.75005906  0.00207526
   0.74974501  0.25013626  0.00203159
   0.75014334  0.74983796  0.00209148
   0.00005101  0.25007939  0.06525669
   0.00007621  0.74996480  0.06521243
   0.49989464  0.25015494  0.06523546
   0.50040454  0.75027558  0.06531115
   0.25008217 -0.00008982  0.06520270
   0.24984141  0.49968811  0.06522718
   0.74983390 -0.00016724  0.06523760
   0.74983403  0.50010201  0.06521640
   0.00039221 -0.00041741  0.13135760
   0.00029955  0.50023240  0.13135070
   0.49987219 -0.00010961  0.13134470
   0.50008435  0.49980525  0.13127768
   0.25017060  0.25018879  0.13132085
   0.24973504  0.75012267  0.13119919
   0.74959093  0.25026944  0.13134483
   0.74986466  0.74991789  0.13130870
   0.00010420  0.25007585  0.19690883
   0.00018694  0.74990854  0.19713895
   0.49983580  0.25018986  0.19717534
   0.49985399  0.74992721  0.19691393
   0.25024654 -0.00035439  0.19696886
   0.25032680  0.50027940  0.19686685
   0.74976085 -0.00027344  0.19694415
   0.74971596  0.50025236  0.19701594
   0.00012757  0.00011704  0.26183923
   0.00034563  0.49976841  0.26177402
   0.50019490 -0.00036684  0.26190781
   0.50010549  0.49991095  0.26212279
   0.24974316  0.25027161  0.26162369
   0.24979572  0.75014773  0.26212378
   0.75015096  0.24998604  0.26180631
   0.74955200  0.75017318  0.26176910
  -0.00015912  0.24989240  0.32650155
  -0.00112445  0.74993258  0.32620848
   0.49992946  0.24935216  0.32632260
   0.50001323  0.74996993  0.32639294
   0.25019734  0.00089242  0.32617598
   0.24995537  0.49967448  0.32622979
   0.75036118  0.00021875  0.32633893
   0.75069474  0.50007040  0.32621477
   0.00061447 -0.00030314  0.39176027
   0.00054288  0.50046938  0.39169197
   0.49972674 -0.00117501  0.39188925
   0.50073085  0.49915568  0.39121817
   0.25038287  0.25038873  0.39154963
   0.24831919  0.75102843  0.39065579
   0.74997420  0.25020906  0.39159571
   0.74828466  0.74975147  0.39185145
  -0.00023100  0.24986605  0.45468379
  -0.00329568  0.75045692  0.45410546
   0.49985759  0.24878069  0.45447334
   0.50276165  0.75344120  0.45548131
   0.24895137  0.00391553  0.45420184
   0.24265405  0.49076028  0.45236720
   0.74979960  0.00002559  0.45470809
   0.75231991  0.49916136  0.45429885
   0.37947422  0.61802139  0.50318393
   0.37917410  0.70866488  0.52187417
Direct configuration=     6
   0.00025389 -0.00033982  0.00236937
   0.00010124  0.50038606  0.00238978
   0.49973275  0.00015653  0.00239351
   0.49995849  0.49975141  0.00238884
   0.25040277  0.25001646  0.00235788
   0.24969801  0.75006623  0.00237099
   0.74970915  0.25015497  0.00232129
   0.75016319  0.74981554  0.00238958
   0.00005728  0.25008987  0.06522531
   0.00008558  0.74995965  0.06517477
   0.49987933  0.25017598  0.06520118
   0.50046095  0.75031381  0.06528748
   0.25009443 -0.00010127  0.06516360
   0.24982038  0.49964464  0.06519135
   0.74981132 -0.00019019  0.06520341
   0.74981180  0.50011664  0.06517927
   0.00044724 -0.00047614  0.13131861
   0.00034125  0.50026630  0.13131076
   0.49985353 -0.00012329  0.13130394
   0.50009555  0.49977797  0.13122735
   0.25019576  0.25021447  0.13127661
   0.24969796  0.75013911  0.13113744
   0.74953315  0.25030680  0.13130410
   0.74984702  0.74990578  0.13126273
   0.00011874  0.25008621  0.19692633
   0.00021289  0.74989560  0.19718981
   0.49981224  0.25021642  0.19723152
   0.49983163  0.74991606  0.19693275
   0.25028246 -0.00040510  0.19699498
   0.25037548  0.50032093  0.19687881
   0.74972684 -0.00031259  0.19696699
   0.74967590  0.50028882  0.19704890
   0.00014597  0.00013478  0.26183566
   0.00039460  0.49973538  0.26176104
   0.50022257 -0.00041889  0.26191438
   0.50011913  0.49989979  0.26215954
   0.24970679  0.25030964  0.26158889
   0.24976810  0.75016751  0.26216068
   0.75017324  0.24998365  0.26179790
   0.74948775  0.75019761  0.26175553
  -0.00018137  0.24987752  0.32634923
  -0.00129065  0.74992369  0.32601337
   0.49992009  0.24925714  0.32614454
   0.50001733  0.74996738  0.32622493
   0.25022578  0.00102354  0.32597616
   0.24994705  0.49962431  0.32603752
   0.75041324  0.00024942  0.32616335
   0.75079618  0.50008034  0.32602087
   0.00069787 -0.00034295  0.39174192
   0.00060242  0.50053604  0.39165894
   0.49968812 -0.00133620  0.39188773
   0.50083311  0.49904390  0.39112463
   0.25043715  0.25042541  0.39149535
   0.24808651  0.75117228  0.39048185
   0.74997287  0.25023503  0.39155420
   0.74804334  0.74971630  0.39184409
  -0.00027897  0.24983450  0.45467288
  -0.00376024  0.75052470  0.45401198
   0.49984062  0.24861309  0.45443323
   0.50307538  0.75387142  0.45561099
   0.24880179  0.00446328  0.45412482
   0.24166161  0.48950056  0.45203968
   0.74977603  0.00003827  0.45470128
   0.75264614  0.49903710  0.45423354
   0.38012815  0.61783825  0.50361772
   0.37979408  0.70944099  0.52183433
Direct configuration=     7
   0.00024122 -0.00031599  0.00290011
   0.00010691  0.50038334  0.00291945
   0.49971519  0.00013903  0.00291853
   0.49989490  0.49983141  0.00291861
   0.25040418  0.25000955  0.00287383
   0.24978187  0.75001589  0.00290155
   0.74971411  0.25013669  0.00284728
   0.75014033  0.74981415  0.00291149
  -0.00001533  0.25004504  0.06563122
   0.00001524  0.74994122  0.06558035
   0.49987856  0.25012017  0.06560981
   0.50042319  0.75029335  0.06567655
   0.25011382 -0.00003646  0.06556068
   0.24984848  0.49966533  0.06557857
   0.74986020 -0.00011672  0.06560605
   0.74987752  0.50010538  0.06557811
   0.00042079 -0.00047977  0.13135306
   0.00028039  0.50031493  0.13135031
   0.49981498 -0.00003509  0.13134408
   0.50007094  0.49978052  0.13124014
   0.25024364  0.25016070  0.13131683
   0.24970467  0.75010843  0.13112740
   0.74952301  0.25029313  0.13134292
   0.74992724  0.74987249  0.13130339
   0.00008572  0.25007281  0.19677841
   0.00022209  0.74987087  0.19713058
   0.49980925  0.25021401  0.19717992
   0.49968991  0.74983211  0.19684165
   0.25035531 -0.00048080  0.19690352
   0.25050553  0.50048690  0.19677069
   0.74970688 -0.00032129  0.19685532
   0.74964295  0.50033941  0.19696161
   0.00012237  0.00023664  0.26156578
   0.00042349  0.49965904  0.26146683
   0.50025529 -0.00048439  0.26165383
   0.50010173  0.49993296  0.26195162
   0.24964953  0.25033614  0.26128328
   0.24979790  0.75015416  0.26195485
   0.75025402  0.24995202  0.26153816
   0.74937678  0.75022515  0.26147516
  -0.00020284  0.24984545  0.32625545
  -0.00180732  0.75000326  0.32583335
   0.50002595  0.24896261  0.32600200
   0.50014929  0.75003950  0.32610389
   0.25019384  0.00136093  0.32577744
   0.24984965  0.49943106  0.32584439
   0.75042779  0.00024529  0.32609001
   0.75097702  0.50005494  0.32585762
   0.00033078 -0.00017226  0.39133258
  -0.00064467  0.50067992  0.39087645
   0.49960726 -0.00165076  0.39156018
   0.50075627  0.49955374  0.39090661
   0.25059633  0.24916867  0.39062261
   0.24843575  0.75109347  0.39025431
   0.75002845  0.24996737  0.39117547
   0.74740237  0.74968012  0.39146777
  -0.00155457  0.24879230  0.45455541
  -0.00376082  0.75070732  0.45374709
   0.50012933  0.24870398  0.45425024
   0.50171803  0.75319824  0.45594727
   0.24852242  0.00457831  0.45393839
   0.24194511  0.48973963  0.45186671
   0.74992448  0.00055623  0.45461134
   0.75255960  0.49868428  0.45403369
   0.38217101  0.62020560  0.50536859
   0.38223472  0.70915693  0.52091156
Direct configuration=     8
   0.00023886 -0.00031155  0.00299907
   0.00010797  0.50038284  0.00301820
   0.49971192  0.00013576  0.00301642
   0.49988304  0.49984633  0.00301739
   0.25040444  0.25000826  0.00297003
   0.24979751  0.75000650  0.00300047
   0.74971504  0.25013328  0.00294535
   0.75013606  0.74981389  0.00300880
  -0.00002887  0.25003668  0.06570690
   0.00000212  0.74993778  0.06565597
   0.49987842  0.25010976  0.06568600
   0.50041615  0.75028954  0.06574909
   0.25011744 -0.00002438  0.06563471
   0.24985372  0.49966919  0.06565076
   0.74986931 -0.00010302  0.06568113
   0.74988977  0.50010329  0.06565247
   0.00041585 -0.00048045  0.13135949
   0.00026904  0.50032400  0.13135768
   0.49980779 -0.00001864  0.13135157
   0.50006635  0.49978100  0.13124253
   0.25025256  0.25015067  0.13132432
   0.24970593  0.75010271  0.13112553
   0.74952113  0.25029058  0.13135016
   0.74994219  0.74986628  0.13131097
   0.00007957  0.25007032  0.19675083
   0.00022380  0.74986626  0.19711954
   0.49980869  0.25021356  0.19717030
   0.49966348  0.74981645  0.19682467
   0.25036889 -0.00049492  0.19688646
   0.25052978  0.50051784  0.19675053
   0.74970315 -0.00032291  0.19683450
   0.74963681  0.50034885  0.19694534
   0.00011797  0.00025564  0.26151546
   0.00042888  0.49964481  0.26141198
   0.50026139 -0.00049660  0.26160525
   0.50009848  0.49993915  0.26191286
   0.24963886  0.25034109  0.26122630
   0.24980345  0.75015167  0.26191648
   0.75026908  0.24994612  0.26148973
   0.74935609  0.75023028  0.26142289
  -0.00020684  0.24983947  0.32623797
  -0.00190365  0.75001810  0.32579979
   0.50004568  0.24890769  0.32597543
   0.50017389  0.75005295  0.32608132
   0.25018789  0.00142384  0.32574039
   0.24983149  0.49939502  0.32580838
   0.75043051  0.00024452  0.32607633
   0.75101073  0.50005021  0.32582718
   0.00026234 -0.00014043  0.39125626
  -0.00087719  0.50070675  0.39073055
   0.49959218 -0.00170941  0.39149910
   0.50074194  0.49964881  0.39086596
   0.25062601  0.24893434  0.39045989
   0.24850087  0.75107878  0.39021189
   0.75003882  0.24991746  0.39110485
   0.74728286  0.74967337  0.39139760
  -0.00179241  0.24859798  0.45453351
  -0.00376093  0.75074137  0.45369770
   0.50018316  0.24872093  0.45421612
   0.50146495  0.75307272  0.45600997
   0.24847033  0.00459975  0.45390363
   0.24199797  0.48978421  0.45183446
   0.74995216  0.00065280  0.45459457
   0.75254347  0.49861850  0.45399643
   0.38255190  0.62064700  0.50569504
   0.38268979  0.70910397  0.52073951
Direct configuration=     9
   0.00021760 -0.00027878  0.00327962
   0.00010260  0.50035494  0.00329696
   0.49971800  0.00011583  0.00329108
   0.49985327  0.49990537  0.00329657
   0.25037712  0.25000172  0.00324210
   0.24986153  0.74997783  0.00328187
   0.74972912  0.25011650  0.00322628
   0.75010993  0.74982480  0.00328221
  -0.00007274  0.25000724  0.06603546
  -0.00004543  0.74993222  0.06598338
   0.49988725  0.25006789  0.06601397
   0.50037604  0.75026724  0.06606178
   0.25011700  0.00002156  0.06595803
   0.24987128  0.49969228  0.06596741
   0.74990313 -0.00005142  0.06600807
   0.74993600  0.50008536  0.06597613
   0.00037759 -0.00046219  0.13142832
   0.00021384  0.50033457  0.13142998
   0.49979667  0.00003563  0.13142539
   0.50005115  0.49979193  0.13130105
   0.25026686  0.25010974  0.13140025
   0.24972300  0.75008136  0.13117431
   0.74953372  0.25027130  0.13142334
   0.74999055  0.74985565  0.13138841
   0.00005070  0.25005752  0.19662424
   0.00022854  0.74986191  0.19703917
   0.49982454  0.25020966  0.19709255
   0.49958042  0.74976640  0.19673646
   0.25039230 -0.00053163  0.19679725
   0.25058663  0.50060536  0.19665530
   0.74970324 -0.00030979  0.19673112
   0.74962039  0.50035840  0.19685524
   0.00008099  0.00031849  0.26132117
   0.00042203  0.49960506  0.26120495
   0.50027464 -0.00051820  0.26141171
   0.50008754  0.49995455  0.26174660
   0.24961451  0.25034519  0.26102197
   0.24982278  0.75014028  0.26175381
   0.75031462  0.24992090  0.26130724
   0.74930636  0.75024140  0.26122641
  -0.00025453  0.24980204  0.32617087
  -0.00211870  0.75012170  0.32571931
   0.50018118  0.24879100  0.32590682
   0.50022187  0.75009071  0.32602223
   0.25013328  0.00145940  0.32563660
   0.24979271  0.49934043  0.32571966
   0.75038911  0.00022154  0.32605343
   0.75097975  0.50000597  0.32574456
  -0.00003127 -0.00008446  0.39096659
  -0.00158176  0.50072668  0.39024564
   0.49956979 -0.00192546  0.39129552
   0.50059787  0.49998908  0.39074858
   0.25065782  0.24826010  0.38993492
   0.24878953  0.75093441  0.39012648
   0.74999425  0.24973549  0.39084568
   0.74688205  0.74970308  0.39117265
  -0.00251217  0.24802173  0.45439575
  -0.00356053  0.75078255  0.45350059
   0.50031520  0.24884394  0.45405113
   0.50050020  0.75249596  0.45609915
   0.24832846  0.00448511  0.45376118
   0.24237342  0.49025251  0.45173713
   0.74995901  0.00088193  0.45450037
   0.75234850  0.49846732  0.45384765
   0.38391249  0.61937323  0.50633409
   0.38432717  0.71179857  0.52065822
Direct configuration=    10
   0.00015384 -0.00018046  0.00412129
   0.00008651  0.50027126  0.00413322
   0.49973623  0.00005603  0.00411504
   0.49976396  0.50008248  0.00413412
   0.25029515  0.24998208  0.00405829
   0.25005361  0.74989182  0.00412607
   0.74977137  0.25006617  0.00406905
   0.75003152  0.74985751  0.00410243
  -0.00020434  0.24991891  0.06702114
  -0.00018810  0.74991551  0.06696561
   0.49991376  0.24994227  0.06699787
   0.50025572  0.75020036  0.06699986
   0.25011570  0.00015935  0.06692796
   0.24992399  0.49976155  0.06691735
   0.75000458  0.00010340  0.06698891
   0.75007468  0.50003158  0.06694711
   0.00026279 -0.00040740  0.13163481
   0.00004824  0.50036630  0.13164686
   0.49976333  0.00019844  0.13164683
   0.50000557  0.49982473  0.13147661
   0.25030977  0.24998694  0.13162805
   0.24977422  0.75001732  0.13132066
   0.74957149  0.25021346  0.13164289
   0.75013563  0.74982375  0.13162074
  -0.00003591  0.25001912  0.19624448
   0.00024275  0.74984883  0.19679808
   0.49987211  0.25019793  0.19685929
   0.49933122  0.74961624  0.19647183
   0.25046252 -0.00064176  0.19652960
   0.25075719  0.50086791  0.19636959
   0.74970349 -0.00027045  0.19642098
   0.74957115  0.50038707  0.19658495
  -0.00002994  0.00050703  0.26073831
   0.00040148  0.49948581  0.26058386
   0.50031440 -0.00058301  0.26083109
   0.50005471  0.50000075  0.26124783
   0.24954147  0.25035752  0.26040899
   0.24988076  0.75010613  0.26126582
   0.75045124  0.24984521  0.26075975
   0.74915717  0.75027477  0.26063697
  -0.00039760  0.24968975  0.32596958
  -0.00276384  0.75043250  0.32547786
   0.50058766  0.24844095  0.32570102
   0.50036581  0.75020399  0.32584496
   0.24996943  0.00156607  0.32532526
   0.24967636  0.49917665  0.32545350
   0.75026493  0.00015262  0.32598472
   0.75088679  0.49987327  0.32549668
  -0.00091210  0.00008348  0.39009755
  -0.00369547  0.50078645  0.38879089
   0.49950263 -0.00257360  0.39068479
   0.50016563  0.50100992  0.39039645
   0.25075325  0.24623738  0.38836003
   0.24965551  0.75050132  0.38987024
   0.74986054  0.24918957  0.39006816
   0.74567962  0.74979219  0.39049779
  -0.00467145  0.24629299  0.45398250
  -0.00295934  0.75090608  0.45290925
   0.50071130  0.24921297  0.45355616
   0.49760596  0.75076565  0.45636669
   0.24790286  0.00414120  0.45333384
   0.24349977  0.49165740  0.45144514
   0.74997957  0.00156932  0.45421776
   0.75176359  0.49801378  0.45340132
   0.38799424  0.61555193  0.50825122
   0.38923933  0.71988237  0.52041437
Direct configuration=    11
   0.00013628 -0.00016083  0.00447743
   0.00007528  0.50022694  0.00448530
   0.49975877  0.00004278  0.00445998
   0.49977303  0.50009266  0.00448610
   0.25025223  0.24998076  0.00440721
   0.25006817  0.74989954  0.00448237
   0.74976226  0.25006335  0.00442683
   0.75000194  0.74988293  0.00445058
  -0.00020638  0.24991810  0.06745882
  -0.00021871  0.74993547  0.06738518
   0.49992763  0.24993027  0.06741849
   0.50025366  0.75021027  0.06742562
   0.25008337  0.00018454  0.06735269
   0.24990812  0.49974692  0.06734242
   0.74999723  0.00010400  0.06742298
   0.75008326  0.50000404  0.06737204
   0.00024121 -0.00040746  0.13184712
   0.00002135  0.50034742  0.13185805
   0.49978234  0.00020016  0.13186381
   0.50001354  0.49982327  0.13168423
   0.25029593  0.24998028  0.13184730
   0.24977471  0.75002340  0.13152715
   0.74955986  0.25021483  0.13186084
   0.75011907  0.74984374  0.13184326
  -0.00006097  0.25000945  0.19609655
   0.00027140  0.74988008  0.19666586
   0.49991347  0.25023135  0.19672674
   0.49929430  0.74959950  0.19634683
   0.25042812 -0.00068730  0.19640603
   0.25075391  0.50088725  0.19624887
   0.74970308 -0.00025111  0.19628751
   0.74952214  0.50035063  0.19645648
  -0.00011640  0.00054842  0.26053224
   0.00035930  0.49947639  0.26038410
   0.50032049 -0.00057490  0.26062885
   0.50003668  0.49997552  0.26105187
   0.24953898  0.25035441  0.26021818
   0.24985017  0.75009123  0.26107808
   0.75047612  0.24979891  0.26056587
   0.74913647  0.75028404  0.26044658
  -0.00061809  0.24957181  0.32561831
  -0.00268225  0.75066387  0.32525223
   0.50087737  0.24851970  0.32546085
   0.50022791  0.75018761  0.32561266
   0.24988282  0.00096118  0.32502744
   0.24973390  0.49934725  0.32522893
   0.75007142  0.00005780  0.32575611
   0.75035668  0.49980308  0.32520899
  -0.00115458 -0.00017594  0.38978393
  -0.00368509  0.50062759  0.38854514
   0.49949060 -0.00288908  0.39055778
   0.49986976  0.50105960  0.39022970
   0.25057031  0.24634278  0.38813558
   0.24967831  0.75029161  0.38974525
   0.74949619  0.24910953  0.38977341
   0.74525857  0.74991748  0.39039293
  -0.00482823  0.24624605  0.45358574
  -0.00271632  0.75070907  0.45251944
   0.50047670  0.24937789  0.45320226
   0.49640629  0.74987193  0.45641952
   0.24779091  0.00399961  0.45304462
   0.24361361  0.49185575  0.45117198
   0.74954946  0.00125095  0.45396286
   0.75154955  0.49804652  0.45310397
   0.39020337  0.61602597  0.50920132
   0.39168938  0.72181779  0.52002456
Direct configuration=    12
   0.00011716 -0.00013947  0.00486523
   0.00006306  0.50017868  0.00486867
   0.49978332  0.00002835  0.00483557
   0.49978291  0.50010374  0.00486935
   0.25020549  0.24997934  0.00478714
   0.25008402  0.74990795  0.00487034
   0.74975235  0.25006029  0.00481641
   0.74996972  0.74991061  0.00482967
  -0.00020860  0.24991722  0.06793540
  -0.00025204  0.74995719  0.06784205
   0.49994273  0.24991720  0.06787649
   0.50025142  0.75022106  0.06788922
   0.25004818  0.00021195  0.06781516
   0.24989084  0.49973098  0.06780527
   0.74998923  0.00010465  0.06789562
   0.75009261  0.49997405  0.06783473
   0.00021771 -0.00040752  0.13207831
  -0.00000792  0.50032687  0.13208800
   0.49980304  0.00020203  0.13210008
   0.50002222  0.49982168  0.13191029
   0.25028087  0.24997303  0.13208604
   0.24977525  0.75003002  0.13175199
   0.74954720  0.25021631  0.13209817
   0.75010105  0.74986551  0.13208556
  -0.00008826  0.24999892  0.19593547
   0.00030259  0.74991410  0.19652188
   0.49995850  0.25026774  0.19658240
   0.49925411  0.74958127  0.19621071
   0.25039066 -0.00073687  0.19627148
   0.25075033  0.50090831  0.19611742
   0.74970263 -0.00023005  0.19614218
   0.74946879  0.50031095  0.19631660
  -0.00021054  0.00059348  0.26030785
   0.00031338  0.49946613  0.26016658
   0.50032712 -0.00056606  0.26040864
   0.50001705  0.49994805  0.26083848
   0.24953626  0.25035101  0.26001042
   0.24981686  0.75007501  0.26087366
   0.75050321  0.24974849  0.26035476
   0.74911392  0.75029414  0.26023927
  -0.00085818  0.24944339  0.32523582
  -0.00259342  0.75091581  0.32500655
   0.50119283  0.24860545  0.32519934
   0.50007775  0.75016977  0.32535972
   0.24978852  0.00030253  0.32470315
   0.24979654  0.49953302  0.32498440
   0.74986071 -0.00004545  0.32550718
   0.74977945  0.49972665  0.32489573
  -0.00141862 -0.00045841  0.38944243