  34  34   0   0
  0.1991679E+02  0.5133596E-09  0.5133596E-09  0.2967047E-08  0.5000000E-15
  1.000000000000000E-004
  CAR 
 unknown system                          
     14.83992953     -9.11355190  301      2.17482275      1.00000000
     -9.114  0.0000E+00  0.0000E+00  0.0000E+00  0.0000E+00
     -9.034  0.0000E+00  0.0000E+00  0.0000E+00  0.0000E+00
     -8.954  0.0000E+00  0.0000E+00  0.0000E+00  0.0000E+00
     -8.874  0.0000E+00  0.0000E+00  0.0000E+00  0.0000E+00
     -8.794  0.0000E+00  0.0000E+00  0.0000E+00  0.0000E+00
     -8.714 -0.5920E-30 -0.5920E-30 -0.4727E-31 -0.4727E-31
     -8.634 -0.2854E-27 -0.2854E-27 -0.2283E-28 -0.2283E-28
     -8.555 -0.9987E-25 -0.9987E-25 -0.7997E-26 -0.7997E-26
     -8.475 -0.2533E-22 -0.2533E-22 -0.2030E-23 -0.2030E-23
     -8.395 -0.4651E-20 -0.4651E-20 -0.3734E-21 -0.3734E-21
     -8.315 -0.6183E-18 -0.6183E-18 -0.4974E-19 -0.4974E-19
     -8.235 -0.5761E-16 -0.5761E-16 -0.4650E-17 -0.4650E-17
     -8.155 -0.3980E-14 -0.3980E-14 -0.3224E-15 -0.3224E-15
     -8.076 -0.1982E-12 -0.1982E-12 -0.1615E-13 -0.1615E-13
     -7.996 -0.7101E-11 -0.7101E-11 -0.5831E-12 -0.5831E-12
     -7.916 -0.1823E-09 -0.1823E-09 -0.1514E-10 -0.1514E-10
     -7.836 -0.3342E-08 -0.3342E-08 -0.2819E-09 -0.2819E-09
     -7.756 -0.4342E-07 -0.4342E-07 -0.3748E-08 -0.3748E-08
     -7.676 -0.3956E-06 -0.3956E-06 -0.3534E-07 -0.3534E-07
     -7.596 -0.2481E-05 -0.2481E-05 -0.2334E-06 -0.2334E-06
     -7.517 -0.1030E-04 -0.1030E-04 -0.1056E-05 -0.1056E-05
     -7.437 -0.2560E-04 -0.2560E-04 -0.3100E-05 -0.3100E-05
     -7.357 -0.2289E-04 -0.2289E-04 -0.4927E-05 -0.4927E-05
     -7.277  0.7087E-04  0.7087E-04  0.7309E-06  0.7309E-06
     -7.197  0.2971E-03  0.2971E-03  0.2445E-04  0.2445E-04
     -7.117  0.5213E-03  0.5213E-03  0.6608E-04  0.6608E-04
     -7.038  0.5195E-03  0.5195E-03  0.1076E-03  0.1076E-03
     -6.958  0.3038E-03  0.3038E-03  0.1318E-03  0.1318E-03
     -6.878  0.1631E-03  0.1631E-03  0.1448E-03  0.1448E-03
     -6.798  0.2843E-03  0.2843E-03  0.1675E-03  0.1675E-03
     -6.718  0.4909E-03  0.4909E-03  0.2067E-03  0.2067E-03
     -6.638  0.4604E-03  0.4604E-03  0.2435E-03  0.2435E-03
     -6.559  0.1510E-03  0.1510E-03  0.2556E-03  0.2556E-03
     -6.479 -0.4200E-04 -0.4200E-04  0.2522E-03  0.2522E-03
     -6.399  0.4842E-03  0.4842E-03  0.2909E-03  0.2909E-03
     -6.319  0.1897E-02  0.1897E-02  0.4423E-03  0.4423E-03
     -6.239  0.3269E-02  0.3269E-02  0.7033E-03  0.7033E-03
     -6.159  0.3335E-02  0.3335E-02  0.9696E-03  0.9696E-03
     -6.079  0.2295E-02  0.2295E-02  0.1153E-02  0.1153E-02
     -6.000  0.1750E-02  0.1750E-02  0.1293E-02  0.1293E-02
     -5.920  0.2479E-02  0.2479E-02  0.1490E-02  0.1490E-02
     -5.840  0.3321E-02  0.3321E-02  0.1756E-02  0.1756E-02
     -5.760  0.2850E-02  0.2850E-02  0.1983E-02  0.1983E-02
     -5.680  0.1340E-02  0.1340E-02  0.2090E-02  0.2090E-02
     -5.600  0.6103E-04  0.6103E-04  0.2095E-02  0.2095E-02
     -5.521 -0.3734E-03 -0.3734E-03  0.2065E-02  0.2065E-02
     -5.441  0.1036E-03  0.1036E-03  0.2074E-02  0.2074E-02
     -5.361  0.1571E-02  0.1571E-02  0.2199E-02  0.2199E-02
     -5.281  0.3382E-02  0.3382E-02  0.2469E-02  0.2469E-02
     -5.201  0.3979E-02  0.3979E-02  0.2787E-02  0.2787E-02
     -5.121  0.2742E-02  0.2742E-02  0.3006E-02  0.3006E-02
     -5.041  0.9018E-03  0.9018E-03  0.3078E-02  0.3078E-02
     -4.962 -0.2075E-03 -0.2075E-03  0.3061E-02  0.3061E-02
     -4.882 -0.3542E-03 -0.3542E-03  0.3033E-02  0.3033E-02
     -4.802  0.3469E-03  0.3469E-03  0.3061E-02  0.3061E-02
     -4.722  0.1802E-02  0.1802E-02  0.3204E-02  0.3204E-02
     -4.642  0.3412E-02  0.3412E-02  0.3477E-02  0.3477E-02
     -4.562  0.4541E-02  0.4541E-02  0.3839E-02  0.3839E-02
     -4.483  0.5363E-02  0.5363E-02  0.4268E-02  0.4268E-02
     -4.403  0.6015E-02  0.6015E-02  0.4748E-02  0.4748E-02
     -4.323  0.5723E-02  0.5723E-02  0.5205E-02  0.5205E-02
     -4.243  0.4082E-02  0.4082E-02  0.5531E-02  0.5531E-02
     -4.163  0.2355E-02  0.2355E-02  0.5719E-02  0.5719E-02
     -4.083  0.2082E-02  0.2082E-02  0.5885E-02  0.5885E-02
     -4.003  0.3194E-02  0.3194E-02  0.6140E-02  0.6140E-02
     -3.924  0.4934E-02  0.4934E-02  0.6534E-02  0.6534E-02
     -3.844  0.7183E-02  0.7183E-02  0.7108E-02  0.7108E-02
     -3.764  0.9188E-02  0.9188E-02  0.7841E-02  0.7841E-02
     -3.684  0.9295E-02  0.9295E-02  0.8583E-02  0.8583E-02
     -3.604  0.7612E-02  0.7612E-02  0.9191E-02  0.9191E-02
     -3.524  0.6373E-02  0.6373E-02  0.9700E-02  0.9700E-02
     -3.445  0.6574E-02  0.6574E-02  0.1022E-01  0.1022E-01
     -3.365  0.6834E-02  0.6834E-02  0.1077E-01  0.1077E-01
     -3.285  0.6025E-02  0.6025E-02  0.1125E-01  0.1125E-01
     -3.205  0.4638E-02  0.4638E-02  0.1162E-01  0.1162E-01
     -3.125  0.3658E-02  0.3658E-02  0.1191E-01  0.1191E-01
     -3.045  0.3916E-02  0.3916E-02  0.1223E-01  0.1223E-01
     -2.965  0.5598E-02  0.5598E-02  0.1267E-01  0.1267E-01
     -2.886  0.7777E-02  0.7777E-02  0.1329E-01  0.1329E-01
     -2.806  0.1006E-01  0.1006E-01  0.1410E-01  0.1410E-01
     -2.726  0.1374E-01  0.1374E-01  0.1519E-01  0.1519E-01
     -2.646  0.1954E-01  0.1954E-01  0.1675E-01  0.1675E-01
     -2.566  0.2610E-01  0.2610E-01  0.1884E-01  0.1884E-01
     -2.486  0.3123E-01  0.3123E-01  0.2133E-01  0.2133E-01
     -2.407  0.3275E-01  0.3275E-01  0.2395E-01  0.2395E-01
     -2.327  0.2970E-01  0.2970E-01  0.2632E-01  0.2632E-01
     -2.247  0.2466E-01  0.2466E-01  0.2829E-01  0.2829E-01
     -2.167  0.2251E-01  0.2251E-01  0.3008E-01  0.3008E-01
     -2.087  0.2581E-01  0.2581E-01  0.3215E-01  0.3215E-01
     -2.007  0.3319E-01  0.3319E-01  0.3480E-01  0.3480E-01
     -1.928  0.4137E-01  0.4137E-01  0.3810E-01  0.3810E-01
     -1.848  0.4684E-01  0.4684E-01  0.4184E-01  0.4184E-01
     -1.768  0.4791E-01  0.4791E-01  0.4566E-01  0.4566E-01
     -1.688  0.4531E-01  0.4531E-01  0.4928E-01  0.4928E-01
     -1.608  0.4069E-01  0.4069E-01  0.5253E-01  0.5253E-01
     -1.528  0.3659E-01  0.3659E-01  0.5545E-01  0.5545E-01
     -1.448  0.3526E-01  0.3526E-01  0.5827E-01  0.5827E-01
     -1.369  0.3714E-01  0.3714E-01  0.6123E-01  0.6123E-01
     -1.289  0.4257E-01  0.4257E-01  0.6463E-01  0.6463E-01
     -1.209  0.5120E-01  0.5120E-01  0.6872E-01  0.6872E-01
     -1.129  0.5897E-01  0.5897E-01  0.7343E-01  0.7343E-01
     -1.049  0.6164E-01  0.6164E-01  0.7835E-01  0.7835E-01
     -0.969  0.6213E-01  0.6213E-01  0.8331E-01  0.8331E-01
     -0.890  0.6707E-01  0.6707E-01  0.8867E-01  0.8867E-01
     -0.810  0.7550E-01  0.7550E-01  0.9470E-01  0.9470E-01
     -0.730  0.8014E-01  0.8014E-01  0.1011E+00  0.1011E+00
     -0.650  0.7851E-01  0.7851E-01  0.1074E+00  0.1074E+00
     -0.570  0.7442E-01  0.7442E-01  0.1133E+00  0.1133E+00
     -0.490  0.7116E-01  0.7116E-01  0.1190E+00  0.1190E+00
     -0.410  0.6920E-01  0.6920E-01  0.1245E+00  0.1245E+00
     -0.331  0.6834E-01  0.6834E-01  0.1300E+00  0.1300E+00
     -0.251  0.6760E-01  0.6760E-01  0.1354E+00  0.1354E+00
     -0.171  0.6535E-01  0.6535E-01  0.1406E+00  0.1406E+00
     -0.091  0.6257E-01  0.6257E-01  0.1456E+00  0.1456E+00
     -0.011  0.6141E-01  0.6141E-01  0.1505E+00  0.1505E+00
      0.069  0.6221E-01  0.6221E-01  0.1554E+00  0.1554E+00
      0.148  0.6708E-01  0.6708E-01  0.1608E+00  0.1608E+00
      0.228  0.7787E-01  0.7787E-01  0.1670E+00  0.1670E+00
      0.308  0.8885E-01  0.8885E-01  0.1741E+00  0.1741E+00
      0.388  0.9292E-01  0.9292E-01  0.1815E+00  0.1815E+00
      0.468  0.9235E-01  0.9235E-01  0.1889E+00  0.1889E+00
      0.548  0.9222E-01  0.9222E-01  0.1963E+00  0.1963E+00
      0.628  0.8798E-01  0.8798E-01  0.2033E+00  0.2033E+00
      0.707  0.7055E-01  0.7055E-01  0.2089E+00  0.2089E+00
      0.787  0.4166E-01  0.4166E-01  0.2123E+00  0.2123E+00
      0.867  0.1482E-01  0.1482E-01  0.2134E+00  0.2134E+00
      0.947  0.6726E-03  0.6726E-03  0.2135E+00  0.2135E+00
      1.027 -0.1593E-02 -0.1593E-02  0.2134E+00  0.2134E+00
      1.107  0.9631E-03  0.9631E-03  0.2134E+00  0.2134E+00
      1.186  0.3154E-02  0.3154E-02  0.2137E+00  0.2137E+00
      1.266  0.4104E-02  0.4104E-02  0.2140E+00  0.2140E+00
      1.346  0.4964E-02  0.4964E-02  0.2144E+00  0.2144E+00
      1.426  0.6039E-02  0.6039E-02  0.2149E+00  0.2149E+00
      1.506  0.6222E-02  0.6222E-02  0.2154E+00  0.2154E+00
      1.586  0.4657E-02  0.4657E-02  0.2158E+00  0.2158E+00
      1.666  0.2594E-02  0.2594E-02  0.2160E+00  0.2160E+00
      1.745  0.2776E-02  0.2776E-02  0.2162E+00  0.2162E+00
      1.825  0.6430E-02  0.6430E-02  0.2167E+00  0.2167E+00
      1.905  0.1152E-01  0.1152E-01  0.2176E+00  0.2176E+00
      1.985  0.1454E-01  0.1454E-01  0.2188E+00  0.2188E+00
      2.065  0.1410E-01  0.1410E-01  0.2199E+00  0.2199E+00
      2.145  0.1230E-01  0.1230E-01  0.2209E+00  0.2209E+00
      2.224  0.1134E-01  0.1134E-01  0.2218E+00  0.2218E+00
      2.304  0.1005E-01  0.1005E-01  0.2226E+00  0.2226E+00
      2.384  0.6678E-02  0.6678E-02  0.2231E+00  0.2231E+00
      2.464  0.3171E-02  0.3171E-02  0.2234E+00  0.2234E+00
      2.544  0.2615E-02  0.2615E-02  0.2236E+00  0.2236E+00
      2.624  0.4914E-02  0.4914E-02  0.2240E+00  0.2240E+00
      2.703  0.7606E-02  0.7606E-02  0.2246E+00  0.2246E+00
      2.783  0.8626E-02  0.8626E-02  0.2253E+00  0.2253E+00
      2.863  0.7424E-02  0.7424E-02  0.2259E+00  0.2259E+00
      2.943  0.5436E-02  0.5436E-02  0.2263E+00  0.2263E+00
      3.023  0.4623E-02  0.4623E-02  0.2267E+00  0.2267E+00
      3.103  0.4640E-02  0.4640E-02  0.2271E+00  0.2271E+00
      3.183  0.3932E-02  0.3932E-02  0.2274E+00  0.2274E+00
      3.262  0.2926E-02  0.2926E-02  0.2276E+00  0.2276E+00
      3.342  0.3289E-02  0.3289E-02  0.2279E+00  0.2279E+00
      3.422  0.5498E-02  0.5498E-02  0.2283E+00  0.2283E+00
      3.502  0.8732E-02  0.8732E-02  0.2290E+00  0.2290E+00
      3.582  0.1162E-01  0.1162E-01  0.2299E+00  0.2299E+00
      3.662  0.1254E-01  0.1254E-01  0.2309E+00  0.2309E+00
      3.741  0.1068E-01  0.1068E-01  0.2318E+00  0.2318E+00
      3.821  0.7240E-02  0.7240E-02  0.2324E+00  0.2324E+00
      3.901  0.4561E-02  0.4561E-02  0.2327E+00  0.2327E+00
      3.981  0.3471E-02  0.3471E-02  0.2330E+00  0.2330E+00
      4.061  0.2723E-02  0.2723E-02  0.2332E+00  0.2332E+00
      4.141  0.1434E-02  0.1434E-02  0.2333E+00  0.2333E+00
      4.221  0.1754E-03  0.1754E-03  0.2334E+00  0.2334E+00
      4.300 -0.4788E-03 -0.4788E-03  0.2333E+00  0.2333E+00
      4.380 -0.4408E-03 -0.4408E-03  0.2333E+00  0.2333E+00
      4.460  0.7610E-03  0.7610E-03  0.2333E+00  0.2333E+00
      4.540  0.3485E-02  0.3485E-02  0.2336E+00  0.2336E+00
      4.620  0.6323E-02  0.6323E-02  0.2341E+00  0.2341E+00
      4.700  0.7085E-02  0.7085E-02  0.2347E+00  0.2347E+00
      4.779  0.5815E-02  0.5815E-02  0.2352E+00  0.2352E+00
      4.859  0.4235E-02  0.4235E-02  0.2355E+00  0.2355E+00
      4.939  0.2866E-02  0.2866E-02  0.2357E+00  0.2357E+00
      5.019  0.1367E-02  0.1367E-02  0.2358E+00  0.2358E+00
      5.099  0.5704E-04  0.5704E-04  0.2358E+00  0.2358E+00
      5.179 -0.4693E-03 -0.4693E-03  0.2358E+00  0.2358E+00
      5.259  0.2346E-03  0.2346E-03  0.2358E+00  0.2358E+00
      5.338  0.2459E-02  0.2459E-02  0.2360E+00  0.2360E+00
      5.418  0.5475E-02  0.5475E-02  0.2364E+00  0.2364E+00
      5.498  0.7571E-02  0.7571E-02  0.2371E+00  0.2371E+00
      5.578  0.8237E-02  0.8237E-02  0.2377E+00  0.2377E+00
      5.658  0.8707E-02  0.8707E-02  0.2384E+00  0.2384E+00
      5.738  0.9317E-02  0.9317E-02  0.2391E+00  0.2391E+00
      5.817  0.8873E-02  0.8873E-02  0.2399E+00  0.2399E+00
      5.897  0.7147E-02  0.7147E-02  0.2404E+00  0.2404E+00
      5.977  0.5146E-02  0.5146E-02  0.2408E+00  0.2408E+00
      6.057  0.3410E-02  0.3410E-02  0.2411E+00  0.2411E+00
      6.137  0.2153E-02  0.2153E-02  0.2413E+00  0.2413E+00
      6.217  0.2307E-02  0.2307E-02  0.2415E+00  0.2415E+00
      6.297  0.4859E-02  0.4859E-02  0.2419E+00  0.2419E+00
      6.376  0.8559E-02  0.8559E-02  0.2425E+00  0.2425E+00
      6.456  0.1015E-01  0.1015E-01  0.2433E+00  0.2433E+00
      6.536  0.8563E-02  0.8563E-02  0.2440E+00  0.2440E+00
      6.616  0.6059E-02  0.6059E-02  0.2445E+00  0.2445E+00
      6.696  0.4456E-02  0.4456E-02  0.2449E+00  0.2449E+00
      6.776  0.3955E-02  0.3955E-02  0.2452E+00  0.2452E+00
      6.855  0.4779E-02  0.4779E-02  0.2456E+00  0.2456E+00
      6.935  0.6379E-02  0.6379E-02  0.2461E+00  0.2461E+00
      7.015  0.7226E-02  0.7226E-02  0.2467E+00  0.2467E+00
      7.095  0.7504E-02  0.7504E-02  0.2473E+00  0.2473E+00
      7.175  0.8696E-02  0.8696E-02  0.2479E+00  0.2479E+00
      7.255  0.1044E-01  0.1044E-01  0.2488E+00  0.2488E+00
      7.335  0.1131E-01  0.1131E-01  0.2497E+00  0.2497E+00
      7.414  0.1075E-01  0.1075E-01  0.2505E+00  0.2505E+00
      7.494  0.8528E-02  0.8528E-02  0.2512E+00  0.2512E+00
      7.574  0.5106E-02  0.5106E-02  0.2516E+00  0.2516E+00
      7.654  0.2583E-02  0.2583E-02  0.2518E+00  0.2518E+00
      7.734  0.2781E-02  0.2781E-02  0.2521E+00  0.2521E+00
      7.814  0.5592E-02  0.5592E-02  0.2525E+00  0.2525E+00
      7.893  0.9317E-02  0.9317E-02  0.2533E+00  0.2533E+00
      7.973  0.1157E-01  0.1157E-01  0.2542E+00  0.2542E+00
      8.053  0.1078E-01  0.1078E-01  0.2550E+00  0.2550E+00
      8.133  0.7757E-02  0.7757E-02  0.2557E+00  0.2557E+00
      8.213  0.5190E-02  0.5190E-02  0.2561E+00  0.2561E+00
      8.293  0.4741E-02  0.4741E-02  0.2564E+00  0.2564E+00
      8.372  0.5840E-02  0.5840E-02  0.2569E+00  0.2569E+00
      8.452  0.7839E-02  0.7839E-02  0.2575E+00  0.2575E+00
      8.532  0.1061E-01  0.1061E-01  0.2584E+00  0.2584E+00
      8.612  0.1260E-01  0.1260E-01  0.2594E+00  0.2594E+00
      8.692  0.1157E-01  0.1157E-01  0.2603E+00  0.2603E+00
      8.772  0.7843E-02  0.7843E-02  0.2609E+00  0.2609E+00
      8.852  0.4483E-02  0.4483E-02  0.2613E+00  0.2613E+00
      8.931  0.3961E-02  0.3961E-02  0.2616E+00  0.2616E+00
      9.011  0.5465E-02  0.5465E-02  0.2621E+00  0.2621E+00
      9.091  0.6136E-02  0.6136E-02  0.2625E+00  0.2625E+00
      9.171  0.5220E-02  0.5220E-02  0.2630E+00  0.2630E+00
      9.251  0.5097E-02  0.5097E-02  0.2634E+00  0.2634E+00
      9.331  0.7361E-02  0.7361E-02  0.2640E+00  0.2640E+00
      9.410  0.1032E-01  0.1032E-01  0.2648E+00  0.2648E+00
      9.490  0.1111E-01  0.1111E-01  0.2657E+00  0.2657E+00
      9.570  0.8958E-02  0.8958E-02  0.2664E+00  0.2664E+00
      9.650  0.5996E-02  0.5996E-02  0.2669E+00  0.2669E+00
      9.730  0.4736E-02  0.4736E-02  0.2672E+00  0.2672E+00
      9.810  0.5303E-02  0.5302E-02  0.2677E+00  0.2677E+00
      9.890  0.6356E-02  0.6356E-02  0.2682E+00  0.2682E+00
      9.969  0.7886E-02  0.7887E-02  0.2688E+00  0.2688E+00
     10.049  0.1038E-01  0.1038E-01  0.2696E+00  0.2696E+00
     10.129  0.1195E-01  0.1195E-01  0.2706E+00  0.2706E+00
     10.209  0.1033E-01  0.1033E-01  0.2714E+00  0.2714E+00
     10.289  0.6977E-02  0.6977E-02  0.2720E+00  0.2720E+00
     10.369  0.5273E-02  0.5273E-02  0.2724E+00  0.2724E+00
     10.448  0.6057E-02  0.6057E-02  0.2729E+00  0.2729E+00
     10.528  0.7961E-02  0.7961E-02  0.2735E+00  0.2735E+00
     10.608  0.9628E-02  0.9628E-02  0.2743E+00  0.2743E+00
     10.688  0.9950E-02  0.9950E-02  0.2751E+00  0.2751E+00
     10.768  0.9093E-02  0.9093E-02  0.2758E+00  0.2758E+00
     10.848  0.9433E-02  0.9433E-02  0.2765E+00  0.2765E+00
     10.928  0.1195E-01  0.1195E-01  0.2775E+00  0.2775E+00
     11.007  0.1358E-01  0.1358E-01  0.2786E+00  0.2786E+00
     11.087  0.1186E-01  0.1186E-01  0.2795E+00  0.2795E+00
     11.167  0.9246E-02  0.9246E-02  0.2803E+00  0.2803E+00
     11.247  0.9784E-02  0.9784E-02  0.2811E+00  0.2811E+00
     11.327  0.1364E-01  0.1364E-01  0.2821E+00  0.2821E+00
     11.407  0.1622E-01  0.1622E-01  0.2834E+00  0.2834E+00
     11.486  0.1370E-01  0.1370E-01  0.2845E+00  0.2845E+00
     11.566  0.8336E-02  0.8336E-02  0.2852E+00  0.2852E+00
     11.646  0.5166E-02  0.5166E-02  0.2856E+00  0.2856E+00
     11.726  0.5697E-02  0.5697E-02  0.2861E+00  0.2861E+00
     11.806  0.7780E-02  0.7780E-02  0.2867E+00  0.2867E+00
     11.886  0.8860E-02  0.8860E-02  0.2874E+00  0.2874E+00
     11.966  0.7634E-02  0.7634E-02  0.2880E+00  0.2880E+00
     12.045  0.4776E-02  0.4776E-02  0.2884E+00  0.2884E+00
     12.125  0.2123E-02  0.2123E-02  0.2886E+00  0.2886E+00
     12.205  0.6236E-03  0.6236E-03  0.2886E+00  0.2886E+00
     12.285  0.1480E-03  0.1479E-03  0.2886E+00  0.2886E+00
     12.365  0.5518E-03  0.5518E-03  0.2887E+00  0.2887E+00
     12.445  0.1557E-02  0.1557E-02  0.2888E+00  0.2888E+00
     12.524  0.2378E-02  0.2378E-02  0.2890E+00  0.2890E+00
     12.604  0.2485E-02  0.2485E-02  0.2892E+00  0.2892E+00
     12.684  0.2287E-02  0.2287E-02  0.2894E+00  0.2894E+00
     12.764  0.2382E-02  0.2383E-02  0.2895E+00  0.2895E+00
     12.844  0.2546E-02  0.2547E-02  0.2897E+00  0.2897E+00
     12.924  0.2107E-02  0.2107E-02  0.2899E+00  0.2899E+00
     13.003  0.1093E-02  0.1092E-02  0.2900E+00  0.2900E+00
     13.083  0.2224E-03  0.2218E-03  0.2900E+00  0.2900E+00
     13.163 -0.1100E-03 -0.1101E-03  0.2900E+00  0.2900E+00
     13.243 -0.1044E-03 -0.1043E-03  0.2900E+00  0.2900E+00
     13.323 -0.4062E-04 -0.4057E-04  0.2900E+00  0.2900E+00
     13.403 -0.9625E-05 -0.9611E-05  0.2900E+00  0.2900E+00
     13.483 -0.1518E-05 -0.1516E-05  0.2900E+00  0.2900E+00
     13.562 -0.1652E-06 -0.1648E-06  0.2900E+00  0.2900E+00
     13.642 -0.1262E-07 -0.1258E-07  0.2900E+00  0.2900E+00
     13.722 -0.6834E-09 -0.6815E-09  0.2900E+00  0.2900E+00
     13.802 -0.2643E-10 -0.2635E-10  0.2900E+00  0.2900E+00
     13.882 -0.7330E-12 -0.7305E-12  0.2900E+00  0.2900E+00
     13.962 -0.1462E-13 -0.1456E-13  0.2900E+00  0.2900E+00
     14.041 -0.2101E-15 -0.2086E-15  0.2900E+00  0.2900E+00
     14.121 -0.2317E-17 -0.2317E-17  0.2900E+00  0.2900E+00
     14.201  0.0000E+00  0.0000E+00  0.2900E+00  0.2900E+00
     14.281  0.0000E+00  0.0000E+00  0.2900E+00  0.2900E+00
     14.361  0.0000E+00  0.0000E+00  0.2900E+00  0.2900E+00
     14.441  0.0000E+00  0.0000E+00  0.2900E+00  0.2900E+00
     14.521  0.0000E+00  0.0000E+00  0.2900E+00  0.2900E+00
     14.600  0.0000E+00  0.0000E+00  0.2900E+00  0.2900E+00
     14.680  0.0000E+00  0.0000E+00  0.2900E+00  0.2900E+00
     14.760  0.0000E+00  0.0000E+00  0.2900E+00  0.2900E+00
     14.840  0.0000E+00  0.0000E+00  0.2900E+00  0.2900E+00
