   34   34  800    2
  0.1991679E+02  0.5133595E-09  0.5133595E-09  0.2967047E-08  0.5000000E-15
  1.000000000000000E-004
  CAR 
 unknown system                          
    354      3    232
 
  0.0000000E+00  0.0000000E+00  0.0000000E+00  0.1111111E+00
      1         -7.113552       -7.113552   1.000000   1.000000
      2         -6.716299       -6.716299   1.000000   1.000000
      3         -6.084363       -6.084363   1.000000   1.000000
      4         -5.245705       -5.245705   1.000000   1.000000
      5         -4.339444       -4.339444   1.000000   1.000000
      6         -3.687964       -3.687964   1.000000   1.000000
      7         -3.401661       -3.401661   1.000000   1.000000
      8         -3.008466       -3.008466   1.000000   1.000000
      9         -2.887928       -2.887928   1.000000   1.000000
     10         -2.887917       -2.887917   1.000000   1.000000
     11         -2.887755       -2.887755   1.000000   1.000000
     12         -2.882872       -2.882872   1.000000   1.000000
     13         -2.702580       -2.702580   1.000000   1.000000
     14         -2.702574       -2.702574   1.000000   1.000000
     15         -2.701904       -2.701904   1.000000   1.000000
     16         -2.681079       -2.681079   1.000000   1.000000
     17         -2.681071       -2.681071   1.000000   1.000000
     18         -2.680317       -2.680317   1.000000   1.000000
     19         -2.562489       -2.562489   1.000000   1.000000
     20         -2.562485       -2.562485   1.000000   1.000000
     21         -2.562427       -2.562427   1.000000   1.000000
     22         -2.424330       -2.424330   1.000000   1.000000
     23         -2.424321       -2.424321   1.000000   1.000000
     24         -2.423532       -2.423532   1.000000   1.000000
     25         -2.377408       -2.377408   1.000000   1.000000
     26         -2.377403       -2.377403   1.000000   1.000000
     27         -2.376923       -2.376923   1.000000   1.000000
     28         -2.230410       -2.230410   1.000000   1.000000
     29         -2.230321       -2.230321   1.000000   1.000000
     30         -2.230321       -2.230321   1.000000   1.000000
     31         -2.113844       -2.113844   1.000000   1.000000
     32         -2.113841       -2.113841   1.000000   1.000000
     33         -2.113274       -2.113274   1.000000   1.000000
     34         -2.109782       -2.109782   1.000000   1.000000
     35         -2.109643       -2.109643   1.000000   1.000000
     36         -2.109638       -2.109638   1.000000   1.000000
     37         -2.097600       -2.097600   1.000000   1.000000
     38         -2.097574       -2.097574   1.000000   1.000000
     39         -2.097570       -2.097570   1.000000   1.000000
     40         -1.925409       -1.925409   1.000000   1.000000
     41         -1.925408       -1.925408   1.000000   1.000000
     42         -1.925316       -1.925316   1.000000   1.000000
     43         -1.679305       -1.679305   1.000000   1.000000
     44         -1.679302       -1.679302   1.000000   1.000000
     45         -1.678634       -1.678634   1.000000   1.000000
     46         -1.365929       -1.365929   1.000000   1.000000
     47         -1.365927       -1.365927   1.000000   1.000000
     48         -1.365402       -1.365402   1.000000   1.000000
     49         -1.063182       -1.063182   1.000000   1.000000
     50         -1.063135       -1.063135   1.000000   1.000000
     51         -1.063132       -1.063132   1.000000   1.000000
     52         -0.959674       -0.959674   1.000000   1.000000
     53         -0.944363       -0.944363   1.000000   1.000000
     54         -0.920873       -0.920873   1.000000   1.000000
     55         -0.920872       -0.920872   1.000000   1.000000
     56         -0.919966       -0.919966   1.000000   1.000000
     57         -0.868875       -0.868875   1.000000   1.000000
     58         -0.868678       -0.868678   1.000000   1.000000
     59         -0.868674       -0.868674   1.000000   1.000000
     60         -0.868007       -0.868007   1.000000   1.000000
     61         -0.868005       -0.868005   1.000000   1.000000
     62         -0.865531       -0.865531   1.000000   1.000000
     63         -0.865528       -0.865528   1.000000   1.000000
     64         -0.806906       -0.806906   1.000000   1.000000
     65         -0.794485       -0.794485   1.000000   1.000000
     66         -0.794482       -0.794482   1.000000   1.000000
     67         -0.794360       -0.794360   1.000000   1.000000
     68         -0.775049       -0.775049   1.000000   1.000000
     69         -0.775045       -0.775045   1.000000   1.000000
     70         -0.774982       -0.774982   1.000000   1.000000
     71         -0.773571       -0.773571   1.000000   1.000000
     72         -0.773390       -0.773390   1.000000   1.000000
     73         -0.773390       -0.773390   1.000000   1.000000
     74         -0.773013       -0.773013   1.000000   1.000000
     75         -0.773009       -0.773009   1.000000   1.000000
     76         -0.772630       -0.772630   1.000000   1.000000
     77         -0.768852       -0.768852   1.000000   1.000000
     78         -0.768849       -0.768849   1.000000   1.000000
     79         -0.725404       -0.725404   1.000000   1.000000
     80         -0.725400       -0.725400   1.000000   1.000000
     81         -0.720411       -0.720411   1.000000   1.000000
     82         -0.685009       -0.685009   1.000000   1.000000
     83         -0.685005       -0.685005   1.000000   1.000000
     84         -0.673431       -0.673431   1.000000   1.000000
     85         -0.672726       -0.672726   1.000000   1.000000
     86         -0.672721       -0.672721   1.000000   1.000000
     87         -0.596560       -0.596560   1.000000   1.000000
     88         -0.596556       -0.596556   1.000000   1.000000
     89         -0.578622       -0.578622   1.000000   1.000000
     90         -0.578617       -0.578617   1.000000   1.000000
     91         -0.539365       -0.539365   1.000000   1.000000
     92         -0.539364       -0.539364   1.000000   1.000000
     93         -0.538533       -0.538533   1.000000   1.000000
     94         -0.454213       -0.454213   1.000000   1.000000
     95         -0.454210       -0.454210   1.000000   1.000000
     96         -0.451996       -0.451996   1.000000   1.000000
     97         -0.448865       -0.448865   1.000000   1.000000
     98         -0.246821       -0.246821   1.000000   1.000000
     99         -0.246557       -0.246557   1.000000   1.000000
    100         -0.246556       -0.246556   1.000000   1.000000
    101         -0.193040       -0.193040   1.000000   1.000000
    102         -0.192040       -0.192040   1.000000   1.000000
    103         -0.192038       -0.192037   1.000000   1.000000
    104         -0.016102       -0.016102   1.000000   1.000000
    105         -0.016101       -0.016101   1.000000   1.000000
    106         -0.006807       -0.006807   1.000000   1.000000
    107         -0.006805       -0.006805   1.000000   1.000000
    108          0.027105        0.027105   1.000000   1.000000
    109          0.027106        0.027106   1.000000   1.000000
    110          0.027799        0.027799   1.000000   1.000000
    111          0.027801        0.027801   1.000000   1.000000
    112          0.030899        0.030899   1.000000   1.000000
    113          0.038048        0.038048   1.000000   1.000000
    114          0.038119        0.038119   1.000000   1.000000
    115          0.038120        0.038120   1.000000   1.000000
    116          0.089850        0.089850   1.000000   1.000000
    117          0.089851        0.089851   1.000000   1.000000
    118          0.242253        0.242253   1.000000   1.000000
    119          0.242254        0.242254   1.000000   1.000000
    120          0.291181        0.291181   1.000000   1.000000
    121          0.291442        0.291442   1.000000   1.000000
    122          0.291443        0.291443   1.000000   1.000000
    123          0.321029        0.321029   1.000000   1.000000
    124          0.321991        0.321991   1.000000   1.000000
    125          0.321993        0.321993   1.000000   1.000000
    126          0.390568        0.390568   1.000000   1.000000
    127          0.395882        0.395882   1.000000   1.000000
    128          0.395883        0.395883   1.000000   1.000000
    129          0.486664        0.486664   1.000000   1.000000
    130          0.486664        0.486664   1.000000   1.000000
    131          0.487312        0.487312   1.000000   1.000000
    132          0.507160        0.507160   1.000000   1.000000
    133          0.507162        0.507162   1.000000   1.000000
    134          0.509551        0.509551   1.000000   1.000000
    135          0.532613        0.532613   1.000000   1.000000
    136          0.532614        0.532614   1.000000   1.000000
    137          0.555730        0.555730   1.000000   1.000000
    138          0.555739        0.555739   1.000000   1.000000
    139          0.556566        0.556566   1.000000   1.000000
    140          0.558161        0.558161   1.000000   1.000000
    141          0.558166        0.558166   1.000000   1.000000
    142          0.559026        0.559026   1.000000   1.000000
    143          0.586874        0.586874   1.000000   1.000000
    144          0.586882        0.586882   1.000000   1.000000
    145          0.587853        0.587853   1.000000   1.000000
    146          0.591827        0.591827   1.000000   1.000000
    147          0.591834        0.591834   1.000000   1.000000
    148          0.592606        0.592606   1.000000   1.000000
    149          0.612023        0.612023   1.000000   1.000000
    150          0.612024        0.612024   1.000000   1.000000
    151          0.612569        0.612569   1.000000   1.000000
    152          0.612577        0.612577   1.000000   1.000000
    153          0.613210        0.613210   1.000000   1.000000
    154          0.657463        0.657463   1.000000   1.000000
    155          0.657469        0.657469   1.000000   1.000000
    156          0.657601        0.657601   1.000000   1.000000
    157          0.667265        0.667265   1.000000   1.000000
    158          0.667435        0.667435   1.000000   1.000000
    159          0.667443        0.667443   1.000000   1.000000
    160          0.686605        0.686605   1.000000   1.000000
    161          0.688081        0.688081   1.000000   1.000000
    162          0.688090        0.688090   1.000000   1.000000
    163          0.710703        0.710703   1.000000   1.000000
    164          0.711736        0.711736   1.000000   1.000000
    165          0.711744        0.711744   1.000000   1.000000
    166          0.747189        0.747189   1.000000   1.000000
    167          0.747194        0.747194   1.000000   1.000000
    168          0.747550        0.747550   1.000000   1.000000
    169          1.488832        1.488832   1.000007   1.000007
    170          1.489962        1.489962   1.000007   1.000007
    171          1.489980        1.489980   1.000007   1.000007
    172          1.651374        1.651374   1.000675   1.000675
    173          1.999798        1.999798   1.006850   1.006850
    174          2.114150        2.114150   0.744098   0.744098
    175          2.116222        2.116222   0.736554   0.736554
    176          2.116236        2.116236   0.736503   0.736503
    177          2.652458        2.652458  -0.001881  -0.001881
    178          2.655451        2.655451  -0.001765  -0.001765
    179          2.655461        2.655461  -0.001765  -0.001765
    180          3.041325        3.041325  -0.000000  -0.000000
    181          3.044573        3.044573  -0.000000  -0.000000
    182          3.044579        3.044579  -0.000000  -0.000000
    183          3.301697        3.301697  -0.000000  -0.000000
    184          3.304709        3.304709  -0.000000  -0.000000
    185          3.304715        3.304715  -0.000000  -0.000000
    186          3.495157        3.495157  -0.000000  -0.000000
    187          3.498784        3.498784  -0.000000  -0.000000
    188          3.498792        3.498792  -0.000000  -0.000000
    189          3.655661        3.655661  -0.000000  -0.000000
    190          3.659214        3.659214  -0.000000  -0.000000
    191          3.659227        3.659227  -0.000000  -0.000000
    192          3.740753        3.740753  -0.000000  -0.000000
    193          3.742517        3.742517  -0.000000  -0.000000
    194          3.742535        3.742535  -0.000000  -0.000000
    195          6.129093        6.129093  -0.000000  -0.000000
    196          6.129111        6.129111  -0.000000  -0.000000
    197          6.130773        6.130773  -0.000000  -0.000000
    198          6.389740        6.389741  -0.000000  -0.000000
    199          6.544058        6.544058  -0.000000  -0.000000
    200          6.544073        6.544073  -0.000000  -0.000000
    201          6.557764        6.557764  -0.000000  -0.000000
    202          6.599305        6.599305  -0.000000  -0.000000
    203          7.080944        7.080944  -0.000000  -0.000000
    204          7.080956        7.080956  -0.000000  -0.000000
    205          7.123641        7.123641  -0.000000  -0.000000
    206          7.381846        7.381846  -0.000000  -0.000000
    207          7.672155        7.672155   0.000000   0.000000
    208          7.672167        7.672167   0.000000   0.000000
    209          7.685926        7.685927   0.000000   0.000000
    210          7.892028        7.892030   0.000000   0.000000
    211          8.438690        8.438690   0.000000   0.000000
    212          8.438699        8.438699   0.000000   0.000000
    213          8.472384        8.472384   0.000000   0.000000
    214          8.863038        8.863039   0.000000   0.000000
    215          9.272250        9.272250   0.000000   0.000000
    216          9.446530        9.446530   0.000000   0.000000
    217          9.446537        9.446537   0.000000   0.000000
    218          9.569160        9.569161   0.000000   0.000000
    219         10.072073       10.072073   0.000000   0.000000
    220         10.072086       10.072086   0.000000   0.000000
    221         10.123160       10.123160   0.000000   0.000000
    222         10.528199       10.528200   0.000000   0.000000
    223         10.675945       10.675945   0.000000   0.000000
    224         10.675950       10.675950   0.000000   0.000000
    225         10.912919       10.912919   0.000000   0.000000
    226         11.149309       11.149309   0.000000   0.000000
    227         11.149312       11.149312   0.000000   0.000000
    228         11.349868       11.349868   0.000000   0.000000
    229         11.509860       11.509861   0.000000   0.000000
    230         11.662425       11.662425   0.000000   0.000000
    231         11.662431       11.662431   0.000000   0.000000
    232         11.976756       11.976756   0.000000   0.000000
 
  0.3333333E+00  0.5551115E-16  0.0000000E+00  0.6666667E+00
      1         -6.243589       -6.243589   1.000000   1.000000
      2         -5.862161       -5.862161   1.000000   1.000000
      3         -5.258124       -5.258124   1.000000   1.000000
      4         -4.466111       -4.466111   1.000000   1.000000
      5         -4.020417       -4.020417   1.000000   1.000000
      6         -3.764359       -3.764359   1.000000   1.000000
      7         -3.704809       -3.704809   1.000000   1.000000
      8         -3.476960       -3.476960   1.000000   1.000000
      9         -3.375348       -3.375348   1.000000   1.000000
     10         -2.962921       -2.962921   1.000000   1.000000
     11         -2.843345       -2.843345   1.000000   1.000000
     12         -2.690669       -2.690669   1.000000   1.000000
     13         -2.690654       -2.690654   1.000000   1.000000
     14         -2.591727       -2.591727   1.000000   1.000000
     15         -2.540714       -2.540714   1.000000   1.000000
     16         -2.540355       -2.540355   1.000000   1.000000
     17         -2.475493       -2.475493   1.000000   1.000000
     18         -2.441571       -2.441571   1.000000   1.000000
     19         -2.441353       -2.441353   1.000000   1.000000
     20         -2.399645       -2.399645   1.000000   1.000000
     21         -2.391392       -2.391392   1.000000   1.000000
     22         -2.391300       -2.391300   1.000000   1.000000
     23         -2.277168       -2.277168   1.000000   1.000000
     24         -2.274896       -2.274896   1.000000   1.000000
     25         -2.274639       -2.274639   1.000000   1.000000
     26         -2.108584       -2.108584   1.000000   1.000000
     27         -2.108269       -2.108269   1.000000   1.000000
     28         -2.003371       -2.003371   1.000000   1.000000
     29         -2.001317       -2.001317   1.000000   1.000000
     30         -2.001252       -2.001252   1.000000   1.000000
     31         -1.998447       -1.998447   1.000000   1.000000
     32         -1.899807       -1.899807   1.000000   1.000000
     33         -1.899148       -1.899148   1.000000   1.000000
     34         -1.875364       -1.875364   1.000000   1.000000
     35         -1.875362       -1.875362   1.000000   1.000000
     36         -1.871641       -1.871641   1.000000   1.000000
     37         -1.843682       -1.843682   1.000000   1.000000
     38         -1.712648       -1.712648   1.000000   1.000000
     39         -1.712091       -1.712091   1.000000   1.000000
     40         -1.686315       -1.686315   1.000000   1.000000
     41         -1.680283       -1.680283   1.000000   1.000000
     42         -1.680197       -1.680197   1.000000   1.000000
     43         -1.514995       -1.514995   1.000000   1.000000
     44         -1.514877       -1.514877   1.000000   1.000000
     45         -1.509376       -1.509376   1.000000   1.000000
     46         -1.446904       -1.446904   1.000000   1.000000
     47         -1.446517       -1.446517   1.000000   1.000000
     48         -1.394277       -1.394277   1.000000   1.000000
     49         -1.327269       -1.327269   1.000000   1.000000
     50         -1.290219       -1.290219   1.000000   1.000000
     51         -1.289902       -1.289902   1.000000   1.000000
     52         -1.268279       -1.268279   1.000000   1.000000
     53         -1.237732       -1.237732   1.000000   1.000000
     54         -1.179206       -1.179206   1.000000   1.000000
     55         -1.177878       -1.177878   1.000000   1.000000
     56         -1.177470       -1.177470   1.000000   1.000000
     57         -1.148834       -1.148834   1.000000   1.000000
     58         -1.148033       -1.148033   1.000000   1.000000
     59         -1.115199       -1.115199   1.000000   1.000000
     60         -1.113577       -1.113577   1.000000   1.000000
     61         -1.092994       -1.092994   1.000000   1.000000
     62         -1.092790       -1.092790   1.000000   1.000000
     63         -1.082316       -1.082316   1.000000   1.000000
     64         -1.078889       -1.078889   1.000000   1.000000
     65         -1.030269       -1.030269   1.000000   1.000000
     66         -0.985181       -0.985181   1.000000   1.000000
     67         -0.985002       -0.985002   1.000000   1.000000
     68         -0.916999       -0.916999   1.000000   1.000000
     69         -0.880817       -0.880817   1.000000   1.000000
     70         -0.868947       -0.868947   1.000000   1.000000
     71         -0.845743       -0.845743   1.000000   1.000000
     72         -0.845128       -0.845128   1.000000   1.000000
     73         -0.831878       -0.831878   1.000000   1.000000
     74         -0.817031       -0.817031   1.000000   1.000000
     75         -0.803543       -0.803543   1.000000   1.000000
     76         -0.803422       -0.803422   1.000000   1.000000
     77         -0.764845       -0.764845   1.000000   1.000000
     78         -0.751403       -0.751403   1.000000   1.000000
     79         -0.710631       -0.710631   1.000000   1.000000
     80         -0.688794       -0.688794   1.000000   1.000000
     81         -0.686220       -0.686220   1.000000   1.000000
     82         -0.682810       -0.682810   1.000000   1.000000
     83         -0.657362       -0.657362   1.000000   1.000000
     84         -0.656954       -0.656954   1.000000   1.000000
     85         -0.652698       -0.652698   1.000000   1.000000
     86         -0.635216       -0.635216   1.000000   1.000000
     87         -0.634291       -0.634291   1.000000   1.000000
     88         -0.585198       -0.585198   1.000000   1.000000
     89         -0.584010       -0.584010   1.000000   1.000000
     90         -0.579014       -0.579014   1.000000   1.000000
     91         -0.578202       -0.578202   1.000000   1.000000
     92         -0.557725       -0.557725   1.000000   1.000000
     93         -0.516278       -0.516278   1.000000   1.000000
     94         -0.482592       -0.482592   1.000000   1.000000
     95         -0.473666       -0.473666   1.000000   1.000000
     96         -0.463618       -0.463618   1.000000   1.000000
     97         -0.463076       -0.463076   1.000000   1.000000
     98         -0.461817       -0.461817   1.000000   1.000000
     99         -0.455991       -0.455991   1.000000   1.000000
    100         -0.445884       -0.445884   1.000000   1.000000
    101         -0.435314       -0.435314   1.000000   1.000000
    102         -0.434675       -0.434675   1.000000   1.000000
    103         -0.356470       -0.356470   1.000000   1.000000
    104         -0.342839       -0.342839   1.000000   1.000000
    105         -0.342556       -0.342556   1.000000   1.000000
    106         -0.310455       -0.310455   1.000000   1.000000
    107         -0.284200       -0.284200   1.000000   1.000000
    108         -0.272419       -0.272419   1.000000   1.000000
    109         -0.261791       -0.261791   1.000000   1.000000
    110         -0.260735       -0.260735   1.000000   1.000000
    111         -0.248036       -0.248036   1.000000   1.000000
    112         -0.247956       -0.247956   1.000000   1.000000
    113         -0.243416       -0.243416   1.000000   1.000000
    114         -0.191385       -0.191385   1.000000   1.000000
    115         -0.176613       -0.176613   1.000000   1.000000
    116         -0.164392       -0.164392   1.000000   1.000000
    117         -0.120867       -0.120867   1.000000   1.000000
    118         -0.120558       -0.120558   1.000000   1.000000
    119         -0.075079       -0.075079   1.000000   1.000000
    120         -0.052087       -0.052087   1.000000   1.000000
    121         -0.045521       -0.045521   1.000000   1.000000
    122         -0.007179       -0.007179   1.000000   1.000000
    123          0.028143        0.028143   1.000000   1.000000
    124          0.028213        0.028213   1.000000   1.000000
    125          0.037340        0.037340   1.000000   1.000000
    126          0.082257        0.082257   1.000000   1.000000
    127          0.105989        0.105989   1.000000   1.000000
    128          0.160803        0.160803   1.000000   1.000000
    129          0.160886        0.160886   1.000000   1.000000
    130          0.168514        0.168514   1.000000   1.000000
    131          0.207582        0.207582   1.000000   1.000000
    132          0.221061        0.221061   1.000000   1.000000
    133          0.221146        0.221146   1.000000   1.000000
    134          0.231355        0.231355   1.000000   1.000000
    135          0.235749        0.235749   1.000000   1.000000
    136          0.235998        0.235998   1.000000   1.000000
    137          0.245224        0.245224   1.000000   1.000000
    138          0.253212        0.253212   1.000000   1.000000
    139          0.265522        0.265522   1.000000   1.000000
    140          0.265992        0.265992   1.000000   1.000000
    141          0.266241        0.266241   1.000000   1.000000
    142          0.289395        0.289395   1.000000   1.000000
    143          0.326813        0.326813   1.000000   1.000000
    144          0.326819        0.326819   1.000000   1.000000
    145          0.335447        0.335447   1.000000   1.000000
    146          0.352416        0.352416   1.000000   1.000000
    147          0.356607        0.356607   1.000000   1.000000
    148          0.382249        0.382249   1.000000   1.000000
    149          0.384192        0.384192   1.000000   1.000000
    150          0.409889        0.409889   1.000000   1.000000
    151          0.430694        0.430694   1.000000   1.000000
    152          0.444124        0.444124   1.000000   1.000000
    153          0.446249        0.446249   1.000000   1.000000
    154          0.464336        0.464336   1.000000   1.000000
    155          0.551718        0.551718   1.000000   1.000000
    156          0.552421        0.552421   1.000000   1.000000
    157          0.552800        0.552800   1.000000   1.000000
    158          0.583205        0.583205   1.000000   1.000000
    159          0.586169        0.586169   1.000000   1.000000
    160          0.594792        0.594792   1.000000   1.000000
    161          0.595426        0.595426   1.000000   1.000000
    162          0.616630        0.616630   1.000000   1.000000
    163          0.616694        0.616694   1.000000   1.000000
    164          0.637465        0.637465   1.000000   1.000000
    165          0.663908        0.663908   1.000000   1.000000
    166          0.664235        0.664235   1.000000   1.000000
    167          0.683821        0.683821   1.000000   1.000000
    168          0.684794        0.684794   1.000000   1.000000
    169          0.724547        0.724547   1.000000   1.000000
    170          0.725526        0.725526   1.000000   1.000000
    171          1.122390        1.122390   1.000000   1.000000
    172          1.495877        1.495877   1.000009   1.000009
    173          1.859479        1.859479   1.024144   1.024144
    174          1.860079        1.860079   1.024282   1.024282
    175          1.960572        1.960571   1.031029   1.031029
    176          2.015588        2.015588   0.989063   0.989063
    177          2.016008        2.016008   0.988516   0.988516
    178          2.275203        2.275203   0.128859   0.128859
    179          2.275327        2.275327   0.128520   0.128520
    180          2.605320        2.605320  -0.004737  -0.004737
    181          2.793209        2.793209  -0.000055  -0.000055
    182          2.793432        2.793432  -0.000055  -0.000055
    183          3.081795        3.081795  -0.000000  -0.000000
    184          3.592512        3.592512  -0.000000  -0.000000
    185          3.593358        3.593358  -0.000000  -0.000000
    186          3.735428        3.735428  -0.000000  -0.000000
    187          3.975665        3.975665  -0.000000  -0.000000
    188          4.621186        4.621186  -0.000000  -0.000000
    189          4.623068        4.623068  -0.000000  -0.000000
    190          5.481712        5.481712  -0.000000  -0.000000
    191          5.718006        5.718006  -0.000000  -0.000000
    192          5.723388        5.723388  -0.000000  -0.000000
    193          6.381131        6.381131  -0.000000  -0.000000
    194          6.387101        6.387101  -0.000000  -0.000000
    195          6.683253        6.683253  -0.000000  -0.000000
    196          6.936061        6.936061  -0.000000  -0.000000
    197          6.936507        6.936507  -0.000000  -0.000000
    198          7.187257        7.187257  -0.000000  -0.000000
    199          7.239270        7.239270  -0.000000  -0.000000
    200          7.415443        7.415443  -0.000000  -0.000000
    201          7.450354        7.450354  -0.000000  -0.000000
    202          7.882031        7.882030   0.000000   0.000000
    203          7.963502        7.963502   0.000000   0.000000
    204          8.034372        8.034372   0.000000   0.000000
    205          8.310758        8.310759   0.000000   0.000000
    206          8.541293        8.541293   0.000000   0.000000
    207          8.564720        8.564720   0.000000   0.000000
    208          8.646433        8.646433   0.000000   0.000000
    209          9.009774        9.009774   0.000000   0.000000
    210          9.060575        9.060577   0.000000   0.000000
    211          9.306699        9.306699   0.000000   0.000000
    212          9.441302        9.441302   0.000000   0.000000
    213          9.464841        9.464841   0.000000   0.000000
    214          9.783493        9.783493   0.000000   0.000000
    215         10.070073       10.070072   0.000000   0.000000
    216         10.124311       10.124311   0.000000   0.000000
    217         10.141368       10.141368   0.000000   0.000000
    218         10.355426       10.355428   0.000000   0.000000
    219         10.508184       10.508184   0.000000   0.000000
    220         10.644616       10.644616   0.000000   0.000000
    221         10.679422       10.679422   0.000000   0.000000
    222         10.912394       10.912394   0.000000   0.000000
    223         10.923514       10.923514   0.000000   0.000000
    224         10.992480       10.992480   0.000000   0.000000
    225         10.995880       10.995880   0.000000   0.000000
    226         11.142836       11.142837   0.000000   0.000000
    227         11.291895       11.291895   0.000000   0.000000
    228         11.384530       11.384531   0.000000   0.000000
    229         11.393054       11.393054   0.000000   0.000000
    230         11.734637       11.734637   0.000000   0.000000
    231         11.874425       11.874425   0.000000   0.000000