<?xml version="1.0" encoding="ISO-8859-1"?>
<modeling>
 <generator>
  <i name="program" type="string">vasp </i>
  <i name="version" type="string">6.3.2  </i>
  <i name="subversion" type="string">27Jun22 (build Aug 17 2022 15:43:34) complex                          parallel </i>
  <i name="platform" type="string">tv2STDVTST </i>
  <i name="date" type="string">2025 02 17 </i>
  <i name="time" type="string">20:33:06 </i>
 </generator>
 <incar>
  <i type="int" name="ISTART">     0</i>
  <i type="string" name="PREC">Normal</i>
  <i type="int" name="ISPIN">     2</i>
  <i type="int" name="ICHARG">     2</i>
  <i type="int" name="IBRION">     2</i>
  <i name="EDIFF">      0.00020000</i>
  <i name="EDIFFG">     -0.03000000</i>
  <i type="int" name="NSW">   800</i>
  <i type="int" name="ISIF">     2</i>
  <i type="int" name="ISYM">     1</i>
  <i name="ENCUT">    400.00000000</i>
  <i name="POTIM">      0.50000000</i>
  <i type="logical" name="LREAL"> F  </i>
  <i type="int" name="ISMEAR">     1</i>
  <i name="SIGMA">      0.20000000</i>
  <i type="logical" name="LWAVE"> F  </i>
  <i type="logical" name="LCHARG"> F  </i>
  <i type="string" name="GGA">PE</i>
  <i type="int" name="IVDW">    11</i>
 </incar>
 <primitive_cell>
  <structure name="primitive_cell" >
   <crystal>
    <varray name="basis" >
     <v>       5.13359547       0.00000000       0.00000000 </v>
     <v>       2.56679773       4.44582409       0.00000000 </v>
     <v>       0.00000000       0.00000000      29.67047119 </v>
    </varray>
    <i name="volume">    677.17101477 </i>
    <varray name="rec_basis" >
     <v>       0.19479525      -0.11246509       0.00000000 </v>
     <v>       0.00000000       0.22493018       0.00000000 </v>
     <v>       0.00000000       0.00000000       0.03370354 </v>
    </varray>
   </crystal>
   <varray name="positions" >
    <v>       0.00000000       0.00000000       0.00000000 </v>
    <v>       1.00000000       0.50000000       0.00000000 </v>
    <v>       0.50000000       0.00000000       0.00000000 </v>
    <v>       0.50000000       0.50000000       0.00000000 </v>
    <v>       0.16666667       0.16666667       0.07063526 </v>
    <v>       0.16666667       0.66666667       0.07063526 </v>
    <v>       0.66666667       0.16666667       0.07063526 </v>
    <v>       0.66666667       0.66666667       0.07063526 </v>
    <v>       0.33333333       0.33333333       0.13847021 </v>
    <v>       0.33333333       0.83333333       0.13847021 </v>
    <v>       0.83333333       0.33333333       0.13847021 </v>
    <v>       0.83333333       0.83333333       0.13847021 </v>
    <v>       0.00000000       0.00000000       0.20667428 </v>
    <v>       1.00000000       0.50000000       0.20667428 </v>
    <v>       0.50000000       0.00000000       0.20667428 </v>
    <v>       0.50000000       0.50000000       0.20667428 </v>
    <v>       0.16666667       0.16666667       0.27488859 </v>
    <v>       0.16666667       0.66666667       0.27488859 </v>
    <v>       0.66666667       0.16666667       0.27488859 </v>
    <v>       0.66666667       0.66666667       0.27488859 </v>
    <v>       0.33333333       0.33333333       0.34319917 </v>
    <v>       0.33333333       0.83333333       0.34319917 </v>
    <v>       0.83333333       0.33333333       0.34319917 </v>
    <v>       0.83333333       0.83333333       0.34319917 </v>
    <v>       0.00000000       0.00000000       0.41105828 </v>
    <v>       1.00000000       0.50000000       0.41105828 </v>
    <v>       0.50000000       0.00000000       0.41105828 </v>
    <v>       0.50000000       0.50000000       0.41105828 </v>
    <v>       0.16666667       0.16666667       0.48054462 </v>
    <v>       0.16666667       0.66666667       0.48054462 </v>
    <v>       0.66666667       0.16666667       0.48054462 </v>
    <v>       0.66666667       0.66666667       0.48054462 </v>
    <v>       0.00000000       0.50000000       0.53425930 </v>
    <v>       0.00000000       0.50000000       0.55940215 </v>
   </varray>
  </structure>
  <varray name="primitive_index" >
   <v type="int" >        1 </v>
   <v type="int" >        2 </v>
   <v type="int" >        3 </v>
   <v type="int" >        4 </v>
   <v type="int" >        5 </v>
   <v type="int" >        6 </v>
   <v type="int" >        7 </v>
   <v type="int" >        8 </v>
   <v type="int" >        9 </v>
   <v type="int" >       10 </v>
   <v type="int" >       11 </v>
   <v type="int" >       12 </v>
   <v type="int" >       13 </v>
   <v type="int" >       14 </v>
   <v type="int" >       15 </v>
   <v type="int" >       16 </v>
   <v type="int" >       17 </v>
   <v type="int" >       18 </v>
   <v type="int" >       19 </v>
   <v type="int" >       20 </v>
   <v type="int" >       21 </v>
   <v type="int" >       22 </v>
   <v type="int" >       23 </v>
   <v type="int" >       24 </v>
   <v type="int" >       25 </v>
   <v type="int" >       26 </v>
   <v type="int" >       27 </v>
   <v type="int" >       28 </v>
   <v type="int" >       29 </v>
   <v type="int" >       30 </v>
   <v type="int" >       31 </v>
   <v type="int" >       32 </v>
   <v type="int" >       33 </v>
   <v type="int" >       34 </v>
  </varray>
 </primitive_cell>
 <kpoints>
  <generation param="Monkhorst-Pack">
   <v type="int" name="divisions">       3        3        1 </v>
   <v name="usershift">      0.00000000       0.00000000       0.00000000 </v>
   <v name="genvec1">      0.33333333       0.00000000       0.00000000 </v>
   <v name="genvec2">      0.00000000       0.33333333       0.00000000 </v>
   <v name="genvec3">      0.00000000       0.00000000       1.00000000 </v>
   <v name="shift">      0.00000000       0.00000000       0.00000000 </v>
  </generation>
  <varray name="kpointlist" >
   <v>       0.00000000       0.00000000       0.00000000 </v>
   <v>       0.33333333       0.00000000       0.00000000 </v>
   <v>      -0.33333333       0.33333333       0.00000000 </v>
  </varray>
  <varray name="weights" >
   <v>       0.11111111 </v>
   <v>       0.66666667 </v>
   <v>       0.22222222 </v>
  </varray>
 </kpoints>
 <parameters>
  <separator name="general" >
   <i type="string" name="SYSTEM">unknown system</i>
   <i type="logical" name="LCOMPAT"> F  </i>
  </separator>
  <separator name="electronic" >
   <i type="string" name="PREC">normal</i>
   <i name="ENMAX">    400.00000000</i>
   <i name="ENAUG">    586.98000000</i>
   <i name="EDIFF">      0.00020000</i>
   <i type="int" name="IALGO">    38</i>
   <i type="int" name="IWAVPR">    11</i>
   <i type="int" name="NBANDS">   232</i>
   <i type="int" name="NBANDSLOW">    -1</i>
   <i type="int" name="NBANDSHIGH">    -1</i>
   <i name="NELECT">    354.00000000</i>
   <i type="int" name="TURBO">     0</i>
   <i type="int" name="IRESTART">     0</i>
   <i type="int" name="NREBOOT">     0</i>
   <i type="int" name="NMIN">     0</i>
   <i name="EREF">      0.00000000</i>
   <separator name="electronic smearing" >
    <i type="int" name="ISMEAR">     1</i>
    <i name="SIGMA">      0.20000000</i>
    <i name="KSPACING">      0.50000000</i>
    <i type="logical" name="KGAMMA"> T  </i>
    <i type="logical" name="KBLOWUP"> T  </i>
   </separator>
   <separator name="electronic projectors" >
    <i type="logical" name="LREAL"> F  </i>
    <v name="ROPT">      0.00000000      0.00000000</v>
    <i type="int" name="LMAXPAW">  -100</i>
    <i type="int" name="LMAXMIX">     2</i>
    <i type="logical" name="NLSPLINE"> F  </i>
   </separator>
   <separator name="electronic startup" >
    <i type="int" name="ISTART">     0</i>
    <i type="int" name="ICHARG">     2</i>
    <i type="int" name="INIWAV">     1</i>
   </separator>
   <separator name="electronic spin" >
    <i type="int" name="ISPIN">     2</i>
    <i type="logical" name="LNONCOLLINEAR"> F  </i>
    <v name="MAGMOM">      1.00000000      1.00000000      1.00000000      1.00000000      1.00000000      1.00000000      1.00000000      1.00000000      1.00000000      1.00000000      1.00000000      1.00000000      1.00000000      1.00000000      1.00000000      1.00000000      1.00000000      1.00000000      1.00000000      1.00000000
      1.00000000      1.00000000      1.00000000      1.00000000      1.00000000      1.00000000      1.00000000      1.00000000      1.00000000      1.00000000      1.00000000      1.00000000      1.00000000      1.00000000</v>
    <i name="NUPDOWN">     -1.00000000</i>
    <i type="logical" name="LSORBIT"> F  </i>
    <v name="SAXIS">      0.00000000      0.00000000      1.00000000</v>
    <i type="logical" name="LSPIRAL"> F  </i>
    <v name="QSPIRAL">      0.00000000      0.00000000      0.00000000</v>
    <i type="logical" name="LZEROZ"> F  </i>
   </separator>
   <separator name="electronic exchange-correlation" >
    <i type="logical" name="LASPH"> F  </i>
    <i type="logical" name="LMETAGGA"> F  </i>
   </separator>
   <separator name="electronic convergence" >
    <i type="int" name="NELM">    60</i>
    <i type="int" name="NELMDL">    -5</i>
    <i type="int" name="NELMIN">     2</i>
    <i name="ENINI">    400.00000000</i>
    <separator name="electronic convergence detail" >
     <i type="logical" name="LDIAG"> T  </i>
     <i type="logical" name="LSUBROT"> F  </i>
     <i name="WEIMIN">      0.00100000</i>
     <i name="EBREAK">      0.00000022</i>
     <i name="DEPER">      0.30000000</i>
     <i type="int" name="NRMM">     4</i>
     <i name="TIME">      0.40000000</i>
    </separator>
   </separator>
   <separator name="electronic mixer" >
    <i name="AMIX">      0.40000000</i>
    <i name="BMIX">      1.00000000</i>
    <i name="AMIN">      0.10000000</i>
    <i name="AMIX_MAG">      1.60000000</i>
    <i name="BMIX_MAG">      1.00000000</i>
    <separator name="electronic mixer details" >
     <i type="int" name="IMIX">     4</i>
     <i type="logical" name="MIXFIRST"> F  </i>
     <i type="int" name="MAXMIX">   -45</i>
     <i name="WC">    100.00000000</i>
     <i type="int" name="INIMIX">     1</i>
     <i type="int" name="MIXPRE">     1</i>
     <i type="int" name="MREMOVE">     5</i>
    </separator>
   </separator>
   <separator name="electronic dipolcorrection" >
    <i type="logical" name="LDIPOL"> F  </i>
    <i type="logical" name="LMONO"> F  </i>
    <i type="int" name="IDIPOL">     0</i>
    <i name="EPSILON">      1.00000000</i>
    <v name="DIPOL">   -100.00000000   -100.00000000   -100.00000000</v>
    <i name="EFIELD">      0.00000000</i>
   </separator>
  </separator>
  <separator name="grids" >
   <i type="int" name="NGX">    28</i>
   <i type="int" name="NGY">    28</i>
   <i type="int" name="NGZ">   150</i>
   <i type="int" name="NGXF">    56</i>
   <i type="int" name="NGYF">    56</i>
   <i type="int" name="NGZF">   300</i>
   <i type="logical" name="ADDGRID"> F  </i>
  </separator>
  <separator name="ionic" >
   <i type="int" name="NSW">   800</i>
   <i type="int" name="IBRION">     2</i>
   <i type="int" name="MDALGO">     0</i>
   <i type="int" name="ISIF">     2</i>
   <i name="PSTRESS">      0.00000000</i>
   <i name="EDIFFG">     -0.03000000</i>
   <i type="int" name="NFREE">     1</i>
   <i name="POTIM">      0.50000000</i>
   <i name="SMASS">     -3.00000000</i>
   <i name="SCALEE">      1.00000000</i>
  </separator>
  <separator name="ionic md" >
   <i name="TEBEG">      0.00010000</i>
   <i name="TEEND">      0.00010000</i>
   <i type="int" name="NBLOCK">     1</i>
   <i type="int" name="KBLOCK">   800</i>
   <i type="int" name="NPACO">   256</i>
   <i name="APACO">     10.00000000</i>
  </separator>
  <separator name="symmetry" >
   <i type="int" name="ISYM">     1</i>
   <i name="SYMPREC">      0.00001000</i>
  </separator>
  <separator name="dos" >
   <i type="int" name="LORBIT">     0</i>
   <v name="RWIGS">     -1.00000000     -1.00000000</v>
   <i type="int" name="NEDOS">   301</i>
   <i name="EMIN">     10.00000000</i>
   <i name="EMAX">    -10.00000000</i>
   <i name="EFERMI">      0.00000000</i>
  </separator>
  <separator name="writing" >
   <i type="int" name="NWRITE">     2</i>
   <i type="logical" name="LWAVE"> F  </i>
   <i type="logical" name="LDOWNSAMPLE"> F  </i>
   <i type="logical" name="LCHARG"> F  </i>
   <i type="logical" name="LPARD"> F  </i>
   <i type="logical" name="LVTOT"> F  </i>
   <i type="logical" name="LVHAR"> F  </i>
   <i type="logical" name="LELF"> F  </i>
   <i type="logical" name="LOPTICS"> F  </i>
   <v name="STM">      0.00000000      0.00000000      0.00000000      0.00000000      0.00000000      0.00000000      0.00000000</v>
  </separator>
  <separator name="performance" >
   <i type="int" name="NPAR">     4</i>
   <i type="int" name="NSIM">     4</i>
   <i type="int" name="NBLK">    -1</i>
   <i type="logical" name="LPLANE"> T  </i>
   <i type="logical" name="LSCALAPACK"> T  </i>
   <i type="logical" name="LSCAAWARE"> F  </i>
   <i type="logical" name="LSCALU"> F  </i>
   <i type="logical" name="LASYNC"> F  </i>
   <i type="logical" name="LORBITALREAL"> F  </i>
  </separator>
  <separator name="miscellaneous" >
   <i type="int" name="IDIOT">     3</i>
   <i type="int" name="PHON_NSTRUCT">    -1</i>
   <i type="logical" name="LMUSIC"> F  </i>
   <v name="POMASS">     63.54600000      1.00000000</v>
   <v name="DARWINR">      0.00000000      0.00000000</v>
   <v name="DARWINV">      1.00000000      1.00000000</v>
   <i type="logical" name="LCORR"> T  </i>
  </separator>
  <i type="logical" name="GGA_COMPAT"> T  </i>
  <i type="logical" name="LBERRY"> F  </i>
  <i type="int" name="ICORELEVEL">     0</i>
  <i type="logical" name="LDAU"> F  </i>
  <i type="int" name="I_CONSTRAINED_M">     0</i>
  <separator name="electronic exchange-correlation" >
   <i type="string" name="GGA">PE</i>
   <i type="int" name="VOSKOWN">     0</i>
   <i type="logical" name="LHFCALC"> F  </i>
   <i type="string" name="PRECFOCK"></i>
   <i type="logical" name="LSYMGRAD"> F  </i>
   <i type="logical" name="LHFONE"> F  </i>
   <i type="logical" name="LRHFCALC"> F  </i>
   <i type="logical" name="LTHOMAS"> F  </i>
   <i type="logical" name="LMODELHF"> F  </i>
   <i type="logical" name="LFOCKACE"> F  </i>
   <i name="ENCUT4O">     -1.00000000</i>
   <i type="int" name="EXXOEP">     0</i>
   <i type="int" name="FOURORBIT">     0</i>
   <i name="AEXX">      0.00000000</i>
   <i name="HFALPHA">      0.00000000</i>
   <i name="MCALPHA">      0.00000000</i>
   <i name="ALDAX">      1.00000000</i>
   <i name="AGGAX">      1.00000000</i>
   <i name="ALDAC">      1.00000000</i>
   <i name="AGGAC">      1.00000000</i>
   <i type="int" name="NKREDX">     1</i>
   <i type="int" name="NKREDY">     1</i>
   <i type="int" name="NKREDZ">     1</i>
   <i type="logical" name="SHIFTRED"> F  </i>
   <i type="logical" name="ODDONLY"> F  </i>
   <i type="logical" name="EVENONLY"> F  </i>
   <i type="int" name="LMAXFOCK">     0</i>
   <i type="int" name="NMAXFOCKAE">     0</i>
   <i type="logical" name="LFOCKAEDFT"> F  </i>
   <i name="HFSCREEN">      0.00000000</i>
   <i name="HFSCREENC">      0.00000000</i>
   <i type="int" name="NBANDSGWLOW">     0</i>
  </separator>
  <separator name="vdW DFT" >
   <i type="logical" name="LUSE_VDW"> F  </i>
   <i name="Zab_VDW">     -0.84910000</i>
   <i name="PARAM1">      0.12340000</i>
   <i name="PARAM2">      1.00000000</i>
   <i name="PARAM3">      0.00000000</i>
  </separator>
  <separator name="model GW" >
   <i type="int" name="MODEL_GW">     0</i>
   <i name="MODEL_EPS0">     11.95007673</i>
   <i name="MODEL_ALPHA">      1.00000000</i>
  </separator>
  <separator name="linear response parameters" >
   <i type="logical" name="LEPSILON"> F  </i>
   <i type="logical" name="LRPA"> F  </i>
   <i type="logical" name="LNABLA"> F  </i>
   <i type="logical" name="LVEL"> F  </i>
   <i name="CSHIFT">      0.10000000</i>
   <i name="OMEGAMAX">     -1.00000000</i>
   <i name="DEG_THRESHOLD">      0.00200000</i>
   <i name="RTIME">     -0.10000000</i>
   <i name="WPLASMAI">      0.00000000</i>
   <v name="DFIELD">      0.00000000      0.00000000      0.00000000</v>
   <v name="WPLASMA">      0.00000000      0.00000000      0.00000000      0.00000000      0.00000000      0.00000000      0.00000000      0.00000000      0.00000000</v>
  </separator>
  <separator name="orbital magnetization" >
   <i type="logical" name="NUCIND"> F  </i>
   <v name="MAGPOS">      0.00000000      0.00000000      0.00000000</v>
   <i type="logical" name="LNICSALL"> T  </i>
   <i type="logical" name="ORBITALMAG"> F  </i>
   <i type="logical" name="LMAGBLOCH"> F  </i>
   <i type="logical" name="LCHIMAG"> F  </i>
   <i type="logical" name="LGAUGE"> T  </i>
   <i type="int" name="MAGATOM">     0</i>
   <v name="MAGDIPOL">      0.00000000      0.00000000      0.00000000</v>
   <v name="AVECCONST">      0.00000000      0.00000000      0.00000000</v>
  </separator>
  <separator name="response functions" >
   <i type="logical" name="LFINITE_TEMPERATURE"> F  </i>
   <i type="logical" name="LADDER"> F  </i>
   <i type="logical" name="LRPAFORCE"> F  </i>
   <i type="logical" name="LFXC"> F  </i>
   <i type="logical" name="LHARTREE"> T  </i>
   <i type="int" name="IBSE">     0</i>
   <v type="int" name="KPOINT">    -1     0     0     0</v>
   <i type="logical" name="LTCTC"> F  </i>
   <i type="logical" name="LTCTE"> F  </i>
   <i type="logical" name="LTETE"> F  </i>
   <i type="logical" name="LTRIPLET"> F  </i>
   <i type="logical" name="LFXCEPS"> F  </i>
   <i type="logical" name="LFXHEG"> F  </i>
   <i type="int" name="NATURALO">     2</i>
   <i type="logical" name="LHOLEGF"> F  </i>
   <i type="logical" name="L2ORDER"> F  </i>
   <i type="logical" name="LDMP1"> F  </i>
   <i type="logical" name="LMP2LT"> F  </i>
   <i type="logical" name="LSMP2LT"> F  </i>
   <i type="logical" name="LGWLF"> F  </i>
   <i name="ENCUTGW">     -2.00000000</i>
   <i name="ENCUTGWSOFT">     -2.00000000</i>
   <i name="ENCUTLF">     -1.00000000</i>
   <i type="logical" name="LESF_SPLINES"> F  </i>
   <i type="int" name="LMAXMP2">    -1</i>
   <i name="SCISSOR">      0.00000000</i>
   <i type="int" name="NOMEGA">     0</i>
   <i type="int" name="NOMEGAR">     0</i>
   <i type="int" name="NBANDSGW">    -1</i>
   <i type="int" name="NBANDSO">    -1</i>
   <i type="int" name="NBANDSV">    -1</i>
   <i type="int" name="NELMGW">     1</i>
   <i type="int" name="NELMHF">     1</i>
   <i type="int" name="DIM">     3</i>
   <i type="int" name="IESPILON">     4</i>
   <i type="int" name="ANTIRES">     0</i>
   <i name="OMEGAMAX">    -30.00000000</i>
   <i name="OMEGAMIN">    -30.00000000</i>
   <i name="OMEGATL">   -200.00000000</i>
   <i type="int" name="OMEGAGRID">     0</i>
   <i name="CSHIFT">     -0.10000000</i>
   <i type="logical" name="LSELFENERGY"> F  </i>
   <i type="logical" name="LSPECTRAL"> F  </i>
   <i type="logical" name="LSPECTRALGW"> F  </i>
   <i type="logical" name="LSINGLES"> F  </i>
   <i type="logical" name="LFERMIGW"> F  </i>
   <i type="logical" name="ODDONLYGW"> F  </i>
   <i type="logical" name="EVENONLYGW"> F  </i>
   <i type="int" name="NKREDLFX">     1</i>
   <i type="int" name="NKREDLFY">     1</i>
   <i type="int" name="NKREDLFZ">     1</i>
   <i type="int" name="MAXMEM">  2800</i>
   <i type="int" name="TELESCOPE">     0</i>
   <i type="int" name="NTAUPAR">    -1</i>
   <i type="int" name="NOMEGAPAR">    -1</i>
   <i name="DAMP_NEWTON">      0.80000001</i>
   <i name="LAMBDA">      1.00000000</i>
  </separator>
  <separator name="External order field" >
   <i name="OFIELD_KAPPA">      0.00000000</i>
   <v name="OFIELD_K">      0.00000000      0.00000000      0.00000000</v>
   <i name="OFIELD_Q6_NEAR">      0.00000000</i>
   <i name="OFIELD_Q6_FAR">      0.00000000</i>
   <i name="OFIELD_A">      0.00000000</i>
  </separator>
  <separator name="optional k-points parameters" >
   <i type="int" name="KPOINTS_OPT_MODE">     1</i>
   <i type="logical" name="LKPOINTS_OPT"> F  </i>
  </separator>
 </parameters>
 <atominfo>
  <atoms>      34 </atoms>
  <types>       2 </types>
  <array name="atoms" >
   <dimension dim="1">ion</dimension>
   <field type="string">element</field>
   <field type="int">atomtype</field>
   <set>
    <rc><c>Cu</c><c>   1</c></rc>
    <rc><c>Cu</c><c>   1</c></rc>
    <rc><c>Cu</c><c>   1</c></rc>
    <rc><c>Cu</c><c>   1</c></rc>
    <rc><c>Cu</c><c>   1</c></rc>
    <rc><c>Cu</c><c>   1</c></rc>
    <rc><c>Cu</c><c>   1</c></rc>
    <rc><c>Cu</c><c>   1</c></rc>
    <rc><c>Cu</c><c>   1</c></rc>
    <rc><c>Cu</c><c>   1</c></rc>
    <rc><c>Cu</c><c>   1</c></rc>
    <rc><c>Cu</c><c>   1</c></rc>
    <rc><c>Cu</c><c>   1</c></rc>
    <rc><c>Cu</c><c>   1</c></rc>
    <rc><c>Cu</c><c>   1</c></rc>
    <rc><c>Cu</c><c>   1</c></rc>
    <rc><c>Cu</c><c>   1</c></rc>
    <rc><c>Cu</c><c>   1</c></rc>
    <rc><c>Cu</c><c>   1</c></rc>
    <rc><c>Cu</c><c>   1</c></rc>
    <rc><c>Cu</c><c>   1</c></rc>
    <rc><c>Cu</c><c>   1</c></rc>
    <rc><c>Cu</c><c>   1</c></rc>
    <rc><c>Cu</c><c>   1</c></rc>
    <rc><c>Cu</c><c>   1</c></rc>
    <rc><c>Cu</c><c>   1</c></rc>
    <rc><c>Cu</c><c>   1</c></rc>
    <rc><c>Cu</c><c>   1</c></rc>
    <rc><c>Cu</c><c>   1</c></rc>
    <rc><c>Cu</c><c>   1</c></rc>
    <rc><c>Cu</c><c>   1</c></rc>
    <rc><c>Cu</c><c>   1</c></rc>
    <rc><c>H </c><c>   2</c></rc>
    <rc><c>H </c><c>   2</c></rc>
   </set>
  </array>
  <array name="atomtypes" >
   <dimension dim="1">type</dimension>
   <field type="int">atomspertype</field>
   <field type="string">element</field>
   <field>mass</field>
   <field>valence</field>
   <field type="string">pseudopotential</field>
   <set>
    <rc><c>  32</c><c>Cu</c><c>     63.54600000</c><c>     11.00000000</c><c>  PAW_PBE Cu 22Jun2005                  </c></rc>
    <rc><c>   2</c><c>H </c><c>      1.00000000</c><c>      1.00000000</c><c>  PAW_PBE H 15Jun2001                   </c></rc>
   </set>
  </array>
 </atominfo>
 <structure name="initialpos" >
  <crystal>
   <varray name="basis" >
    <v>       5.13359547       0.00000000       0.00000000 </v>
    <v>       2.56679773       4.44582409       0.00000000 </v>
    <v>       0.00000000       0.00000000      29.67047119 </v>
   </varray>
   <i name="volume">    677.17101477 </i>
   <varray name="rec_basis" >
    <v>       0.19479525      -0.11246509       0.00000000 </v>
    <v>       0.00000000       0.22493018       0.00000000 </v>
    <v>       0.00000000       0.00000000       0.03370354 </v>
   </varray>
  </crystal>
  <varray name="positions" >
   <v>       0.00000000       0.00000000       0.00000000 </v>
   <v>       1.00000000       0.50000000       0.00000000 </v>
   <v>       0.50000000       0.00000000       0.00000000 </v>
   <v>       0.50000000       0.50000000       0.00000000 </v>
   <v>       0.16666667       0.16666667       0.07063526 </v>
   <v>       0.16666667       0.66666667       0.07063526 </v>
   <v>       0.66666667       0.16666667       0.07063526 </v>
   <v>       0.66666667       0.66666667       0.07063526 </v>
   <v>       0.33333333       0.33333333       0.13847021 </v>
   <v>       0.33333333       0.83333333       0.13847021 </v>
   <v>       0.83333333       0.33333333       0.13847021 </v>
   <v>       0.83333333       0.83333333       0.13847021 </v>
   <v>       0.00000000       0.00000000       0.20667428 </v>
   <v>       1.00000000       0.50000000       0.20667428 </v>
   <v>       0.50000000       0.00000000       0.20667428 </v>
   <v>       0.50000000       0.50000000       0.20667428 </v>
   <v>       0.16666667       0.16666667       0.27488859 </v>
   <v>       0.16666667       0.66666667       0.27488859 </v>
   <v>       0.66666667       0.16666667       0.27488859 </v>
   <v>       0.66666667       0.66666667       0.27488859 </v>
   <v>       0.33333333       0.33333333       0.34319917 </v>
   <v>       0.33333333       0.83333333       0.34319917 </v>
   <v>       0.83333333       0.33333333       0.34319917 </v>
   <v>       0.83333333       0.83333333       0.34319917 </v>
   <v>       0.00000000       0.00000000       0.41105828 </v>
   <v>       1.00000000       0.50000000       0.41105828 </v>
   <v>       0.50000000       0.00000000       0.41105828 </v>
   <v>       0.50000000       0.50000000       0.41105828 </v>
   <v>       0.16666667       0.16666667       0.48054462 </v>
   <v>       0.16666667       0.66666667       0.48054462 </v>
   <v>       0.66666667       0.16666667       0.48054462 </v>
   <v>       0.66666667       0.66666667       0.48054462 </v>
   <v>       0.00000000       0.50000000       0.53425930 </v>
   <v>       0.00000000       0.50000000       0.55940215 </v>
  </varray>
 </structure>
 <calculation>
  <scstep>
   <time name="dav">    4.45    4.49</time>
   <time name="total">    4.54    4.57</time>
   <energy>
    <i name="alphaZ">   1114.72537883 </i>
    <i name="ewald"> 216164.92549655 </i>
    <i name="hartreedc">-260196.88365619 </i>
    <i name="XCdc">   1471.87425508 </i>
    <i name="pawpsdc">  39302.70853331 </i>
    <i name="pawaedc"> -42689.07521165 </i>
    <i name="eentropy">     -0.00160823 </i>
    <i name="bandstr">   3747.94167547 </i>
    <i name="atom">  44535.60175172 </i>
    <i name="e_fr_energy">   3451.81661488 </i>
    <i name="e_wo_entrp">   3451.81822312 </i>
    <i name="e_0_energy">   3451.81715096 </i>
   </energy>
  </scstep>
  <scstep>
   <time name="dav">    4.43    4.47</time>
   <time name="total">    4.43    4.47</time>
   <energy>
    <i name="e_fr_energy">    485.50118913 </i>
    <i name="e_wo_entrp">    485.52280114 </i>
    <i name="e_0_energy">    485.50839313 </i>
   </energy>
  </scstep>
  <scstep>
   <time name="dav">    4.41    4.45</time>
   <time name="total">    4.42    4.45</time>
   <energy>
    <i name="e_fr_energy">    -92.18861980 </i>
    <i name="e_wo_entrp">    -92.20238475 </i>
    <i name="e_0_energy">    -92.19320811 </i>
   </energy>
  </scstep>
  <scstep>
   <time name="dav">    4.75    4.79</time>
   <time name="total">    4.76    4.79</time>
   <energy>
    <i name="e_fr_energy">   -137.94508932 </i>
    <i name="e_wo_entrp">   -137.96943811 </i>
    <i name="e_0_energy">   -137.95320558 </i>
   </energy>
  </scstep>
  <scstep>
   <time name="dav">    4.74    4.78</time>
   <time name="total">    5.08    5.13</time>
   <energy>
    <i name="e_fr_energy">   -139.06280338 </i>
    <i name="e_wo_entrp">   -139.08885895 </i>
    <i name="e_0_energy">   -139.07148857 </i>
   </energy>
  </scstep>
  <scstep>
   <time name="dav">    4.80    4.84</time>
   <time name="total">    5.21    5.26</time>
   <energy>
    <i name="e_fr_energy">   -115.22407907 </i>
    <i name="e_wo_entrp">   -115.18200404 </i>
    <i name="e_0_energy">   -115.21005406 </i>
   </energy>
  </scstep>
  <scstep>
   <time name="dav">    4.95    4.99</time>
   <time name="total">    5.36    5.41</time>
   <energy>
    <i name="e_fr_energy">   -102.79337509 </i>
    <i name="e_wo_entrp">   -102.77881930 </i>
    <i name="e_0_energy">   -102.78852316 </i>
   </energy>
  </scstep>
  <scstep>
   <time name="dav">    5.39    5.44</time>
   <time name="total">    5.81    5.85</time>
   <energy>
    <i name="e_fr_energy">   -108.97717198 </i>
    <i name="e_wo_entrp">   -109.01399106 </i>
    <i name="e_0_energy">   -108.98944501 </i>
   </energy>
  </scstep>
  <scstep>
   <time name="dav">    5.75    5.80</time>
   <time name="total">    6.16    6.21</time>
   <energy>
    <i name="e_fr_energy">    -99.24009355 </i>
    <i name="e_wo_entrp">    -99.19098245 </i>
    <i name="e_0_energy">    -99.22372318 </i>
   </energy>
  </scstep>
  <scstep>
   <time name="dav">    5.53    5.57</time>
   <time name="total">    5.93    5.98</time>
   <energy>
    <i name="e_fr_energy">   -100.10368152 </i>
    <i name="e_wo_entrp">   -100.12770471 </i>
    <i name="e_0_energy">   -100.11168925 </i>
   </energy>
  </scstep>
  <scstep>
   <time name="dav">    5.13    5.17</time>
   <time name="total">    5.54    5.58</time>
   <energy>
    <i name="e_fr_energy">   -102.10358139 </i>
    <i name="e_wo_entrp">   -102.16992928 </i>
    <i name="e_0_energy">   -102.12569735 </i>
   </energy>
  </scstep>
  <scstep>
   <time name="dav">    5.08    5.14</time>
   <time name="total">    5.49    5.56</time>
   <energy>
    <i name="e_fr_energy">   -101.31722848 </i>
    <i name="e_wo_entrp">   -101.32928120 </i>
    <i name="e_0_energy">   -101.32124606 </i>
   </energy>
  </scstep>
  <scstep>
   <time name="dav">    6.55    6.60</time>
   <time name="total">    6.97    7.02</time>
   <energy>
    <i name="e_fr_energy">   -102.36286034 </i>
    <i name="e_wo_entrp">   -102.40201303 </i>
    <i name="e_0_energy">   -102.37591124 </i>
   </energy>
  </scstep>
  <scstep>
   <time name="dav">    6.15    6.20</time>
   <time name="total">    6.56    6.61</time>
   <energy>
    <i name="e_fr_energy">   -105.07948766 </i>
    <i name="e_wo_entrp">   -105.08245092 </i>
    <i name="e_0_energy">   -105.08047542 </i>
   </energy>
  </scstep>
  <scstep>
   <time name="dav">    5.48    5.52</time>
   <time name="total">    5.88    5.92</time>
   <energy>
    <i name="e_fr_energy">   -109.15885718 </i>
    <i name="e_wo_entrp">   -109.16619916 </i>
    <i name="e_0_energy">   -109.16130451 </i>
   </energy>
  </scstep>
  <scstep>
   <time name="dav">    5.24    5.28</time>
   <time name="total">    5.65    5.69</time>
   <energy>
    <i name="e_fr_energy">   -112.23362515 </i>
    <i name="e_wo_entrp">   -112.23572020 </i>
    <i name="e_0_energy">   -112.23432350 </i>
   </energy>
  </scstep>
  <scstep>
   <time name="dav">    5.28    5.33</time>
   <time name="total">    5.68    5.73</time>
   <energy>
    <i name="e_fr_energy">   -113.93533334 </i>
    <i name="e_wo_entrp">   -113.91917506 </i>
    <i name="e_0_energy">   -113.92994725 </i>
   </energy>
  </scstep>
  <scstep>
   <time name="dav">    5.00    5.04</time>
   <time name="total">    5.40    5.45</time>
   <energy>
    <i name="e_fr_energy">   -114.89051672 </i>
    <i name="e_wo_entrp">   -114.87322975 </i>
    <i name="e_0_energy">   -114.88475440 </i>
   </energy>
  </scstep>
  <scstep>
   <time name="dav">    5.04    5.08</time>
   <time name="total">    5.44    5.49</time>
   <energy>
    <i name="e_fr_energy">   -115.68512622 </i>
    <i name="e_wo_entrp">   -115.66019362 </i>
    <i name="e_0_energy">   -115.67681535 </i>
   </energy>
  </scstep>
  <scstep>
   <time name="dav">    5.43    5.48</time>
   <time name="total">    5.84    5.88</time>
   <energy>
    <i name="e_fr_energy">   -116.55266531 </i>
    <i name="e_wo_entrp">   -116.52378412 </i>
    <i name="e_0_energy">   -116.54303825 </i>
   </energy>
  </scstep>
  <scstep>
   <time name="dav">    5.54    5.58</time>
   <time name="total">    5.94    5.99</time>
   <energy>
    <i name="e_fr_energy">   -117.39909561 </i>
    <i name="e_wo_entrp">   -117.37400822 </i>
    <i name="e_0_energy">   -117.39073315 </i>
   </energy>
  </scstep>
  <scstep>
   <time name="dav">    5.46    5.51</time>
   <time name="total">    5.86    5.90</time>
   <energy>
    <i name="e_fr_energy">   -117.71660487 </i>
    <i name="e_wo_entrp">   -117.69074092 </i>
    <i name="e_0_energy">   -117.70798356 </i>
   </energy>
  </scstep>
  <scstep>
   <time name="dav">    5.08    5.13</time>
   <time name="total">    5.49    5.54</time>
   <energy>
    <i name="e_fr_energy">   -118.16953743 </i>
    <i name="e_wo_entrp">   -118.15007871 </i>
    <i name="e_0_energy">   -118.16305119 </i>
   </energy>
  </scstep>
  <scstep>
   <time name="dav">    5.24    5.29</time>
   <time name="total">    5.64    5.69</time>
   <energy>
    <i name="e_fr_energy">   -118.72909996 </i>
    <i name="e_wo_entrp">   -118.70926282 </i>
    <i name="e_0_energy">   -118.72248758 </i>
   </energy>
  </scstep>
  <scstep>
   <time name="dav">    5.57    5.61</time>
   <time name="total">    5.98    6.02</time>
   <energy>
    <i name="e_fr_energy">   -119.76430834 </i>
    <i name="e_wo_entrp">   -119.74538609 </i>
    <i name="e_0_energy">   -119.75800092 </i>
   </energy>
  </scstep>
  <scstep>
   <time name="dav">    5.20    5.24</time>
   <time name="total">    5.61    5.65</time>
   <energy>
    <i name="e_fr_energy">   -120.52073065 </i>
    <i name="e_wo_entrp">   -120.50215511 </i>
    <i name="e_0_energy">   -120.51453880 </i>
   </energy>
  </scstep>
  <scstep>
   <time name="dav">    4.72    4.75</time>
   <time name="total">    5.13    5.17</time>
   <energy>
    <i name="e_fr_energy">   -120.76648667 </i>
    <i name="e_wo_entrp">   -120.74813750 </i>
    <i name="e_0_energy">   -120.76037028 </i>
   </energy>
  </scstep>
  <scstep>
   <time name="dav">    4.76    4.80</time>
   <time name="total">    5.17    5.21</time>
   <energy>
    <i name="e_fr_energy">   -120.82063118 </i>
    <i name="e_wo_entrp">   -120.80183930 </i>
    <i name="e_0_energy">   -120.81436722 </i>
   </energy>
  </scstep>
  <scstep>
   <time name="dav">    4.72    4.76</time>
   <time name="total">    5.12    5.16</time>
   <energy>
    <i name="e_fr_energy">   -120.82727678 </i>
    <i name="e_wo_entrp">   -120.80920159 </i>
    <i name="e_0_energy">   -120.82125171 </i>
   </energy>
  </scstep>
  <scstep>
   <time name="dav">    4.55    4.59</time>
   <time name="total">    4.96    5.00</time>
   <energy>
    <i name="e_fr_energy">   -120.83504053 </i>
    <i name="e_wo_entrp">   -120.81689536 </i>
    <i name="e_0_energy">   -120.82899214 </i>
   </energy>
  </scstep>
  <scstep>
   <time name="dav">    3.53    3.56</time>
   <time name="total">    3.94    3.97</time>
   <energy>
    <i name="e_fr_energy">   -120.83753193 </i>
    <i name="e_wo_entrp">   -120.81928274 </i>
    <i name="e_0_energy">   -120.83144886 </i>
   </energy>
  </scstep>
  <scstep>
   <time name="dav">    3.51    3.54</time>
   <time name="total">    3.92    3.95</time>
   <energy>
    <i name="e_fr_energy">   -120.83725801 </i>
    <i name="e_wo_entrp">   -120.81899957 </i>
    <i name="e_0_energy">   -120.83117186 </i>
   </energy>
  </scstep>
  <scstep>
   <time name="dav">    3.31    3.33</time>
   <time name="total">    3.38    3.41</time>
   <energy>
    <i name="alphaZ">   1114.72537883 </i>
    <i name="ewald"> 216164.92549655 </i>
    <i name="hartreedc">-259691.80077692 </i>
    <i name="XCdc">   1433.77461874 </i>
    <i name="pawpsdc">  42127.25087714 </i>
    <i name="pawaedc"> -45579.01232923 </i>
    <i name="eentropy">     -0.01826422 </i>
    <i name="bandstr">   -226.28411128 </i>
    <i name="atom">  44535.60175172 </i>
    <i name="e_fr_energy">   -120.83735865 </i>
    <i name="e_wo_entrp">   -120.81909444 </i>
    <i name="e_0_energy">   -120.83127058 </i>
   </energy>
  </scstep>
  <structure>
   <crystal>
    <varray name="basis" >
     <v>       5.13359547       0.00000000       0.00000000 </v>
     <v>       2.56679773       4.44582409       0.00000000 </v>
     <v>       0.00000000       0.00000000      29.67047119 </v>
    </varray>
    <i name="volume">    677.17101477 </i>
    <varray name="rec_basis" >
     <v>       0.19479525      -0.11246509       0.00000000 </v>
     <v>       0.00000000       0.22493018       0.00000000 </v>
     <v>       0.00000000       0.00000000       0.03370354 </v>
    </varray>
   </crystal>
   <varray name="positions" >
    <v>       0.00000000       0.00000000       0.00000000 </v>
    <v>       1.00000000       0.50000000       0.00000000 </v>
    <v>       0.50000000       0.00000000       0.00000000 </v>
    <v>       0.50000000       0.50000000       0.00000000 </v>
    <v>       0.16666667       0.16666667       0.07063526 </v>
    <v>       0.16666667       0.66666667       0.07063526 </v>
    <v>       0.66666667       0.16666667       0.07063526 </v>
    <v>       0.66666667       0.66666667       0.07063526 </v>
    <v>       0.33333333       0.33333333       0.13847021 </v>
    <v>       0.33333333       0.83333333       0.13847021 </v>
    <v>       0.83333333       0.33333333       0.13847021 </v>
    <v>       0.83333333       0.83333333       0.13847021 </v>
    <v>       0.00000000       0.00000000       0.20667428 </v>
    <v>       1.00000000       0.50000000       0.20667428 </v>
    <v>       0.50000000       0.00000000       0.20667428 </v>
    <v>       0.50000000       0.50000000       0.20667428 </v>
    <v>       0.16666667       0.16666667       0.27488859 </v>
    <v>       0.16666667       0.66666667       0.27488859 </v>
    <v>       0.66666667       0.16666667       0.27488859 </v>
    <v>       0.66666667       0.66666667       0.27488859 </v>
    <v>       0.33333333       0.33333333       0.34319917 </v>
    <v>       0.33333333       0.83333333       0.34319917 </v>
    <v>       0.83333333       0.33333333       0.34319917 </v>
    <v>       0.83333333       0.83333333       0.34319917 </v>
    <v>       0.00000000       0.00000000       0.41105828 </v>
    <v>       1.00000000       0.50000000       0.41105828 </v>
    <v>       0.50000000       0.00000000       0.41105828 </v>
    <v>       0.50000000       0.50000000       0.41105828 </v>
    <v>       0.16666667       0.16666667       0.48054462 </v>
    <v>       0.16666667       0.66666667       0.48054462 </v>
    <v>       0.66666667       0.16666667       0.48054462 </v>
    <v>       0.66666667       0.66666667       0.48054462 </v>
    <v>       0.00000000       0.50000000       0.53425930 </v>
    <v>       0.00000000       0.50000000       0.55940215 </v>
   </varray>
  </structure>
  <varray name="forces" >
   <v>       0.01148130      -0.00662873       0.14417498 </v>
   <v>       0.00000000      -0.00000000       0.15232731 </v>
   <v>      -0.01148130      -0.00662873       0.14417498 </v>
   <v>       0.00000000       0.01325747       0.14417498 </v>
   <v>       0.00000000       0.00100030      -0.13076176 </v>
   <v>      -0.00086629      -0.00050015      -0.13076176 </v>
   <v>       0.00000000      -0.00000000      -0.15144218 </v>
   <v>       0.00086629      -0.00050015      -0.13076176 </v>
   <v>       0.01320409      -0.00762338      -0.01335432 </v>
   <v>       0.00000000      -0.00000000      -0.01097338 </v>
   <v>      -0.01320409      -0.00762338      -0.01335432 </v>
   <v>       0.00000000       0.01524677      -0.01335432 </v>
   <v>       0.00330497      -0.00190812       0.00175650 </v>
   <v>       0.00000000      -0.00000000       0.02481541 </v>
   <v>      -0.00330497      -0.00190812       0.00175650 </v>
   <v>       0.00000000       0.00381625       0.00175650 </v>
   <v>       0.00000000      -0.02559611       0.00511713 </v>
   <v>       0.02216688       0.01279806       0.00511713 </v>
   <v>       0.00000000      -0.00000000       0.00263793 </v>
   <v>      -0.02216688       0.01279806       0.00511713 </v>
   <v>       0.02572428      -0.01485192       0.00929876 </v>
   <v>       0.00000000      -0.00000000       0.04675955 </v>
   <v>      -0.02572428      -0.01485192       0.00929876 </v>
   <v>       0.00000000       0.02970383       0.00929876 </v>
   <v>      -0.01054759       0.00608966       0.07049346 </v>
   <v>       0.00000000      -0.00000000       0.01172426 </v>
   <v>       0.01054759       0.00608966       0.07049346 </v>
   <v>      -0.00000000      -0.01217931       0.07049346 </v>
   <v>      -0.00000000      -0.24521233      -0.23981463 </v>
   <v>       0.21236010       0.12260616      -0.23981463 </v>
   <v>       0.00000000      -0.00000000      -0.22127335 </v>
   <v>      -0.21236010       0.12260616      -0.23981463 </v>
   <v>       0.00000000       0.00000000      -0.61942303 </v>
   <v>       0.00000000      -0.00000000       1.22411709 </v>
  </varray>
  <varray name="stress" >
   <v>     -31.97842327      -0.00000000      -0.00000000 </v>
   <v>       0.00000000     -31.97842327       0.00000000 </v>
   <v>       0.00000000       0.00000000      -5.51150710 </v>
  </varray>
  <energy>
   <i name="e_fr_energy">   -134.84944485 </i>
   <i name="e_wo_entrp">   -134.83118064 </i>
   <i name="e_0_energy">   -134.84335678 </i>
  </energy>
  <time name="totalsc">  185.06  186.62</time>
 </calculation>
 <calculation>
  <scstep>
   <time name="dav">    4.52    4.56</time>
   <time name="total">    4.92    4.97</time>
   <energy>
    <i name="alphaZ">   1114.72537883 </i>
    <i name="ewald"> 216415.13083255 </i>
    <i name="hartreedc">-259941.98392763 </i>
    <i name="XCdc">   1433.78813049 </i>
    <i name="pawpsdc">  42127.30221484 </i>
    <i name="pawaedc"> -45579.12713461 </i>
    <i name="eentropy">     -0.01969281 </i>
    <i name="bandstr">   -226.23463118 </i>
    <i name="atom">  44535.60175172 </i>
    <i name="e_fr_energy">   -120.81707779 </i>
    <i name="e_wo_entrp">   -120.79738498 </i>
    <i name="e_0_energy">   -120.81051352 </i>
   </energy>
  </scstep>
  <scstep>
   <time name="dav">    5.78    5.83</time>
   <time name="total">    6.19    6.24</time>
   <energy>
    <i name="e_fr_energy">   -120.83644636 </i>
    <i name="e_wo_entrp">   -120.81601833 </i>
    <i name="e_0_energy">   -120.82963702 </i>
   </energy>
  </scstep>
  <scstep>
   <time name="dav">    5.16    5.20</time>
   <time name="total">    5.56    5.60</time>
   <energy>
    <i name="e_fr_energy">   -120.85664149 </i>
    <i name="e_wo_entrp">   -120.83734340 </i>
    <i name="e_0_energy">   -120.85020879 </i>
   </energy>
  </scstep>
  <scstep>
   <time name="dav">    5.27    5.32</time>
   <time name="total">    5.68    5.73</time>
   <energy>
    <i name="e_fr_energy">   -120.84017995 </i>
    <i name="e_wo_entrp">   -120.81962020 </i>
    <i name="e_0_energy">   -120.83332670 </i>
   </energy>
  </scstep>
  <scstep>
   <time name="dav">    6.36    6.42</time>
   <time name="total">    6.76    6.82</time>
   <energy>
    <i name="e_fr_energy">   -120.83834380 </i>
    <i name="e_wo_entrp">   -120.81762137 </i>
    <i name="e_0_energy">   -120.83143632 </i>
   </energy>
  </scstep>
  <scstep>
   <time name="dav">    6.13    6.18</time>
   <time name="total">    6.54    6.59</time>
   <energy>
    <i name="e_fr_energy">   -120.83540355 </i>
    <i name="e_wo_entrp">   -120.81596383 </i>
    <i name="e_0_energy">   -120.82892364 </i>
   </energy>
  </scstep>
  <scstep>
   <time name="dav">    6.47    6.52</time>
   <time name="total">    6.86    6.92</time>
   <energy>
    <i name="e_fr_energy">   -120.83360037 </i>
    <i name="e_wo_entrp">   -120.81312949 </i>
    <i name="e_0_energy">   -120.82677674 </i>
   </energy>
  </scstep>
  <scstep>
   <time name="dav">    4.88    4.92</time>
   <time name="total">    5.28    5.32</time>
   <energy>
    <i name="e_fr_energy">   -120.83354399 </i>
    <i name="e_wo_entrp">   -120.81344745 </i>
    <i name="e_0_energy">   -120.82684515 </i>
   </energy>
  </scstep>
  <scstep>
   <time name="dav">    4.27    4.31</time>
   <time name="total">    4.34    4.38</time>
   <energy>
    <i name="alphaZ">   1114.72537883 </i>
    <i name="ewald"> 216415.13083255 </i>
    <i name="hartreedc">-259936.77995649 </i>
    <i name="XCdc">   1433.65197713 </i>
    <i name="pawpsdc">  42132.86493654 </i>
    <i name="pawaedc"> -45584.88415537 </i>
    <i name="eentropy">     -0.02021948 </i>
    <i name="bandstr">   -231.12421368 </i>
    <i name="atom">  44535.60175172 </i>
    <i name="e_fr_energy">   -120.83366824 </i>
    <i name="e_wo_entrp">   -120.81344876 </i>
    <i name="e_0_energy">   -120.82692842 </i>
   </energy>
  </scstep>
  <structure>
   <crystal>
    <varray name="basis" >
     <v>       5.13359547       0.00000000       0.00000000 </v>
     <v>       2.56679773       4.44582409       0.00000000 </v>
     <v>       0.00000000       0.00000000      29.67047119 </v>
    </varray>
    <i name="volume">    677.17101477 </i>
    <varray name="rec_basis" >
     <v>       0.19479525      -0.11246509       0.00000000 </v>
     <v>       0.00000000       0.22493018       0.00000000 </v>
     <v>       0.00000000       0.00000000       0.03370354 </v>
    </varray>
   </crystal>
   <varray name="positions" >
    <v>       0.00014386      -0.00007193       0.00023442 </v>
    <v>       1.00000000       0.50000000       0.00024768 </v>
    <v>       0.49992807      -0.00007193       0.00023442 </v>
    <v>       0.49992807       0.50014386       0.00023442 </v>
    <v>       0.16666124       0.16667752       0.07042265 </v>
    <v>       0.16666124       0.66666124       0.07042265 </v>
    <v>       0.66666667       0.16666667       0.07038903 </v>
    <v>       0.66667752       0.66666124       0.07042265 </v>
    <v>       0.33349878       0.33325061       0.13844850 </v>
    <v>       0.33333333       0.83333333       0.13845237 </v>
    <v>       0.83325061       0.33325061       0.13844850 </v>
    <v>       0.83325061       0.83349878       0.13844850 </v>
    <v>       0.00004141      -0.00002071       0.20667713 </v>
    <v>       1.00000000       0.50000000       0.20671463 </v>
    <v>       0.49997929      -0.00002071       0.20667713 </v>
    <v>       0.49997929       0.50004141       0.20667713 </v>
    <v>       0.16680554       0.16638892       0.27489691 </v>
    <v>       0.16680554       0.66680554       0.27489691 </v>
    <v>       0.66666667       0.16666667       0.27489288 </v>
    <v>       0.66638892       0.66680554       0.27489691 </v>
    <v>       0.33365566       0.33317217       0.34321429 </v>
    <v>       0.33333333       0.83333333       0.34327520 </v>
    <v>       0.83317217       0.33317217       0.34321429 </v>
    <v>       0.83317217       0.83365566       0.34321429 </v>
    <v>      -0.00013216       0.00006608       0.41117290 </v>
    <v>       1.00000000       0.50000000       0.41107734 </v>
    <v>       0.50006608       0.00006608       0.41117290 </v>
    <v>       0.50006608       0.49986784       0.41117290 </v>
    <v>       0.16799709       0.16400581       0.48015469 </v>
    <v>       0.16799709       0.66799709       0.48015469 </v>
    <v>       0.66666667       0.16666667       0.48018484 </v>
    <v>       0.66400581       0.66799709       0.48015469 </v>
    <v>       0.00000000       0.50000000       0.53325215 </v>
    <v>       0.00000000       0.50000000       0.56139250 </v>
   </varray>
  </structure>
  <varray name="forces" >
   <v>       0.00690506      -0.00398664       0.09061677 </v>
   <v>      -0.00000000       0.00000000       0.09846530 </v>
   <v>      -0.00690506      -0.00398664       0.09061677 </v>
   <v>      -0.00000000       0.00797328       0.09061677 </v>
   <v>      -0.00000000       0.00129708      -0.05516262 </v>
   <v>      -0.00112330      -0.00064854      -0.05516262 </v>
   <v>      -0.00000000       0.00000000      -0.07280891 </v>
   <v>       0.00112330      -0.00064854      -0.05516262 </v>
   <v>       0.00348614      -0.00201272      -0.03309892 </v>
   <v>      -0.00000000       0.00000000      -0.03259098 </v>
   <v>      -0.00348614      -0.00201272      -0.03309892 </v>
   <v>      -0.00000000       0.00402545      -0.03309892 </v>
   <v>       0.00115252      -0.00066541      -0.00126189 </v>
   <v>      -0.00000000       0.00000000       0.01243257 </v>
   <v>      -0.00115252      -0.00066541      -0.00126189 </v>
   <v>      -0.00000000       0.00133082      -0.00126189 </v>
   <v>      -0.00000000      -0.01126778       0.00717977 </v>
   <v>       0.00975818       0.00563389       0.00717977 </v>
   <v>      -0.00000000       0.00000000      -0.00699604 </v>
   <v>      -0.00975818       0.00563389       0.00717977 </v>
   <v>       0.01119593      -0.00646397       0.01902404 </v>
   <v>      -0.00000000       0.00000000       0.04709522 </v>
   <v>      -0.01119593      -0.00646397       0.01902404 </v>
   <v>      -0.00000000       0.01292794       0.01902404 </v>
   <v>      -0.01145827       0.00661543      -0.00152895 </v>
   <v>      -0.00000000       0.00000000      -0.01631091 </v>
   <v>       0.01145827       0.00661543      -0.00152895 </v>
   <v>      -0.00000000      -0.01323087      -0.00152895 </v>
   <v>       0.00000000      -0.07697677      -0.13266330 </v>
   <v>       0.06666384       0.03848839      -0.13266330 </v>
   <v>      -0.00000000       0.00000000      -0.16027708 </v>
   <v>      -0.06666384       0.03848839      -0.13266330 </v>
   <v>      -0.00000000      -0.00000000       1.06614434 </v>
   <v>      -0.00000000      -0.00000000      -0.61446821 </v>
  </varray>
  <varray name="stress" >
   <v>     -31.72125281      -0.00000000      -0.00000000 </v>
   <v>       0.00000000     -31.72125281       0.00000000 </v>
   <v>       0.00000000       0.00000000      -8.83616538 </v>
  </varray>
  <energy>
   <i name="e_fr_energy">   -134.86538696 </i>
   <i name="e_wo_entrp">   -134.84516748 </i>
   <i name="e_0_energy">   -134.85864714 </i>
  </energy>
  <time name="totalsc">   60.97   61.52</time>
 </calculation>
 <calculation>
  <scstep>
   <time name="dav">    4.51    4.54</time>
   <time name="total">    4.91    4.95</time>
   <energy>
    <i name="alphaZ">   1114.72537883 </i>
    <i name="ewald"> 216301.24697608 </i>
    <i name="hartreedc">-259822.61823830 </i>
    <i name="XCdc">   1433.64404552 </i>
    <i name="pawpsdc">  42133.03851693 </i>
    <i name="pawaedc"> -45585.06006653 </i>
    <i name="eentropy">     -0.01932378 </i>
    <i name="bandstr">   -231.41612596 </i>
    <i name="atom">  44535.60175172 </i>
    <i name="e_fr_energy">   -120.85708549 </i>
    <i name="e_wo_entrp">   -120.83776171 </i>
    <i name="e_0_energy">   -120.85064423 </i>
   </energy>
  </scstep>
  <scstep>
   <time name="dav">    5.65    5.69</time>
   <time name="total">    6.05    6.10</time>
   <energy>
    <i name="e_fr_energy">   -120.86177958 </i>
    <i name="e_wo_entrp">   -120.84224863 </i>
    <i name="e_0_energy">   -120.85526926 </i>
   </energy>
  </scstep>
  <scstep>
   <time name="dav">    5.04    5.08</time>
   <time name="total">    5.45    5.49</time>
   <energy>
    <i name="e_fr_energy">   -120.86216279 </i>
    <i name="e_wo_entrp">   -120.84250359 </i>
    <i name="e_0_energy">   -120.85560972 </i>
   </energy>
  </scstep>
  <scstep>
   <time name="dav">    4.82    4.86</time>
   <time name="total">    5.22    5.26</time>
   <energy>
    <i name="e_fr_energy">   -120.86427639 </i>
    <i name="e_wo_entrp">   -120.84554979 </i>
    <i name="e_0_energy">   -120.85803419 </i>
   </energy>
  </scstep>
  <scstep>
   <time name="dav">    4.09    4.12</time>
   <time name="total">    4.49    4.53</time>
   <energy>
    <i name="e_fr_energy">   -120.86361272 </i>
    <i name="e_wo_entrp">   -120.84470124 </i>
    <i name="e_0_energy">   -120.85730889 </i>
   </energy>
  </scstep>
  <scstep>
   <time name="dav">    3.62    3.65</time>
   <time name="total">    4.03    4.06</time>
   <energy>
    <i name="e_fr_energy">   -120.86171747 </i>
    <i name="e_wo_entrp">   -120.84225868 </i>
    <i name="e_0_energy">   -120.85523120 </i>
   </energy>
  </scstep>
  <scstep>
   <time name="dav">    3.84    3.87</time>
   <time name="total">    4.24    4.27</time>
   <energy>
    <i name="e_fr_energy">   -120.86135342 </i>
    <i name="e_wo_entrp">   -120.84190570 </i>
    <i name="e_0_energy">   -120.85487084 </i>
   </energy>
  </scstep>
  <scstep>
   <time name="dav">    3.76    3.79</time>
   <time name="total">    3.84    3.87</time>
   <energy>
    <i name="alphaZ">   1114.72537883 </i>
    <i name="ewald"> 216301.24697608 </i>
    <i name="hartreedc">-259823.08113846 </i>
    <i name="XCdc">   1433.69958792 </i>
    <i name="pawpsdc">  42130.72156580 </i>
    <i name="pawaedc"> -45582.69823841 </i>
    <i name="eentropy">     -0.01910026 </i>
    <i name="bandstr">   -231.05819231 </i>
    <i name="atom">  44535.60175172 </i>
    <i name="e_fr_energy">   -120.86140909 </i>
    <i name="e_wo_entrp">   -120.84230883 </i>
    <i name="e_0_energy">   -120.85504234 </i>
   </energy>
  </scstep>
  <structure>
   <crystal>
    <varray name="basis" >
     <v>       5.13359547       0.00000000       0.00000000 </v>
     <v>       2.56679773       4.44582409       0.00000000 </v>
     <v>       0.00000000       0.00000000      29.67047119 </v>
    </varray>
    <i name="volume">    677.17101477 </i>
    <varray name="rec_basis" >
     <v>       0.19479525      -0.11246509       0.00000000 </v>
     <v>       0.00000000       0.22493018       0.00000000 </v>
     <v>       0.00000000       0.00000000       0.03370354 </v>
    </varray>
   </crystal>
   <varray name="positions" >
    <v>       0.00007854      -0.00003927       0.00012798 </v>
    <v>       1.00000000       0.50000000       0.00013522 </v>
    <v>       0.49996073      -0.00003927       0.00012798 </v>
    <v>       0.49996073       0.50007854       0.00012798 </v>
    <v>       0.16666370       0.16667259       0.07051919 </v>
    <v>       0.16666370       0.66666370       0.07051919 </v>
    <v>       0.66666667       0.16666667       0.07050083 </v>
    <v>       0.66667259       0.66666370       0.07051919 </v>
    <v>       0.33342366       0.33328817       0.13845836 </v>
    <v>       0.33333333       0.83333333       0.13846047 </v>
    <v>       0.83328817       0.33328817       0.13845836 </v>
    <v>       0.83328817       0.83342366       0.13845836 </v>
    <v>       0.00002261      -0.00001130       0.20667584 </v>
    <v>       1.00000000       0.50000000       0.20669631 </v>
    <v>       0.49998870      -0.00001130       0.20667584 </v>
    <v>       0.49998870       0.50002261       0.20667584 </v>
    <v>       0.16674249       0.16651503       0.27489313 </v>
    <v>       0.16674249       0.66674249       0.27489313 </v>
    <v>       0.66666667       0.16666667       0.27489093 </v>
    <v>       0.66651503       0.66674249       0.27489313 </v>
    <v>       0.33350931       0.33324535       0.34320743 </v>
    <v>       0.33333333       0.83333333       0.34324068 </v>
    <v>       0.83324535       0.33324535       0.34320743 </v>
    <v>       0.83324535       0.83350931       0.34320743 </v>
    <v>      -0.00007215       0.00003608       0.41112086 </v>
    <v>       1.00000000       0.50000000       0.41106869 </v>
    <v>       0.50003608       0.00003608       0.41112086 </v>
    <v>       0.50003608       0.49992785       0.41112086 </v>
    <v>       0.16739302       0.16521395       0.48033174 </v>
    <v>       0.16739302       0.66739302       0.48033174 </v>
    <v>       0.66666667       0.16666667       0.48034819 </v>
    <v>       0.66521395       0.66739302       0.48033174 </v>
    <v>       0.00000000       0.50000000       0.53370944 </v>
    <v>       0.00000000       0.50000000       0.56048879 </v>
   </varray>
  </structure>
  <varray name="forces" >
   <v>       0.00976952      -0.00564043       0.12452357 </v>
   <v>      -0.00000000       0.00000000       0.13361005 </v>
   <v>      -0.00976952      -0.00564043       0.12452357 </v>
   <v>      -0.00000000       0.01128087       0.12452357 </v>
   <v>      -0.00000000       0.00130823      -0.10179085 </v>
   <v>      -0.00113296      -0.00065412      -0.10179085 </v>
   <v>      -0.00000000       0.00000000      -0.12239649 </v>
   <v>       0.00113296      -0.00065412      -0.10179085 </v>
   <v>       0.00923679      -0.00533287      -0.02425683 </v>
   <v>      -0.00000000      -0.00000000      -0.02255334 </v>
   <v>      -0.00923679      -0.00533287      -0.02425683 </v>
   <v>      -0.00000000       0.01066573      -0.02425683 </v>
   <v>       0.00237735      -0.00137256       0.00342092 </v>
   <v>      -0.00000000       0.00000000       0.02330124 </v>
   <v>      -0.00237735      -0.00137256       0.00342092 </v>
   <v>      -0.00000000       0.00274512       0.00342092 </v>
   <v>       0.00000000      -0.02044898       0.00601083 </v>
   <v>       0.01770934       0.01022449       0.00601083 </v>
   <v>      -0.00000000       0.00000000      -0.00241358 </v>
   <v>      -0.01770934       0.01022449       0.00601083 </v>
   <v>       0.02028643      -0.01171238       0.01818214 </v>
   <v>      -0.00000000       0.00000000       0.05391423 </v>
   <v>      -0.02028643      -0.01171238       0.01818214 </v>
   <v>      -0.00000000       0.02342476       0.01818214 </v>
   <v>      -0.01170701       0.00675905       0.04109895 </v>
   <v>      -0.00000000      -0.00000000      -0.00023918 </v>
   <v>       0.01170701       0.00675905       0.04109895 </v>
   <v>      -0.00000000      -0.01351809       0.04109895 </v>
   <v>       0.00000000      -0.16954998      -0.19400231 </v>
   <v>       0.14683459       0.08477499      -0.19400231 </v>
   <v>      -0.00000000      -0.00000000      -0.20156146 </v>
   <v>      -0.14683459       0.08477499      -0.19400231 </v>
   <v>      -0.00000000       0.00000000       0.57960514 </v>
   <v>      -0.00000000       0.00000000      -0.06082591 </v>
  </varray>
  <varray name="stress" >
   <v>     -32.06771125      -0.00000000       0.00000000 </v>
   <v>      -0.00000000     -32.06771124       0.00000000 </v>
   <v>       0.00000000      -0.00000000      -7.95323820 </v>
  </varray>
  <energy>
   <i name="e_fr_energy">   -134.87953273 </i>
   <i name="e_wo_entrp">   -134.86043247 </i>
   <i name="e_0_energy">   -134.87316598 </i>
  </energy>
  <time name="totalsc">   47.03   47.51</time>
 </calculation>
 <calculation>
  <scstep>
   <time name="dav">    4.64    4.68</time>
   <time name="total">    5.05    5.09</time>
   <energy>
    <i name="alphaZ">   1114.72537883 </i>
    <i name="ewald"> 216563.70951131 </i>
    <i name="hartreedc">-260084.93142803 </i>
    <i name="XCdc">   1433.78526462 </i>
    <i name="pawpsdc">  42130.72035955 </i>
    <i name="pawaedc"> -45582.69193323 </i>
    <i name="eentropy">     -0.02126216 </i>
    <i name="bandstr">   -231.76423904 </i>
    <i name="atom">  44535.60175172 </i>
    <i name="e_fr_energy">   -120.86659642 </i>
    <i name="e_wo_entrp">   -120.84533426 </i>
    <i name="e_0_energy">   -120.85950903 </i>
   </energy>
  </scstep>
  <scstep>
   <time name="dav">    5.84    5.90</time>
   <time name="total">    6.24    6.31</time>
   <energy>
    <i name="e_fr_energy">   -120.88211711 </i>
    <i name="e_wo_entrp">   -120.86051100 </i>
    <i name="e_0_energy">   -120.87491507 </i>
   </energy>
  </scstep>
  <scstep>
   <time name="dav">    4.89    4.93</time>
   <time name="total">    5.28    5.33</time>
   <energy>
    <i name="e_fr_energy">   -120.88239170 </i>
    <i name="e_wo_entrp">   -120.86102832 </i>
    <i name="e_0_energy">   -120.87527057 </i>
   </energy>
  </scstep>
  <scstep>
   <time name="dav">    4.78    4.82</time>
   <time name="total">    5.19    5.23</time>
   <energy>
    <i name="e_fr_energy">   -120.88185708 </i>
    <i name="e_wo_entrp">   -120.86154977 </i>
    <i name="e_0_energy">   -120.87508798 </i>
   </energy>
  </scstep>
  <scstep>
   <time name="dav">    4.75    4.79</time>
   <time name="total">    5.15    5.19</time>
   <energy>
    <i name="e_fr_energy">   -120.88071863 </i>
    <i name="e_wo_entrp">   -120.85968874 </i>
    <i name="e_0_energy">   -120.87370867 </i>
   </energy>
  </scstep>
  <scstep>
   <time name="dav">    5.32    5.36</time>
   <time name="total">    5.72    5.77</time>
   <energy>
    <i name="e_fr_energy">   -120.88060622 </i>
    <i name="e_wo_entrp">   -120.85947279 </i>
    <i name="e_0_energy">   -120.87356174 </i>
   </energy>
  </scstep>
  <scstep>
   <time name="dav">    4.58    4.62</time>
   <time name="total">    4.98    5.02</time>
   <energy>
    <i name="e_fr_energy">   -120.88054310 </i>
    <i name="e_wo_entrp">   -120.85991475 </i>
    <i name="e_0_energy">   -120.87366698 </i>
   </energy>
  </scstep>
  <scstep>
   <time name="dav">    4.41    4.44</time>
   <time name="total">    4.48    4.52</time>
   <energy>
    <i name="alphaZ">   1114.72537883 </i>
    <i name="ewald"> 216563.70951131 </i>
    <i name="hartreedc">-260082.78967147 </i>
    <i name="XCdc">   1433.77116881 </i>
    <i name="pawpsdc">  42141.60724857 </i>
    <i name="pawaedc"> -45593.85150414 </i>
    <i name="eentropy">     -0.02113830 </i>
    <i name="bandstr">   -233.63328597 </i>
    <i name="atom">  44535.60175172 </i>
    <i name="e_fr_energy">   -120.88054064 </i>
    <i name="e_wo_entrp">   -120.85940234 </i>
    <i name="e_0_energy">   -120.87349454 </i>
   </energy>
  </scstep>
  <structure>
   <crystal>
    <varray name="basis" >
     <v>       5.13359547       0.00000000       0.00000000 </v>
     <v>       2.56679773       4.44582409       0.00000000 </v>
     <v>       0.00000000       0.00000000      29.67047119 </v>
    </varray>
    <i name="volume">    677.17101477 </i>
    <varray name="rec_basis" >
     <v>       0.19479525      -0.11246509       0.00000000 </v>
     <v>       0.00000000       0.22493018       0.00000000 </v>
     <v>       0.00000000       0.00000000       0.03370354 </v>
    </varray>
   </crystal>
   <varray name="positions" >
    <v>       0.00022581      -0.00011291       0.00037069 </v>
    <v>       1.00000000       0.50000000       0.00039468 </v>
    <v>       0.49988709      -0.00011291       0.00037069 </v>
    <v>       0.49988709       0.50022581       0.00037069 </v>
    <v>       0.16665589       0.16668821       0.07031554 </v>
    <v>       0.16665589       0.66665589       0.07031554 </v>
    <v>       0.66666667       0.16666667       0.07025831 </v>
    <v>       0.66668821       0.66665589       0.07031554 </v>
    <v>       0.33357026       0.33321487       0.13841707 </v>
    <v>       0.33333333       0.83333333       0.13842267 </v>
    <v>       0.83321487       0.33321487       0.13841707 </v>
    <v>       0.83321487       0.83357026       0.13841707 </v>
    <v>       0.00006005      -0.00003002       0.20668161 </v>
    <v>       1.00000000       0.50000000       0.20674084 </v>
    <v>       0.49996998      -0.00003002       0.20668161 </v>
    <v>       0.49996998       0.50006005       0.20668161 </v>
    <v>       0.16687809       0.16624382       0.27490410 </v>
    <v>       0.16687809       0.66687809       0.27490410 </v>
    <v>       0.66666667       0.16666667       0.27488843 </v>
    <v>       0.66624382       0.66687809       0.27490410 </v>
    <v>       0.33382102       0.33308949       0.34323809 </v>
    <v>       0.33333333       0.83333333       0.34333940 </v>
    <v>       0.83308949       0.33308949       0.34323809 </v>
    <v>       0.83308949       0.83382102       0.34323809 </v>
    <v>      -0.00023857       0.00011929       0.41121028 </v>
    <v>       1.00000000       0.50000000       0.41107310 </v>
    <v>       0.50011929       0.00011929       0.41121028 </v>
    <v>       0.50011929       0.49976143       0.41121028 </v>
    <v>       0.16856213       0.16287575       0.47994743 </v>
    <v>       0.16856213       0.66856213       0.47994743 </v>
    <v>       0.66666667       0.16666667       0.47996025 </v>
    <v>       0.66287575       0.66856213       0.47994743 </v>
    <v>       0.00000000       0.50000000       0.53431439 </v>
    <v>       0.00000000       0.50000000       0.56089664 </v>
   </varray>
  </structure>
  <varray name="forces" >
   <v>       0.00413303      -0.00238621       0.06665546 </v>
   <v>      -0.00000000       0.00000000       0.07352550 </v>
   <v>      -0.00413303      -0.00238621       0.06665546 </v>
   <v>      -0.00000000       0.00477242       0.06665546 </v>
   <v>      -0.00000000       0.00116719      -0.01953064 </v>
   <v>      -0.00101082      -0.00058360      -0.01953064 </v>
   <v>      -0.00000000       0.00000000      -0.03538440 </v>
   <v>       0.00101082      -0.00058360      -0.01953064 </v>
   <v>      -0.00008897       0.00005137      -0.03983858 </v>
   <v>      -0.00000000       0.00000000      -0.03955181 </v>
   <v>       0.00008897       0.00005137      -0.03983858 </v>
   <v>      -0.00000000      -0.00010274      -0.03983858 </v>
   <v>       0.00062859      -0.00036292      -0.00553787 </v>
   <v>      -0.00000000       0.00000000       0.00509311 </v>
   <v>      -0.00062859      -0.00036292      -0.00553787 </v>
   <v>      -0.00000000       0.00072584      -0.00553787 </v>
   <v>      -0.00000000      -0.00438200       0.01307192 </v>
   <v>       0.00379493       0.00219100       0.01307192 </v>
   <v>      -0.00000000       0.00000000      -0.00244505 </v>
   <v>      -0.00379493       0.00219100       0.01307192 </v>
   <v>       0.00359657      -0.00207648       0.01148422 </v>
   <v>      -0.00000000       0.00000000       0.03683468 </v>
   <v>      -0.00359657      -0.00207648       0.01148422 </v>
   <v>      -0.00000000       0.00415296       0.01148422 </v>
   <v>      -0.01183747       0.00683437      -0.04035029 </v>
   <v>      -0.00000000       0.00000000      -0.01898952 </v>
   <v>       0.01183747       0.00683437      -0.04035029 </v>
   <v>       0.00000000      -0.01366873      -0.04035029 </v>
   <v>      -0.00000000      -0.02829645      -0.11251091 </v>
   <v>       0.02450544       0.01414822      -0.11251091 </v>
   <v>      -0.00000000       0.00000000      -0.12106541 </v>
   <v>      -0.02450544       0.01414822      -0.11251091 </v>
   <v>      -0.00000000       0.00000000       0.48999822 </v>
   <v>      -0.00000000       0.00000000      -0.00834521 </v>
  </varray>
  <varray name="stress" >
   <v>     -31.85103998      -0.00000000       0.00000000 </v>
   <v>       0.00000000     -31.85103998      -0.00000000 </v>
   <v>       0.00000000      -0.00000000      -7.05506862 </v>
  </varray>
  <energy>
   <i name="e_fr_energy">   -134.90375928 </i>
   <i name="e_wo_entrp">   -134.88262098 </i>
   <i name="e_0_energy">   -134.89671318 </i>
  </energy>
  <time name="totalsc">   50.92   51.37</time>
 </calculation>
 <calculation>
  <scstep>
   <time name="dav">    4.63    4.67</time>
   <time name="total">    5.04    5.08</time>
   <energy>
    <i name="alphaZ">   1114.72537883 </i>
    <i name="ewald"> 216900.05922220 </i>
    <i name="hartreedc">-260418.42579788 </i>
    <i name="XCdc">   1433.88591656 </i>
    <i name="pawpsdc">  42141.83413295 </i>
    <i name="pawaedc"> -45594.04127218 </i>
    <i name="eentropy">     -0.02314928 </i>
    <i name="bandstr">   -234.48041576 </i>
    <i name="atom">  44535.60175172 </i>
    <i name="e_fr_energy">   -120.86423285 </i>
    <i name="e_wo_entrp">   -120.84108357 </i>
    <i name="e_0_energy">   -120.85651642 </i>
   </energy>
  </scstep>
  <scstep>
   <time name="dav">    5.90    5.95</time>
   <time name="total">    6.30    6.35</time>
   <energy>
    <i name="e_fr_energy">   -120.89081168 </i>
    <i name="e_wo_entrp">   -120.86816140 </i>
    <i name="e_0_energy">   -120.88326159 </i>
   </energy>
  </scstep>
  <scstep>
   <time name="dav">    4.95    4.99</time>
   <time name="total">    5.36    5.40</time>
   <energy>
    <i name="e_fr_energy">   -120.89261401 </i>
    <i name="e_wo_entrp">   -120.86917955 </i>
    <i name="e_0_energy">   -120.88480252 </i>
   </energy>
  </scstep>
  <scstep>
   <time name="dav">    4.93    4.97</time>
   <time name="total">    5.33    5.37</time>
   <energy>
    <i name="e_fr_energy">   -120.88876634 </i>
    <i name="e_wo_entrp">   -120.86696644 </i>
    <i name="e_0_energy">   -120.88149971 </i>
   </energy>
  </scstep>
  <scstep>
   <time name="dav">    5.69    5.74</time>
   <time name="total">    6.10    6.15</time>
   <energy>
    <i name="e_fr_energy">   -120.88837925 </i>
    <i name="e_wo_entrp">   -120.86549403 </i>
    <i name="e_0_energy">   -120.88075084 </i>
   </energy>
  </scstep>
  <scstep>
   <time name="dav">    5.62    5.67</time>
   <time name="total">    6.02    6.07</time>
   <energy>
    <i name="e_fr_energy">   -120.88804946 </i>
    <i name="e_wo_entrp">   -120.86542835 </i>
    <i name="e_0_energy">   -120.88050909 </i>
   </energy>
  </scstep>
  <scstep>
   <time name="dav">    4.60    4.64</time>
   <time name="total">    5.00    5.04</time>
   <energy>
    <i name="e_fr_energy">   -120.88788187 </i>
    <i name="e_wo_entrp">   -120.86565334 </i>
    <i name="e_0_energy">   -120.88047236 </i>
   </energy>
  </scstep>
  <scstep>
   <time name="dav">    4.72    4.76</time>
   <time name="total">    4.80    4.84</time>
   <energy>
    <i name="alphaZ">   1114.72537883 </i>
    <i name="ewald"> 216900.05922220 </i>
    <i name="hartreedc">-260416.96618864 </i>
    <i name="XCdc">   1433.86600775 </i>
    <i name="pawpsdc">  42158.02426692 </i>
    <i name="pawaedc"> -45610.54112901 </i>
    <i name="eentropy">     -0.02285038 </i>
    <i name="bandstr">   -235.63437407 </i>
    <i name="atom">  44535.60175172 </i>
    <i name="e_fr_energy">   -120.88791468 </i>
    <i name="e_wo_entrp">   -120.86506430 </i>
    <i name="e_0_energy">   -120.88029788 </i>
   </energy>
  </scstep>
  <structure>
   <crystal>
    <varray name="basis" >
     <v>       5.13359547       0.00000000       0.00000000 </v>
     <v>       2.56679773       4.44582409       0.00000000 </v>
     <v>       0.00000000       0.00000000      29.67047119 </v>
    </varray>
    <i name="volume">    677.17101477 </i>
    <varray name="rec_basis" >
     <v>       0.19479525      -0.11246509       0.00000000 </v>
     <v>       0.00000000       0.22493018       0.00000000 </v>
     <v>       0.00000000       0.00000000       0.03370354 </v>
    </varray>
   </crystal>
   <varray name="positions" >
    <v>       0.00041344      -0.00020672       0.00067990 </v>
    <v>       1.00000000       0.50000000       0.00072522 </v>
    <v>       0.49979328      -0.00020672       0.00067990 </v>
    <v>       0.49979328       0.50041344       0.00067990 </v>
    <v>       0.16664594       0.16670812       0.07005609 </v>
    <v>       0.16664594       0.66664594       0.07005609 </v>
    <v>       0.66666667       0.16666667       0.06994934 </v>
    <v>       0.66670812       0.66664594       0.07005609 </v>
    <v>       0.33375703       0.33312148       0.13836447 </v>
    <v>       0.33333333       0.83333333       0.13837451 </v>
    <v>       0.83312148       0.33312148       0.13836447 </v>
    <v>       0.83312148       0.83375703       0.13836447 </v>
    <v>       0.00010775      -0.00005387       0.20668896 </v>
    <v>       1.00000000       0.50000000       0.20679758 </v>
    <v>       0.49994613      -0.00005387       0.20668896 </v>
    <v>       0.49994613       0.50010775       0.20668896 </v>
    <v>       0.16705085       0.16589830       0.27491807 </v>
    <v>       0.16705085       0.66705085       0.27491807 </v>
    <v>       0.66666667       0.16666667       0.27488526 </v>
    <v>       0.66589830       0.66705085       0.27491807 </v>
    <v>       0.33421814       0.33289093       0.34327715 </v>
    <v>       0.33333333       0.83333333       0.34346516 </v>
    <v>       0.83289093       0.33289093       0.34327715 </v>
    <v>       0.83289093       0.83421814       0.34327715 </v>
    <v>      -0.00045059       0.00022529       0.41132420 </v>
    <v>       1.00000000       0.50000000       0.41107872 </v>
    <v>       0.50022529       0.00022529       0.41132420 </v>
    <v>       0.50022529       0.49954941       0.41132420 </v>
    <v>       0.17005155       0.15989690       0.47945782 </v>
    <v>       0.17005155       0.67005155       0.47945782 </v>
    <v>       0.66666667       0.16666667       0.47946601 </v>
    <v>       0.65989690       0.67005155       0.47945782 </v>
    <v>       0.00000000       0.50000000       0.53508510 </v>
    <v>       0.00000000       0.50000000       0.56141623 </v>
   </varray>
  </structure>
  <varray name="forces" >
   <v>      -0.00184605       0.00106582       0.00568133 </v>
   <v>      -0.00000000       0.00000000       0.01122725 </v>
   <v>       0.00184605       0.00106582       0.00568133 </v>
   <v>      -0.00000000      -0.00213163       0.00568133 </v>
   <v>      -0.00000000       0.00071341       0.07270333 </v>
   <v>      -0.00061783      -0.00035670       0.07270333 </v>
   <v>      -0.00000000       0.00000000       0.06022365 </v>
   <v>       0.00061783      -0.00035670       0.07270333 </v>
   <v>      -0.01011063       0.00583738      -0.06078464 </v>
   <v>      -0.00000000       0.00000000      -0.06236980 </v>
   <v>       0.01011063       0.00583738      -0.06078464 </v>
   <v>      -0.00000000      -0.01167475      -0.06078464 </v>
   <v>      -0.00126320       0.00072931      -0.01204784 </v>
   <v>      -0.00000000      -0.00000000      -0.00964849 </v>
   <v>       0.00126320       0.00072931      -0.01204784 </v>
   <v>      -0.00000000      -0.00145861      -0.01204784 </v>
   <v>       0.00000000       0.01212196       0.02202775 </v>
   <v>      -0.01049793      -0.00606098       0.02202775 </v>
   <v>      -0.00000000       0.00000000      -0.00184451 </v>
   <v>       0.01049793      -0.00606098       0.02202775 </v>
   <v>      -0.01393348       0.00804450       0.00895568 </v>
   <v>      -0.00000000       0.00000000       0.02710014 </v>
   <v>       0.01393348       0.00804450       0.00895568 </v>
   <v>       0.00000000      -0.01608900       0.00895568 </v>
   <v>      -0.01437027       0.00829668      -0.13683106 </v>
   <v>      -0.00000000       0.00000000      -0.03624766 </v>
   <v>       0.01437027       0.00829668      -0.13683106 </v>
   <v>      -0.00000000      -0.01659336      -0.13683106 </v>
   <v>       0.00000000       0.12601763      -0.03146266 </v>
   <v>      -0.10913447      -0.06300882      -0.03146266 </v>
   <v>      -0.00000000       0.00000000      -0.03898524 </v>
   <v>       0.10913447      -0.06300882      -0.03146266 </v>
   <v>      -0.00000000      -0.00000000       0.36492213 </v>
   <v>      -0.00000000      -0.00000000       0.08089688 </v>
  </varray>
  <varray name="stress" >
   <v>     -30.16538186      -0.00000000       0.00000000 </v>
   <v>       0.00000000     -30.16538185      -0.00000000 </v>
   <v>       0.00000000       0.00000000      -4.82057102 </v>
  </varray>
  <energy>
   <i name="e_fr_energy">   -134.91779358 </i>
   <i name="e_wo_entrp">   -134.89494320 </i>
   <i name="e_0_energy">   -134.91017679 </i>
  </energy>
  <time name="totalsc">   52.75   53.23</time>
 </calculation>
 <calculation>
  <scstep>
   <time name="dav">    4.72    4.76</time>
   <time name="total">    5.13    5.17</time>
   <energy>
    <i name="alphaZ">   1114.72537883 </i>
    <i name="ewald"> 216963.87688159 </i>
    <i name="hartreedc">-260480.98799114 </i>
    <i name="XCdc">   1433.88852336 </i>
    <i name="pawpsdc">  42158.38352964 </i>
    <i name="pawaedc"> -45610.90147436 </i>
    <i name="eentropy">     -0.02288000 </i>
    <i name="bandstr">   -235.44974751 </i>
    <i name="atom">  44535.60175172 </i>
    <i name="e_fr_energy">   -120.88602787 </i>
    <i name="e_wo_entrp">   -120.86314787 </i>
    <i name="e_0_energy">   -120.87840120 </i>
   </energy>
  </scstep>
  <scstep>
   <time name="dav">    6.23    6.28</time>
   <time name="total">    6.63    6.68</time>
   <energy>
    <i name="e_fr_energy">   -120.88717539 </i>
    <i name="e_wo_entrp">   -120.86452114 </i>
    <i name="e_0_energy">   -120.87962397 </i>
   </energy>
  </scstep>
  <scstep>
   <time name="dav">    4.31    4.34</time>
   <time name="total">    4.71    4.75</time>
   <energy>
    <i name="e_fr_energy">   -120.88715583 </i>
    <i name="e_wo_entrp">   -120.86473543 </i>
    <i name="e_0_energy">   -120.87968236 </i>
   </energy>
  </scstep>
  <scstep>
   <time name="dav">    3.15    3.17</time>
   <time name="total">    3.22    3.25</time>
   <energy>
    <i name="alphaZ">   1114.72537883 </i>
    <i name="ewald"> 216963.87688159 </i>
    <i name="hartreedc">-260481.08993100 </i>
    <i name="XCdc">   1433.87774502 </i>
    <i name="pawpsdc">  42160.21640571 </i>
    <i name="pawaedc"> -45612.68698287 </i>
    <i name="eentropy">     -0.02282049 </i>
    <i name="bandstr">   -235.38540986 </i>
    <i name="atom">  44535.60175172 </i>
    <i name="e_fr_energy">   -120.88698136 </i>
    <i name="e_wo_entrp">   -120.86416087 </i>
    <i name="e_0_energy">   -120.87937453 </i>
   </energy>
  </scstep>
  <structure>
   <crystal>
    <varray name="basis" >
     <v>       5.13359547       0.00000000       0.00000000 </v>
     <v>       2.56679773       4.44582409       0.00000000 </v>
     <v>       0.00000000       0.00000000      29.67047119 </v>
    </varray>
    <i name="volume">    677.17101477 </i>
    <varray name="rec_basis" >
     <v>       0.19479525      -0.11246509       0.00000000 </v>
     <v>       0.00000000       0.22493018       0.00000000 </v>
     <v>       0.00000000       0.00000000       0.03370354 </v>
    </varray>
   </crystal>
   <varray name="positions" >
    <v>       0.00044890      -0.00022445       0.00073834 </v>
    <v>       1.00000000       0.50000000       0.00078770 </v>
    <v>       0.49977555      -0.00022445       0.00073834 </v>
    <v>       0.49977555       0.50044890       0.00073834 </v>
    <v>       0.16664406       0.16671188       0.07000706 </v>
    <v>       0.16664406       0.66664406       0.07000706 </v>
    <v>       0.66666667       0.16666667       0.06989095 </v>
    <v>       0.66671188       0.66664406       0.07000706 </v>
    <v>       0.33379233       0.33310383       0.13835453 </v>
    <v>       0.33333333       0.83333333       0.13836541 </v>
    <v>       0.83310383       0.33310383       0.13835453 </v>
    <v>       0.83310383       0.83379233       0.13835453 </v>
    <v>       0.00011676      -0.00005838       0.20669035 </v>
    <v>       1.00000000       0.50000000       0.20680831 </v>
    <v>       0.49994162      -0.00005838       0.20669035 </v>
    <v>       0.49994162       0.50011676       0.20669035 </v>
    <v>       0.16708350       0.16583300       0.27492071 </v>
    <v>       0.16708350       0.66708350       0.27492071 </v>
    <v>       0.66666667       0.16666667       0.27488465 </v>
    <v>       0.66583300       0.66708350       0.27492071 </v>
    <v>       0.33429320       0.33285340       0.34328453 </v>
    <v>       0.33333333       0.83333333       0.34348893 </v>
    <v>       0.83285340       0.33285340       0.34328453 </v>
    <v>       0.83285340       0.83429320       0.34328453 </v>
    <v>      -0.00049066       0.00024533       0.41134573 </v>
    <v>       1.00000000       0.50000000       0.41107979 </v>
    <v>       0.50024533       0.00024533       0.41134573 </v>
    <v>       0.50024533       0.49950934       0.41134573 </v>
    <v>       0.17033305       0.15933390       0.47936528 </v>
    <v>       0.17033305       0.67033305       0.47936528 </v>
    <v>       0.66666667       0.16666667       0.47937260 </v>
    <v>       0.65933390       0.67033305       0.47936528 </v>
    <v>       0.00000000       0.50000000       0.53523076 </v>
    <v>       0.00000000       0.50000000       0.56151443 </v>
   </varray>
  </structure>
  <varray name="forces" >
   <v>      -0.00335100       0.00193470      -0.01204079 </v>
   <v>       0.00000000       0.00000000      -0.00716965 </v>
   <v>       0.00335100       0.00193470      -0.01204079 </v>
   <v>       0.00000000      -0.00386940      -0.01204079 </v>
   <v>       0.00000000       0.00053409       0.09415953 </v>
   <v>      -0.00046253      -0.00026704       0.09415953 </v>
   <v>       0.00000000      -0.00000000       0.08329859 </v>
   <v>       0.00046253      -0.00026704       0.09415953 </v>
   <v>      -0.01233130       0.00711948      -0.06336480 </v>
   <v>       0.00000000      -0.00000000      -0.06538730 </v>
   <v>       0.01233130       0.00711948      -0.06336480 </v>
   <v>       0.00000000      -0.01423896      -0.06336480 </v>
   <v>      -0.00181202       0.00104617      -0.01651324 </v>
   <v>       0.00000000       0.00000000      -0.01556301 </v>
   <v>       0.00181202       0.00104617      -0.01651324 </v>
   <v>       0.00000000      -0.00209234      -0.01651324 </v>
[...]
       <r>    11.0872     9.4899   223.6271 </r>
       <r>    11.1671     7.3967   224.2177 </r>
       <r>    11.2469     7.8270   224.8427 </r>
       <r>    11.3268    10.9123   225.7139 </r>
       <r>    11.4066    12.9765   226.7500 </r>
       <r>    11.4864    10.9632   227.6254 </r>
       <r>    11.5663     6.6685   228.1578 </r>
       <r>    11.6461     4.1325   228.4878 </r>
       <r>    11.7260     4.5573   228.8517 </r>
       <r>    11.8058     6.2237   229.3486 </r>
       <r>    11.8857     7.0884   229.9146 </r>
       <r>    11.9655     6.1075   230.4022 </r>
       <r>    12.0454     3.8205   230.7073 </r>
       <r>    12.1252     1.6988   230.8429 </r>
       <r>    12.2050     0.4989   230.8828 </r>
       <r>    12.2849     0.1184   230.8922 </r>
       <r>    12.3647     0.4415   230.9275 </r>
       <r>    12.4446     1.2458   231.0269 </r>
       <r>    12.5244     1.9023   231.1788 </r>
       <r>    12.6043     1.9882   231.3376 </r>
       <r>    12.6841     1.8295   231.4836 </r>
       <r>    12.7640     1.9053   231.6358 </r>
       <r>    12.8438     2.0369   231.7984 </r>
       <r>    12.9237     1.6858   231.9330 </r>
       <r>    13.0035     0.8742   232.0028 </r>
       <r>    13.0833     0.1779   232.0170 </r>
       <r>    13.1632    -0.0880   232.0100 </r>
       <r>    13.2430    -0.0835   232.0033 </r>
       <r>    13.3229    -0.0325   232.0007 </r>
       <r>    13.4027    -0.0077   232.0001 </r>
       <r>    13.4826    -0.0012   232.0000 </r>
       <r>    13.5624    -0.0001   232.0000 </r>
       <r>    13.6423    -0.0000   232.0000 </r>
       <r>    13.7221    -0.0000   232.0000 </r>
       <r>    13.8019    -0.0000   232.0000 </r>
       <r>    13.8818    -0.0000   232.0000 </r>
       <r>    13.9616    -0.0000   232.0000 </r>
       <r>    14.0415    -0.0000   232.0000 </r>
       <r>    14.1213    -0.0000   232.0000 </r>
       <r>    14.2012     0.0000   232.0000 </r>
       <r>    14.2810     0.0000   232.0000 </r>
       <r>    14.3609     0.0000   232.0000 </r>
       <r>    14.4407     0.0000   232.0000 </r>
       <r>    14.5205     0.0000   232.0000 </r>
       <r>    14.6004     0.0000   232.0000 </r>
       <r>    14.6802     0.0000   232.0000 </r>
       <r>    14.7601     0.0000   232.0000 </r>
       <r>    14.8399     0.0000   232.0000 </r>
      </set>
      <set comment="spin 2">
       <r>    -9.1136     0.0000     0.0000 </r>
       <r>    -9.0337     0.0000     0.0000 </r>
       <r>    -8.9539     0.0000     0.0000 </r>
       <r>    -8.8740     0.0000     0.0000 </r>
       <r>    -8.7942     0.0000     0.0000 </r>
       <r>    -8.7143    -0.0000    -0.0000 </r>
       <r>    -8.6345    -0.0000    -0.0000 </r>
       <r>    -8.5546    -0.0000    -0.0000 </r>
       <r>    -8.4748    -0.0000    -0.0000 </r>
       <r>    -8.3949    -0.0000    -0.0000 </r>
       <r>    -8.3151    -0.0000    -0.0000 </r>
       <r>    -8.2353    -0.0000    -0.0000 </r>
       <r>    -8.1554    -0.0000    -0.0000 </r>
       <r>    -8.0756    -0.0000    -0.0000 </r>
       <r>    -7.9957    -0.0000    -0.0000 </r>
       <r>    -7.9159    -0.0000    -0.0000 </r>
       <r>    -7.8360    -0.0000    -0.0000 </r>
       <r>    -7.7562    -0.0000    -0.0000 </r>
       <r>    -7.6763    -0.0003    -0.0000 </r>
       <r>    -7.5965    -0.0020    -0.0002 </r>
       <r>    -7.5167    -0.0082    -0.0008 </r>
       <r>    -7.4368    -0.0205    -0.0025 </r>
       <r>    -7.3570    -0.0183    -0.0039 </r>
       <r>    -7.2771     0.0567     0.0006 </r>
       <r>    -7.1973     0.2377     0.0196 </r>
       <r>    -7.1174     0.4170     0.0529 </r>
       <r>    -7.0376     0.4156     0.0860 </r>
       <r>    -6.9577     0.2431     0.1055 </r>
       <r>    -6.8779     0.1305     0.1159 </r>
       <r>    -6.7980     0.2274     0.1340 </r>
       <r>    -6.7182     0.3928     0.1654 </r>
       <r>    -6.6384     0.3683     0.1948 </r>
       <r>    -6.5585     0.1208     0.2044 </r>
       <r>    -6.4787    -0.0336     0.2018 </r>
       <r>    -6.3988     0.3873     0.2327 </r>
       <r>    -6.3190     1.5173     0.3538 </r>
       <r>    -6.2391     2.6149     0.5626 </r>
       <r>    -6.1593     2.6680     0.7756 </r>
       <r>    -6.0794     1.8361     0.9222 </r>
       <r>    -5.9996     1.3999     1.0340 </r>
       <r>    -5.9198     1.9835     1.1924 </r>
       <r>    -5.8399     2.6567     1.4045 </r>
       <r>    -5.7601     2.2804     1.5866 </r>
       <r>    -5.6802     1.0721     1.6722 </r>
       <r>    -5.6004     0.0488     1.6761 </r>
       <r>    -5.5205    -0.2987     1.6522 </r>
       <r>    -5.4407     0.0829     1.6589 </r>
       <r>    -5.3608     1.2571     1.7592 </r>
       <r>    -5.2810     2.7057     1.9753 </r>
       <r>    -5.2011     3.1830     2.2294 </r>
       <r>    -5.1213     2.1937     2.4046 </r>
       <r>    -5.0415     0.7214     2.4622 </r>
       <r>    -4.9616    -0.1660     2.4489 </r>
       <r>    -4.8818    -0.2834     2.4263 </r>
       <r>    -4.8019     0.2775     2.4485 </r>
       <r>    -4.7221     1.4415     2.5636 </r>
       <r>    -4.6422     2.7294     2.7815 </r>
       <r>    -4.5624     3.6329     3.0716 </r>
       <r>    -4.4825     4.2903     3.4141 </r>
       <r>    -4.4027     4.8123     3.7983 </r>
       <r>    -4.3229     4.5784     4.1639 </r>
       <r>    -4.2430     3.2659     4.4247 </r>
       <r>    -4.1632     1.8837     4.5751 </r>
       <r>    -4.0833     1.6656     4.7081 </r>
       <r>    -4.0035     2.5554     4.9121 </r>
       <r>    -3.9236     3.9470     5.2272 </r>
       <r>    -3.8438     5.7463     5.6861 </r>
       <r>    -3.7639     7.3505     6.2730 </r>
       <r>    -3.6841     7.4357     6.8667 </r>
       <r>    -3.6043     6.0897     7.3529 </r>
       <r>    -3.5244     5.0981     7.7600 </r>
       <r>    -3.4446     5.2595     8.1799 </r>
       <r>    -3.3647     5.4675     8.6164 </r>
       <r>    -3.2849     4.8201     9.0013 </r>
       <r>    -3.2050     3.7102     9.2976 </r>
       <r>    -3.1252     2.9261     9.5312 </r>
       <r>    -3.0453     3.1324     9.7813 </r>
       <r>    -2.9655     4.4783    10.1389 </r>
       <r>    -2.8856     6.2220    10.6357 </r>
       <r>    -2.8058     8.0485    11.2783 </r>
       <r>    -2.7260    10.9885    12.1557 </r>
       <r>    -2.6461    15.6290    13.4036 </r>
       <r>    -2.5663    20.8787    15.0706 </r>
       <r>    -2.4864    24.9820    17.0653 </r>
       <r>    -2.4066    26.2034    19.1575 </r>
       <r>    -2.3267    23.7632    21.0549 </r>
       <r>    -2.2469    19.7245    22.6298 </r>
       <r>    -2.1670    18.0095    24.0678 </r>
       <r>    -2.0872    20.6495    25.7165 </r>
       <r>    -2.0074    26.5555    27.8368 </r>
       <r>    -1.9275    33.0924    30.4791 </r>
       <r>    -1.8477    37.4688    33.4708 </r>
       <r>    -1.7678    38.3306    36.5313 </r>
       <r>    -1.6880    36.2470    39.4254 </r>
       <r>    -1.6081    32.5520    42.0245 </r>
       <r>    -1.5283    29.2737    44.3619 </r>
       <r>    -1.4484    28.2100    46.6143 </r>
       <r>    -1.3686    29.7123    48.9867 </r>
       <r>    -1.2887    34.0537    51.7057 </r>
       <r>    -1.2089    40.9613    54.9763 </r>
       <r>    -1.1291    47.1789    58.7433 </r>
       <r>    -1.0492    49.3097    62.6804 </r>
       <r>    -0.9694    49.7045    66.6491 </r>
       <r>    -0.8895    53.6581    70.9334 </r>
       <r>    -0.8097    60.4014    75.7561 </r>
       <r>    -0.7298    64.1088    80.8749 </r>
       <r>    -0.6500    62.8086    85.8898 </r>
       <r>    -0.5701    59.5340    90.6433 </r>
       <r>    -0.4903    56.9264    95.1886 </r>
       <r>    -0.4105    55.3633    99.6091 </r>
       <r>    -0.3306    54.6682   103.9741 </r>
       <r>    -0.2508    54.0809   108.2921 </r>
       <r>    -0.1709    52.2821   112.4666 </r>
       <r>    -0.0911    50.0569   116.4634 </r>
       <r>    -0.0112    49.1291   120.3861 </r>
       <r>     0.0686    49.7686   124.3599 </r>
       <r>     0.1485    53.6635   128.6446 </r>
       <r>     0.2283    62.2955   133.6186 </r>
       <r>     0.3082    71.0765   139.2937 </r>
       <r>     0.3880    74.3360   145.2291 </r>
       <r>     0.4678    73.8824   151.1282 </r>
       <r>     0.5477    73.7758   157.0188 </r>
       <r>     0.6275    70.3878   162.6389 </r>
       <r>     0.7074    56.4408   167.1454 </r>
       <r>     0.7872    33.3316   169.8068 </r>
       <r>     0.8671    11.8528   170.7532 </r>
       <r>     0.9469     0.5380   170.7961 </r>
       <r>     1.0268    -1.2746   170.6944 </r>
       <r>     1.1066     0.7705   170.7559 </r>
       <r>     1.1864     2.5233   170.9574 </r>
       <r>     1.2663     3.2829   171.2195 </r>
       <r>     1.3461     3.9713   171.5366 </r>
       <r>     1.4260     4.8314   171.9223 </r>
       <r>     1.5058     4.9774   172.3198 </r>
       <r>     1.5857     3.7259   172.6172 </r>
       <r>     1.6655     2.0751   172.7829 </r>
       <r>     1.7454     2.2206   172.9602 </r>
       <r>     1.8252     5.1438   173.3709 </r>
       <r>     1.9050     9.2128   174.1065 </r>
       <r>     1.9849    11.6291   175.0351 </r>
       <r>     2.0647    11.2816   175.9358 </r>
       <r>     2.1446     9.8360   176.7212 </r>
       <r>     2.2244     9.0711   177.4455 </r>
       <r>     2.3043     8.0376   178.0872 </r>
       <r>     2.3841     5.3424   178.5138 </r>
       <r>     2.4640     2.5371   178.7164 </r>
       <r>     2.5438     2.0921   178.8834 </r>
       <r>     2.6237     3.9315   179.1973 </r>
       <r>     2.7035     6.0847   179.6832 </r>
       <r>     2.7833     6.9011   180.2342 </r>
       <r>     2.8632     5.9389   180.7084 </r>
       <r>     2.9430     4.3486   181.0556 </r>
       <r>     3.0229     3.6986   181.3509 </r>
       <r>     3.1027     3.7118   181.6473 </r>
       <r>     3.1826     3.1459   181.8985 </r>
       <r>     3.2624     2.3406   182.0853 </r>
       <r>     3.3423     2.6312   182.2954 </r>
       <r>     3.4221     4.3985   182.6466 </r>
       <r>     3.5019     6.9852   183.2044 </r>
       <r>     3.5818     9.2934   183.9464 </r>
       <r>     3.6616    10.0305   184.7473 </r>
       <r>     3.7415     8.5434   185.4294 </r>
       <r>     3.8213     5.7924   185.8919 </r>
       <r>     3.9012     3.6485   186.1832 </r>
       <r>     3.9810     2.7768   186.4050 </r>
       <r>     4.0609     2.1783   186.5789 </r>
       <r>     4.1407     1.1476   186.6705 </r>
       <r>     4.2206     0.1403   186.6817 </r>
       <r>     4.3004    -0.3831   186.6511 </r>
       <r>     4.3802    -0.3526   186.6230 </r>
       <r>     4.4601     0.6088   186.6716 </r>
       <r>     4.5399     2.7878   186.8942 </r>
       <r>     4.6198     5.0586   187.2981 </r>
       <r>     4.6996     5.6677   187.7506 </r>
       <r>     4.7795     4.6520   188.1221 </r>
       <r>     4.8593     3.3877   188.3926 </r>
       <r>     4.9392     2.2929   188.5756 </r>
       <r>     5.0190     1.0934   188.6629 </r>
       <r>     5.0988     0.0456   188.6666 </r>
       <r>     5.1787    -0.3754   188.6366 </r>
       <r>     5.2585     0.1877   188.6516 </r>
       <r>     5.3384     1.9674   188.8087 </r>
       <r>     5.4182     4.3796   189.1584 </r>
       <r>     5.4981     6.0570   189.6420 </r>
       <r>     5.5779     6.5898   190.1682 </r>
       <r>     5.6578     6.9656   190.7243 </r>
       <r>     5.7376     7.4535   191.3194 </r>
       <r>     5.8175     7.0983   191.8862 </r>
       <r>     5.8973     5.7174   192.3427 </r>
       <r>     5.9771     4.1169   192.6714 </r>
       <r>     6.0570     2.7278   192.8892 </r>
       <r>     6.1368     1.7225   193.0267 </r>
       <r>     6.2167     1.8458   193.1741 </r>
       <r>     6.2965     3.8870   193.4845 </r>
       <r>     6.3764     6.8473   194.0312 </r>
       <r>     6.4562     8.1204   194.6796 </r>
       <r>     6.5361     6.8505   195.2265 </r>
       <r>     6.6159     4.8472   195.6136 </r>
       <r>     6.6957     3.5647   195.8982 </r>
       <r>     6.7756     3.1642   196.1508 </r>
       <r>     6.8554     3.8234   196.4561 </r>
       <r>     6.9353     5.1033   196.8636 </r>
       <r>     7.0151     5.7805   197.3251 </r>
       <r>     7.0950     6.0032   197.8045 </r>
       <r>     7.1748     6.9565   198.3599 </r>
       <r>     7.2547     8.3550   199.0270 </r>
       <r>     7.3345     9.0464   199.7493 </r>
       <r>     7.4144     8.6040   200.4363 </r>
       <r>     7.4942     6.8225   200.9811 </r>
       <r>     7.5740     4.0844   201.3072 </r>
       <r>     7.6539     2.0665   201.4722 </r>
       <r>     7.7337     2.2250   201.6498 </r>
       <r>     7.8136     4.4733   202.0070 </r>
       <r>     7.8934     7.4539   202.6022 </r>
       <r>     7.9733     9.2583   203.3414 </r>
       <r>     8.0531     8.6243   204.0300 </r>
       <r>     8.1330     6.2053   204.5255 </r>
       <r>     8.2128     4.1524   204.8570 </r>
       <r>     8.2926     3.7930   205.1599 </r>
       <r>     8.3725     4.6717   205.5329 </r>
       <r>     8.4523     6.2714   206.0336 </r>
       <r>     8.5322     8.4909   206.7116 </r>
       <r>     8.6120    10.0781   207.5163 </r>
       <r>     8.6919     9.2532   208.2551 </r>
       <r>     8.7717     6.2747   208.7561 </r>
       <r>     8.8516     3.5864   209.0425 </r>
       <r>     8.9314     3.1686   209.2954 </r>
       <r>     9.0112     4.3719   209.6445 </r>
       <r>     9.0911     4.9089   210.0365 </r>
       <r>     9.1709     4.1761   210.3699 </r>
       <r>     9.2508     4.0775   210.6955 </r>
       <r>     9.3306     5.8887   211.1657 </r>
       <r>     9.4105     8.2532   211.8246 </r>
       <r>     9.4903     8.8850   212.5341 </r>
       <r>     9.5702     7.1667   213.1063 </r>
       <r>     9.6500     4.7964   213.4893 </r>
       <r>     9.7299     3.7890   213.7918 </r>
       <r>     9.8097     4.2420   214.1305 </r>
       <r>     9.8895     5.0849   214.5365 </r>
       <r>     9.9694     6.3092   215.0402 </r>
       <r>    10.0492     8.3003   215.7030 </r>
       <r>    10.1291     9.5628   216.4665 </r>
       <r>    10.2089     8.2673   217.1266 </r>
       <r>    10.2888     5.5817   217.5723 </r>
       <r>    10.3686     4.2180   217.9091 </r>
       <r>    10.4485     4.8460   218.2960 </r>
       <r>    10.5283     6.3684   218.8045 </r>
       <r>    10.6081     7.7021   219.4195 </r>
       <r>    10.6880     7.9599   220.0550 </r>
       <r>    10.7678     7.2745   220.6359 </r>
       <r>    10.8477     7.5466   221.2384 </r>
       <r>    10.9275     9.5638   222.0020 </r>
       <r>    11.0074    10.8629   222.8694 </r>
       <r>    11.0872     9.4899   223.6271 </r>
       <r>    11.1671     7.3967   224.2177 </r>
       <r>    11.2469     7.8269   224.8426 </r>
       <r>    11.3268    10.9122   225.7139 </r>
       <r>    11.4066    12.9764   226.7500 </r>
       <r>    11.4864    10.9633   227.6254 </r>
       <r>    11.5663     6.6686   228.1578 </r>
       <r>    11.6461     4.1325   228.4878 </r>
       <r>    11.7260     4.5573   228.8517 </r>
       <r>    11.8058     6.2236   229.3486 </r>
       <r>    11.8857     7.0884   229.9146 </r>
       <r>    11.9655     6.1075   230.4022 </r>
       <r>    12.0454     3.8206   230.7073 </r>
       <r>    12.1252     1.6988   230.8429 </r>
       <r>    12.2050     0.4989   230.8828 </r>
       <r>    12.2849     0.1183   230.8922 </r>
       <r>    12.3647     0.4415   230.9275 </r>
       <r>    12.4446     1.2458   231.0269 </r>
       <r>    12.5244     1.9023   231.1788 </r>
       <r>    12.6043     1.9883   231.3376 </r>
       <r>    12.6841     1.8299   231.4837 </r>
       <r>    12.7640     1.9060   231.6359 </r>
       <r>    12.8438     2.0373   231.7985 </r>
       <r>    12.9237     1.6854   231.9331 </r>
       <r>    13.0035     0.8735   232.0028 </r>
       <r>    13.0833     0.1775   232.0170 </r>
       <r>    13.1632    -0.0881   232.0100 </r>
       <r>    13.2430    -0.0835   232.0033 </r>
       <r>    13.3229    -0.0325   232.0007 </r>
       <r>    13.4027    -0.0077   232.0001 </r>
       <r>    13.4826    -0.0012   232.0000 </r>
       <r>    13.5624    -0.0001   232.0000 </r>
       <r>    13.6423    -0.0000   232.0000 </r>
       <r>    13.7221    -0.0000   232.0000 </r>
       <r>    13.8019    -0.0000   232.0000 </r>
       <r>    13.8818    -0.0000   232.0000 </r>
       <r>    13.9616    -0.0000   232.0000 </r>
       <r>    14.0415    -0.0000   232.0000 </r>
       <r>    14.1213    -0.0000   232.0000 </r>
       <r>    14.2012     0.0000   232.0000 </r>
       <r>    14.2810     0.0000   232.0000 </r>
       <r>    14.3609     0.0000   232.0000 </r>
       <r>    14.4407     0.0000   232.0000 </r>
       <r>    14.5205     0.0000   232.0000 </r>
       <r>    14.6004     0.0000   232.0000 </r>
       <r>    14.6802     0.0000   232.0000 </r>
       <r>    14.7601     0.0000   232.0000 </r>
       <r>    14.8399     0.0000   232.0000 </r>
      </set>
     </set>
    </array>
   </total>
  </dos>
 </calculation>
 <structure name="finalpos" >
  <crystal>
   <varray name="basis" >
    <v>       5.13359547       0.00000000       0.00000000 </v>
    <v>       2.56679773       4.44582409       0.00000000 </v>
    <v>       0.00000000       0.00000000      29.67047119 </v>
   </varray>
   <i name="volume">    677.17101477 </i>
   <varray name="rec_basis" >
    <v>       0.19479525      -0.11246509       0.00000000 </v>
    <v>       0.00000000       0.22493018       0.00000000 </v>
    <v>       0.00000000       0.00000000       0.03370354 </v>
   </varray>
  </crystal>
  <varray name="positions" >
   <v>       0.00005103      -0.00002551      -0.00073981 </v>
   <v>       1.00000000       0.50000000      -0.00069795 </v>
   <v>       0.49997449      -0.00002551      -0.00073981 </v>
   <v>       0.49997449       0.50005103      -0.00073981 </v>
   <v>       0.16668077       0.16663845       0.06859355 </v>
   <v>       0.16668077       0.66668077       0.06859355 </v>
   <v>       0.66666667       0.16666667       0.06856109 </v>
   <v>       0.66663845       0.66668077       0.06859355 </v>
   <v>       0.33335835       0.33332083       0.13649129 </v>
   <v>       0.33333333       0.83333333       0.13649228 </v>
   <v>       0.83332083       0.33332083       0.13649129 </v>
   <v>       0.83332083       0.83335835       0.13649129 </v>
   <v>       0.00000091      -0.00000045       0.20488868 </v>
   <v>       1.00000000       0.50000000       0.20490456 </v>
   <v>       0.49999955      -0.00000045       0.20488868 </v>
   <v>       0.49999955       0.50000090       0.20488868 </v>
   <v>       0.16670750       0.16658500       0.27317898 </v>
   <v>       0.16670750       0.66670750       0.27317898 </v>
   <v>       0.66666667       0.16666667       0.27312560 </v>
   <v>       0.66658500       0.66670750       0.27317898 </v>
   <v>       0.33347225       0.33326388       0.34149812 </v>
   <v>       0.33333333       0.83333333       0.34156437 </v>
   <v>       0.83326388       0.33326388       0.34149812 </v>
   <v>       0.83326388       0.83347225       0.34149812 </v>
   <v>      -0.00015786       0.00007893       0.40927127 </v>
   <v>       1.00000000       0.50000000       0.40928058 </v>
   <v>       0.50007893       0.00007893       0.40927127 </v>
   <v>       0.50007893       0.49984214       0.40927127 </v>
   <v>       0.16690434       0.16619132       0.47839973 </v>
   <v>       0.16690434       0.66690434       0.47839973 </v>
   <v>       0.66666667       0.16666667       0.47843187 </v>
   <v>       0.66619132       0.66690434       0.47839973 </v>
   <v>       0.00000000       0.50000000       0.56180847 </v>
   <v>       0.00000000       0.50000000       0.58732677 </v>
  </varray>
 </structure>
</modeling>
