unknown system                          
           1
     5.133595    0.000000    0.000000
     2.566798    4.445824    0.000000
     0.000000    0.000000   29.670471
   Cu   H 
    32     2
Direct configuration=     1
   0.00000000  0.00000000  0.00000000
   1.00000000  0.50000000  0.00000000
   0.50000000  0.00000000  0.00000000
   0.50000000  0.50000000  0.00000000
   0.16666667  0.16666667  0.07063526
   0.16666667  0.66666667  0.07063526
   0.66666667  0.16666667  0.07063526
   0.66666667  0.66666667  0.07063526
   0.33333333  0.33333333  0.13847021
   0.33333333  0.83333333  0.13847021
   0.83333333  0.33333333  0.13847021
   0.83333333  0.83333333  0.13847021
   0.00000000  0.00000000  0.20667428
   1.00000000  0.50000000  0.20667428
   0.50000000  0.00000000  0.20667428
   0.50000000  0.50000000  0.20667428
   0.16666667  0.16666667  0.27488859
   0.16666667  0.66666667  0.27488859
   0.66666667  0.16666667  0.27488859
   0.66666667  0.66666667  0.27488859
   0.33333333  0.33333333  0.34319917
   0.33333333  0.83333333  0.34319917
   0.83333333  0.33333333  0.34319917
   0.83333333  0.83333333  0.34319917
   0.00000000  0.00000000  0.41105828
   1.00000000  0.50000000  0.41105828
   0.50000000  0.00000000  0.41105828
   0.50000000  0.50000000  0.41105828
   0.16666667  0.16666667  0.48054462
   0.16666667  0.66666667  0.48054462
   0.66666667  0.16666667  0.48054462
   0.66666667  0.66666667  0.48054462
   0.00000000  0.50000000  0.53425930
   0.00000000  0.50000000  0.55940215
Direct configuration=     2
   0.00014386 -0.00007193  0.00023442
   1.00000000  0.50000000  0.00024768
   0.49992807 -0.00007193  0.00023442
   0.49992807  0.50014386  0.00023442
   0.16666124  0.16667752  0.07042265
   0.16666124  0.66666124  0.07042265
   0.66666667  0.16666667  0.07038903
   0.66667752  0.66666124  0.07042265
   0.33349878  0.33325061  0.13844850
   0.33333333  0.83333333  0.13845237
   0.83325061  0.33325061  0.13844850
   0.83325061  0.83349878  0.13844850
   0.00004141 -0.00002071  0.20667713
   1.00000000  0.50000000  0.20671463
   0.49997929 -0.00002071  0.20667713
   0.49997929  0.50004141  0.20667713
   0.16680554  0.16638892  0.27489691
   0.16680554  0.66680554  0.27489691
   0.66666667  0.16666667  0.27489288
   0.66638892  0.66680554  0.27489691
   0.33365566  0.33317217  0.34321429
   0.33333333  0.83333333  0.34327520
   0.83317217  0.33317217  0.34321429
   0.83317217  0.83365566  0.34321429
  -0.00013216  0.00006608  0.41117290
   1.00000000  0.50000000  0.41107734
   0.50006608  0.00006608  0.41117290
   0.50006608  0.49986784  0.41117290
   0.16799709  0.16400581  0.48015469
   0.16799709  0.66799709  0.48015469
   0.66666667  0.16666667  0.48018484
   0.66400581  0.66799709  0.48015469
   0.00000000  0.50000000  0.53325215
   0.00000000  0.50000000  0.56139250
Direct configuration=     3
   0.00007854 -0.00003927  0.00012798
   1.00000000  0.50000000  0.00013522
   0.49996073 -0.00003927  0.00012798
   0.49996073  0.50007854  0.00012798
   0.16666370  0.16667259  0.07051919
   0.16666370  0.66666370  0.07051919
   0.66666667  0.16666667  0.07050083
   0.66667259  0.66666370  0.07051919
   0.33342366  0.33328817  0.13845836
   0.33333333  0.83333333  0.13846047
   0.83328817  0.33328817  0.13845836
   0.83328817  0.83342366  0.13845836
   0.00002261 -0.00001130  0.20667584
   1.00000000  0.50000000  0.20669631
   0.49998870 -0.00001130  0.20667584
   0.49998870  0.50002261  0.20667584
   0.16674249  0.16651503  0.27489313
   0.16674249  0.66674249  0.27489313
   0.66666667  0.16666667  0.27489093
   0.66651503  0.66674249  0.27489313
   0.33350931  0.33324535  0.34320743
   0.33333333  0.83333333  0.34324068
   0.83324535  0.33324535  0.34320743
   0.83324535  0.83350931  0.34320743
  -0.00007215  0.00003608  0.41112086
   1.00000000  0.50000000  0.41106869
   0.50003608  0.00003608  0.41112086
   0.50003608  0.49992785  0.41112086
   0.16739302  0.16521395  0.48033174
   0.16739302  0.66739302  0.48033174
   0.66666667  0.16666667  0.48034819
   0.66521395  0.66739302  0.48033174
   0.00000000  0.50000000  0.53370944
   0.00000000  0.50000000  0.56048879
Direct configuration=     4
   0.00022581 -0.00011291  0.00037069
   1.00000000  0.50000000  0.00039468
   0.49988709 -0.00011291  0.00037069
   0.49988709  0.50022581  0.00037069
   0.16665589  0.16668821  0.07031554
   0.16665589  0.66665589  0.07031554
   0.66666667  0.16666667  0.07025831
   0.66668821  0.66665589  0.07031554
   0.33357026  0.33321487  0.13841707
   0.33333333  0.83333333  0.13842267
   0.83321487  0.33321487  0.13841707
   0.83321487  0.83357026  0.13841707
   0.00006005 -0.00003002  0.20668161
   1.00000000  0.50000000  0.20674084
   0.49996998 -0.00003002  0.20668161
   0.49996998  0.50006005  0.20668161
   0.16687809  0.16624382  0.27490410
   0.16687809  0.66687809  0.27490410
   0.66666667  0.16666667  0.27488843
   0.66624382  0.66687809  0.27490410
   0.33382102  0.33308949  0.34323809
   0.33333333  0.83333333  0.34333940
   0.83308949  0.33308949  0.34323809
   0.83308949  0.83382102  0.34323809
  -0.00023857  0.00011929  0.41121028
   1.00000000  0.50000000  0.41107310
   0.50011929  0.00011929  0.41121028
   0.50011929  0.49976143  0.41121028
   0.16856213  0.16287575  0.47994743
   0.16856213  0.66856213  0.47994743
   0.66666667  0.16666667  0.47996025
   0.66287575  0.66856213  0.47994743
   0.00000000  0.50000000  0.53431439
   0.00000000  0.50000000  0.56089664
Direct configuration=     5
   0.00041344 -0.00020672  0.00067990
   1.00000000  0.50000000  0.00072522
   0.49979328 -0.00020672  0.00067990
   0.49979328  0.50041344  0.00067990
   0.16664594  0.16670812  0.07005609
   0.16664594  0.66664594  0.07005609
   0.66666667  0.16666667  0.06994934
   0.66670812  0.66664594  0.07005609
   0.33375703  0.33312148  0.13836447
   0.33333333  0.83333333  0.13837451
   0.83312148  0.33312148  0.13836447
   0.83312148  0.83375703  0.13836447
   0.00010775 -0.00005387  0.20668896
   1.00000000  0.50000000  0.20679758
   0.49994613 -0.00005387  0.20668896
   0.49994613  0.50010775  0.20668896
   0.16705085  0.16589830  0.27491807
   0.16705085  0.66705085  0.27491807
   0.66666667  0.16666667  0.27488526
   0.66589830  0.66705085  0.27491807
   0.33421814  0.33289093  0.34327715
   0.33333333  0.83333333  0.34346516
   0.83289093  0.33289093  0.34327715
   0.83289093  0.83421814  0.34327715
  -0.00045059  0.00022529  0.41132420
   1.00000000  0.50000000  0.41107872
   0.50022529  0.00022529  0.41132420
   0.50022529  0.49954941  0.41132420
   0.17005155  0.15989690  0.47945782
   0.17005155  0.67005155  0.47945782
   0.66666667  0.16666667  0.47946601
   0.65989690  0.67005155  0.47945782
   0.00000000  0.50000000  0.53508510
   0.00000000  0.50000000  0.56141623
Direct configuration=     6
   0.00044890 -0.00022445  0.00073834
   1.00000000  0.50000000  0.00078770
   0.49977555 -0.00022445  0.00073834
   0.49977555  0.50044890  0.00073834
   0.16664406  0.16671188  0.07000706
   0.16664406  0.66664406  0.07000706
   0.66666667  0.16666667  0.06989095
   0.66671188  0.66664406  0.07000706
   0.33379233  0.33310383  0.13835453
   0.33333333  0.83333333  0.13836541
   0.83310383  0.33310383  0.13835453
   0.83310383  0.83379233  0.13835453
   0.00011676 -0.00005838  0.20669035
   1.00000000  0.50000000  0.20680831
   0.49994162 -0.00005838  0.20669035
   0.49994162  0.50011676  0.20669035
   0.16708350  0.16583300  0.27492071
   0.16708350  0.66708350  0.27492071
   0.66666667  0.16666667  0.27488465
   0.66583300  0.66708350  0.27492071
   0.33429320  0.33285340  0.34328453
   0.33333333  0.83333333  0.34348893
   0.83285340  0.33285340  0.34328453
   0.83285340  0.83429320  0.34328453
  -0.00049066  0.00024533  0.41134573
   1.00000000  0.50000000  0.41107979
   0.50024533  0.00024533  0.41134573
   0.50024533  0.49950934  0.41134573
   0.17033305  0.15933390  0.47936528
   0.17033305  0.67033305  0.47936528
   0.66666667  0.16666667  0.47937260
   0.65933390  0.67033305  0.47936528
   0.00000000  0.50000000  0.53523076
   0.00000000  0.50000000  0.56151443
Direct configuration=     7
   0.00047261 -0.00023631  0.00083620
   1.00000000  0.50000000  0.00090329
   0.49976369 -0.00023631  0.00083620
   0.49976369  0.50047261  0.00083620
   0.16663673  0.16672653  0.07008685
   0.16663673  0.66663673  0.07008685
   0.66666667  0.16666667  0.06993044
   0.66672653  0.66663673  0.07008685
   0.33368241  0.33315879  0.13821188
   0.33333333  0.83333333  0.13822061
   0.83315879  0.33315879  0.13821188
   0.83315879  0.83368241  0.13821188
   0.00010854 -0.00005427  0.20666142
   1.00000000  0.50000000  0.20680054
   0.49994573 -0.00005427  0.20666142
   0.49994573  0.50010854  0.20666142
   0.16705174  0.16589651  0.27496643
   0.16705174  0.66705174  0.27496643
   0.66666667  0.16666667  0.27487538
   0.66589651  0.66705174  0.27496643
   0.33418325  0.33290837  0.34332177
   0.33333333  0.83333333  0.34359527
   0.83290837  0.33290837  0.34332177
   0.83290837  0.83418325  0.34332177
  -0.00079086  0.00039543  0.41108734
   1.00000000  0.50000000  0.41101144
   0.50039543  0.00039543  0.41108734
   0.50039543  0.49920914  0.41108734
   0.16990063  0.16019874  0.47914564
   0.16990063  0.66990063  0.47914564
   0.66666667  0.16666667  0.47913972
   0.66019874  0.66990063  0.47914564
   0.00000000  0.50000000  0.53620403
   0.00000000  0.50000000  0.56190977
Direct configuration=     8
   0.00049112 -0.00024556  0.00091256
   1.00000000  0.50000000  0.00099349
   0.49975444 -0.00024556  0.00091256
   0.49975444  0.50049112  0.00091256
   0.16663101  0.16673797  0.07014912
   0.16663101  0.66663101  0.07014912
   0.66666667  0.16666667  0.06996125
   0.66673797  0.66663101  0.07014912
   0.33359664  0.33320168  0.13810058
   0.33333333  0.83333333  0.13810762
   0.83320168  0.33320168  0.13810058
   0.83320168  0.83359664  0.13810058
   0.00010212 -0.00005106  0.20663885
   1.00000000  0.50000000  0.20679449
   0.49994894 -0.00005106  0.20663885
   0.49994894  0.50010212  0.20663885
   0.16702696  0.16594607  0.27500211
   0.16702696  0.66702696  0.27500211
   0.66666667  0.16666667  0.27486815
   0.66594607  0.66702696  0.27500211
   0.33409746  0.33295127  0.34335083
   0.33333333  0.83333333  0.34367825
   0.83295127  0.33295127  0.34335083
   0.83295127  0.83409746  0.34335083
  -0.00102511  0.00051255  0.41088571
   1.00000000  0.50000000  0.41095810
   0.50051255  0.00051255  0.41088571
   0.50051255  0.49897489  0.41088571
   0.16956321  0.16087358  0.47897425
   0.16956321  0.66956321  0.47897425
   0.66666667  0.16666667  0.47895800
   0.66087358  0.66956321  0.47897425
   0.00000000  0.50000000  0.53696349
   0.00000000  0.50000000  0.56221826
Direct configuration=     9
   0.00049314 -0.00024657  0.00094063
   1.00000000  0.50000000  0.00102756
   0.49975343 -0.00024657  0.00094063
   0.49975343  0.50049314  0.00094063
   0.16663063  0.16673875  0.07018177
   0.16663063  0.66663063  0.07018177
   0.66666667  0.16666667  0.06998338
   0.66673875  0.66663063  0.07018177
   0.33355876  0.33322062  0.13805977
   0.33333333  0.83333333  0.13806647
   0.83322062  0.33322062  0.13805977
   0.83322062  0.83355876  0.13805977
   0.00010258 -0.00005129  0.20662387
   1.00000000  0.50000000  0.20678554
   0.49994871 -0.00005129  0.20662387
   0.49994871  0.50010258  0.20662387
   0.16701302  0.16597395  0.27501757
   0.16701302  0.66701302  0.27501757
   0.66666667  0.16666667  0.27486548
   0.66597395  0.66701302  0.27501757
   0.33402935  0.33298533  0.34334942
   0.33333333  0.83333333  0.34369544
   0.83298533  0.33298533  0.34334942
   0.83298533  0.83402935  0.34334942
  -0.00109813  0.00054906  0.41078879
   1.00000000  0.50000000  0.41092552
   0.50054906  0.00054906  0.41078879
   0.50054906  0.49890187  0.41078879
   0.16937179  0.16125643  0.47889861
   0.16937179  0.66937179  0.47889861
   0.66666667  0.16666667  0.47888142
   0.66125643  0.66937179  0.47889861
   0.00000000  0.50000000  0.53719021
   0.00000000  0.50000000  0.56254074
Direct configuration=    10
   0.00049923 -0.00024962  0.00102485
   1.00000000  0.50000000  0.00112975
   0.49975038 -0.00024962  0.00102485
   0.49975038  0.50049923  0.00102485
   0.16662946  0.16674107  0.07027975
   0.16662946  0.66662946  0.07027975
   0.66666667  0.16666667  0.07004976
   0.66674107  0.66662946  0.07027975
   0.33344512  0.33327744  0.13793737
   0.33333333  0.83333333  0.13794302
   0.83327744  0.33327744  0.13793737
   0.83327744  0.83344512  0.13793737
   0.00010395 -0.00005197  0.20657894
   1.00000000  0.50000000  0.20675869
   0.49994803 -0.00005197  0.20657894
   0.49994803  0.50010395  0.20657894
   0.16697121  0.16605759  0.27506395
   0.16697121  0.66697121  0.27506395
   0.66666667  0.16666667  0.27485746
   0.66605759  0.66697121  0.27506395
   0.33382500  0.33308750  0.34334520
   0.33333333  0.83333333  0.34374703
   0.83308750  0.33308750  0.34334520
   0.83308750  0.83382500  0.34334520
  -0.00131718  0.00065859  0.41049805
   1.00000000  0.50000000  0.41082779
   0.50065859  0.00065859  0.41049805
   0.50065859  0.49868282  0.41049805
   0.16879752  0.16240495  0.47867169
   0.16879753  0.66879752  0.47867169
   0.66666667  0.16666667  0.47865168
   0.66240495  0.66879752  0.47867169
   0.00000000  0.50000000  0.53787035
   0.00000000  0.50000000  0.56350821
Direct configuration=    11
   0.00051140 -0.00025570  0.00119327
   1.00000000  0.50000000  0.00133414
   0.49974430 -0.00025570  0.00119327
   0.49974430  0.50051140  0.00119327
   0.16662713  0.16674573  0.07047569
   0.16662713  0.66662713  0.07047569
   0.66666667  0.16666667  0.07018253
   0.66674573  0.66662713  0.07047569
   0.33321784  0.33339108  0.13769256
   0.33333333  0.83333333  0.13769611
   0.83339108  0.33339108  0.13769256
   0.83339108  0.83321784  0.13769256
   0.00010669 -0.00005335  0.20648907
   1.00000000  0.50000000  0.20670501
   0.49994665 -0.00005335  0.20648907
   0.49994665  0.50010669  0.20648907
   0.16688757  0.16622485  0.27515670
   0.16688757  0.66688757  0.27515670
   0.66666667  0.16666667  0.27484144
   0.66622485  0.66688757  0.27515670
   0.33341630  0.33329185  0.34333675
   0.33333333  0.83333333  0.34385021
   0.83329185  0.33329185  0.34333675
   0.83329185  0.83341630  0.34333675
  -0.00175530  0.00087765  0.40991657
   1.00000000  0.50000000  0.41063231
   0.50087765  0.00087765  0.40991657
   0.50087765  0.49824470  0.40991657
   0.16764900  0.16470200  0.47821784
   0.16764900  0.66764900  0.47821784
   0.66666667  0.16666667  0.47819220
   0.66470200  0.66764900  0.47821784
   0.00000000  0.50000000  0.53923062
   0.00000000  0.50000000  0.56544313
Direct configuration=    12
   0.00050263 -0.00025132  0.00124482
   1.00000000  0.50000000  0.00139409
   0.49974868 -0.00025132  0.00124482
   0.49974868  0.50050263  0.00124482
   0.16664079  0.16671843  0.07049100
   0.16664079  0.66664079  0.07049100
   0.66666667  0.16666667  0.07020651
   0.66671843  0.66664079  0.07049100
   0.33322654  0.33338673  0.13770897
   0.33333333  0.83333333  0.13771474
   0.83338673  0.33338673  0.13770897
   0.83338673  0.83322654  0.13770897
   0.00013701 -0.00006851  0.20644360
   1.00000000  0.50000000  0.20666359
   0.49993149 -0.00006851  0.20644360
   0.49993149  0.50013701  0.20644360
   0.16688991  0.16622017  0.27515279
   0.16688991  0.66688991  0.27515279
   0.66666667  0.16666667  0.27482786
   0.66622017  0.66688991  0.27515279
   0.33322983  0.33338508  0.34323221
   0.33333333  0.83333333  0.34373186
   0.83338508  0.33338508  0.34323221
   0.83338508  0.83322983  0.34323221
  -0.00164217  0.00082108  0.40980448
   1.00000000  0.50000000  0.41051390
   0.50082108  0.00082108  0.40980448
   0.50082108  0.49835783  0.40980448
   0.16744097  0.16511805  0.47806593
   0.16744097  0.66744097  0.47806593
   0.66666667  0.16666667  0.47804466
   0.66511805  0.66744097  0.47806593
   0.00000000  0.50000000  0.53994188
   0.00000000  0.50000000  0.56607258
Direct configuration=    13
   0.00047632 -0.00023816  0.00139947
   1.00000000  0.50000000  0.00157392
   0.49976184 -0.00023816  0.00139947
   0.49976184  0.50047632  0.00139947
   0.16668174  0.16663651  0.07053690
   0.16668174  0.66668174  0.07053690
   0.66666667  0.16666667  0.07027846
   0.66663651  0.66668174  0.07053690
   0.33325263  0.33337368  0.13775822
   0.33333333  0.83333333  0.13777064
   0.83337368  0.33337368  0.13775822
   0.83337368  0.83325263  0.13775822
   0.00022798 -0.00011399  0.20630719
   1.00000000  0.50000000  0.20653935
   0.49988601 -0.00011399  0.20630719
   0.49988601  0.50022798  0.20630719
   0.16689693  0.16620613  0.27514105
   0.16689693  0.66689693  0.27514105
   0.66666667  0.16666667  0.27478714
   0.66620613  0.66689693  0.27514105
   0.33267043  0.33366479  0.34291858
   0.33333333  0.83333333  0.34337682
   0.83366479  0.33366479  0.34291858
   0.83366479  0.83267043  0.34291858
  -0.00130277  0.00065138  0.40946821
   1.00000000  0.50000000  0.41015868
   0.50065138  0.00065138  0.40946821
   0.50065138  0.49869723  0.40946821
   0.16681690  0.16636621  0.47761020
   0.16681690  0.66681690  0.47761020
   0.66666667  0.16666667  0.47760205
   0.66636621  0.66681690  0.47761020
   0.00000000  0.50000000  0.54207566
   0.00000000  0.50000000  0.56796094
Direct configuration=    14
   0.00042369 -0.00021185  0.00170876
   1.00000000  0.50000000  0.00193358
   0.49978815 -0.00021185  0.00170876
   0.49978815  0.50042369  0.00170876
   0.16676366  0.16647269  0.07062872
   0.16676366  0.66676366  0.07062872
   0.66666667  0.16666667  0.07042235
   0.66647269  0.66676366  0.07062872
   0.33330482  0.33334759  0.13785670
   0.33333333  0.83333333  0.13788243
   0.83334759  0.33334759  0.13785670
   0.83334759  0.83330482  0.13785670
   0.00040991 -0.00020495  0.20603437
   1.00000000  0.50000000  0.20629087
   0.49979505 -0.00020495  0.20603437
   0.49979505  0.50040991  0.20603437
   0.16691097  0.16617805  0.27511757
   0.16691097  0.66691097  0.27511757
   0.66666667  0.16666667  0.27470568
   0.66617805  0.66691097  0.27511757
   0.33155163  0.33422419  0.34229132
   0.33333333  0.83333333  0.34266673
   0.83422419  0.33422419  0.34229132
   0.83422419  0.83155163  0.34229132
  -0.00062396  0.00031198  0.40879567
   1.00000000  0.50000000  0.40944822
   0.50031198  0.00031198  0.40879567
   0.50031198  0.49937604  0.40879567
   0.16556874  0.16886252  0.47669874
   0.16556874  0.66556874  0.47669874
   0.66666667  0.16666667  0.47671682
   0.66886252  0.66556874  0.47669874
   0.00000000  0.50000000  0.54634322
   0.00000000  0.50000000  0.57173766
Direct configuration=    15
   0.00035680 -0.00017840  0.00176318
   1.00000000  0.50000000  0.00198371
   0.49982160 -0.00017840  0.00176318
   0.49982160  0.50035680  0.00176318
   0.16677341  0.16645318  0.07061602
   0.16677341  0.66677341  0.07061602
   0.66666667  0.16666667  0.07046012
   0.66645318  0.66677341  0.07061602
   0.33336363  0.33331819  0.13797424
   0.33333333  0.83333333  0.13799101
   0.83331819  0.33331819  0.13797424
   0.83331819  0.83336363  0.13797424
   0.00040059 -0.00020029  0.20607949
   1.00000000  0.50000000  0.20630925
   0.49979971 -0.00020029  0.20607949
   0.49979971  0.50040059  0.20607949
   0.16694285  0.16611429  0.27479080
   0.16694285  0.66694285  0.27479080
   0.66666667  0.16666667  0.27448415
   0.66611429  0.66694285  0.27479080
   0.33195913  0.33402043  0.34204299
   0.33333333  0.83333333  0.34229651
   0.83402043  0.33402043  0.34204299
   0.83402043  0.83195913  0.34204299
  -0.00028208  0.00014104  0.40866133
   1.00000000  0.50000000  0.40905481
   0.50014104  0.00014104  0.40866133
   0.50014104  0.49971792  0.40866133
   0.16598706  0.16802587  0.47649868
   0.16598706  0.66598706  0.47649868
   0.66666667  0.16666667  0.47653723
   0.66802587  0.66598706  0.47649868
   0.00000000  0.50000000  0.54765790
   0.00000000  0.50000000  0.57348821
Direct configuration=    16
   0.00029780 -0.00014890  0.00181117
   1.00000000  0.50000000  0.00202793
   0.49985110 -0.00014890  0.00181117
   0.49985110  0.50029780  0.00181117
   0.16678201  0.16643599  0.07060482
   0.16678201  0.66678201  0.07060482
   0.66666667  0.16666667  0.07049342
   0.66643599  0.66678201  0.07060482
   0.33341549  0.33329226  0.13807790
   0.33333333  0.83333333  0.13808676
   0.83329226  0.33329226  0.13807790
   0.83329226  0.83341549  0.13807790
   0.00039237 -0.00019618  0.20611929
   1.00000000  0.50000000  0.20632545
   0.49980382 -0.00019618  0.20611929
   0.49980382  0.50039237  0.20611929
   0.16697097  0.16605807  0.27450263
   0.16697097  0.66697097  0.27450263
   0.66666667  0.16666667  0.27428878
   0.66605807  0.66697097  0.27450263
   0.33231851  0.33384074  0.34182400
   0.33333333  0.83333333  0.34197002
   0.83384074  0.33384074  0.34182400
   0.83384074  0.83231851  0.34182400
   0.00001942 -0.00000971  0.40854284
   1.00000000  0.50000000  0.40870787
   0.49999029 -0.00000971  0.40854284
   0.49999029  0.50001942  0.40854284
   0.16635598  0.16728804  0.47632225
   0.16635598  0.66635598  0.47632225
   0.66666667  0.16666667  0.47637886
   0.66728804  0.66635598  0.47632225
   0.00000000  0.50000000  0.54881729
   0.00000000  0.50000000  0.57503200
Direct configuration=    17
   0.00017981 -0.00008991  0.00190715
   1.00000000  0.50000000  0.00211636
   0.49991009 -0.00008991  0.00190715
   0.49991009  0.50017981  0.00190715
   0.16679921  0.16640159  0.07058243
   0.16679921  0.66679921  0.07058243
   0.66666667  0.16666667  0.07056002
   0.66640159  0.66679921  0.07058243
   0.33351921  0.33324039  0.13828522
   0.33333333  0.83333333  0.13827826
   0.83324039  0.33324039  0.13828522
   0.83324039  0.83351921  0.13828522
   0.00037593 -0.00018796  0.20619888
   1.00000000  0.50000000  0.20635786
   0.49981204 -0.00018796  0.20619888
   0.49981204  0.50037593  0.20619888
   0.16702720  0.16594561  0.27392628
   0.16702720  0.66702719  0.27392628
   0.66666667  0.16666667  0.27389805
   0.66594561  0.66702719  0.27392628
   0.33303727  0.33348137  0.34138601
   0.33333333  0.83333333  0.34131704
   0.83348137  0.33348137  0.34138601
   0.83348137  0.83303727  0.34138601
   0.00062242 -0.00031121  0.40830588
   1.00000000  0.50000000  0.40801398
   0.49968879 -0.00031121  0.40830588
   0.49968879  0.50062242  0.40830588
   0.16709382  0.16581237  0.47596939
   0.16709382  0.66709382  0.47596939
   0.66666667  0.16666667  0.47606210
   0.66581237  0.66709382  0.47596939
   0.00000000  0.50000000  0.55113609
   0.00000000  0.50000000  0.57811957
Direct configuration=    18
   0.00023419 -0.00011710  0.00186291
   1.00000000  0.50000000  0.00207560
   0.49988290 -0.00011710  0.00186291
   0.49988290  0.50023419  0.00186291
   0.16679128  0.16641744  0.07059275
   0.16679128  0.66679128  0.07059275
   0.66666667  0.16666667  0.07052933
   0.66641744  0.66679128  0.07059275
   0.33347141  0.33326430  0.13818967
   0.33333333  0.83333333  0.13819000
   0.83326430  0.33326430  0.13818967
   0.83326430  0.83347141  0.13818967
   0.00038351 -0.00019175  0.20616220
   1.00000000  0.50000000  0.20634293
   0.49980825 -0.00019175  0.20616220
   0.49980825  0.50038351  0.20616220
   0.16700128  0.16599744  0.27419192
   0.16700128  0.66700128  0.27419192
   0.66666667  0.16666667  0.27407814
   0.66599744  0.66700128  0.27419192
   0.33270599  0.33364700  0.34158788
   0.33333333  0.83333333  0.34161800
   0.83364700  0.33364700  0.34158788
   0.83364700  0.83270599  0.34158788
   0.00034450 -0.00017225  0.40841510
   1.00000000  0.50000000  0.40833379
   0.49982775 -0.00017225  0.40841510
   0.49982775  0.50034450  0.40841510
   0.16675375  0.16649250  0.47613203
   0.16675375  0.66675375  0.47613203
   0.66666667  0.16666667  0.47620810
   0.66649250  0.66675375  0.47613203
   0.00000000  0.50000000  0.55006736
   0.00000000  0.50000000  0.57669651
Direct configuration=    19
   0.00017785 -0.00008892  0.00187691
   1.00000000  0.50000000  0.00207884
   0.49991108 -0.00008892  0.00187691
   0.49991108  0.50017785  0.00187691
   0.16678683  0.16642634  0.07059926
   0.16678683  0.66678683  0.07059926
   0.66666667  0.16666667  0.07056718
   0.66642634  0.66678683  0.07059926
   0.33348840  0.33325580  0.13826626
   0.33333333  0.83333333  0.13825742
   0.83325580  0.33325580  0.13826626
   0.83325580  0.83348840  0.13826626
   0.00033353 -0.00016677  0.20619939
   1.00000000  0.50000000  0.20635298
   0.49983323 -0.00016677  0.20619939
   0.49983323  0.50033353  0.20619939
   0.16699384  0.16601232  0.27393690
   0.16699384  0.66699384  0.27393690
   0.66666667  0.16666667  0.27390111
   0.66601232  0.66699384  0.27393690
   0.33311010  0.33344495  0.34141550
   0.33333333  0.83333333  0.34137257
   0.83344495  0.33344495  0.34141550
   0.83344495  0.83311010  0.34141550
   0.00049524 -0.00024762  0.40832077
   1.00000000  0.50000000  0.40807993
   0.49975238 -0.00024762  0.40832077
   0.49975238  0.50049524  0.40832077
   0.16708735  0.16582530  0.47605009
   0.16708735  0.66708735  0.47605009
   0.66666667  0.16666667  0.47613916
   0.66582530  0.66708735  0.47605009
   0.00000000  0.50000000  0.55123885
   0.00000000  0.50000000  0.57755987
Direct configuration=    20
   0.00000882 -0.00000441  0.00191889
   1.00000000  0.50000000  0.00208854
   0.49999559 -0.00000441  0.00191889
   0.49999559  0.50000882  0.00191889
   0.16677348  0.16645304  0.07061876
   0.16677348  0.66677348  0.07061876
   0.66666667  0.16666667  0.07068075
   0.66645304  0.66677348  0.07061876
   0.33353937  0.33323032  0.13849603
   0.33333333  0.83333333  0.13845968
   0.83323032  0.33323032  0.13849603
   0.83323032  0.83353937  0.13849603
   0.00018362 -0.00009181  0.20631097
   1.00000000  0.50000000  0.20638315
   0.49990819 -0.00009181  0.20631097
   0.49990819  0.50018362  0.20631097
   0.16697152  0.16605695  0.27317184
   0.16697152  0.66697152  0.27317184
   0.66666667  0.16666667  0.27337003
   0.66605695  0.66697152  0.27317184
   0.33432243  0.33283879  0.34089836
   0.33333333  0.83333333  0.34063628
   0.83283879  0.33283879  0.34089836
   0.83283879  0.83432243  0.34089836
   0.00094747 -0.00047374  0.40803780
   1.00000000  0.50000000  0.40731834
   0.49952626 -0.00047374  0.40803780
   0.49952626  0.50094747  0.40803780
   0.16808815  0.16382371  0.47580427
   0.16808815  0.66808815  0.47580427
   0.66666667  0.16666667  0.47593234
   0.66382371  0.66808815  0.47580427
   0.00000000  0.50000000  0.55475333
   0.00000000  0.50000000  0.58014993
Direct configuration=    21
   0.00005870 -0.00002935  0.00190650
   1.00000000  0.50000000  0.00208567
   0.49997065 -0.00002935  0.00190650
   0.49997065  0.50005870  0.00190650
   0.16677742  0.16644516  0.07061300
   0.16677742  0.66677742  0.07061300
   0.66666667  0.16666667  0.07064724
   0.66644516  0.66677742  0.07061300
   0.33352433  0.33323784  0.13842822
   0.33333333  0.83333333  0.13839999
   0.83323784  0.33323784  0.13842822
   0.83323784  0.83352433  0.13842822
   0.00022786 -0.00011393  0.20627804
   1.00000000  0.50000000  0.20637425
   0.49988607 -0.00011393  0.20627804
   0.49988607  0.50022786  0.20627804
   0.16697811  0.16604378  0.27339760
   0.16697811  0.66697811  0.27339760
   0.66666667  0.16666667  0.27352675
   0.66604378  0.66697811  0.27339760
   0.33396468  0.33301766  0.34105096
   0.33333333  0.83333333  0.34085355
   0.83301766  0.33301766  0.34105096
   0.83301766  0.83396467  0.34105096
   0.00081402 -0.00040701  0.40812130
   1.00000000  0.50000000  0.40754308
   0.49959299 -0.00040701  0.40812130
   0.49959299  0.50081402  0.40812130
   0.16779282  0.16441437  0.47587681
   0.16779282  0.66779282  0.47587681
   0.66666667  0.16666667  0.47599337
   0.66441437  0.66779282  0.47587681
   0.00000000  0.50000000  0.55371622
   0.00000000  0.50000000  0.57938561
Direct configuration=    22
   0.00005018 -0.00002509  0.00190862
   1.00000000  0.50000000  0.00208616
   0.49997491 -0.00002509  0.00190862
   0.49997491  0.50005018  0.00190862
   0.16677675  0.16644651  0.07061399
   0.16677675  0.66677675  0.07061399
   0.66666667  0.16666667  0.07065297
   0.66644651  0.66677675  0.07061399
   0.33352690  0.33323655  0.13843981
   0.33333333  0.83333333  0.13841019
   0.83323655  0.33323655  0.13843981
   0.83323655  0.83352690  0.13843981
   0.00022030 -0.00011015  0.20628367
   1.00000000  0.50000000  0.20637577
   0.49988985 -0.00011015  0.20628367
   0.49988985  0.50022030  0.20628367
   0.16697698  0.16604603  0.27335904
   0.16697698  0.66697698  0.27335904
   0.66666667  0.16666667  0.27349998
   0.66604603  0.66697698  0.27335904
   0.33402579  0.33298711  0.34102489
   0.33333333  0.83333333  0.34081644
   0.83298711  0.33298711  0.34102489
   0.83298711  0.83402579  0.34102489
   0.00083682 -0.00041841  0.40810704
   1.00000000  0.50000000  0.40750469
   0.49958159 -0.00041841  0.40810704
   0.49958159  0.50083682  0.40810704
   0.16784326  0.16431347  0.47586442
   0.16784327  0.66784326  0.47586442
   0.66666667  0.16666667  0.47598295
   0.66431347  0.66784326  0.47586442
   0.00000000  0.50000000  0.55389338
   0.00000000  0.50000000  0.57951617
Direct configuration=    23
   0.00005445 -0.00002722  0.00190756
   1.00000000  0.50000000  0.00208592
   0.49997278 -0.00002722  0.00190756
   0.49997278  0.50005445  0.00190756
   0.16677708  0.16644583  0.07061349
   0.16677708  0.66677708  0.07061349
   0.66666667  0.16666667  0.07065010
   0.66644583  0.66677708  0.07061349
   0.33352561  0.33323720  0.13843400
   0.33333333  0.83333333  0.13840508
   0.83323720  0.33323720  0.13843400
   0.83323720  0.83352561  0.13843400
   0.00022409 -0.00011204  0.20628085
   1.00000000  0.50000000  0.20637501
   0.49988796 -0.00011204  0.20628085
   0.49988796  0.50022409  0.20628085
   0.16697755  0.16604490  0.27337836
   0.16697755  0.66697755  0.27337836
   0.66666667  0.16666667  0.27351339