  18  18   0   0
  0.2028145E+02  0.3630000E-09  0.3630000E-09  0.2770500E-08  0.5000000E-15
  1.000000000000000E-004
  CAR 
 unknown system                          
     13.21726675     -9.43501874  301      1.95549879      1.00000000
     -9.435  0.0000E+00  0.0000E+00  0.0000E+00  0.0000E+00
     -9.360  0.0000E+00  0.0000E+00  0.0000E+00  0.0000E+00
     -9.284  0.0000E+00  0.0000E+00  0.0000E+00  0.0000E+00
     -9.208  0.0000E+00  0.0000E+00  0.0000E+00  0.0000E+00
     -9.133  0.0000E+00  0.0000E+00  0.0000E+00  0.0000E+00
     -9.057 -0.1105E-30 -0.1105E-30 -0.8346E-32 -0.8346E-32
     -8.982 -0.4168E-28 -0.4168E-28 -0.3156E-29 -0.3156E-29
     -8.906 -0.1181E-25 -0.1181E-25 -0.8952E-27 -0.8952E-27
     -8.831 -0.2510E-23 -0.2510E-23 -0.1904E-24 -0.1904E-24
     -8.755 -0.3998E-21 -0.3998E-21 -0.3037E-22 -0.3037E-22
     -8.680 -0.4769E-19 -0.4769E-19 -0.3631E-20 -0.3631E-20
     -8.604 -0.4157E-17 -0.4157E-17 -0.3175E-18 -0.3175E-18
     -8.529 -0.2752E-15 -0.2752E-15 -0.2110E-16 -0.2110E-16
     -8.453 -0.1367E-13 -0.1367E-13 -0.1053E-14 -0.1053E-14
     -8.378 -0.5063E-12 -0.5063E-12 -0.3928E-13 -0.3928E-13
     -8.302 -0.1395E-10 -0.1395E-10 -0.1093E-11 -0.1093E-11
     -8.227 -0.2852E-09 -0.2852E-09 -0.2263E-10 -0.2263E-10
     -8.151 -0.4307E-08 -0.4307E-08 -0.3478E-09 -0.3478E-09
     -8.076 -0.4777E-07 -0.4777E-07 -0.3955E-08 -0.3955E-08
     -8.000 -0.3855E-06 -0.3855E-06 -0.3306E-07 -0.3306E-07
     -7.925 -0.2226E-05 -0.2226E-05 -0.2012E-06 -0.2012E-06
     -7.849 -0.8921E-05 -0.8921E-05 -0.8747E-06 -0.8747E-06
     -7.774 -0.2300E-04 -0.2300E-04 -0.2611E-05 -0.2611E-05
     -7.698 -0.2853E-04 -0.2853E-04 -0.4766E-05 -0.4766E-05
     -7.623  0.3074E-04  0.3074E-04 -0.2445E-05 -0.2445E-05
     -7.547  0.2125E-03  0.2125E-03  0.1360E-04  0.1360E-04
     -7.472  0.4577E-03  0.4577E-03  0.4817E-04  0.4817E-04
     -7.396  0.5730E-03  0.5730E-03  0.9143E-04  0.9143E-04
     -7.321  0.4412E-03  0.4412E-03  0.1247E-03  0.1247E-03
     -7.245  0.1802E-03  0.1802E-03  0.1384E-03  0.1384E-03
     -7.170  0.4512E-05  0.4512E-05  0.1387E-03  0.1387E-03
     -7.094  0.3254E-04  0.3254E-04  0.1412E-03  0.1412E-03
     -7.019  0.2471E-03  0.2471E-03  0.1598E-03  0.1598E-03
     -6.943  0.4959E-03  0.4959E-03  0.1973E-03  0.1973E-03
     -6.868  0.5662E-03  0.5662E-03  0.2400E-03  0.2400E-03
     -6.792  0.3982E-03  0.3982E-03  0.2701E-03  0.2701E-03
     -6.717  0.1528E-03  0.1528E-03  0.2816E-03  0.2816E-03
     -6.641 -0.3417E-05 -0.3417E-05  0.2814E-03  0.2814E-03
     -6.566 -0.6637E-04 -0.6637E-04  0.2763E-03  0.2763E-03
     -6.490 -0.1192E-03 -0.1192E-03  0.2673E-03  0.2673E-03
     -6.415 -0.1536E-03 -0.1536E-03  0.2557E-03  0.2557E-03
     -6.339  0.6404E-04  0.6405E-04  0.2606E-03  0.2606E-03
     -6.264  0.8532E-03  0.8532E-03  0.3250E-03  0.3250E-03
     -6.188  0.2063E-02  0.2063E-02  0.4808E-03  0.4808E-03
     -6.113  0.2815E-02  0.2815E-02  0.6933E-03  0.6933E-03
     -6.037  0.2376E-02  0.2376E-02  0.8727E-03  0.8727E-03
     -5.962  0.1148E-02  0.1148E-02  0.9594E-03  0.9594E-03
     -5.886  0.2515E-03  0.2515E-03  0.9784E-03  0.9784E-03
     -5.811  0.3874E-03  0.3874E-03  0.1008E-02  0.1008E-02
     -5.735  0.1335E-02  0.1335E-02  0.1108E-02  0.1108E-02
     -5.660  0.2174E-02  0.2174E-02  0.1273E-02  0.1273E-02
     -5.584  0.2092E-02  0.2092E-02  0.1431E-02  0.1431E-02
     -5.509  0.1204E-02  0.1204E-02  0.1521E-02  0.1521E-02
     -5.433  0.2894E-03  0.2894E-03  0.1543E-02  0.1543E-02
     -5.358 -0.1930E-03 -0.1930E-03  0.1529E-02  0.1529E-02
     -5.282 -0.3213E-03 -0.3213E-03  0.1504E-02  0.1504E-02
     -5.207 -0.1104E-03 -0.1104E-03  0.1496E-02  0.1496E-02
     -5.131  0.7985E-03  0.7985E-03  0.1556E-02  0.1556E-02
     -5.056  0.2558E-02  0.2558E-02  0.1750E-02  0.1750E-02
     -4.980  0.4309E-02  0.4309E-02  0.2075E-02  0.2075E-02
     -4.905  0.4643E-02  0.4643E-02  0.2426E-02  0.2426E-02
     -4.829  0.3336E-02  0.3336E-02  0.2677E-02  0.2677E-02
     -4.754  0.1846E-02  0.1846E-02  0.2817E-02  0.2817E-02
     -4.678  0.1509E-02  0.1509E-02  0.2931E-02  0.2931E-02
     -4.603  0.1994E-02  0.1994E-02  0.3081E-02  0.3081E-02
     -4.527  0.2186E-02  0.2186E-02  0.3246E-02  0.3246E-02
     -4.452  0.1888E-02  0.1888E-02  0.3389E-02  0.3389E-02
     -4.376  0.1829E-02  0.1829E-02  0.3527E-02  0.3527E-02
     -4.301  0.2383E-02  0.2383E-02  0.3707E-02  0.3707E-02
     -4.225  0.3147E-02  0.3147E-02  0.3945E-02  0.3945E-02
     -4.149  0.3717E-02  0.3717E-02  0.4225E-02  0.4225E-02
     -4.074  0.4167E-02  0.4167E-02  0.4540E-02  0.4540E-02
     -3.998  0.4633E-02  0.4633E-02  0.4890E-02  0.4890E-02
     -3.923  0.4794E-02  0.4794E-02  0.5252E-02  0.5252E-02
     -3.847  0.4085E-02  0.4085E-02  0.5560E-02  0.5560E-02
     -3.772  0.2491E-02  0.2491E-02  0.5748E-02  0.5748E-02
     -3.696  0.8951E-03  0.8951E-03  0.5816E-02  0.5816E-02
     -3.621  0.4790E-03  0.4790E-03  0.5852E-02  0.5852E-02
     -3.545  0.1691E-02  0.1691E-02  0.5980E-02  0.5980E-02
     -3.470  0.3546E-02  0.3546E-02  0.6247E-02  0.6247E-02
     -3.394  0.4225E-02  0.4225E-02  0.6566E-02  0.6566E-02
     -3.319  0.3097E-02  0.3097E-02  0.6800E-02  0.6800E-02
     -3.243  0.1697E-02  0.1697E-02  0.6928E-02  0.6928E-02
     -3.168  0.2037E-02  0.2037E-02  0.7082E-02  0.7082E-02
     -3.092  0.4614E-02  0.4614E-02  0.7431E-02  0.7431E-02
     -3.017  0.8526E-02  0.8526E-02  0.8074E-02  0.8074E-02
     -2.941  0.1261E-01  0.1261E-01  0.9027E-02  0.9027E-02
     -2.866  0.1565E-01  0.1565E-01  0.1021E-01  0.1021E-01
     -2.790  0.1621E-01  0.1621E-01  0.1143E-01  0.1143E-01
     -2.715  0.1412E-01  0.1412E-01  0.1250E-01  0.1250E-01
     -2.639  0.1169E-01  0.1169E-01  0.1338E-01  0.1338E-01
     -2.564  0.1155E-01  0.1155E-01  0.1425E-01  0.1425E-01
     -2.488  0.1404E-01  0.1404E-01  0.1531E-01  0.1531E-01
     -2.413  0.1800E-01  0.1800E-01  0.1667E-01  0.1667E-01
     -2.337  0.2231E-01  0.2231E-01  0.1836E-01  0.1836E-01
     -2.262  0.2576E-01  0.2576E-01  0.2030E-01  0.2030E-01
     -2.186  0.2671E-01  0.2671E-01  0.2232E-01  0.2232E-01
     -2.111  0.2429E-01  0.2429E-01  0.2415E-01  0.2415E-01
     -2.035  0.1976E-01  0.1976E-01  0.2564E-01  0.2564E-01
     -1.960  0.1596E-01  0.1596E-01  0.2685E-01  0.2685E-01
     -1.884  0.1498E-01  0.1498E-01  0.2798E-01  0.2798E-01
     -1.809  0.1690E-01  0.1690E-01  0.2926E-01  0.2926E-01
     -1.733  0.2027E-01  0.2027E-01  0.3079E-01  0.3079E-01
     -1.658  0.2325E-01  0.2325E-01  0.3254E-01  0.3254E-01
     -1.582  0.2461E-01  0.2461E-01  0.3440E-01  0.3440E-01
     -1.507  0.2431E-01  0.2431E-01  0.3624E-01  0.3624E-01
     -1.431  0.2371E-01  0.2371E-01  0.3803E-01  0.3803E-01
     -1.356  0.2459E-01  0.2459E-01  0.3988E-01  0.3988E-01
     -1.280  0.2758E-01  0.2758E-01  0.4197E-01  0.4197E-01
     -1.205  0.3226E-01  0.3226E-01  0.4440E-01  0.4440E-01
     -1.129  0.3759E-01  0.3759E-01  0.4724E-01  0.4724E-01
     -1.054  0.4166E-01  0.4166E-01  0.5039E-01  0.5039E-01
     -0.978  0.4229E-01  0.4229E-01  0.5358E-01  0.5358E-01
     -0.903  0.3949E-01  0.3949E-01  0.5656E-01  0.5656E-01
     -0.827  0.3568E-01  0.3568E-01  0.5926E-01  0.5926E-01
     -0.752  0.3259E-01  0.3259E-01  0.6172E-01  0.6172E-01
     -0.676  0.3034E-01  0.3034E-01  0.6401E-01  0.6401E-01
     -0.601  0.2953E-01  0.2953E-01  0.6624E-01  0.6624E-01
     -0.525  0.3047E-01  0.3047E-01  0.6854E-01  0.6854E-01
     -0.450  0.3142E-01  0.3142E-01  0.7091E-01  0.7091E-01
     -0.374  0.3131E-01  0.3131E-01  0.7328E-01  0.7328E-01
     -0.299  0.3213E-01  0.3213E-01  0.7570E-01  0.7570E-01
     -0.223  0.3605E-01  0.3605E-01  0.7842E-01  0.7842E-01
     -0.148  0.4177E-01  0.4177E-01  0.8158E-01  0.8158E-01
     -0.072  0.4566E-01  0.4566E-01  0.8503E-01  0.8503E-01
      0.003  0.4591E-01  0.4591E-01  0.8849E-01  0.8849E-01
      0.079  0.4457E-01  0.4457E-01  0.9186E-01  0.9186E-01
      0.154  0.4471E-01  0.4471E-01  0.9523E-01  0.9523E-01
      0.230  0.4579E-01  0.4579E-01  0.9869E-01  0.9869E-01
      0.305  0.4347E-01  0.4347E-01  0.1020E+00  0.1020E+00
      0.381  0.3473E-01  0.3473E-01  0.1046E+00  0.1046E+00
      0.456  0.2182E-01  0.2182E-01  0.1062E+00  0.1062E+00
      0.532  0.9946E-02  0.9946E-02  0.1070E+00  0.1070E+00
      0.607  0.2513E-02  0.2513E-02  0.1072E+00  0.1072E+00
      0.683 -0.3555E-03 -0.3555E-03  0.1072E+00  0.1072E+00
      0.759 -0.1289E-04 -0.1289E-04  0.1072E+00  0.1072E+00
      0.834  0.2181E-02  0.2181E-02  0.1073E+00  0.1073E+00
      0.910  0.4672E-02  0.4672E-02  0.1077E+00  0.1077E+00
      0.985  0.5784E-02  0.5784E-02  0.1081E+00  0.1081E+00
      1.061  0.4892E-02  0.4892E-02  0.1085E+00  0.1085E+00
      1.136  0.2859E-02  0.2859E-02  0.1087E+00  0.1087E+00
      1.212  0.1019E-02  0.1019E-02  0.1088E+00  0.1088E+00
      1.287  0.9790E-04  0.9790E-04  0.1088E+00  0.1088E+00
      1.363 -0.2244E-04 -0.2244E-04  0.1088E+00  0.1088E+00
      1.438  0.1649E-03  0.1649E-03  0.1088E+00  0.1088E+00
      1.514  0.4694E-03  0.4694E-03  0.1088E+00  0.1088E+00
      1.589  0.1284E-02  0.1284E-02  0.1089E+00  0.1089E+00
      1.665  0.3110E-02  0.3110E-02  0.1092E+00  0.1092E+00
      1.740  0.5685E-02  0.5685E-02  0.1096E+00  0.1096E+00
      1.816  0.7735E-02  0.7735E-02  0.1102E+00  0.1102E+00
      1.891  0.8125E-02  0.8125E-02  0.1108E+00  0.1108E+00
      1.967  0.7128E-02  0.7128E-02  0.1113E+00  0.1113E+00
      2.042  0.5600E-02  0.5600E-02  0.1117E+00  0.1117E+00
      2.118  0.3718E-02  0.3718E-02  0.1120E+00  0.1120E+00
      2.193  0.1951E-02  0.1951E-02  0.1122E+00  0.1122E+00
      2.269  0.1818E-02  0.1818E-02  0.1123E+00  0.1123E+00
      2.344  0.3945E-02  0.3945E-02  0.1126E+00  0.1126E+00
      2.420  0.6476E-02  0.6476E-02  0.1131E+00  0.1131E+00
      2.495  0.6990E-02  0.6990E-02  0.1136E+00  0.1136E+00
      2.571  0.5412E-02  0.5412E-02  0.1140E+00  0.1140E+00
      2.646  0.3703E-02  0.3703E-02  0.1143E+00  0.1143E+00
      2.722  0.3396E-02  0.3396E-02  0.1146E+00  0.1146E+00
      2.797  0.4264E-02  0.4264E-02  0.1149E+00  0.1149E+00
      2.873  0.4772E-02  0.4772E-02  0.1153E+00  0.1153E+00
      2.948  0.3838E-02  0.3838E-02  0.1155E+00  0.1155E+00
      3.024  0.2251E-02  0.2251E-02  0.1157E+00  0.1157E+00
      3.099  0.1543E-02  0.1543E-02  0.1158E+00  0.1158E+00
      3.175  0.1829E-02  0.1829E-02  0.1160E+00  0.1160E+00
      3.250  0.1955E-02  0.1955E-02  0.1161E+00  0.1161E+00
      3.326  0.1383E-02  0.1383E-02  0.1162E+00  0.1162E+00
      3.401  0.7568E-03  0.7568E-03  0.1163E+00  0.1163E+00
      3.477  0.7155E-03  0.7155E-03  0.1163E+00  0.1163E+00
      3.552  0.1168E-02  0.1168E-02  0.1164E+00  0.1164E+00
      3.628  0.1827E-02  0.1827E-02  0.1166E+00  0.1166E+00
      3.703  0.2589E-02  0.2589E-02  0.1168E+00  0.1168E+00
      3.779  0.3262E-02  0.3262E-02  0.1170E+00  0.1170E+00
      3.854  0.3533E-02  0.3533E-02  0.1173E+00  0.1173E+00
      3.930  0.3229E-02  0.3229E-02  0.1175E+00  0.1175E+00
      4.005  0.2354E-02  0.2354E-02  0.1177E+00  0.1177E+00
      4.081  0.1182E-02  0.1182E-02  0.1178E+00  0.1178E+00
      4.156  0.2201E-03  0.2201E-03  0.1178E+00  0.1178E+00
      4.232 -0.2032E-03 -0.2032E-03  0.1178E+00  0.1178E+00
      4.307 -0.7699E-04 -0.7699E-04  0.1178E+00  0.1178E+00
      4.383  0.5542E-03  0.5542E-03  0.1178E+00  0.1178E+00
      4.458  0.1587E-02  0.1587E-02  0.1179E+00  0.1179E+00
      4.534  0.2580E-02  0.2580E-02  0.1181E+00  0.1181E+00
      4.609  0.2856E-02  0.2856E-02  0.1183E+00  0.1183E+00
      4.685  0.2221E-02  0.2221E-02  0.1185E+00  0.1185E+00
      4.760  0.1416E-02  0.1416E-02  0.1186E+00  0.1186E+00
      4.836  0.1334E-02  0.1334E-02  0.1187E+00  0.1187E+00
      4.911  0.1893E-02  0.1893E-02  0.1189E+00  0.1189E+00
      4.987  0.2344E-02  0.2344E-02  0.1190E+00  0.1190E+00
      5.062  0.2452E-02  0.2452E-02  0.1192E+00  0.1192E+00
      5.138  0.2510E-02  0.2510E-02  0.1194E+00  0.1194E+00
      5.213  0.2612E-02  0.2612E-02  0.1196E+00  0.1196E+00
      5.289  0.2717E-02  0.2717E-02  0.1198E+00  0.1198E+00
      5.364  0.2916E-02  0.2916E-02  0.1200E+00  0.1200E+00
      5.440  0.3153E-02  0.3153E-02  0.1203E+00  0.1203E+00
      5.515  0.3143E-02  0.3143E-02  0.1205E+00  0.1205E+00
      5.591  0.2796E-02  0.2796E-02  0.1207E+00  0.1207E+00
      5.667  0.2681E-02  0.2681E-02  0.1209E+00  0.1209E+00
      5.742  0.3747E-02  0.3747E-02  0.1212E+00  0.1212E+00
      5.818  0.6096E-02  0.6096E-02  0.1217E+00  0.1217E+00
      5.893  0.8219E-02  0.8219E-02  0.1223E+00  0.1223E+00
      5.969  0.8131E-02  0.8131E-02  0.1229E+00  0.1229E+00
      6.044  0.5519E-02  0.5519E-02  0.1233E+00  0.1233E+00
      6.120  0.2243E-02  0.2243E-02  0.1235E+00  0.1235E+00
      6.195  0.4553E-03  0.4553E-03  0.1235E+00  0.1235E+00
      6.271  0.7158E-03  0.7158E-03  0.1236E+00  0.1236E+00
      6.346  0.1939E-02  0.1939E-02  0.1237E+00  0.1237E+00
      6.422  0.2667E-02  0.2667E-02  0.1239E+00  0.1239E+00
      6.497  0.2488E-02  0.2488E-02  0.1241E+00  0.1241E+00
      6.573  0.2150E-02  0.2150E-02  0.1243E+00  0.1243E+00
      6.648  0.2309E-02  0.2309E-02  0.1244E+00  0.1244E+00
      6.724  0.2990E-02  0.2990E-02  0.1247E+00  0.1247E+00
      6.799  0.4130E-02  0.4130E-02  0.1250E+00  0.1250E+00
      6.875  0.5560E-02  0.5560E-02  0.1254E+00  0.1254E+00
      6.950  0.6597E-02  0.6597E-02  0.1259E+00  0.1259E+00
      7.026  0.6439E-02  0.6438E-02  0.1264E+00  0.1264E+00
      7.101  0.4986E-02  0.4986E-02  0.1268E+00  0.1268E+00
      7.177  0.3148E-02  0.3148E-02  0.1270E+00  0.1270E+00
      7.252  0.2158E-02  0.2158E-02  0.1272E+00  0.1272E+00
      7.328  0.2482E-02  0.2482E-02  0.1274E+00  0.1274E+00
      7.403  0.3587E-02  0.3587E-02  0.1276E+00  0.1276E+00
      7.479  0.4737E-02  0.4737E-02  0.1280E+00  0.1280E+00
      7.554  0.5597E-02  0.5597E-02  0.1284E+00  0.1284E+00
      7.630  0.5879E-02  0.5879E-02  0.1289E+00  0.1289E+00
      7.705  0.5123E-02  0.5123E-02  0.1292E+00  0.1292E+00
      7.781  0.3510E-02  0.3511E-02  0.1295E+00  0.1295E+00
      7.856  0.2163E-02  0.2163E-02  0.1297E+00  0.1297E+00
      7.932  0.1789E-02  0.1789E-02  0.1298E+00  0.1298E+00
      8.007  0.1812E-02  0.1812E-02  0.1299E+00  0.1299E+00
      8.083  0.1686E-02  0.1686E-02  0.1301E+00  0.1301E+00
      8.158  0.2005E-02  0.2005E-02  0.1302E+00  0.1302E+00
      8.234  0.3237E-02  0.3237E-02  0.1305E+00  0.1305E+00
      8.309  0.4407E-02  0.4407E-02  0.1308E+00  0.1308E+00
      8.385  0.4365E-02  0.4366E-02  0.1311E+00  0.1311E+00
      8.460  0.3372E-02  0.3372E-02  0.1314E+00  0.1314E+00
      8.536  0.2350E-02  0.2350E-02  0.1316E+00  0.1316E+00
      8.611  0.1851E-02  0.1851E-02  0.1317E+00  0.1317E+00
      8.687  0.2437E-02  0.2437E-02  0.1319E+00  0.1319E+00
      8.762  0.4400E-02  0.4399E-02  0.1322E+00  0.1322E+00
      8.838  0.6739E-02  0.6739E-02  0.1327E+00  0.1327E+00
      8.913  0.7989E-02  0.7989E-02  0.1333E+00  0.1333E+00
      8.989  0.7986E-02  0.7987E-02  0.1339E+00  0.1339E+00
      9.064  0.7501E-02  0.7501E-02  0.1345E+00  0.1345E+00
      9.140  0.6615E-02  0.6615E-02  0.1350E+00  0.1350E+00
      9.215  0.4908E-02  0.4909E-02  0.1354E+00  0.1354E+00
      9.291  0.2829E-02  0.2829E-02  0.1356E+00  0.1356E+00
      9.366  0.1576E-02  0.1576E-02  0.1357E+00  0.1357E+00
      9.442  0.1870E-02  0.1870E-02  0.1358E+00  0.1358E+00
      9.517  0.3505E-02  0.3505E-02  0.1361E+00  0.1361E+00
      9.593  0.5626E-02  0.5626E-02  0.1365E+00  0.1365E+00
      9.668  0.7136E-02  0.7135E-02  0.1371E+00  0.1371E+00
      9.744  0.7254E-02  0.7254E-02  0.1376E+00  0.1376E+00
      9.819  0.6104E-02  0.6105E-02  0.1381E+00  0.1381E+00
      9.895  0.4688E-02  0.4689E-02  0.1384E+00  0.1384E+00
      9.970  0.3840E-02  0.3840E-02  0.1387E+00  0.1387E+00
     10.046  0.3458E-02  0.3458E-02  0.1390E+00  0.1390E+00
     10.121  0.3221E-02  0.3221E-02  0.1392E+00  0.1392E+00
     10.197  0.3442E-02  0.3442E-02  0.1395E+00  0.1395E+00
     10.272  0.4534E-02  0.4534E-02  0.1398E+00  0.1398E+00
     10.348  0.6166E-02  0.6166E-02  0.1403E+00  0.1403E+00
     10.423  0.7666E-02  0.7666E-02  0.1409E+00  0.1409E+00
     10.499  0.8753E-02  0.8753E-02  0.1415E+00  0.1415E+00
     10.575  0.9045E-02  0.9045E-02  0.1422E+00  0.1422E+00
     10.650  0.7760E-02  0.7760E-02  0.1428E+00  0.1428E+00
     10.726  0.4934E-02  0.4934E-02  0.1432E+00  0.1432E+00
     10.801  0.1929E-02  0.1929E-02  0.1433E+00  0.1433E+00
     10.877  0.1375E-03  0.1375E-03  0.1433E+00  0.1433E+00
     10.952  0.1632E-03  0.1631E-03  0.1433E+00  0.1433E+00
     11.028  0.2001E-02  0.2000E-02  0.1435E+00  0.1435E+00
     11.103  0.4707E-02  0.4707E-02  0.1438E+00  0.1438E+00
     11.179  0.6327E-02  0.6327E-02  0.1443E+00  0.1443E+00
     11.254  0.5537E-02  0.5537E-02  0.1447E+00  0.1447E+00
     11.330  0.3114E-02  0.3115E-02  0.1450E+00  0.1450E+00
     11.405  0.9108E-03  0.9109E-03  0.1450E+00  0.1450E+00
     11.481 -0.1191E-03 -0.1191E-03  0.1450E+00  0.1450E+00
     11.556 -0.2693E-03 -0.2693E-03  0.1450E+00  0.1450E+00
     11.632 -0.1458E-03 -0.1458E-03  0.1450E+00  0.1450E+00
     11.707 -0.4800E-04 -0.4800E-04  0.1450E+00  0.1450E+00
     11.783 -0.1088E-04 -0.1088E-04  0.1450E+00  0.1450E+00
     11.858 -0.1769E-05 -0.1769E-05  0.1450E+00  0.1450E+00
     11.934 -0.2102E-06 -0.2102E-06  0.1450E+00  0.1450E+00
     12.009 -0.1841E-07 -0.1841E-07  0.1450E+00  0.1450E+00
     12.085 -0.1195E-08 -0.1195E-08  0.1450E+00  0.1450E+00
     12.160 -0.5763E-10 -0.5764E-10  0.1450E+00  0.1450E+00
     12.236 -0.2071E-11 -0.2072E-11  0.1450E+00  0.1450E+00
     12.311 -0.5555E-13 -0.5556E-13  0.1450E+00  0.1450E+00
     12.387 -0.1113E-14 -0.1113E-14  0.1450E+00  0.1450E+00
     12.462 -0.1797E-16 -0.1797E-16  0.1450E+00  0.1450E+00
     12.538  0.0000E+00  0.0000E+00  0.1450E+00  0.1450E+00
     12.613  0.0000E+00  0.0000E+00  0.1450E+00  0.1450E+00
     12.689  0.0000E+00  0.0000E+00  0.1450E+00  0.1450E+00
     12.764  0.0000E+00  0.0000E+00  0.1450E+00  0.1450E+00
     12.840  0.0000E+00  0.0000E+00  0.1450E+00  0.1450E+00
     12.915  0.0000E+00  0.0000E+00  0.1450E+00  0.1450E+00
     12.991  0.0000E+00  0.0000E+00  0.1450E+00  0.1450E+00
     13.066  0.0000E+00  0.0000E+00  0.1450E+00  0.1450E+00
     13.142  0.0000E+00  0.0000E+00  0.1450E+00  0.1450E+00
     13.217  0.0000E+00  0.0000E+00  0.1450E+00  0.1450E+00
