   18   18  800    2
  0.2028145E+02  0.3630000E-09  0.3630000E-09  0.2770500E-08  0.5000000E-15
  1.000000000000000E-004
  CAR 
 unknown system                          
    178      4    116
 
  0.0000000E+00  0.0000000E+00  0.0000000E+00  0.1111111E+00
      1         -7.435019       -7.435019   1.000000   1.000000
      2         -6.923990       -6.923990   1.000000   1.000000
      3         -6.107885       -6.107885   1.000000   1.000000
      4         -5.056040       -5.056040   1.000000   1.000000
      5         -4.460466       -4.460466   1.000000   1.000000
      6         -3.822089       -3.822089   1.000000   1.000000
      7         -3.148870       -3.148870   1.000000   1.000000
      8         -3.020929       -3.020929   1.000000   1.000000
      9         -3.017527       -3.017527   1.000000   1.000000
     10         -2.988155       -2.988155   1.000000   1.000000
     11         -2.963981       -2.963981   1.000000   1.000000
     12         -2.804403       -2.804403   1.000000   1.000000
     13         -2.799241       -2.799241   1.000000   1.000000
     14         -2.576983       -2.576983   1.000000   1.000000
     15         -2.546364       -2.546364   1.000000   1.000000
     16         -2.546360       -2.546360   1.000000   1.000000
     17         -2.477294       -2.477294   1.000000   1.000000
     18         -2.476836       -2.476836   1.000000   1.000000
     19         -2.456365       -2.456365   1.000000   1.000000
     20         -2.412655       -2.412655   1.000000   1.000000
     21         -2.412653       -2.412653   1.000000   1.000000
     22         -2.225573       -2.225573   1.000000   1.000000
     23         -2.158943       -2.158944   1.000000   1.000000
     24         -2.158943       -2.158943   1.000000   1.000000
     25         -2.091139       -2.091139   1.000000   1.000000
     26         -2.062828       -2.062828   1.000000   1.000000
     27         -1.915845       -1.915845   1.000000   1.000000
     28         -1.759096       -1.759096   1.000000   1.000000
     29         -1.759044       -1.759044   1.000000   1.000000
     30         -1.612778       -1.612778   1.000000   1.000000
     31         -1.358401       -1.358401   1.000000   1.000000
     32         -1.265932       -1.265932   1.000000   1.000000
     33         -1.265684       -1.265684   1.000000   1.000000
     34         -1.212357       -1.212357   1.000000   1.000000
     35         -1.173497       -1.173497   1.000000   1.000000
     36         -1.173430       -1.173430   1.000000   1.000000
     37         -1.064224       -1.064224   1.000000   1.000000
     38         -1.064101       -1.064101   1.000000   1.000000
     39         -1.056702       -1.056702   1.000000   1.000000
     40         -0.855755       -0.855755   1.000000   1.000000
     41         -0.855574       -0.855574   1.000000   1.000000
     42         -0.698780       -0.698780   1.000000   1.000000
     43         -0.698087       -0.698087   1.000000   1.000000
     44         -0.576800       -0.576800   1.000000   1.000000
     45         -0.546980       -0.546980   1.000000   1.000000
     46         -0.546692       -0.546692   1.000000   1.000000
     47         -0.544872       -0.544872   1.000000   1.000000
     48         -0.428815       -0.428815   1.000000   1.000000
     49         -0.378980       -0.378980   1.000000   1.000000
     50         -0.358863       -0.358863   1.000000   1.000000
     51         -0.339736       -0.339736   1.000000   1.000000
     52         -0.232788       -0.232788   1.000000   1.000000
     53         -0.230543       -0.230543   1.000000   1.000000
     54         -0.224069       -0.224069   1.000000   1.000000
     55         -0.223888       -0.223888   1.000000   1.000000
     56         -0.217954       -0.217954   1.000000   1.000000
     57         -0.217491       -0.217491   1.000000   1.000000
     58         -0.153133       -0.153133   1.000000   1.000000
     59         -0.152157       -0.152157   1.000000   1.000000
     60         -0.075226       -0.075226   1.000000   1.000000
     61         -0.066384       -0.066384   1.000000   1.000000
     62         -0.059244       -0.059244   1.000000   1.000000
     63          0.072826        0.072826   1.000000   1.000000
     64          0.073522        0.073522   1.000000   1.000000
     65          0.074171        0.074171   1.000000   1.000000
     66          0.116233        0.116233   1.000000   1.000000
     67          0.117558        0.117558   1.000000   1.000000
     68          0.129584        0.129584   1.000000   1.000000
     69          0.209071        0.209071   1.000000   1.000000
     70          0.246645        0.246645   1.000000   1.000000
     71          0.248417        0.248417   1.000000   1.000000
     72          0.251242        0.251242   1.000000   1.000000
     73          0.261014        0.261014   1.000000   1.000000
     74          0.261433        0.261433   1.000000   1.000000
     75          0.263670        0.263670   1.000000   1.000000
     76          0.266757        0.266757   1.000000   1.000000
     77          0.280566        0.280566   1.000000   1.000000
     78          0.324993        0.324993   1.000000   1.000000
     79          0.325598        0.325598   1.000000   1.000000
     80          0.370997        0.370997   1.000000   1.000000
     81          0.374656        0.374656   1.000000   1.000000
     82          0.409235        0.409235   1.000000   1.000000
     83          0.409412        0.409412   1.000000   1.000000
     84          0.419976        0.419976   1.000000   1.000000
     85          0.420141        0.420141   1.000000   1.000000
     86          0.548108        0.548108   1.000000   1.000000
     87          0.573984        0.573984   1.000000   1.000000
     88          1.435226        1.435226   1.000728   1.000728
     89          2.749639        2.749639  -0.000000  -0.000000
     90          3.521566        3.521566  -0.000000  -0.000000
     91          3.524359        3.524359  -0.000000  -0.000000
     92          3.677504        3.677504  -0.000000  -0.000000
     93          4.460462        4.460462  -0.000000  -0.000000
     94          4.470675        4.470675  -0.000000  -0.000000
     95          5.633290        5.633294  -0.000000  -0.000000
     96          5.727836        5.727836  -0.000000  -0.000000
     97          5.830786        5.830796  -0.000000  -0.000000
     98          6.353755        6.353768  -0.000000  -0.000000
     99          7.202246        7.202249  -0.000000  -0.000000
    100          7.237983        7.237983  -0.000000  -0.000000
    101          7.539632        7.539664   0.000000   0.000000
    102          8.806935        8.806939   0.000000   0.000000
    103          8.888160        8.888160   0.000000   0.000000
    104          8.976923        8.976923   0.000000   0.000000
    105          8.978670        8.978670   0.000000   0.000000
    106          9.155488        9.155488   0.000000   0.000000
    107          9.161771        9.161771   0.000000   0.000000
    108          9.166959        9.166970   0.000000   0.000000
    109          9.553890        9.553890   0.000000   0.000000
    110          9.568655        9.568655   0.000000   0.000000
    111          9.710610        9.710611   0.000000   0.000000
    112         10.193967       10.193967   0.000000   0.000000
    113         10.205336       10.205336   0.000000   0.000000
    114         10.523503       10.523511   0.000000   0.000000
    115         10.661813       10.661813   0.000000   0.000000
    116         10.757307       10.757307   0.000000   0.000000
 
  0.3333333E+00  0.0000000E+00  0.0000000E+00  0.4444444E+00
      1         -6.144253       -6.144253   1.000000   1.000000
      2         -5.668692       -5.668692   1.000000   1.000000
      3         -4.927054       -4.927054   1.000000   1.000000
      4         -4.284607       -4.284607   1.000000   1.000000
      5         -3.889301       -3.889301   1.000000   1.000000
      6         -3.425334       -3.425334   1.000000   1.000000
      7         -3.097278       -3.097278   1.000000   1.000000
      8         -2.991929       -2.991929   1.000000   1.000000
      9         -2.644163       -2.644163   1.000000   1.000000
     10         -2.532004       -2.532004   1.000000   1.000000
     11         -2.507864       -2.507864   1.000000   1.000000
     12         -2.370106       -2.370106   1.000000   1.000000
     13         -2.359249       -2.359249   1.000000   1.000000
     14         -2.327248       -2.327248   1.000000   1.000000
     15         -2.261557       -2.261557   1.000000   1.000000
     16         -2.230275       -2.230275   1.000000   1.000000
     17         -2.202033       -2.202033   1.000000   1.000000
     18         -2.195985       -2.195985   1.000000   1.000000
     19         -2.192267       -2.192267   1.000000   1.000000
     20         -2.137457       -2.137457   1.000000   1.000000
     21         -2.133517       -2.133517   1.000000   1.000000
     22         -2.126554       -2.126554   1.000000   1.000000
     23         -2.009062       -2.009062   1.000000   1.000000
     24         -1.973150       -1.973150   1.000000   1.000000
     25         -1.963255       -1.963255   1.000000   1.000000
     26         -1.784747       -1.784747   1.000000   1.000000
     27         -1.745747       -1.745747   1.000000   1.000000
     28         -1.703627       -1.703627   1.000000   1.000000
     29         -1.649746       -1.649746   1.000000   1.000000
     30         -1.613713       -1.613713   1.000000   1.000000
     31         -1.580451       -1.580451   1.000000   1.000000
     32         -1.570242       -1.570242   1.000000   1.000000
     33         -1.469359       -1.469359   1.000000   1.000000
     34         -1.443276       -1.443276   1.000000   1.000000
     35         -1.334512       -1.334512   1.000000   1.000000
     36         -1.272029       -1.272029   1.000000   1.000000
     37         -1.218519       -1.218519   1.000000   1.000000
     38         -1.207357       -1.207357   1.000000   1.000000
     39         -1.114814       -1.114814   1.000000   1.000000
     40         -1.083876       -1.083876   1.000000   1.000000
     41         -1.058965       -1.058965   1.000000   1.000000
     42         -1.026491       -1.026491   1.000000   1.000000
     43         -0.964903       -0.964903   1.000000   1.000000
     44         -0.952145       -0.952145   1.000000   1.000000
     45         -0.932163       -0.932163   1.000000   1.000000
     46         -0.809746       -0.809746   1.000000   1.000000
     47         -0.762127       -0.762127   1.000000   1.000000
     48         -0.723094       -0.723094   1.000000   1.000000
     49         -0.717330       -0.717330   1.000000   1.000000
     50         -0.708505       -0.708505   1.000000   1.000000
     51         -0.534499       -0.534499   1.000000   1.000000
     52         -0.533398       -0.533398   1.000000   1.000000
     53         -0.502588       -0.502588   1.000000   1.000000
     54         -0.499227       -0.499227   1.000000   1.000000
     55         -0.449368       -0.449368   1.000000   1.000000
     56         -0.397477       -0.397477   1.000000   1.000000
     57         -0.393641       -0.393641   1.000000   1.000000
     58         -0.352499       -0.352499   1.000000   1.000000
     59         -0.325407       -0.325407   1.000000   1.000000
     60         -0.321930       -0.321930   1.000000   1.000000
     61         -0.270146       -0.270146   1.000000   1.000000
     62         -0.267504       -0.267504   1.000000   1.000000
     63         -0.225679       -0.225679   1.000000   1.000000
     64         -0.204322       -0.204322   1.000000   1.000000
     65         -0.160634       -0.160634   1.000000   1.000000
     66         -0.145027       -0.145027   1.000000   1.000000
     67         -0.118905       -0.118905   1.000000   1.000000
     68         -0.113306       -0.113306   1.000000   1.000000
     69         -0.104941       -0.104941   1.000000   1.000000
     70         -0.087187       -0.087187   1.000000   1.000000
     71         -0.084674       -0.084674   1.000000   1.000000
     72         -0.084303       -0.084303   1.000000   1.000000
     73         -0.070420       -0.070419   1.000000   1.000000
     74         -0.006859       -0.006859   1.000000   1.000000
     75         -0.005801       -0.005801   1.000000   1.000000
     76          0.020231        0.020231   1.000000   1.000000
     77          0.051862        0.051862   1.000000   1.000000
     78          0.062904        0.062904   1.000000   1.000000
     79          0.109089        0.109089   1.000000   1.000000
     80          0.139876        0.139876   1.000000   1.000000
     81          0.248275        0.248275   1.000000   1.000000
     82          0.263700        0.263700   1.000000   1.000000
     83          0.274793        0.274793   1.000000   1.000000
     84          0.397046        0.397046   1.000000   1.000000
     85          0.414347        0.414347   1.000000   1.000000
     86          0.429763        0.429763   1.000000   1.000000
     87          0.899686        0.899686   1.000000   1.000000
     88          0.919180        0.919180   1.000000   1.000000
     89          1.673039        1.673039   1.031314   1.031314
     90          1.828144        1.828144   0.935833   0.935833
     91          2.602701        2.602701  -0.000023  -0.000023
     92          3.185587        3.185587  -0.000000  -0.000000
     93          3.757931        3.757931  -0.000000  -0.000000
     94          4.595145        4.595145  -0.000000  -0.000000
     95          5.149604        5.149604  -0.000000  -0.000000
     96          5.803831        5.803831  -0.000000  -0.000000
     97          5.960994        5.960994  -0.000000  -0.000000
     98          6.383274        6.383276  -0.000000  -0.000000
     99          6.639735        6.639735  -0.000000  -0.000000
    100          7.042633        7.042639  -0.000000  -0.000000
    101          7.569891        7.569910   0.000000   0.000000
    102          7.675707        7.675707   0.000000   0.000000
    103          8.271235        8.271243   0.000000   0.000000
    104          8.793213        8.793235   0.000000   0.000000
    105          8.914195        8.914196   0.000000   0.000000
    106          9.058064        9.058068   0.000000   0.000000
    107          9.557497        9.557497   0.000000   0.000000
    108          9.734871        9.734872   0.000000   0.000000
    109         10.050131       10.050136   0.000000   0.000000
    110         10.366595       10.366600   0.000000   0.000000
    111         10.416952       10.416953   0.000000   0.000000
    112         10.547706       10.547706   0.000000   0.000000
    113         10.581940       10.581943   0.000000   0.000000
    114         11.121167       11.121167   0.000000   0.000000
    115         11.127741       11.127751   0.000000   0.000000
    116         11.217261       11.217267   0.000000   0.000000
 
  0.3333333E+00  0.3333333E+00  0.0000000E+00  0.2222222E+00
      1         -4.983175       -4.983175   1.000000   1.000000
      2         -4.608224       -4.608224   1.000000   1.000000
      3         -4.122654       -4.122654   1.000000   1.000000
      4         -4.000523       -4.000523   1.000000   1.000000
      5         -3.458549       -3.458549   1.000000   1.000000
      6         -2.961853       -2.961853   1.000000   1.000000
      7         -2.865946       -2.865946   1.000000   1.000000
      8         -2.865192       -2.865192   1.000000   1.000000
      9         -2.817303       -2.817303   1.000000   1.000000
     10         -2.816134       -2.816134   1.000000   1.000000
     11         -2.774194       -2.774194   1.000000   1.000000
     12         -2.760686       -2.760686   1.000000   1.000000
     13         -2.574739       -2.574739   1.000000   1.000000
     14         -2.386958       -2.386958   1.000000   1.000000
     15         -2.367770       -2.367770   1.000000   1.000000
     16         -2.318116       -2.318116   1.000000   1.000000
     17         -2.220972       -2.220972   1.000000   1.000000
     18         -2.018981       -2.018981   1.000000   1.000000
     19         -1.849036       -1.849036   1.000000   1.000000
     20         -1.848876       -1.848876   1.000000   1.000000
     21         -1.820448       -1.820448   1.000000   1.000000
     22         -1.712468       -1.712468   1.000000   1.000000
     23         -1.700990       -1.700990   1.000000   1.000000
     24         -1.573954       -1.573954   1.000000   1.000000
     25         -1.573871       -1.573871   1.000000   1.000000
     26         -1.519792       -1.519792   1.000000   1.000000
     27         -1.516198       -1.516198   1.000000   1.000000
     28         -1.393519       -1.393519   1.000000   1.000000
     29         -1.391415       -1.391415   1.000000   1.000000
     30         -1.353216       -1.353216   1.000000   1.000000
     31         -1.344947       -1.344947   1.000000   1.000000
     32         -1.341617       -1.341617   1.000000   1.000000
     33         -1.237990       -1.237990   1.000000   1.000000
     34         -1.234292       -1.234292   1.000000   1.000000
     35         -1.197861       -1.197861   1.000000   1.000000
     36         -1.148316       -1.148316   1.000000   1.000000
     37         -1.138542       -1.138542   1.000000   1.000000
     38         -1.132377       -1.132377   1.000000   1.000000
     39         -1.127246       -1.127246   1.000000   1.000000
     40         -1.077798       -1.077798   1.000000   1.000000
     41         -1.021255       -1.021255   1.000000   1.000000
     42         -1.015371       -1.015371   1.000000   1.000000
     43         -1.013790       -1.013790   1.000000   1.000000
     44         -1.001133       -1.001133   1.000000   1.000000
     45         -1.000443       -1.000443   1.000000   1.000000
     46         -0.985189       -0.985189   1.000000   1.000000
     47         -0.931939       -0.931939   1.000000   1.000000
     48         -0.912095       -0.912095   1.000000   1.000000
     49         -0.903809       -0.903809   1.000000   1.000000
     50         -0.825354       -0.825354   1.000000   1.000000
     51         -0.814023       -0.814023   1.000000   1.000000
     52         -0.808091       -0.808091   1.000000   1.000000
     53         -0.792891       -0.792891   1.000000   1.000000
     54         -0.773363       -0.773363   1.000000   1.000000
     55         -0.760934       -0.760934   1.000000   1.000000
     56         -0.653700       -0.653700   1.000000   1.000000
     57         -0.653095       -0.653095   1.000000   1.000000
     58         -0.599709       -0.599709   1.000000   1.000000
     59         -0.568128       -0.568128   1.000000   1.000000
     60         -0.530786       -0.530786   1.000000   1.000000
     61         -0.507518       -0.507518   1.000000   1.000000
     62         -0.456182       -0.456182   1.000000   1.000000
     63         -0.452807       -0.452807   1.000000   1.000000
     64         -0.304302       -0.304302   1.000000   1.000000
     65         -0.194590       -0.194590   1.000000   1.000000
     66         -0.186128       -0.186128   1.000000   1.000000
     67         -0.153311       -0.153311   1.000000   1.000000
     68         -0.037594       -0.037594   1.000000   1.000000
     69         -0.025270       -0.025270   1.000000   1.000000
     70         -0.013352       -0.013352   1.000000   1.000000
     71          0.033746        0.033746   1.000000   1.000000
     72          0.054928        0.054928   1.000000   1.000000
     73          0.147047        0.147047   1.000000   1.000000
     74          0.151035        0.151035   1.000000   1.000000
     75          0.151420        0.151420   1.000000   1.000000
     76          0.167119        0.167119   1.000000   1.000000
     77          0.182647        0.182647   1.000000   1.000000
     78          0.190334        0.190334   1.000000   1.000000
     79          0.244475        0.244475   1.000000   1.000000
     80          0.269556        0.269556   1.000000   1.000000
     81          0.271414        0.271414   1.000000   1.000000
     82          0.286406        0.286406   1.000000   1.000000
     83          0.289936        0.289936   1.000000   1.000000
     84          0.318586        0.318586   1.000000   1.000000
     85          0.331248        0.331248   1.000000   1.000000
     86          1.044284        1.044284   1.000000   1.000000
     87          1.819947        1.819947   0.951868   0.951868
     88          1.821074        1.821074   0.949762   0.949762
     89          2.033652        2.033652   0.195638   0.195638
     90          2.033908        2.033908   0.194802   0.194802
     91          2.407623        2.407623  -0.003153  -0.003153
     92          2.412570        2.412570  -0.002861  -0.002861
     93          2.415906        2.415906  -0.002678  -0.002678
     94          2.832594        2.832594  -0.000000  -0.000000
     95          2.862697        2.862697  -0.000000  -0.000000
     96          3.926706        3.926706  -0.000000  -0.000000
     97          4.919289        4.919289  -0.000000  -0.000000
     98          5.335894        5.335894  -0.000000  -0.000000
     99          5.523876        5.523876  -0.000000  -0.000000
    100          5.881286        5.881286  -0.000000  -0.000000
    101          5.932862        5.932862  -0.000000  -0.000000
    102          6.808833        6.808833  -0.000000  -0.000000
    103          6.903528        6.903528  -0.000000  -0.000000
    104          6.999845        6.999845  -0.000000  -0.000000
    105          7.380919        7.380919  -0.000000  -0.000000
    106          7.683434        7.683436   0.000000   0.000000
    107          7.961312        7.961313   0.000000   0.000000
    108          8.306276        8.306276   0.000000   0.000000
    109          8.534098        8.534104   0.000000   0.000000
    110          8.850742        8.850760   0.000000   0.000000
    111          9.108215        9.108216   0.000000   0.000000
    112          9.370428        9.370428   0.000000   0.000000
    113          9.751132        9.751152   0.000000   0.000000
    114          9.905919        9.905920   0.000000   0.000000
    115         10.273460       10.273470   0.000000   0.000000
    116         10.576770       10.576773   0.000000   0.000000
 
 -0.3333333E+00  0.3333333E+00  0.0000000E+00  0.2222222E+00
      1         -4.983606       -4.983606   1.000000   1.000000
      2         -4.610805       -4.610805   1.000000   1.000000
      3         -4.138969       -4.138969   1.000000   1.000000
      4         -3.983218       -3.983218   1.000000   1.000000
      5         -3.453544       -3.453544   1.000000   1.000000
      6         -2.959386       -2.959386   1.000000   1.000000
      7         -2.865933       -2.865933   1.000000   1.000000
      8         -2.865215       -2.865215   1.000000   1.000000
      9         -2.817322       -2.817322   1.000000   1.000000
     10         -2.816115       -2.816115   1.000000   1.000000
     11         -2.774260       -2.774260   1.000000   1.000000
     12         -2.760689       -2.760689   1.000000   1.000000
     13         -2.573347       -2.573347   1.000000   1.000000
     14         -2.392290       -2.392290   1.000000   1.000000
     15         -2.367792       -2.367792   1.000000   1.000000
     16         -2.317822       -2.317822   1.000000   1.000000
     17         -2.220887       -2.220887   1.000000   1.000000
     18         -2.018910       -2.018910   1.000000   1.000000
     19         -1.849309       -1.849309   1.000000   1.000000
     20         -1.848878       -1.848878   1.000000   1.000000
     21         -1.820182       -1.820182   1.000000   1.000000
     22         -1.710407       -1.710407   1.000000   1.000000
     23         -1.701238       -1.701237   1.000000   1.000000
     24         -1.574190       -1.574190   1.000000   1.000000
     25         -1.573454       -1.573454   1.000000   1.000000
     26         -1.519379       -1.519379   1.000000   1.000000
     27         -1.516128       -1.516128   1.000000   1.000000
     28         -1.392752       -1.392752   1.000000   1.000000
     29         -1.391191       -1.391191   1.000000   1.000000
     30         -1.352492       -1.352492   1.000000   1.000000
     31         -1.344927       -1.344927   1.000000   1.000000
     32         -1.341512       -1.341512   1.000000   1.000000
     33         -1.238000       -1.238000   1.000000   1.000000
     34         -1.234356       -1.234356   1.000000   1.000000
     35         -1.197617       -1.197617   1.000000   1.000000
     36         -1.148440       -1.148440   1.000000   1.000000
     37         -1.138564       -1.138564   1.000000   1.000000
     38         -1.132421       -1.132421   1.000000   1.000000
     39         -1.128086       -1.128086   1.000000   1.000000
     40         -1.077891       -1.077891   1.000000   1.000000
     41         -1.021298       -1.021298   1.000000   1.000000
     42         -1.015669       -1.015669   1.000000   1.000000
     43         -1.013881       -1.013881   1.000000   1.000000
     44         -1.001069       -1.001069   1.000000   1.000000
     45         -1.000840       -1.000840   1.000000   1.000000
     46         -0.985152       -0.985152   1.000000   1.000000
     47         -0.932082       -0.932082   1.000000   1.000000
     48         -0.912614       -0.912614   1.000000   1.000000
     49         -0.903814       -0.903814   1.000000   1.000000
     50         -0.825435       -0.825435   1.000000   1.000000
     51         -0.813288       -0.813288   1.000000   1.000000
     52         -0.808083       -0.808083   1.000000   1.000000
     53         -0.792989       -0.792989   1.000000   1.000000
     54         -0.772385       -0.772385   1.000000   1.000000
     55         -0.760844       -0.760844   1.000000   1.000000
     56         -0.653398       -0.653398   1.000000   1.000000
     57         -0.652282       -0.652282   1.000000   1.000000
     58         -0.611906       -0.611906   1.000000   1.000000
     59         -0.571142       -0.571142   1.000000   1.000000
     60         -0.530914       -0.530914   1.000000   1.000000
     61         -0.507530       -0.507530   1.000000   1.000000
     62         -0.453086       -0.453086   1.000000   1.000000
     63         -0.452665       -0.452665   1.000000   1.000000
     64         -0.304266       -0.304266   1.000000   1.000000
     65         -0.191800       -0.191800   1.000000   1.000000
     66         -0.186804       -0.186804   1.000000   1.000000
     67         -0.153469       -0.153469   1.000000   1.000000
     68         -0.042729       -0.042729   1.000000   1.000000
     69         -0.025094       -0.025094   1.000000   1.000000
     70         -0.010739       -0.010739   1.000000   1.000000
     71          0.033400        0.033400   1.000000   1.000000
     72          0.057263        0.057263   1.000000   1.000000
     73          0.144983        0.144983   1.000000   1.000000
     74          0.151113        0.151113   1.000000   1.000000
     75          0.151177        0.151177   1.000000   1.000000
     76          0.167734        0.167734   1.000000   1.000000
     77          0.182701        0.182701   1.000000   1.000000
     78          0.189921        0.189921   1.000000   1.000000
     79          0.244118        0.244118   1.000000   1.000000
     80          0.268582        0.268582   1.000000   1.000000
     81          0.271411        0.271411   1.000000   1.000000
     82          0.286320        0.286320   1.000000   1.000000
     83          0.289928        0.289928   1.000000   1.000000
     84          0.318461        0.318462   1.000000   1.000000
     85          0.331112        0.331112   1.000000   1.000000
     86          1.047493        1.047493   1.000000   1.000000
     87          1.820160        1.820160   0.951472   0.951472
     88          1.821048        1.821048   0.949811   0.949811
     89          2.033611        2.033611   0.195770   0.195770
     90          2.034353        2.034353   0.193356   0.193356
     91          2.407911        2.407911  -0.003136  -0.003136
     92          2.412634        2.412634  -0.002858  -0.002858
     93          2.421284        2.421284  -0.002403  -0.002403
     94          2.833986        2.833986  -0.000000  -0.000000
     95          2.862682        2.862682  -0.000000  -0.000000
     96          3.933241        3.933241  -0.000000  -0.000000
     97          4.920667        4.920667  -0.000000  -0.000000
     98          5.375975        5.375975  -0.000000  -0.000000
     99          5.523702        5.523702  -0.000000  -0.000000
    100          5.898679        5.898679  -0.000000  -0.000000
    101          5.935211        5.935211  -0.000000  -0.000000
    102          6.855294        6.855294  -0.000000  -0.000000
    103          6.865697        6.865697  -0.000000  -0.000000
    104          6.995030        6.995030  -0.000000  -0.000000
    105          7.391044        7.391044  -0.000000  -0.000000
    106          7.445896        7.445898   0.000000   0.000000
    107          7.973449        7.973450   0.000000   0.000000
    108          8.296721        8.296721   0.000000   0.000000
    109          8.503798        8.503801   0.000000   0.000000
    110          8.793071        8.793093   0.000000   0.000000
    111          9.145210        9.145211   0.000000   0.000000
    112          9.627120        9.627138   0.000000   0.000000
    113          9.711449        9.711449   0.000000   0.000000