       N       E                     dE             d eps       ncg     rms          rms(c)
DAV:   1     0.166316192253E+04    0.16632E+04   -0.64637E+04  1856   0.188E+03
DAV:   2     0.198350495263E+03   -0.14648E+04   -0.14021E+04  1856   0.427E+02
DAV:   3    -0.531914827976E+02   -0.25154E+03   -0.22892E+03  1872   0.217E+02
DAV:   4    -0.688357079132E+02   -0.15644E+02   -0.15278E+02  2080   0.759E+01
DAV:   5    -0.691803115527E+02   -0.34460E+00   -0.34386E+00  2144   0.104E+01    0.366E+01
DAV:   6    -0.579343485587E+02    0.11246E+02   -0.16305E+02  2104   0.122E+02    0.187E+01
DAV:   7    -0.516163189059E+02    0.63180E+01   -0.38452E+01  2124   0.740E+01    0.953E+00
DAV:   8    -0.513655868715E+02    0.25073E+00   -0.12074E+01  2292   0.609E+01    0.104E+01
DAV:   9    -0.512689528539E+02    0.96634E-01   -0.11247E+01  2792   0.627E+01    0.102E+01
DAV:  10    -0.502332760515E+02    0.10357E+01   -0.67099E+00  2952   0.438E+01    0.801E+00
DAV:  11    -0.508155640004E+02   -0.58229E+00   -0.48988E+00  3008   0.395E+01    0.726E+00
DAV:  12    -0.526554628736E+02   -0.18399E+01   -0.22017E+00  2260   0.373E+01    0.635E+00
DAV:  13    -0.540049084675E+02   -0.13494E+01   -0.19009E+00  2508   0.278E+01    0.571E+00
DAV:  14    -0.546780273684E+02   -0.67312E+00   -0.68119E-01  2484   0.138E+01    0.463E+00
DAV:  15    -0.585125439110E+02   -0.38345E+01   -0.36129E+00  2292   0.296E+01    0.392E+00
DAV:  16    -0.604497087485E+02   -0.19372E+01   -0.27891E+00  2368   0.220E+01    0.261E+00
DAV:  17    -0.605634842182E+02   -0.11378E+00   -0.61660E-01  2608   0.120E+01    0.162E+00
DAV:  18    -0.607069929783E+02   -0.14351E+00   -0.30566E-01  2208   0.676E+00    0.102E+00
DAV:  19    -0.611261767495E+02   -0.41918E+00   -0.28747E-01  2152   0.497E+00    0.983E-01
DAV:  20    -0.614874089316E+02   -0.36123E+00   -0.16518E-01  2336   0.554E+00    0.924E-01
DAV:  21    -0.616888471648E+02   -0.20144E+00   -0.79185E-02  2504   0.422E+00    0.645E-01
DAV:  22    -0.619778588380E+02   -0.28901E+00   -0.10496E-01  2336   0.366E+00    0.658E-01
DAV:  23    -0.620930253097E+02   -0.11517E+00   -0.25873E-02  2448   0.214E+00    0.456E-01
DAV:  24    -0.624721398226E+02   -0.37911E+00   -0.83196E-02  2340   0.263E+00    0.391E-01
DAV:  25    -0.626681194680E+02   -0.19598E+00   -0.22085E-02  1968   0.108E+00    0.209E-01
DAV:  26    -0.627705749455E+02   -0.10246E+00   -0.72474E-03  2204   0.114E+00    0.141E-01
DAV:  27    -0.628149766824E+02   -0.44402E-01   -0.21322E-03  2104   0.553E-01    0.155E-01
DAV:  28    -0.628416469969E+02   -0.26670E-01   -0.20067E-03  2100   0.103E+00    0.999E-02
DAV:  29    -0.628467887364E+02   -0.51417E-02   -0.50060E-04  1552   0.426E-01    0.958E-02
DAV:  30    -0.628488082054E+02   -0.20195E-02   -0.36000E-04  1276   0.390E-01    0.329E-02
DAV:  31    -0.628491510147E+02   -0.34281E-03   -0.12980E-04  1296   0.124E-01    0.314E-02
DAV:  32    -0.628489849841E+02    0.16603E-03   -0.76159E-05  1276   0.751E-02
   1 F= -.69776187E+02 E0= -.69766061E+02  d E =-.697762E+02  mag=     0.0019
       N       E                     dE             d eps       ncg     rms          rms(c)
DAV:   1    -0.628299613432E+02    0.19190E-01   -0.92917E+00  2000   0.877E+00    0.678E-01
DAV:   2    -0.628522755779E+02   -0.22314E-01   -0.24289E-01  2716   0.438E+00    0.801E-01
DAV:   3    -0.628655173986E+02   -0.13242E-01   -0.10839E-01  2264   0.794E+00    0.108E+00
DAV:   4    -0.628458580094E+02    0.19659E-01   -0.62231E-02  2456   0.604E+00    0.412E-01
DAV:   5    -0.628461796134E+02   -0.32160E-03   -0.15784E-02  2552   0.398E+00    0.361E-01
DAV:   6    -0.628455235748E+02    0.65604E-03   -0.15762E-02  2824   0.419E+00    0.324E-01
DAV:   7    -0.628435463056E+02    0.19773E-02   -0.52520E-03  2856   0.228E+00    0.554E-02
DAV:   8    -0.628437044359E+02   -0.15813E-03   -0.14891E-03  2032   0.595E-01
   2 F= -.69790029E+02 E0= -.69779029E+02  d E =-.138412E-01  mag=     0.0016
       N       E                     dE             d eps       ncg     rms          rms(c)
DAV:   1    -0.628689291140E+02   -0.25383E-01   -0.19960E+00  2016   0.408E+00    0.282E-01
DAV:   2    -0.628769070620E+02   -0.79779E-02   -0.55755E-02  3096   0.278E+00    0.526E-01
DAV:   3    -0.628735011180E+02    0.34059E-02   -0.19387E-02  2880   0.315E+00    0.278E-01
DAV:   4    -0.628733879721E+02    0.11315E-03   -0.57401E-03  2144   0.209E+00    0.234E-01
DAV:   5    -0.628730621475E+02    0.32582E-03   -0.46014E-03  2280   0.233E+00    0.174E-01
DAV:   6    -0.628726682626E+02    0.39388E-03   -0.23560E-03  2096   0.173E+00    0.113E-01
DAV:   7    -0.628725356104E+02    0.13265E-03   -0.71285E-04  1720   0.703E-01
   3 F= -.69805850E+02 E0= -.69795245E+02  d E =-.296630E-01  mag=     0.0012
       N       E                     dE             d eps       ncg     rms          rms(c)
DAV:   1    -0.628819964317E+02   -0.93282E-02   -0.66821E+00  1988   0.757E+00    0.232E-01
DAV:   2    -0.629007305271E+02   -0.18734E-01   -0.13929E-01  2928   0.397E+00    0.675E-01
DAV:   3    -0.628954441975E+02    0.52863E-02   -0.41782E-02  2404   0.447E+00    0.352E-01
DAV:   4    -0.628939812526E+02    0.14629E-02   -0.67968E-03  2068   0.175E+00    0.176E-01
DAV:   5    -0.628939921641E+02   -0.10912E-04   -0.28637E-03  2040   0.807E-01    0.160E-01
DAV:   6    -0.628938070142E+02    0.18515E-03   -0.17109E-03  2268   0.792E-01
   4 F= -.69831686E+02 E0= -.69820040E+02  d E =-.258354E-01  mag=     0.0010
       N       E                     dE             d eps       ncg     rms          rms(c)
DAV:   1    -0.628277459472E+02    0.66246E-01   -0.40207E+01  1996   0.189E+01    0.670E-01
DAV:   2    -0.629709216060E+02   -0.14318E+00   -0.10085E+00  3088   0.127E+01    0.202E+00
DAV:   3    -0.629329878649E+02    0.37934E-01   -0.33549E-01  2696   0.130E+01    0.120E+00
DAV:   4    -0.629122358911E+02    0.20752E-01   -0.72224E-02  2604   0.693E+00    0.575E-01
DAV:   5    -0.629082967956E+02    0.39391E-02   -0.20712E-02  2648   0.330E+00    0.421E-01
DAV:   6    -0.629080213376E+02    0.27546E-03   -0.13014E-02  2136   0.214E+00    0.387E-01
DAV:   7    -0.629063638882E+02    0.16574E-02   -0.11449E-02  2264   0.180E+00    0.113E-01
DAV:   8    -0.629065878028E+02   -0.22391E-03   -0.44314E-03  2768   0.137E+00    0.140E-01
DAV:   9    -0.629063774720E+02    0.21033E-03   -0.13349E-03  2000   0.923E-01    0.643E-02
DAV:  10    -0.629063008068E+02    0.76665E-04   -0.33238E-04  1204   0.355E-01
   5 F= -.69855513E+02 E0= -.69843249E+02  d E =-.496625E-01  mag=     0.0007
       N       E                     dE             d eps       ncg     rms          rms(c)
DAV:   1    -0.629057244701E+02    0.65300E-03   -0.81632E+00  1924   0.865E+00    0.261E-01
DAV:   2    -0.629278355318E+02   -0.22111E-01   -0.18826E-01  2700   0.361E+00    0.637E-01
DAV:   3    -0.629235886025E+02    0.42469E-02   -0.32957E-02  2148   0.378E+00    0.342E-01
DAV:   4    -0.629227644775E+02    0.82413E-03   -0.58390E-03  2064   0.141E+00    0.235E-01
DAV:   5    -0.629227354813E+02    0.28996E-04   -0.29627E-03  2356   0.128E+00    0.235E-01
DAV:   6    -0.629232294542E+02   -0.49397E-03   -0.44062E-03  2332   0.224E+00    0.271E-01
DAV:   7    -0.629218907671E+02    0.13387E-02   -0.29206E-03  2736   0.177E+00    0.473E-02
DAV:   8    -0.629218864698E+02    0.42973E-05   -0.71194E-04  1392   0.496E-01
   6 F= -.69877538E+02 E0= -.69864990E+02  d E =-.220250E-01  mag=     0.0005
       N       E                     dE             d eps       ncg     rms          rms(c)
DAV:   1    -0.628882290950E+02    0.33662E-01   -0.18588E+01  1920   0.131E+01    0.416E-01
DAV:   2    -0.629378964230E+02   -0.49667E-01   -0.43733E-01  2768   0.544E+00    0.931E-01
DAV:   3    -0.629309960598E+02    0.69004E-02   -0.73957E-02  2240   0.586E+00    0.592E-01
DAV:   4    -0.629275241858E+02    0.34719E-02   -0.17018E-02  2424   0.276E+00    0.362E-01
DAV:   5    -0.629278893393E+02   -0.36515E-03   -0.76421E-03  2528   0.229E+00    0.386E-01
DAV:   6    -0.629271904277E+02    0.69891E-03   -0.90169E-03  2488   0.308E+00    0.343E-01
DAV:   7    -0.629253917479E+02    0.17987E-02   -0.71132E-03  3244   0.217E+00    0.858E-02
DAV:   8    -0.629254197149E+02   -0.27967E-04   -0.18834E-03  2280   0.762E-01
   7 F= -.69891392E+02 E0= -.69878207E+02  d E =-.358794E-01  mag=     0.0004
       N       E                     dE             d eps       ncg     rms          rms(c)
DAV:   1    -0.629296521178E+02   -0.42604E-02   -0.16360E+00  2024   0.386E+00    0.155E-01
DAV:   2    -0.629334325696E+02   -0.37805E-02   -0.36536E-02  2644   0.153E+00    0.235E-01
DAV:   3    -0.629335171351E+02   -0.84565E-04   -0.61567E-03  2224   0.179E+00    0.228E-01
DAV:   4    -0.629329456686E+02    0.57147E-03   -0.29766E-03  1928   0.132E+00    0.135E-01
DAV:   5    -0.629328244758E+02    0.12119E-03   -0.79315E-04  1440   0.950E-01
   8 F= -.69902406E+02 E0= -.69888652E+02  d E =-.110139E-01  mag=     0.0003
       N       E                     dE             d eps       ncg     rms          rms(c)
DAV:   1    -0.629260292580E+02    0.69164E-02   -0.40838E+00  1984   0.613E+00    0.254E-01
DAV:   2    -0.629367628870E+02   -0.10734E-01   -0.94916E-02  2832   0.276E+00    0.454E-01
DAV:   3    -0.629350312838E+02    0.17316E-02   -0.21657E-02  2424   0.319E+00    0.352E-01
DAV:   4    -0.629340252014E+02    0.10061E-02   -0.47848E-03  2208   0.186E+00    0.225E-01
DAV:   5    -0.629336766700E+02    0.34853E-03   -0.28027E-03  2216   0.151E+00    0.174E-01
DAV:   6    -0.629335675848E+02    0.10909E-03   -0.28442E-03  2256   0.137E+00    0.142E-01
DAV:   7    -0.629333084764E+02    0.25911E-03   -0.15370E-03  2104   0.112E+00    0.456E-02
DAV:   8    -0.629333099163E+02   -0.14399E-05   -0.40450E-04  1292   0.342E-01
   9 F= -.69909086E+02 E0= -.69895672E+02  d E =-.176941E-01  mag=     0.0003
       N       E                     dE             d eps       ncg     rms          rms(c)
DAV:   1    -0.629367477852E+02   -0.34393E-02   -0.72274E-01  1888   0.260E+00    0.795E-02
DAV:   2    -0.629386446634E+02   -0.18969E-02   -0.16952E-02  2864   0.129E+00    0.167E-01
DAV:   3    -0.629384536805E+02    0.19098E-03   -0.21521E-03  2032   0.110E+00    0.129E-01
DAV:   4    -0.629382925731E+02    0.16111E-03   -0.87518E-04  1352   0.639E-01
  10 F= -.69915652E+02 E0= -.69902480E+02  d E =-.656570E-02  mag=     0.0002
       N       E                     dE             d eps       ncg     rms          rms(c)
DAV:   1    -0.629376875623E+02    0.76612E-03   -0.65210E+00  1892   0.779E+00    0.288E-01
DAV:   2    -0.629556891455E+02   -0.18002E-01   -0.15513E-01  2796   0.371E+00    0.632E-01
DAV:   3    -0.629514066489E+02    0.42825E-02   -0.25304E-02  2696   0.335E+00    0.348E-01
DAV:   4    -0.629506409425E+02    0.76571E-03   -0.49677E-03  2176   0.142E+00    0.272E-01
DAV:   5    -0.629505368999E+02    0.10404E-03   -0.27833E-03  2184   0.144E+00    0.260E-01
DAV:   6    -0.629497586915E+02    0.77821E-03   -0.39306E-03  2728   0.134E+00    0.174E-01
DAV:   7    -0.629494885598E+02    0.27013E-03   -0.22109E-03  2108   0.116E+00    0.737E-02
DAV:   8    -0.629494485735E+02    0.39986E-04   -0.30919E-04  1184   0.319E-01
  11 F= -.69931708E+02 E0= -.69918945E+02  d E =-.226215E-01  mag=     0.0002
       N       E                     dE             d eps       ncg     rms          rms(c)
DAV:   1    -0.629030913157E+02    0.46397E-01   -0.26127E+01  1888   0.158E+01    0.508E-01
DAV:   2    -0.629928776091E+02   -0.89786E-01   -0.68316E-01  2944   0.922E+00    0.147E+00
DAV:   3    -0.629678195129E+02    0.25058E-01   -0.13486E-01  3232   0.792E+00    0.759E-01
DAV:   4    -0.629614662304E+02    0.63533E-02   -0.24345E-02  2384   0.354E+00    0.519E-01
DAV:   5    -0.629608743229E+02    0.59191E-03   -0.92708E-03  2224   0.189E+00    0.471E-01
DAV:   6    -0.629589271690E+02    0.19472E-02   -0.10408E-02  2400   0.197E+00    0.366E-01
DAV:   7    -0.629576055169E+02    0.13217E-02   -0.11366E-02  2248   0.248E+00    0.163E-01
DAV:   8    -0.629571212346E+02    0.48428E-03   -0.31399E-03  2896   0.102E+00    0.729E-02
DAV:   9    -0.629571158343E+02    0.54003E-05   -0.61049E-04  1632   0.490E-01
  12 F= -.69949926E+02 E0= -.69938209E+02  d E =-.408397E-01  mag=     0.0001
       N       E                     dE             d eps       ncg     rms          rms(c)
DAV:   1    -0.629434168134E+02    0.13704E-01   -0.55136E+00  1896   0.714E+00    0.231E-01
DAV:   2    -0.629573660778E+02   -0.13949E-01   -0.12814E-01  2768   0.310E+00    0.467E-01
DAV:   3    -0.629560469836E+02    0.13191E-02   -0.17020E-02  2584   0.286E+00    0.332E-01
DAV:   4    -0.629549734586E+02    0.10735E-02   -0.52079E-03  2144   0.160E+00    0.229E-01
DAV:   5    -0.629548410677E+02    0.13239E-03   -0.15958E-03  2088   0.952E-01
  13 F= -.69952860E+02 E0= -.69941018E+02  d E =-.437738E-01  mag=     0.0001
       N       E                     dE             d eps       ncg     rms          rms(c)
DAV:   1    -0.629552473388E+02   -0.27388E-03   -0.49666E+00  1896   0.688E+00    0.310E-01
DAV:   2    -0.629845283551E+02   -0.29281E-01   -0.14340E-01  3288   0.637E+00    0.106E+00
DAV:   3    -0.629656205769E+02    0.18908E-01   -0.69832E-02  3408   0.591E+00    0.380E-01
DAV:   4    -0.629639900844E+02    0.16305E-02   -0.91005E-03  2560   0.208E+00    0.225E-01
DAV:   5    -0.629640597332E+02   -0.69649E-04   -0.39831E-03  2384   0.161E+00    0.208E-01
DAV:   6    -0.629637599162E+02    0.29982E-03   -0.37671E-03  2320   0.189E+00    0.143E-01
DAV:   7    -0.629634596750E+02    0.30024E-03   -0.18443E-03  2312   0.121E+00    0.628E-02
DAV:   8    -0.629634550944E+02    0.45807E-05   -0.54276E-04  1420   0.434E-01
  14 F= -.69964697E+02 E0= -.69954017E+02  d E =-.118363E-01  mag=     0.0001
       N       E                     dE             d eps       ncg     rms          rms(c)
DAV:   1    -0.629325777094E+02    0.30882E-01   -0.19963E+01  1884   0.136E+01    0.527E-01
DAV:   2    -0.630099693892E+02   -0.77392E-01   -0.50649E-01  3072   0.921E+00    0.153E+00
DAV:   3    -0.629759589016E+02    0.34010E-01   -0.13784E-01  3360   0.817E+00    0.617E-01
DAV:   4    -0.629724803021E+02    0.34786E-02   -0.26247E-02  2528   0.384E+00    0.485E-01
DAV:   5    -0.629707578040E+02    0.17225E-02   -0.10704E-02  2304   0.280E+00    0.360E-01
DAV:   6    -0.629699510959E+02    0.80671E-03   -0.10477E-02  2256   0.262E+00    0.304E-01
DAV:   7    -0.629689535515E+02    0.99754E-03   -0.70903E-03  2432   0.237E+00    0.125E-01
DAV:   8    -0.629688918841E+02    0.61667E-04   -0.22309E-03  2772   0.887E-01    0.565E-02
DAV:   9    -0.629688646088E+02    0.27275E-04   -0.50537E-04  1360   0.465E-01
  15 F= -.69977130E+02 E0= -.69968002E+02  d E =-.242702E-01  mag=     0.0000
       N       E                     dE             d eps       ncg     rms          rms(c)
DAV:   1    -0.629597525217E+02    0.91394E-02   -0.43136E+00  1952   0.618E+00    0.357E-01
DAV:   2    -0.629750293493E+02   -0.15277E-01   -0.10597E-01  3136   0.408E+00    0.714E-01
DAV:   3    -0.629679162666E+02    0.71131E-02   -0.39076E-02  3008   0.439E+00    0.347E-01
DAV:   4    -0.629675835878E+02    0.33268E-03   -0.11121E-02  2256   0.271E+00    0.295E-01
DAV:   5    -0.629665096240E+02    0.10740E-02   -0.68602E-03  2224   0.276E+00    0.186E-01
DAV:   6    -0.629662690415E+02    0.24058E-03   -0.35038E-03  2368   0.176E+00    0.134E-01
DAV:   7    -0.629660718194E+02    0.19722E-03   -0.16787E-03  2080   0.108E+00
  16 F= -.69977664E+02 E0= -.69968738E+02  d E =-.533263E-03  mag=     0.0000
       N       E                     dE             d eps       ncg     rms          rms(c)
DAV:   1    -0.629704538008E+02   -0.41848E-02   -0.91984E-01  1944   0.285E+00    0.157E-01
DAV:   2    -0.629727003501E+02   -0.22465E-02   -0.20760E-02  2992   0.154E+00    0.242E-01
DAV:   3    -0.629723809365E+02    0.31941E-03   -0.61775E-03  2352   0.183E+00    0.197E-01
DAV:   4    -0.629720558203E+02    0.32512E-03   -0.28848E-03  1984   0.140E+00    0.140E-01
DAV:   5    -0.629717514066E+02    0.30441E-03   -0.11393E-03  1528   0.105E+00    0.695E-02
DAV:   6    -0.629717253931E+02    0.26014E-04   -0.59282E-04  1464   0.684E-01
  17 F= -.69981476E+02 E0= -.69972437E+02  d E =-.434600E-02  mag=     0.0000
       N       E                     dE             d eps       ncg     rms          rms(c)
DAV:   1    -0.629726759758E+02   -0.92457E-03   -0.17013E+00  1888   0.399E+00    0.148E-01
DAV:   2    -0.629804894952E+02   -0.78135E-02   -0.43355E-02  3264   0.289E+00    0.508E-01
DAV:   3    -0.629758011520E+02    0.46883E-02   -0.14880E-02  3024   0.266E+00    0.152E-01
DAV:   4    -0.629757842587E+02    0.16893E-04   -0.18495E-03  1976   0.655E-01
  18 F= -.69985263E+02 E0= -.69976171E+02  d E =-.378660E-02  mag=     0.0000
       N       E                     dE             d eps       ncg     rms          rms(c)
DAV:   1    -0.629506731211E+02    0.25128E-01   -0.15330E+01  1872   0.121E+01    0.494E-01
DAV:   2    -0.630126428098E+02   -0.61970E-01   -0.39134E-01  3232   0.818E+00    0.139E+00
DAV:   3    -0.629812231427E+02    0.31420E-01   -0.11248E-01  3312   0.719E+00    0.522E-01
DAV:   4    -0.629801386768E+02    0.10845E-02   -0.19084E-02  2400   0.299E+00    0.450E-01
DAV:   5    -0.629790008324E+02    0.11378E-02   -0.10583E-02  2176   0.282E+00    0.341E-01
DAV:   6    -0.629783196458E+02    0.68119E-03   -0.94796E-03  2448   0.267E+00    0.301E-01
DAV:   7    -0.629772215831E+02    0.10981E-02   -0.57217E-03  2440   0.215E+00    0.614E-02
DAV:   8    -0.629773265817E+02   -0.10500E-03   -0.18263E-03  2264   0.596E-01
  19 F= -.69986186E+02 E0= -.69977293E+02  d E =-.470988E-02  mag=     0.0000
       N       E                     dE             d eps       ncg     rms          rms(c)
DAV:   1    -0.629750433566E+02    0.21782E-02   -0.19665E+00  1872   0.432E+00    0.152E-01
DAV:   2    -0.629811066595E+02   -0.60633E-02   -0.46031E-02  3064   0.218E+00    0.386E-01
DAV:   3    -0.629788317953E+02    0.22749E-02   -0.98394E-03  2528   0.213E+00    0.170E-01
DAV:   4    -0.629787405841E+02    0.91211E-04   -0.17448E-03  1896   0.602E-01
  20 F= -.69987794E+02 E0= -.69978944E+02  d E =-.631723E-02  mag=     0.0000
       N       E                     dE             d eps       ncg     rms          rms(c)
DAV:   1    -0.629816217337E+02   -0.27899E-02   -0.13745E+00  1872   0.362E+00    0.181E-01
DAV:   2    -0.629987175016E+02   -0.17096E-01   -0.60187E-02  3392   0.532E+00    0.807E-01
DAV:   3    -0.629859096036E+02    0.12808E-01   -0.43307E-02  3504   0.473E+00    0.280E-01
DAV:   4    -0.629844209830E+02    0.14886E-02   -0.57276E-03  2824   0.207E+00    0.132E-01
DAV:   5    -0.629843729762E+02    0.48007E-04   -0.16197E-03  2192   0.721E-01
  21 F= -.69991450E+02 E0= -.69982629E+02  d E =-.365606E-02  mag=     0.0000
       N       E                     dE             d eps       ncg     rms          rms(c)
DAV:   1    -0.629846449020E+02   -0.22392E-03   -0.19581E-01  2160   0.162E+00    0.112E-01
DAV:   2    -0.629903541196E+02   -0.57092E-02   -0.19588E-02  2816   0.325E+00    0.497E-01
DAV:   3    -0.629848916430E+02    0.54625E-02   -0.13331E-02  2192   0.273E+00    0.120E-01
DAV:   4    -0.629847813805E+02    0.11026E-03   -0.65427E-04  1476   0.911E-01
  22 F= -.69991184E+02 E0= -.69981801E+02  d E =-.339058E-02  mag=     0.0000
       N       E                     dE             d eps       ncg     rms          rms(c)
DAV:   1    -0.629846579260E+02    0.23372E-03   -0.56385E-02  2632   0.113E+00    0.767E-02
DAV:   2    -0.629867327766E+02   -0.20749E-02   -0.47739E-03  2304   0.252E+00    0.308E-01
DAV:   3    -0.629856007633E+02    0.11320E-02   -0.66027E-03  1808   0.232E+00    0.213E-01
DAV:   4    -0.629846182636E+02    0.98250E-03   -0.22646E-03  1264   0.120E+00    0.384E-02
DAV:   5    -0.629846205420E+02   -0.22784E-05   -0.16622E-04  1144   0.243E-01
  23 F= -.69991377E+02 E0= -.69982334E+02  d E =-.358334E-02  mag=     0.0000
       N       E                     dE             d eps       ncg     rms          rms(c)
DAV:   1    -0.629882567280E+02   -0.36385E-02   -0.14197E+00  1896   0.355E+00    0.132E-01
DAV:   2    -0.629952198734E+02   -0.69631E-02   -0.36905E-02  3232   0.284E+00    0.480E-01
DAV:   3    -0.629909787294E+02    0.42411E-02   -0.13708E-02  3056   0.257E+00    0.145E-01
DAV:   4    -0.629909342429E+02    0.44486E-04   -0.14737E-03  2032   0.813E-01
  24 F= -.69995734E+02 E0= -.69986222E+02  d E =-.435742E-02  mag=     0.0000
       N       E                     dE             d eps       ncg     rms          rms(c)
DAV:   1    -0.629808448980E+02    0.10134E-01   -0.99974E+00  1896   0.951E+00    0.408E-01
DAV:   2    -0.630235992528E+02   -0.42754E-01   -0.25940E-01  3168   0.677E+00    0.116E+00
DAV:   3    -0.629998013312E+02    0.23798E-01   -0.81542E-02  3120   0.609E+00    0.408E-01
DAV:   4    -0.629990863806E+02    0.71495E-03   -0.96196E-03  2264   0.195E+00    0.313E-01
DAV:   5    -0.629996419610E+02   -0.55558E-03   -0.88442E-03  2192   0.278E+00    0.331E-01
DAV:   6    -0.629985215072E+02    0.11205E-02   -0.83613E-03  2288   0.304E+00    0.228E-01
DAV:   7    -0.629977511383E+02    0.77037E-03   -0.34083E-03  3048   0.157E+00    0.365E-02
DAV:   8    -0.629978097575E+02   -0.58619E-04   -0.91391E-04  1832   0.389E-01
  25 F= -.69997562E+02 E0= -.69987800E+02  d E =-.618487E-02  mag=     0.0000
       N       E                     dE             d eps       ncg     rms          rms(c)
DAV:   1    -0.629952312110E+02    0.25199E-02   -0.10634E+00  1896   0.309E+00    0.112E-01
DAV:   2    -0.629981979334E+02   -0.29667E-02   -0.23496E-02  2936   0.158E+00    0.268E-01
DAV:   3    -0.629972610306E+02    0.93690E-03   -0.50559E-03  2320   0.157E+00    0.133E-01
DAV:   4    -0.629971624668E+02    0.98564E-04   -0.96586E-04  1752   0.667E-01
  26 F= -.69998542E+02 E0= -.69989158E+02  d E =-.716533E-02  mag=     0.0000
       N       E                     dE             d eps       ncg     rms          rms(c)
DAV:   1    -0.629967867331E+02    0.47430E-03   -0.60398E-02  2544   0.952E-01    0.106E-01
DAV:   2    -0.629976333123E+02   -0.84658E-03   -0.27699E-03  2208   0.180E+00    0.211E-01
DAV:   3    -0.629970382972E+02    0.59502E-03   -0.31524E-03  1616   0.175E+00    0.151E-01
DAV:   4    -0.629967606049E+02    0.27769E-03   -0.20060E-03  1232   0.111E+00    0.960E-02
DAV:   5    -0.629965958759E+02    0.16473E-03   -0.41463E-04  1280   0.485E-01
  27 F= -.69998362E+02 E0= -.69988909E+02  d E =-.698472E-02  mag=     0.0000
       N       E                     dE             d eps       ncg     rms          rms(c)
DAV:   1    -0.629968161123E+02   -0.55507E-04   -0.14846E-02  2024   0.414E-01    0.224E-02
DAV:   2    -0.629968281994E+02   -0.12087E-04   -0.19694E-04  1296   0.241E-01
  28 F= -.69998402E+02 E0= -.69988931E+02  d E =-.702511E-02  mag=     0.0000
       N       E                     dE             d eps       ncg     rms          rms(c)
DAV:   1    -0.630000152722E+02   -0.31992E-02   -0.34748E-01  1944   0.182E+00    0.774E-02
DAV:   2    -0.630019026230E+02   -0.18874E-02   -0.92181E-03  3344   0.149E+00    0.259E-01
DAV:   3    -0.630005993893E+02    0.13032E-02   -0.44195E-03  2000   0.152E+00    0.828E-02
DAV:   4    -0.630005932363E+02    0.61529E-05   -0.56588E-04  1464   0.521E-01
  29 F= -.70000328E+02 E0= -.69990568E+02  d E =-.192610E-02  mag=     0.0000
       N       E                     dE             d eps       ncg     rms          rms(c)
DAV:   1    -0.630012893076E+02   -0.68992E-03   -0.24901E+00  1944   0.483E+00    0.201E-01
DAV:   2    -0.630067762043E+02   -0.54869E-02   -0.52147E-02  2936   0.189E+00    0.322E-01
DAV:   3    -0.630060155723E+02    0.76063E-03   -0.96624E-03  2192   0.213E+00    0.226E-01
DAV:   4    -0.630054705919E+02    0.54498E-03   -0.19461E-03  1928   0.936E-01    0.136E-01
DAV:   5    -0.630055807634E+02   -0.11017E-03   -0.16357E-03  2072   0.118E+00
  30 F= -.70000677E+02 E0= -.69991774E+02  d E =-.227504E-02  mag=     0.0000
       N       E                     dE             d eps       ncg     rms          rms(c)
DAV:   1    -0.630042649656E+02    0.12056E-02   -0.43983E-01  2656   0.248E+00    0.140E-01
DAV:   2    -0.630102684224E+02   -0.60035E-02   -0.16331E-02  2384   0.407E+00    0.505E-01
DAV:   3    -0.630068534054E+02    0.34150E-02   -0.22588E-02  2304   0.383E+00    0.360E-01
DAV:   4    -0.630042455051E+02    0.26079E-02   -0.71372E-03  2176   0.209E+00    0.848E-02
DAV:   5    -0.630042293367E+02    0.16168E-04   -0.83128E-04  1752   0.502E-01
  31 F= -.70001201E+02 E0= -.69991747E+02  d E =-.279907E-02  mag=     0.0000
       N       E                     dE             d eps       ncg     rms          rms(c)
DAV:   1    -0.630060752311E+02   -0.18297E-02   -0.79818E-02  1872   0.921E-01    0.353E-02
DAV:   2    -0.630068195253E+02   -0.74429E-03   -0.24703E-03  1744   0.116E+00    0.181E-01
DAV:   3    -0.630062034905E+02    0.61603E-03   -0.20236E-03  1280   0.110E+00    0.652E-02
DAV:   4    -0.630061570023E+02    0.46488E-04   -0.40770E-04  1256   0.463E-01
  32 F= -.70001998E+02 E0= -.69992480E+02  d E =-.796587E-03  mag=     0.0000
       N       E                     dE             d eps       ncg     rms          rms(c)
DAV:   1    -0.630091767305E+02   -0.29732E-02   -0.27876E-01  1872   0.162E+00    0.595E-02
DAV:   2    -0.630099539874E+02   -0.77726E-03   -0.59771E-03  3056   0.897E-01    0.144E-01
DAV:   3    -0.630096667241E+02    0.28726E-03   -0.12311E-03  1328   0.827E-01    0.724E-02
DAV:   4    -0.630096424810E+02    0.24243E-04   -0.26924E-04  1096   0.331E-01
  33 F= -.70003396E+02 E0= -.69993905E+02  d E =-.219483E-02  mag=     0.0000
       N       E                     dE             d eps       ncg     rms          rms(c)
DAV:   1    -0.630135785650E+02   -0.39118E-02   -0.10970E+00  1872   0.320E+00    0.120E-01
DAV:   2    -0.630158428858E+02   -0.22643E-02   -0.21812E-02  2704   0.114E+00    0.197E-01
DAV:   3    -0.630155496286E+02    0.29326E-03   -0.33074E-03  2048   0.120E+00    0.135E-01
DAV:   4    -0.630154337141E+02    0.11591E-03   -0.70793E-04  1416   0.556E-01
  34 F= -.70005055E+02 E0= -.69995909E+02  d E =-.385351E-02  mag=     0.0000
       N       E                     dE             d eps       ncg     rms          rms(c)
DAV:   1    -0.630150241264E+02    0.52550E-03   -0.43910E+00  1896   0.646E+00    0.248E-01
DAV:   2    -0.630293353272E+02   -0.14311E-01   -0.98224E-02  3256   0.456E+00    0.585E-01
DAV:   3    -0.630252110509E+02    0.41243E-02   -0.36565E-02  3088   0.431E+00    0.422E-01
DAV:   4    -0.630226866528E+02    0.25244E-02   -0.99203E-03  2272   0.240E+00    0.222E-01
DAV:   5    -0.630224780608E+02    0.20859E-03   -0.34413E-03  1968   0.760E-01    0.159E-01
DAV:   6    -0.630223439713E+02    0.13409E-03   -0.17094E-03  2232   0.673E-01
  35 F= -.70003853E+02 E0= -.69995092E+02  d E =-.265141E-02  mag=     0.0000
       N       E                     dE             d eps       ncg     rms          rms(c)
DAV:   1    -0.630154058215E+02    0.70722E-02   -0.18045E+00  1888   0.416E+00    0.134E-01
DAV:   2    -0.630197715799E+02   -0.43658E-02   -0.37905E-02  2992   0.197E+00    0.284E-01
DAV:   3    -0.630191973141E+02    0.57427E-03   -0.78489E-03  2816   0.200E+00    0.212E-01
DAV:   4    -0.630186822114E+02    0.51510E-03   -0.21215E-03  1912   0.111E+00    0.123E-01
DAV:   5    -0.630186123435E+02    0.69868E-04   -0.58281E-04  1568   0.569E-01
  36 F= -.70005296E+02 E0= -.69995748E+02  d E =-.409493E-02  mag=     0.0000
       N       E                     dE             d eps       ncg     rms          rms(c)
DAV:   1    -0.630175521610E+02    0.11301E-02   -0.70548E-02  2632   0.109E+00    0.101E-01
DAV:   2    -0.630180343456E+02   -0.48218E-03   -0.26909E-03  2136   0.169E+00    0.190E-01
DAV:   3    -0.630188232338E+02   -0.78889E-03   -0.58854E-03  1808   0.202E+00    0.267E-01
DAV:   4    -0.630174161081E+02    0.14071E-02   -0.29712E-03  1256   0.138E+00    0.345E-02
DAV:   5    -0.630174921660E+02   -0.76058E-04   -0.30764E-04  1160   0.494E-01
  37 F= -.70005199E+02 E0= -.69995551E+02  d E =-.399753E-02  mag=     0.0000
       N       E                     dE             d eps       ncg     rms          rms(c)
DAV:   1    -0.630190387124E+02   -0.16226E-02   -0.47384E-02  2504   0.784E-01    0.303E-02
DAV:   2    -0.630192166734E+02   -0.17796E-03   -0.70351E-04  1472   0.629E-01
  38 F= -.70006031E+02 E0= -.69996771E+02  d E =-.831768E-03  mag=     0.0000
       N       E                     dE             d eps       ncg     rms          rms(c)
DAV:   1    -0.630220137218E+02   -0.29750E-02   -0.33025E-01  2008   0.189E+00    0.789E-02
DAV:   2    -0.630290194125E+02   -0.70057E-02   -0.19550E-02  3520   0.306E+00    0.551E-01
DAV:   3    -0.630224999671E+02    0.65194E-02   -0.13504E-02  2592   0.280E+00    0.683E-02
DAV:   4    -0.630226200397E+02   -0.12007E-03   -0.12946E-03  2000   0.489E-01
  39 F= -.70007101E+02 E0= -.69997738E+02  d E =-.190237E-02  mag=     0.0000
       N       E                     dE             d eps       ncg     rms          rms(c)
DAV:   1    -0.630239410567E+02   -0.14411E-02   -0.13134E+00  1936   0.351E+00    0.133E-01
DAV:   2    -0.630268901798E+02   -0.29491E-02   -0.26352E-02  3080   0.153E+00    0.244E-01
DAV:   3    -0.630265436689E+02    0.34651E-03   -0.56592E-03  2288   0.168E+00    0.172E-01
DAV:   4    -0.630262696550E+02    0.27401E-03   -0.18660E-03  1944   0.105E+00    0.118E-01
DAV:   5    -0.630261685503E+02    0.10110E-03   -0.67375E-04  1504   0.742E-01
  40 F= -.70006094E+02 E0= -.69996803E+02  d E =-.895564E-03  mag=     0.0000
       N       E                     dE             d eps       ncg     rms          rms(c)
DAV:   1    -0.630232297006E+02    0.30400E-02   -0.62224E-01  2088   0.259E+00    0.988E-02
DAV:   2    -0.630249307967E+02   -0.17011E-02   -0.12910E-02  3096   0.196E+00    0.198E-01
DAV:   3    -0.630244961213E+02    0.43468E-03   -0.31028E-03  2088   0.171E+00    0.140E-01
DAV:   4    -0.630243649000E+02    0.13122E-03   -0.20466E-03  1600   0.104E+00    0.108E-01
DAV:   5    -0.630242208799E+02    0.14402E-03   -0.59151E-04  1232   0.578E-01
  41 F= -.70007262E+02 E0= -.69998123E+02  d E =-.206350E-02  mag=     0.0000
       N       E                     dE             d eps       ncg     rms          rms(c)
DAV:   1    -0.630253792030E+02   -0.10143E-02   -0.36992E-02  2016   0.618E-01    0.349E-02
DAV:   2    -0.630254345340E+02   -0.55331E-04   -0.38285E-04  1376   0.449E-01
  42 F= -.70007742E+02 E0= -.69998420E+02  d E =-.479463E-03  mag=     0.0000
       N       E                     dE             d eps       ncg     rms          rms(c)
DAV:   1    -0.630271520793E+02   -0.17729E-02   -0.10227E-01  2176   0.109E+00    0.363E-02
DAV:   2    -0.630276649802E+02   -0.51290E-03   -0.20330E-03  2064   0.919E-01    0.144E-01
DAV:   3    -0.630273393772E+02    0.32560E-03   -0.16414E-03  1520   0.935E-01    0.623E-02
DAV:   4    -0.630272986914E+02    0.40686E-04   -0.32209E-04  1144   0.419E-01
  43 F= -.70008405E+02 E0= -.69999496E+02  d E =-.114323E-02  mag=     0.0000
       N       E                     dE             d eps       ncg     rms          rms(c)
DAV:   1    -0.630297970304E+02   -0.24577E-02   -0.39950E-01  1992   0.193E+00    0.607E-02
DAV:   2    -0.630306365826E+02   -0.83955E-03   -0.77901E-03  2824   0.778E-01    0.120E-01
DAV:   3    -0.630305607326E+02    0.75850E-04   -0.12030E-03  1728   0.773E-01
  44 F= -.70009283E+02 E0= -.70000324E+02  d E =-.202097E-02  mag=     0.0000
       N       E                     dE             d eps       ncg     rms          rms(c)
DAV:   1    -0.630315692206E+02   -0.93264E-03   -0.75636E-02  2288   0.939E-01    0.673E-02
DAV:   2    -0.630318026437E+02   -0.23342E-03   -0.15240E-03  2064   0.659E-01    0.114E-01
DAV:   3    -0.630316328068E+02    0.16984E-03   -0.11147E-03  1240   0.802E-01
  45 F= -.70009335E+02 E0= -.70000492E+02  d E =-.207283E-02  mag=     0.0000
       N       E                     dE             d eps       ncg     rms          rms(c)
DAV:   1    -0.630325507826E+02   -0.74814E-03   -0.23981E-02  2688   0.669E-01    0.577E-02
DAV:   2    -0.630331795565E+02   -0.62877E-03   -0.19698E-03  1872   0.148E+00    0.179E-01
DAV:   3    -0.630329940956E+02    0.18546E-03   -0.34443E-03  1392   0.149E+00    0.165E-01
DAV:   4    -0.630325119531E+02    0.48214E-03   -0.11032E-03  1152   0.900E-01    0.360E-02
DAV:   5    -0.630324961893E+02    0.15764E-04   -0.92216E-05  1080   0.259E-01
  46 F= -.70009651E+02 E0= -.70000811E+02  d E =-.315764E-03  mag=     0.0000
       N       E                     dE             d eps       ncg     rms          rms(c)
DAV:   1    -0.630346305333E+02   -0.21186E-02   -0.21091E-01  2016   0.138E+00    0.394E-02
DAV:   2    -0.630350084164E+02   -0.37788E-03   -0.39315E-03  2680   0.463E-01    0.547E-02
DAV:   3    -0.630349987058E+02    0.97105E-05   -0.29153E-04  1296   0.381E-01
  47 F= -.70010522E+02 E0= -.70001695E+02  d E =-.118684E-02  mag=     0.0000
       N       E                     dE             d eps       ncg     rms          rms(c)
DAV:   1    -0.630372158344E+02   -0.22074E-02   -0.84634E-01  2016   0.278E+00    0.970E-02
DAV:   2    -0.630413197051E+02   -0.41039E-02   -0.19850E-02  3360   0.219E+00    0.371E-01
DAV:   3    -0.630385268997E+02    0.27928E-02   -0.89139E-03  3000   0.210E+00    0.106E-01
DAV:   4    -0.630385569806E+02   -0.30081E-04   -0.10802E-03  1816   0.559E-01
  48 F= -.70010873E+02 E0= -.70002052E+02  d E =-.153817E-02  mag=     0.0000
       N       E                     dE             d eps       ncg     rms          rms(c)
DAV:   1    -0.630393802290E+02   -0.85333E-03   -0.17295E-02  2800   0.714E-01    0.744E-02
DAV:   2    -0.630401815122E+02   -0.80128E-03   -0.20090E-03  1632   0.143E+00    0.206E-01
DAV:   3    -0.630396847402E+02    0.49677E-03   -0.35162E-03  1368   0.150E+00    0.143E-01
DAV:   4    -0.630393321002E+02    0.35264E-03   -0.10426E-03  1176   0.897E-01    0.456E-02
DAV:   5    -0.630392997526E+02    0.32348E-04   -0.17126E-04  1104   0.352E-01
  49 F= -.70011039E+02 E0= -.70002423E+02  d E =-.165571E-03  mag=     0.0000
       N       E                     dE             d eps       ncg     rms          rms(c)
DAV:   1    -0.630409148723E+02   -0.15828E-02   -0.88490E-02  1992   0.911E-01    0.244E-02
DAV:   2    -0.630410878984E+02   -0.17303E-03   -0.16889E-03  2528   0.338E-01
  50 F= -.70011500E+02 E0= -.70003233E+02  d E =-.626894E-03  mag=     0.0000
       N       E                     dE             d eps       ncg     rms          rms(c)
DAV:   1    -0.630436182466E+02   -0.27034E-02   -0.35481E-01  1992   0.182E+00    0.594E-02
DAV:   2    -0.630446310755E+02   -0.10128E-02   -0.73810E-03  3152   0.998E-01    0.159E-01
DAV:   3    -0.630442686767E+02    0.36240E-03   -0.17463E-03  1600   0.967E-01    0.735E-02
DAV:   4    -0.630442332220E+02    0.35455E-04   -0.45121E-04  1232   0.436E-01
  51 F= -.70012007E+02 E0= -.70003491E+02  d E =-.113376E-02  mag=     0.0000
       N       E                     dE             d eps       ncg     rms          rms(c)
DAV:   1    -0.630467891510E+02   -0.25205E-02   -0.14145E+00  1968   0.357E+00    0.117E-01
DAV:   2    -0.630495867556E+02   -0.27976E-02   -0.25873E-02  2848   0.132E+00    0.221E-01
DAV:   3    -0.630491716083E+02    0.41515E-03   -0.38572E-03  2144   0.133E+00    0.130E-01
DAV:   4    -0.630490511446E+02    0.12046E-03   -0.87121E-04  1560   0.578E-01
  52 F= -.70011604E+02 E0= -.70003291E+02  d E =-.730792E-03  mag=     0.0000
       N       E                     dE             d eps       ncg     rms          rms(c)
DAV:   1    -0.630437851474E+02    0.53865E-02   -0.87939E-01  2000   0.293E+00    0.105E-01
DAV:   2    -0.630491848621E+02   -0.53997E-02   -0.22554E-02  3424   0.328E+00    0.413E-01
DAV:   3    -0.630472510373E+02    0.19338E-02   -0.15445E-02  3264   0.321E+00    0.299E-01
DAV:   4    -0.630453172353E+02    0.19338E-02   -0.54818E-03  2072   0.185E+00    0.728E-02
DAV:   5    -0.630453619399E+02   -0.44705E-04   -0.92199E-04  1840   0.384E-01
  53 F= -.70012037E+02 E0= -.70003744E+02  d E =-.116372E-02  mag=     0.0000
       N       E                     dE             d eps       ncg     rms          rms(c)
DAV:   1    -0.630460932389E+02   -0.77600E-03   -0.13720E-02  2376   0.443E-01    0.315E-02
DAV:   2    -0.630461769348E+02   -0.83696E-04   -0.22763E-04  1240   0.444E-01
  54 F= -.70012483E+02 E0= -.70003988E+02  d E =-.446039E-03  mag=     0.0000
       N       E                     dE             d eps       ncg     rms          rms(c)
DAV:   1    -0.630477142359E+02   -0.16210E-02   -0.12124E-01  2216   0.121E+00    0.587E-02
DAV:   2    -0.630554840094E+02   -0.77698E-02   -0.19610E-02  2320   0.334E+00    0.591E-01
DAV:   3    -0.630477595943E+02    0.77244E-02   -0.14804E-02  1776   0.292E+00    0.565E-02
DAV:   4    -0.630478672806E+02   -0.10769E-03   -0.10014E-03  1848   0.508E-01
  55 F= -.70013083E+02 E0= -.70004532E+02  d E =-.104585E-02  mag=     0.0000
       N       E                     dE             d eps       ncg     rms          rms(c)
DAV:   1    -0.630485454171E+02   -0.78582E-03   -0.30979E-02  2272   0.624E-01    0.393E-02
DAV:   2    -0.630490961414E+02   -0.55072E-03   -0.18340E-03  1328   0.990E-01    0.165E-01
DAV:   3    -0.630485440277E+02    0.55211E-03   -0.14699E-03  1224   0.935E-01    0.365E-02
DAV:   4    -0.630485546755E+02   -0.10648E-04   -0.12027E-04  1096   0.318E-01
  56 F= -.70013237E+02 E0= -.70004997E+02  d E =-.119996E-02  mag=     0.0000
       N       E                     dE             d eps       ncg     rms          rms(c)
DAV:   1    -0.630495696403E+02   -0.10256E-02   -0.45347E-02  2552   0.757E-01    0.422E-02
DAV:   2    -0.630499505774E+02   -0.38094E-03   -0.10949E-03  1744   0.116E+00    0.130E-01
DAV:   3    -0.630495685589E+02    0.38202E-03   -0.63956E-04  1368   0.916E-01    0.234E-02
DAV:   4    -0.630496066785E+02   -0.38120E-04   -0.15412E-04  1128   0.281E-01
  57 F= -.70013720E+02 E0= -.70005351E+02  d E =-.483021E-03  mag=     0.0000
       N       E                     dE             d eps       ncg     rms          rms(c)
DAV:   1    -0.630507924958E+02   -0.12239E-02   -0.19828E-01  2024   0.139E+00    0.500E-02
DAV:   2    -0.630514778069E+02   -0.68531E-03   -0.45216E-03  3040   0.859E-01    0.138E-01
DAV:   3    -0.630511424150E+02    0.33539E-03   -0.15094E-03  1544   0.853E-01    0.585E-02
DAV:   4    -0.630511437540E+02   -0.13390E-05   -0.27375E-04  1120   0.271E-01
  58 F= -.70014073E+02 E0= -.70005584E+02  d E =-.835841E-03  mag=     0.0000
       N       E                     dE             d eps       ncg     rms          rms(c)
DAV:   1    -0.630522674554E+02   -0.11250E-02   -0.36378E-02  2088   0.651E-01    0.411E-02
DAV:   2    -0.630524778455E+02   -0.21039E-03   -0.61138E-04  1392   0.801E-01    0.103E-01
DAV:   3    -0.630523898938E+02    0.87952E-04   -0.95248E-04  1216   0.863E-01
  59 F= -.70014370E+02 E0= -.70005906E+02  d E =-.297620E-03  mag=     0.0000
       N       E                     dE             d eps       ncg     rms          rms(c)
DAV:   1    -0.630534588963E+02   -0.98105E-03   -0.40004E-02  2672   0.806E-01    0.418E-02
DAV:   2    -0.630544635616E+02   -0.10047E-02   -0.22903E-03  1456   0.125E+00    0.226E-01
DAV:   3    -0.630534466358E+02    0.10169E-02   -0.21612E-03  1224   0.115E+00    0.428E-02
DAV:   4    -0.630534573073E+02   -0.10671E-04   -0.20149E-04  1168   0.427E-01
  60 F= -.70014468E+02 E0= -.70006278E+02  d E =-.395002E-03  mag=     0.0000
       N       E                     dE             d eps       ncg     rms          rms(c)
DAV:   1    -0.630554393900E+02   -0.19928E-02   -0.15155E-01  1984   0.121E+00    0.342E-02
DAV:   2    -0.630557922582E+02   -0.35287E-03   -0.30483E-03  2608   0.551E-01    0.793E-02
DAV:   3    -0.630557607161E+02    0.31542E-04   -0.63438E-04  1264   0.600E-01
  61 F= -.70014833E+02 E0= -.70006461E+02  d E =-.760465E-03  mag=     0.0000
       N       E                     dE             d eps       ncg     rms          rms(c)
DAV:   1    -0.630590123595E+02   -0.32201E-02   -0.60993E-01  1952   0.239E+00    0.773E-02
DAV:   2    -0.630605118897E+02   -0.14995E-02   -0.12154E-02  2952   0.120E+00    0.181E-01
DAV:   3    -0.630601189028E+02    0.39299E-03   -0.26575E-03  2120   0.112E+00    0.105E-01
DAV:   4    -0.630600344220E+02    0.84481E-04   -0.56681E-04  1336   0.524E-01
  62 F= -.70015239E+02 E0= -.70006804E+02  d E =-.116617E-02  mag=     0.0000
       N       E                     dE             d eps       ncg     rms          rms(c)
DAV:   1    -0.630612689297E+02   -0.11500E-02   -0.35784E-02  2072   0.639E-01    0.679E-02
DAV:   2    -0.630613588161E+02   -0.89886E-04   -0.56743E-04  1424   0.726E-01
  63 F= -.70015601E+02 E0= -.70006681E+02  d E =-.362503E-03  mag=     0.0000
       N       E                     dE             d eps       ncg     rms          rms(c)
DAV:   1    -0.630644582402E+02   -0.31893E-02   -0.27671E-01  2152   0.180E+00    0.951E-02
DAV:   2    -0.630803934536E+02   -0.15935E-01   -0.37883E-02  3264   0.468E+00    0.866E-01
DAV:   3    -0.630645097588E+02    0.15884E-01   -0.29862E-02  2384   0.414E+00    0.695E-02
DAV:   4    -0.630647398500E+02   -0.23009E-03   -0.15618E-03  2456   0.583E-01    0.786E-02
DAV:   5    -0.630646779556E+02    0.61894E-04   -0.62110E-04  1664   0.578E-01
  64 F= -.70016232E+02 E0= -.70007898E+02  d E =-.993254E-03  mag=    -0.0000
       N       E                     dE             d eps       ncg     rms          rms(c)
DAV:   1    -0.630695994995E+02   -0.48596E-02   -0.10944E+00  1936   0.315E+00    0.842E-02
DAV:   2    -0.630718642040E+02   -0.22647E-02   -0.20373E-02  2752   0.128E+00    0.177E-01
DAV:   3    -0.630715989024E+02    0.26530E-03   -0.31456E-03  2192   0.122E+00    0.127E-01
DAV:   4    -0.630714457112E+02    0.15319E-03   -0.83147E-04  1568   0.653E-01
  65 F= -.70017633E+02 E0= -.70009368E+02  d E =-.239365E-02  mag=    -0.0000
       N       E                     dE             d eps       ncg     rms          rms(c)
DAV:   1    -0.630771873230E+02   -0.55884E-02   -0.43904E+00  1952   0.630E+00    0.207E-01
DAV:   2    -0.630846323472E+02   -0.74450E-02   -0.82079E-02  2536   0.160E+00    0.240E-01
DAV:   3    -0.630848981778E+02   -0.26583E-03   -0.50907E-03  2144   0.153E+00    0.274E-01
DAV:   4    -0.630843159230E+02    0.58225E-03   -0.31167E-03  1872   0.136E+00    0.199E-01
DAV:   5    -0.630843630784E+02   -0.47155E-04   -0.16547E-03  1568   0.139E+00
  66 F= -.70019851E+02 E0= -.70013067E+02  d E =-.461176E-02  mag=    -0.0000
       N       E                     dE             d eps       ncg     rms          rms(c)
DAV:   1    -0.630733198801E+02    0.10996E-01   -0.17561E+01  1984   0.128E+01    0.377E-01
DAV:   2    -0.631114426333E+02   -0.38123E-01   -0.35041E-01  2768   0.521E+00    0.665E-01
DAV:   3    -0.631096226233E+02    0.18200E-02   -0.54022E-02  2336   0.546E+00    0.643E-01
DAV:   4    -0.631063504936E+02    0.32721E-02   -0.27790E-02  2208   0.381E+00    0.422E-01
DAV:   5    -0.631045234782E+02    0.18270E-02   -0.81171E-03  2648   0.194E+00    0.291E-01
DAV:   6    -0.631036051718E+02    0.91831E-03   -0.55813E-03  2768   0.133E+00    0.199E-01
DAV:   7    -0.631032791072E+02    0.32606E-03   -0.41874E-03  2168   0.185E+00    0.116E-01
DAV:   8    -0.631030737085E+02    0.20540E-03   -0.13967E-03  1952   0.853E-01    0.461E-02
DAV:   9    -0.631030825421E+02   -0.88336E-05   -0.39777E-04  1336   0.374E-01
  67 F= -.70017311E+02 E0= -.70009951E+02  d E =-.207236E-02  mag=    -0.0000
       N       E                     dE             d eps       ncg     rms          rms(c)
DAV:   1    -0.630796942238E+02    0.23379E-01   -0.71747E+00  1920   0.806E+00    0.232E-01
DAV:   2    -0.630938884026E+02   -0.14194E-01   -0.13869E-01  2712   0.343E+00    0.410E-01
DAV:   3    -0.630934218540E+02    0.46655E-03   -0.16882E-02  2400   0.314E+00    0.345E-01
DAV:   4    -0.630923719176E+02    0.10499E-02   -0.79385E-03  2096   0.194E+00    0.246E-01
DAV:   5    -0.630919613437E+02    0.41057E-03   -0.20504E-03  2000   0.105E+00    0.192E-01
DAV:   6    -0.630916729268E+02    0.28842E-03   -0.17625E-03  2104   0.107E+00    0.167E-01
DAV:   7    -0.630913069469E+02    0.36598E-03   -0.20789E-03  2184   0.110E+00    0.449E-02
DAV:   8    -0.630913133815E+02   -0.64346E-05   -0.52142E-04  1376   0.455E-01
  68 F= -.70019113E+02 E0= -.70011457E+02  d E =-.387406E-02  mag=    -0.0000
       N       E                     dE             d eps       ncg     rms          rms(c)
DAV:   1    -0.630938253584E+02   -0.25184E-02   -0.19823E-01  1928   0.137E+00    0.395E-02
DAV:   2    -0.630945058975E+02   -0.68054E-03   -0.42881E-03  2984   0.832E-01    0.143E-01
DAV:   3    -0.630941316882E+02    0.37421E-03   -0.98241E-04  1200   0.752E-01    0.451E-02
DAV:   4    -0.630941526037E+02   -0.20915E-04   -0.26729E-04  1120   0.146E-01
  69 F= -.70019500E+02 E0= -.70011860E+02  d E =-.387466E-03  mag=    -0.0000
       N       E                     dE             d eps       ncg     rms          rms(c)
DAV:   1    -0.630993470759E+02   -0.52154E-02   -0.17849E+00  1888   0.401E+00    0.132E-01
DAV:   2    -0.631024974950E+02   -0.31504E-02   -0.32769E-02  2544   0.126E+00    0.203E-01
DAV:   3    -0.631023927092E+02    0.10479E-03   -0.31722E-03  2080   0.126E+00    0.159E-01
DAV:   4    -0.631021052692E+02    0.28744E-03   -0.85044E-04  1400   0.637E-01    0.120E-01
DAV:   5    -0.631022473520E+02   -0.14208E-03   -0.73978E-04  1384   0.951E-01
  70 F= -.70020271E+02 E0= -.70013660E+02  d E =-.115765E-02  mag=    -0.0000
       N       E                     dE             d eps       ncg     rms          rms(c)
DAV:   1    -0.631038988925E+02   -0.17936E-02   -0.11379E-01  2656   0.143E+00    0.865E-02
DAV:   2    -0.631098869606E+02   -0.59881E-02   -0.14448E-02  2432   0.319E+00    0.535E-01
DAV:   3    -0.631041026519E+02    0.57843E-02   -0.15000E-02  2096   0.294E+00    0.131E-01
DAV:   4    -0.631038916476E+02    0.21100E-03   -0.53729E-04  1248   0.870E-01    0.471E-02
DAV:   5    -0.631038864516E+02    0.51960E-05   -0.47504E-04  1360   0.480E-01
  71 F= -.70020371E+02 E0= -.70013074E+02  d E =-.100125E-03  mag=    -0.0000
       N       E                     dE             d eps       ncg     rms          rms(c)
DAV:   1    -0.631066846851E+02   -0.27930E-02   -0.33164E-01  1928   0.177E+00    0.539E-02
DAV:   2    -0.631073739837E+02   -0.68930E-03   -0.67438E-03  2640   0.740E-01    0.900E-02
DAV:   3    -0.631073163424E+02    0.57641E-04   -0.62098E-04  1576   0.608E-01
  72 F= -.70021159E+02 E0= -.70013710E+02  d E =-.888773E-03  mag=    -0.0000
       N       E                     dE             d eps       ncg     rms          rms(c)
DAV:   1    -0.631113050687E+02   -0.39311E-02   -0.13267E+00  1920   0.351E+00    0.132E-01
DAV:   2    -0.631165232004E+02   -0.52181E-02   -0.30879E-02  3264   0.245E+00    0.400E-01
DAV:   3    -0.631136548204E+02    0.28684E-02   -0.10277E-02  3080   0.223E+00    0.161E-01
DAV:   4    -0.631135098597E+02    0.14496E-03   -0.11932E-03  1856   0.775E-01
  73 F= -.70022078E+02 E0= -.70014579E+02  d E =-.180751E-02  mag=    -0.0000
       N       E                     dE             d eps       ncg     rms          rms(c)
DAV:   1    -0.631148510387E+02   -0.11962E-02   -0.52750E+00  1920   0.697E+00    0.251E-01
DAV:   2    -0.631243226290E+02   -0.94716E-02   -0.10634E-01  2552   0.198E+00    0.286E-01
DAV:   3    -0.631239743648E+02    0.34826E-03   -0.46383E-03  2032   0.118E+00    0.228E-01
DAV:   4    -0.631258098022E+02   -0.18354E-02   -0.65795E-03  2208   0.209E+00    0.377E-01
DAV:   5    -0.631235824448E+02    0.22274E-02   -0.71112E-03  1664   0.210E+00    0.201E-01
DAV:   6    -0.631233285648E+02    0.25388E-03   -0.22037E-03  1680   0.131E+00    0.154E-01
DAV:   7    -0.631230540157E+02    0.27455E-03   -0.14271E-03  1816   0.125E+00    0.873E-02
DAV:   8    -0.631229330281E+02    0.12099E-03   -0.59673E-04  1352   0.566E-01
  74 F= -.70020983E+02 E0= -.70013905E+02  d E =-.712633E-03  mag=    -0.0000
       N       E                     dE             d eps       ncg     rms          rms(c)
DAV:   1    -0.631154592458E+02    0.75948E-02   -0.16120E+00  1920   0.384E+00    0.113E-01
DAV:   2    -0.631184174441E+02   -0.29582E-02   -0.30739E-02  2560   0.134E+00    0.169E-01
DAV:   3    -0.631183272010E+02    0.90243E-04   -0.25051E-03  2048   0.103E+00    0.132E-01
DAV:   4    -0.631183582155E+02   -0.31015E-04   -0.10917E-03  1536   0.771E-01
  75 F= -.70022218E+02 E0= -.70015115E+02  d E =-.194695E-02  mag=    -0.0000
       N       E                     dE             d eps       ncg     rms          rms(c)
DAV:   1    -0.631176184342E+02    0.70877E-03   -0.24576E-02  2656   0.787E-01    0.110E-01
DAV:   2    -0.631206438131E+02   -0.30254E-02   -0.73513E-03  1616   0.237E+00    0.390E-01
DAV:   3    -0.631177101978E+02    0.29336E-02   -0.86672E-03  1368   0.224E+00    0.137E-01
DAV:   4    -0.631175041530E+02    0.20604E-03   -0.12181E-03  1304   0.117E+00    0.894E-02
DAV:   5    -0.631173529745E+02    0.15118E-03   -0.39231E-04  1264   0.504E-01
  76 F= -.70021905E+02 E0= -.70014676E+02  d E =-.163479E-02  mag=    -0.0000
