<?xml version="1.0" encoding="ISO-8859-1"?>
<modeling>
 <generator>
  <i name="program" type="string">vasp </i>
  <i name="version" type="string">6.3.2  </i>
  <i name="subversion" type="string">27Jun22 (build Aug 17 2022 15:43:34) complex                          parallel </i>
  <i name="platform" type="string">tv2STDVTST </i>
  <i name="date" type="string">2025 02 04 </i>
  <i name="time" type="string">11:31:01 </i>
 </generator>
 <incar>
  <i type="int" name="ISTART">     0</i>
  <i type="string" name="PREC">Normal</i>
  <i type="int" name="ISPIN">     2</i>
  <i type="int" name="ICHARG">     2</i>
  <i type="int" name="IBRION">     2</i>
  <i name="EDIFF">      0.00020000</i>
  <i name="EDIFFG">     -0.03000000</i>
  <i type="int" name="NSW">   800</i>
  <i type="int" name="ISIF">     2</i>
  <i type="int" name="ISYM">     1</i>
  <i name="ENCUT">    400.00000000</i>
  <i name="POTIM">      0.50000000</i>
  <i type="logical" name="LREAL"> F  </i>
  <i type="int" name="ISMEAR">     1</i>
  <i name="SIGMA">      0.20000000</i>
  <i type="logical" name="LWAVE"> F  </i>
  <i type="logical" name="LCHARG"> F  </i>
  <i type="string" name="GGA">PE</i>
  <i type="int" name="IVDW">    11</i>
 </incar>
 <primitive_cell>
  <structure name="primitive_cell" >
   <crystal>
    <varray name="basis" >
     <v>       3.63000011       0.00000000       0.00000000 </v>
     <v>       0.00000000       3.63000011       0.00000000 </v>
     <v>       0.00000000       0.00000000      27.70499992 </v>
    </varray>
    <i name="volume">    365.06603650 </i>
    <varray name="rec_basis" >
     <v>       0.27548208       0.00000000       0.00000000 </v>
     <v>       0.00000000       0.27548208       0.00000000 </v>
     <v>       0.00000000       0.00000000       0.03609457 </v>
    </varray>
   </crystal>
   <varray name="positions" >
    <v>       0.00000000       0.00000000       0.00000000 </v>
    <v>       0.50000000       0.50000000       0.00000000 </v>
    <v>       0.00000000       0.50000000       0.06551164 </v>
    <v>       0.50000000       0.00000000       0.06551164 </v>
    <v>       0.00000000       0.00000000       0.12876120 </v>
    <v>       0.50000000       0.50000000       0.12876120 </v>
    <v>       0.00000000       0.50000000       0.19193187 </v>
    <v>       0.50000000       0.00000000       0.19193187 </v>
    <v>       0.00000000       0.00000000       0.25406550 </v>
    <v>       0.50000000       0.50000000       0.25406550 </v>
    <v>       0.00000000       0.50000000       0.31747855 </v>
    <v>       0.50000000       0.00000000       0.31747855 </v>
    <v>       0.00000000       0.00000000       0.38132233 </v>
    <v>       0.50000000       0.50000000       0.38132233 </v>
    <v>       0.00000000       0.50000000       0.44440075 </v>
    <v>       0.50000000       0.00000000       0.44440075 </v>
    <v>       0.75000000       0.25000000       0.50150658 </v>
    <v>       0.75000000       0.25000000       0.52843313 </v>
   </varray>
  </structure>
  <varray name="primitive_index" >
   <v type="int" >        1 </v>
   <v type="int" >        2 </v>
   <v type="int" >        3 </v>
   <v type="int" >        4 </v>
   <v type="int" >        5 </v>
   <v type="int" >        6 </v>
   <v type="int" >        7 </v>
   <v type="int" >        8 </v>
   <v type="int" >        9 </v>
   <v type="int" >       10 </v>
   <v type="int" >       11 </v>
   <v type="int" >       12 </v>
   <v type="int" >       13 </v>
   <v type="int" >       14 </v>
   <v type="int" >       15 </v>
   <v type="int" >       16 </v>
   <v type="int" >       17 </v>
   <v type="int" >       18 </v>
  </varray>
 </primitive_cell>
 <kpoints>
  <generation param="Monkhorst-Pack">
   <v type="int" name="divisions">       3        3        1 </v>
   <v name="usershift">      0.00000000       0.00000000       0.00000000 </v>
   <v name="genvec1">      0.33333333       0.00000000       0.00000000 </v>
   <v name="genvec2">      0.00000000       0.33333333       0.00000000 </v>
   <v name="genvec3">      0.00000000       0.00000000       1.00000000 </v>
   <v name="shift">      0.00000000       0.00000000       0.00000000 </v>
  </generation>
  <varray name="kpointlist" >
   <v>       0.00000000       0.00000000       0.00000000 </v>
   <v>       0.33333333       0.00000000       0.00000000 </v>
   <v>       0.33333333       0.33333333       0.00000000 </v>
   <v>      -0.33333333       0.33333333       0.00000000 </v>
  </varray>
  <varray name="weights" >
   <v>       0.11111111 </v>
   <v>       0.44444444 </v>
   <v>       0.22222222 </v>
   <v>       0.22222222 </v>
  </varray>
 </kpoints>
 <parameters>
  <separator name="general" >
   <i type="string" name="SYSTEM">unknown system</i>
   <i type="logical" name="LCOMPAT"> F  </i>
  </separator>
  <separator name="electronic" >
   <i type="string" name="PREC">normal</i>
   <i name="ENMAX">    400.00000000</i>
   <i name="ENAUG">    586.98000000</i>
   <i name="EDIFF">      0.00020000</i>
   <i type="int" name="IALGO">    38</i>
   <i type="int" name="IWAVPR">    11</i>
   <i type="int" name="NBANDS">   116</i>
   <i type="int" name="NBANDSLOW">    -1</i>
   <i type="int" name="NBANDSHIGH">    -1</i>
   <i name="NELECT">    178.00000000</i>
   <i type="int" name="TURBO">     0</i>
   <i type="int" name="IRESTART">     0</i>
   <i type="int" name="NREBOOT">     0</i>
   <i type="int" name="NMIN">     0</i>
   <i name="EREF">      0.00000000</i>
   <separator name="electronic smearing" >
    <i type="int" name="ISMEAR">     1</i>
    <i name="SIGMA">      0.20000000</i>
    <i name="KSPACING">      0.50000000</i>
    <i type="logical" name="KGAMMA"> T  </i>
    <i type="logical" name="KBLOWUP"> T  </i>
   </separator>
   <separator name="electronic projectors" >
    <i type="logical" name="LREAL"> F  </i>
    <v name="ROPT">      0.00000000      0.00000000</v>
    <i type="int" name="LMAXPAW">  -100</i>
    <i type="int" name="LMAXMIX">     2</i>
    <i type="logical" name="NLSPLINE"> F  </i>
   </separator>
   <separator name="electronic startup" >
    <i type="int" name="ISTART">     0</i>
    <i type="int" name="ICHARG">     2</i>
    <i type="int" name="INIWAV">     1</i>
   </separator>
   <separator name="electronic spin" >
    <i type="int" name="ISPIN">     2</i>
    <i type="logical" name="LNONCOLLINEAR"> F  </i>
    <v name="MAGMOM">      1.00000000      1.00000000      1.00000000      1.00000000      1.00000000      1.00000000      1.00000000      1.00000000      1.00000000      1.00000000      1.00000000      1.00000000      1.00000000      1.00000000      1.00000000      1.00000000      1.00000000      1.00000000</v>
    <i name="NUPDOWN">     -1.00000000</i>
    <i type="logical" name="LSORBIT"> F  </i>
    <v name="SAXIS">      0.00000000      0.00000000      1.00000000</v>
    <i type="logical" name="LSPIRAL"> F  </i>
    <v name="QSPIRAL">      0.00000000      0.00000000      0.00000000</v>
    <i type="logical" name="LZEROZ"> F  </i>
   </separator>
   <separator name="electronic exchange-correlation" >
    <i type="logical" name="LASPH"> F  </i>
    <i type="logical" name="LMETAGGA"> F  </i>
   </separator>
   <separator name="electronic convergence" >
    <i type="int" name="NELM">    60</i>
    <i type="int" name="NELMDL">    -5</i>
    <i type="int" name="NELMIN">     2</i>
    <i name="ENINI">    400.00000000</i>
    <separator name="electronic convergence detail" >
     <i type="logical" name="LDIAG"> T  </i>
     <i type="logical" name="LSUBROT"> F  </i>
     <i name="WEIMIN">      0.00100000</i>
     <i name="EBREAK">      0.00000043</i>
     <i name="DEPER">      0.30000000</i>
     <i type="int" name="NRMM">     4</i>
     <i name="TIME">      0.40000000</i>
    </separator>
   </separator>
   <separator name="electronic mixer" >
    <i name="AMIX">      0.40000000</i>
    <i name="BMIX">      1.00000000</i>
    <i name="AMIN">      0.10000000</i>
    <i name="AMIX_MAG">      1.60000000</i>
    <i name="BMIX_MAG">      1.00000000</i>
    <separator name="electronic mixer details" >
     <i type="int" name="IMIX">     4</i>
     <i type="logical" name="MIXFIRST"> F  </i>
     <i type="int" name="MAXMIX">   -45</i>
     <i name="WC">    100.00000000</i>
     <i type="int" name="INIMIX">     1</i>
     <i type="int" name="MIXPRE">     1</i>
     <i type="int" name="MREMOVE">     5</i>
    </separator>
   </separator>
   <separator name="electronic dipolcorrection" >
    <i type="logical" name="LDIPOL"> F  </i>
    <i type="logical" name="LMONO"> F  </i>
    <i type="int" name="IDIPOL">     0</i>
    <i name="EPSILON">      1.00000000</i>
    <v name="DIPOL">   -100.00000000   -100.00000000   -100.00000000</v>
    <i name="EFIELD">      0.00000000</i>
   </separator>
  </separator>
  <separator name="grids" >
   <i type="int" name="NGX">    18</i>
   <i type="int" name="NGY">    18</i>
   <i type="int" name="NGZ">   140</i>
   <i type="int" name="NGXF">    36</i>
   <i type="int" name="NGYF">    36</i>
   <i type="int" name="NGZF">   280</i>
   <i type="logical" name="ADDGRID"> F  </i>
  </separator>
  <separator name="ionic" >
   <i type="int" name="NSW">   800</i>
   <i type="int" name="IBRION">     2</i>
   <i type="int" name="MDALGO">     0</i>
   <i type="int" name="ISIF">     2</i>
   <i name="PSTRESS">      0.00000000</i>
   <i name="EDIFFG">     -0.03000000</i>
   <i type="int" name="NFREE">     1</i>
   <i name="POTIM">      0.50000000</i>
   <i name="SMASS">     -3.00000000</i>
   <i name="SCALEE">      1.00000000</i>
  </separator>
  <separator name="ionic md" >
   <i name="TEBEG">      0.00010000</i>
   <i name="TEEND">      0.00010000</i>
   <i type="int" name="NBLOCK">     1</i>
   <i type="int" name="KBLOCK">   800</i>
   <i type="int" name="NPACO">   256</i>
   <i name="APACO">     10.00000000</i>
  </separator>
  <separator name="symmetry" >
   <i type="int" name="ISYM">     1</i>
   <i name="SYMPREC">      0.00001000</i>
  </separator>
  <separator name="dos" >
   <i type="int" name="LORBIT">     0</i>
   <v name="RWIGS">     -1.00000000     -1.00000000</v>
   <i type="int" name="NEDOS">   301</i>
   <i name="EMIN">     10.00000000</i>
   <i name="EMAX">    -10.00000000</i>
   <i name="EFERMI">      0.00000000</i>
  </separator>
  <separator name="writing" >
   <i type="int" name="NWRITE">     2</i>
   <i type="logical" name="LWAVE"> F  </i>
   <i type="logical" name="LDOWNSAMPLE"> F  </i>
   <i type="logical" name="LCHARG"> F  </i>
   <i type="logical" name="LPARD"> F  </i>
   <i type="logical" name="LVTOT"> F  </i>
   <i type="logical" name="LVHAR"> F  </i>
   <i type="logical" name="LELF"> F  </i>
   <i type="logical" name="LOPTICS"> F  </i>
   <v name="STM">      0.00000000      0.00000000      0.00000000      0.00000000      0.00000000      0.00000000      0.00000000</v>
  </separator>
  <separator name="performance" >
   <i type="int" name="NPAR">     4</i>
   <i type="int" name="NSIM">     4</i>
   <i type="int" name="NBLK">    -1</i>
   <i type="logical" name="LPLANE"> T  </i>
   <i type="logical" name="LSCALAPACK"> T  </i>
   <i type="logical" name="LSCAAWARE"> F  </i>
   <i type="logical" name="LSCALU"> F  </i>
   <i type="logical" name="LASYNC"> F  </i>
   <i type="logical" name="LORBITALREAL"> F  </i>
  </separator>
  <separator name="miscellaneous" >
   <i type="int" name="IDIOT">     3</i>
   <i type="int" name="PHON_NSTRUCT">    -1</i>
   <i type="logical" name="LMUSIC"> F  </i>
   <v name="POMASS">     63.54600000      1.00000000</v>
   <v name="DARWINR">      0.00000000      0.00000000</v>
   <v name="DARWINV">      1.00000000      1.00000000</v>
   <i type="logical" name="LCORR"> T  </i>
  </separator>
  <i type="logical" name="GGA_COMPAT"> T  </i>
  <i type="logical" name="LBERRY"> F  </i>
  <i type="int" name="ICORELEVEL">     0</i>
  <i type="logical" name="LDAU"> F  </i>
  <i type="int" name="I_CONSTRAINED_M">     0</i>
  <separator name="electronic exchange-correlation" >
   <i type="string" name="GGA">PE</i>
   <i type="int" name="VOSKOWN">     0</i>
   <i type="logical" name="LHFCALC"> F  </i>
   <i type="string" name="PRECFOCK"></i>
   <i type="logical" name="LSYMGRAD"> F  </i>
   <i type="logical" name="LHFONE"> F  </i>
   <i type="logical" name="LRHFCALC"> F  </i>
   <i type="logical" name="LTHOMAS"> F  </i>
   <i type="logical" name="LMODELHF"> F  </i>
   <i type="logical" name="LFOCKACE"> F  </i>
   <i name="ENCUT4O">     -1.00000000</i>
   <i type="int" name="EXXOEP">     0</i>
   <i type="int" name="FOURORBIT">     0</i>
   <i name="AEXX">      0.00000000</i>
   <i name="HFALPHA">      0.00000000</i>
   <i name="MCALPHA">      0.00000000</i>
   <i name="ALDAX">      1.00000000</i>
   <i name="AGGAX">      1.00000000</i>
   <i name="ALDAC">      1.00000000</i>
   <i name="AGGAC">      1.00000000</i>
   <i type="int" name="NKREDX">     1</i>
   <i type="int" name="NKREDY">     1</i>
   <i type="int" name="NKREDZ">     1</i>
   <i type="logical" name="SHIFTRED"> F  </i>
   <i type="logical" name="ODDONLY"> F  </i>
   <i type="logical" name="EVENONLY"> F  </i>
   <i type="int" name="LMAXFOCK">     0</i>
   <i type="int" name="NMAXFOCKAE">     0</i>
   <i type="logical" name="LFOCKAEDFT"> F  </i>
   <i name="HFSCREEN">      0.00000000</i>
   <i name="HFSCREENC">      0.00000000</i>
   <i type="int" name="NBANDSGWLOW">     0</i>
  </separator>
  <separator name="vdW DFT" >
   <i type="logical" name="LUSE_VDW"> F  </i>
   <i name="Zab_VDW">     -0.84910000</i>
   <i name="PARAM1">      0.12340000</i>
   <i name="PARAM2">      1.00000000</i>
   <i name="PARAM3">      0.00000000</i>
  </separator>
  <separator name="model GW" >
   <i type="int" name="MODEL_GW">     0</i>
   <i name="MODEL_EPS0">     12.16886788</i>
   <i name="MODEL_ALPHA">      1.00000000</i>
  </separator>
  <separator name="linear response parameters" >
   <i type="logical" name="LEPSILON"> F  </i>
   <i type="logical" name="LRPA"> F  </i>
   <i type="logical" name="LNABLA"> F  </i>
   <i type="logical" name="LVEL"> F  </i>
   <i name="CSHIFT">      0.10000000</i>
   <i name="OMEGAMAX">     -1.00000000</i>
   <i name="DEG_THRESHOLD">      0.00200000</i>
   <i name="RTIME">     -0.10000000</i>
   <i name="WPLASMAI">      0.00000000</i>
   <v name="DFIELD">      0.00000000      0.00000000      0.00000000</v>
   <v name="WPLASMA">      0.00000000      0.00000000      0.00000000      0.00000000      0.00000000      0.00000000      0.00000000      0.00000000      0.00000000</v>
  </separator>
  <separator name="orbital magnetization" >
   <i type="logical" name="NUCIND"> F  </i>
   <v name="MAGPOS">      0.00000000      0.00000000      0.00000000</v>
   <i type="logical" name="LNICSALL"> T  </i>
   <i type="logical" name="ORBITALMAG"> F  </i>
   <i type="logical" name="LMAGBLOCH"> F  </i>
   <i type="logical" name="LCHIMAG"> F  </i>
   <i type="logical" name="LGAUGE"> T  </i>
   <i type="int" name="MAGATOM">     0</i>
   <v name="MAGDIPOL">      0.00000000      0.00000000      0.00000000</v>
   <v name="AVECCONST">      0.00000000      0.00000000      0.00000000</v>
  </separator>
  <separator name="response functions" >
   <i type="logical" name="LFINITE_TEMPERATURE"> F  </i>
   <i type="logical" name="LADDER"> F  </i>
   <i type="logical" name="LRPAFORCE"> F  </i>
   <i type="logical" name="LFXC"> F  </i>
   <i type="logical" name="LHARTREE"> T  </i>
   <i type="int" name="IBSE">     0</i>
   <v type="int" name="KPOINT">    -1     0     0     0</v>
   <i type="logical" name="LTCTC"> F  </i>
   <i type="logical" name="LTCTE"> F  </i>
   <i type="logical" name="LTETE"> F  </i>
   <i type="logical" name="LTRIPLET"> F  </i>
   <i type="logical" name="LFXCEPS"> F  </i>
   <i type="logical" name="LFXHEG"> F  </i>
   <i type="int" name="NATURALO">     2</i>
   <i type="logical" name="LHOLEGF"> F  </i>
   <i type="logical" name="L2ORDER"> F  </i>
   <i type="logical" name="LDMP1"> F  </i>
   <i type="logical" name="LMP2LT"> F  </i>
   <i type="logical" name="LSMP2LT"> F  </i>
   <i type="logical" name="LGWLF"> F  </i>
   <i name="ENCUTGW">     -2.00000000</i>
   <i name="ENCUTGWSOFT">     -2.00000000</i>
   <i name="ENCUTLF">     -1.00000000</i>
   <i type="logical" name="LESF_SPLINES"> F  </i>
   <i type="int" name="LMAXMP2">    -1</i>
   <i name="SCISSOR">      0.00000000</i>
   <i type="int" name="NOMEGA">     0</i>
   <i type="int" name="NOMEGAR">     0</i>
   <i type="int" name="NBANDSGW">    -1</i>
   <i type="int" name="NBANDSO">    -1</i>
   <i type="int" name="NBANDSV">    -1</i>
   <i type="int" name="NELMGW">     1</i>
   <i type="int" name="NELMHF">     1</i>
   <i type="int" name="DIM">     3</i>
   <i type="int" name="IESPILON">     4</i>
   <i type="int" name="ANTIRES">     0</i>
   <i name="OMEGAMAX">    -30.00000000</i>
   <i name="OMEGAMIN">    -30.00000000</i>
   <i name="OMEGATL">   -200.00000000</i>
   <i type="int" name="OMEGAGRID">     0</i>
   <i name="CSHIFT">     -0.10000000</i>
   <i type="logical" name="LSELFENERGY"> F  </i>
   <i type="logical" name="LSPECTRAL"> F  </i>
   <i type="logical" name="LSPECTRALGW"> F  </i>
   <i type="logical" name="LSINGLES"> F  </i>
   <i type="logical" name="LFERMIGW"> F  </i>
   <i type="logical" name="ODDONLYGW"> F  </i>
   <i type="logical" name="EVENONLYGW"> F  </i>
   <i type="int" name="NKREDLFX">     1</i>
   <i type="int" name="NKREDLFY">     1</i>
   <i type="int" name="NKREDLFZ">     1</i>
   <i type="int" name="MAXMEM">  2800</i>
   <i type="int" name="TELESCOPE">     0</i>
   <i type="int" name="NTAUPAR">    -1</i>
   <i type="int" name="NOMEGAPAR">    -1</i>
   <i name="DAMP_NEWTON">      0.80000001</i>
   <i name="LAMBDA">      1.00000000</i>
  </separator>
  <separator name="External order field" >
   <i name="OFIELD_KAPPA">      0.00000000</i>
   <v name="OFIELD_K">      0.00000000      0.00000000      0.00000000</v>
   <i name="OFIELD_Q6_NEAR">      0.00000000</i>
   <i name="OFIELD_Q6_FAR">      0.00000000</i>
   <i name="OFIELD_A">      0.00000000</i>
  </separator>
  <separator name="optional k-points parameters" >
   <i type="int" name="KPOINTS_OPT_MODE">     1</i>
   <i type="logical" name="LKPOINTS_OPT"> F  </i>
  </separator>
 </parameters>
 <atominfo>
  <atoms>      18 </atoms>
  <types>       2 </types>
  <array name="atoms" >
   <dimension dim="1">ion</dimension>
   <field type="string">element</field>
   <field type="int">atomtype</field>
   <set>
    <rc><c>Cu</c><c>   1</c></rc>
    <rc><c>Cu</c><c>   1</c></rc>
    <rc><c>Cu</c><c>   1</c></rc>
    <rc><c>Cu</c><c>   1</c></rc>
    <rc><c>Cu</c><c>   1</c></rc>
    <rc><c>Cu</c><c>   1</c></rc>
    <rc><c>Cu</c><c>   1</c></rc>
    <rc><c>Cu</c><c>   1</c></rc>
    <rc><c>Cu</c><c>   1</c></rc>
    <rc><c>Cu</c><c>   1</c></rc>
    <rc><c>Cu</c><c>   1</c></rc>
    <rc><c>Cu</c><c>   1</c></rc>
    <rc><c>Cu</c><c>   1</c></rc>
    <rc><c>Cu</c><c>   1</c></rc>
    <rc><c>Cu</c><c>   1</c></rc>
    <rc><c>Cu</c><c>   1</c></rc>
    <rc><c>H </c><c>   2</c></rc>
    <rc><c>H </c><c>   2</c></rc>
   </set>
  </array>
  <array name="atomtypes" >
   <dimension dim="1">type</dimension>
   <field type="int">atomspertype</field>
   <field type="string">element</field>
   <field>mass</field>
   <field>valence</field>
   <field type="string">pseudopotential</field>
   <set>
    <rc><c>  16</c><c>Cu</c><c>     63.54600000</c><c>     11.00000000</c><c>  PAW_PBE Cu 22Jun2005                  </c></rc>
    <rc><c>   2</c><c>H </c><c>      1.00000000</c><c>      1.00000000</c><c>  PAW_PBE H 15Jun2001                   </c></rc>
   </set>
  </array>
 </atominfo>
 <structure name="initialpos" >
  <crystal>
   <varray name="basis" >
    <v>       3.63000011       0.00000000       0.00000000 </v>
    <v>       0.00000000       3.63000011       0.00000000 </v>
    <v>       0.00000000       0.00000000      27.70499992 </v>
   </varray>
   <i name="volume">    365.06603650 </i>
   <varray name="rec_basis" >
    <v>       0.27548208       0.00000000       0.00000000 </v>
    <v>       0.00000000       0.27548208       0.00000000 </v>
    <v>       0.00000000       0.00000000       0.03609457 </v>
   </varray>
  </crystal>
  <varray name="positions" >
   <v>       0.00000000       0.00000000       0.00000000 </v>
   <v>       0.50000000       0.50000000       0.00000000 </v>
   <v>       0.00000000       0.50000000       0.06551164 </v>
   <v>       0.50000000       0.00000000       0.06551164 </v>
   <v>       0.00000000       0.00000000       0.12876120 </v>
   <v>       0.50000000       0.50000000       0.12876120 </v>
   <v>       0.00000000       0.50000000       0.19193187 </v>
   <v>       0.50000000       0.00000000       0.19193187 </v>
   <v>       0.00000000       0.00000000       0.25406550 </v>
   <v>       0.50000000       0.50000000       0.25406550 </v>
   <v>       0.00000000       0.50000000       0.31747855 </v>
   <v>       0.50000000       0.00000000       0.31747855 </v>
   <v>       0.00000000       0.00000000       0.38132233 </v>
   <v>       0.50000000       0.50000000       0.38132233 </v>
   <v>       0.00000000       0.50000000       0.44440075 </v>
   <v>       0.50000000       0.00000000       0.44440075 </v>
   <v>       0.75000000       0.25000000       0.50150658 </v>
   <v>       0.75000000       0.25000000       0.52843313 </v>
  </varray>
 </structure>
 <calculation>
  <scstep>
   <time name="dav">    1.13    1.14</time>
   <time name="total">    1.17    1.18</time>
   <energy>
    <i name="alphaZ">    521.04204123 </i>
    <i name="ewald"> 102564.86264916 </i>
    <i name="hartreedc">-124474.34176244 </i>
    <i name="XCdc">    738.40834819 </i>
    <i name="pawpsdc">  19653.14859652 </i>
    <i name="pawaedc"> -21346.34030725 </i>
    <i name="eentropy">     -0.01618544 </i>
    <i name="bandstr">   1726.11903401 </i>
    <i name="atom">  22280.27950853 </i>
    <i name="e_fr_energy">   1663.16192253 </i>
    <i name="e_wo_entrp">   1663.17810797 </i>
    <i name="e_0_energy">   1663.16731768 </i>
   </energy>
  </scstep>
  <scstep>
   <time name="dav">    1.10    1.11</time>
   <time name="total">    1.10    1.11</time>
   <energy>
    <i name="e_fr_energy">    198.35049526 </i>
    <i name="e_wo_entrp">    198.34020348 </i>
    <i name="e_0_energy">    198.34706467 </i>
   </energy>
  </scstep>
  <scstep>
   <time name="dav">    1.12    1.13</time>
   <time name="total">    1.12    1.13</time>
   <energy>
    <i name="e_fr_energy">    -53.19148280 </i>
    <i name="e_wo_entrp">    -53.19665185 </i>
    <i name="e_0_energy">    -53.19320581 </i>
   </energy>
  </scstep>
  <scstep>
   <time name="dav">    1.20    1.21</time>
   <time name="total">    1.20    1.21</time>
   <energy>
    <i name="e_fr_energy">    -68.83570791 </i>
    <i name="e_wo_entrp">    -68.84131113 </i>
    <i name="e_0_energy">    -68.83757565 </i>
   </energy>
  </scstep>
  <scstep>
   <time name="dav">    1.22    1.23</time>
   <time name="total">    1.34    1.35</time>
   <energy>
    <i name="e_fr_energy">    -69.18031155 </i>
    <i name="e_wo_entrp">    -69.18611729 </i>
    <i name="e_0_energy">    -69.18224680 </i>
   </energy>
  </scstep>
  <scstep>
   <time name="dav">    1.22    1.23</time>
   <time name="total">    1.36    1.38</time>
   <energy>
    <i name="e_fr_energy">    -57.93434856 </i>
    <i name="e_wo_entrp">    -57.91719642 </i>
    <i name="e_0_energy">    -57.92863118 </i>
   </energy>
  </scstep>
  <scstep>
   <time name="dav">    1.21    1.22</time>
   <time name="total">    1.35    1.36</time>
   <energy>
    <i name="e_fr_energy">    -51.61631891 </i>
    <i name="e_wo_entrp">    -51.59977262 </i>
    <i name="e_0_energy">    -51.61080348 </i>
   </energy>
  </scstep>
  <scstep>
   <time name="dav">    1.28    1.29</time>
   <time name="total">    1.43    1.45</time>
   <energy>
    <i name="e_fr_energy">    -51.36558687 </i>
    <i name="e_wo_entrp">    -51.33990071 </i>
    <i name="e_0_energy">    -51.35702482 </i>
   </energy>
  </scstep>
  <scstep>
   <time name="dav">    1.51    1.53</time>
   <time name="total">    1.66    1.67</time>
   <energy>
    <i name="e_fr_energy">    -51.26895285 </i>
    <i name="e_wo_entrp">    -51.27296878 </i>
    <i name="e_0_energy">    -51.27029150 </i>
   </energy>
  </scstep>
  <scstep>
   <time name="dav">    1.58    1.60</time>
   <time name="total">    1.73    1.74</time>
   <energy>
    <i name="e_fr_energy">    -50.23327605 </i>
    <i name="e_wo_entrp">    -50.22071172 </i>
    <i name="e_0_energy">    -50.22908794 </i>
   </energy>
  </scstep>
  <scstep>
   <time name="dav">    1.62    1.63</time>
   <time name="total">    1.76    1.78</time>
   <energy>
    <i name="e_fr_energy">    -50.81556400 </i>
    <i name="e_wo_entrp">    -50.81050733 </i>
    <i name="e_0_energy">    -50.81387844 </i>
   </energy>
  </scstep>
  <scstep>
   <time name="dav">    1.27    1.28</time>
   <time name="total">    1.42    1.43</time>
   <energy>
    <i name="e_fr_energy">    -52.65546287 </i>
    <i name="e_wo_entrp">    -52.62863086 </i>
    <i name="e_0_energy">    -52.64651887 </i>
   </energy>
  </scstep>
  <scstep>
   <time name="dav">    1.38    1.39</time>
   <time name="total">    1.52    1.53</time>
   <energy>
    <i name="e_fr_energy">    -54.00490847 </i>
    <i name="e_wo_entrp">    -53.99334045 </i>
    <i name="e_0_energy">    -54.00105246 </i>
   </energy>
  </scstep>
  <scstep>
   <time name="dav">    1.37    1.38</time>
   <time name="total">    1.51    1.52</time>
   <energy>
    <i name="e_fr_energy">    -54.67802737 </i>
    <i name="e_wo_entrp">    -54.66909101 </i>
    <i name="e_0_energy">    -54.67504858 </i>
   </energy>
  </scstep>
  <scstep>
   <time name="dav">    1.28    1.29</time>
   <time name="total">    1.42    1.44</time>
   <energy>
    <i name="e_fr_energy">    -58.51254391 </i>
    <i name="e_wo_entrp">    -58.50516475 </i>
    <i name="e_0_energy">    -58.51008419 </i>
   </energy>
  </scstep>
  <scstep>
   <time name="dav">    1.33    1.35</time>
   <time name="total">    1.48    1.49</time>
   <energy>
    <i name="e_fr_energy">    -60.44970875 </i>
    <i name="e_wo_entrp">    -60.42209100 </i>
    <i name="e_0_energy">    -60.44050283 </i>
   </energy>
  </scstep>
  <scstep>
   <time name="dav">    1.42    1.43</time>
   <time name="total">    1.56    1.58</time>
   <energy>
    <i name="e_fr_energy">    -60.56348422 </i>
    <i name="e_wo_entrp">    -60.54758684 </i>
    <i name="e_0_energy">    -60.55818509 </i>
   </energy>
  </scstep>
  <scstep>
   <time name="dav">    1.25    1.26</time>
   <time name="total">    1.39    1.40</time>
   <energy>
    <i name="e_fr_energy">    -60.70699298 </i>
    <i name="e_wo_entrp">    -60.68536681 </i>
    <i name="e_0_energy">    -60.69978426 </i>
   </energy>
  </scstep>
  <scstep>
   <time name="dav">    1.22    1.23</time>
   <time name="total">    1.36    1.37</time>
   <energy>
    <i name="e_fr_energy">    -61.12617675 </i>
    <i name="e_wo_entrp">    -61.10446036 </i>
    <i name="e_0_energy">    -61.11893795 </i>
   </energy>
  </scstep>
  <scstep>
   <time name="dav">    1.31    1.32</time>
   <time name="total">    1.45    1.46</time>
   <energy>
    <i name="e_fr_energy">    -61.48740893 </i>
    <i name="e_wo_entrp">    -61.46499344 </i>
    <i name="e_0_energy">    -61.47993710 </i>
   </energy>
  </scstep>
  <scstep>
   <time name="dav">    1.37    1.39</time>
   <time name="total">    1.52    1.53</time>
   <energy>
    <i name="e_fr_energy">    -61.68884716 </i>
    <i name="e_wo_entrp">    -61.66043961 </i>
    <i name="e_0_energy">    -61.67937798 </i>
   </energy>
  </scstep>
  <scstep>
   <time name="dav">    1.33    1.34</time>
   <time name="total">    1.47    1.48</time>
   <energy>
    <i name="e_fr_energy">    -61.97785884 </i>
    <i name="e_wo_entrp">    -61.94949259 </i>
    <i name="e_0_energy">    -61.96840342 </i>
   </energy>
  </scstep>
  <scstep>
   <time name="dav">    1.35    1.36</time>
   <time name="total">    1.50    1.51</time>
   <energy>
    <i name="e_fr_energy">    -62.09302531 </i>
    <i name="e_wo_entrp">    -62.06183433 </i>
    <i name="e_0_energy">    -62.08262832 </i>
   </energy>
  </scstep>
  <scstep>
   <time name="dav">    1.30    1.31</time>
   <time name="total">    1.44    1.45</time>
   <energy>
    <i name="e_fr_energy">    -62.47213982 </i>
    <i name="e_wo_entrp">    -62.44251112 </i>
    <i name="e_0_energy">    -62.46226359 </i>
   </energy>
  </scstep>
  <scstep>
   <time name="dav">    1.14    1.15</time>
   <time name="total">    1.29    1.30</time>
   <energy>
    <i name="e_fr_energy">    -62.66811947 </i>
    <i name="e_wo_entrp">    -62.63688113 </i>
    <i name="e_0_energy">    -62.65770669 </i>
   </energy>
  </scstep>
  <scstep>
   <time name="dav">    1.24    1.25</time>
   <time name="total">    1.39    1.40</time>
   <energy>
    <i name="e_fr_energy">    -62.77057495 </i>
    <i name="e_wo_entrp">    -62.73990829 </i>
    <i name="e_0_energy">    -62.76035273 </i>
   </energy>
  </scstep>
  <scstep>
   <time name="dav">    1.20    1.21</time>
   <time name="total">    1.35    1.36</time>
   <energy>
    <i name="e_fr_energy">    -62.81497668 </i>
    <i name="e_wo_entrp">    -62.78413994 </i>
    <i name="e_0_energy">    -62.80469777 </i>
   </energy>
  </scstep>
  <scstep>
   <time name="dav">    1.20    1.21</time>
   <time name="total">    1.34    1.36</time>
   <energy>
    <i name="e_fr_energy">    -62.84164700 </i>
    <i name="e_wo_entrp">    -62.81067489 </i>
    <i name="e_0_energy">    -62.83132296 </i>
   </energy>
  </scstep>
  <scstep>
   <time name="dav">    0.97    0.98</time>
   <time name="total">    1.12    1.12</time>
   <energy>
    <i name="e_fr_energy">    -62.84678874 </i>
    <i name="e_wo_entrp">    -62.81617333 </i>
    <i name="e_0_energy">    -62.83658360 </i>
   </energy>
  </scstep>
  <scstep>
   <time name="dav">    0.88    0.89</time>
   <time name="total">    1.03    1.04</time>
   <energy>
    <i name="e_fr_energy">    -62.84880821 </i>
    <i name="e_wo_entrp">    -62.81837890 </i>
    <i name="e_0_energy">    -62.83866510 </i>
   </energy>
  </scstep>
  <scstep>
   <time name="dav">    0.87    0.88</time>
   <time name="total">    1.02    1.03</time>
   <energy>
    <i name="e_fr_energy">    -62.84915101 </i>
    <i name="e_wo_entrp">    -62.81861984 </i>
    <i name="e_0_energy">    -62.83897395 </i>
   </energy>
  </scstep>
  <scstep>
   <time name="dav">    0.86    0.86</time>
   <time name="total">    0.89    0.90</time>
   <energy>
    <i name="alphaZ">    521.04204123 </i>
    <i name="ewald"> 102564.86264916 </i>
    <i name="hartreedc">-124250.32169855 </i>
    <i name="XCdc">    719.52887548 </i>
    <i name="pawpsdc">  21075.18752969 </i>
    <i name="pawaedc"> -22801.38817371 </i>
    <i name="eentropy">     -0.03037921 </i>
    <i name="bandstr">   -172.00933761 </i>
    <i name="atom">  22280.27950853 </i>
    <i name="e_fr_energy">    -62.84898498 </i>
    <i name="e_wo_entrp">    -62.81860578 </i>
    <i name="e_0_energy">    -62.83885858 </i>
   </energy>
  </scstep>
  <structure>
   <crystal>
    <varray name="basis" >
     <v>       3.63000011       0.00000000       0.00000000 </v>
     <v>       0.00000000       3.63000011       0.00000000 </v>
     <v>       0.00000000       0.00000000      27.70499992 </v>
    </varray>
    <i name="volume">    365.06603650 </i>
    <varray name="rec_basis" >
     <v>       0.27548208       0.00000000       0.00000000 </v>
     <v>       0.00000000       0.27548208       0.00000000 </v>
     <v>       0.00000000       0.00000000       0.03609457 </v>
    </varray>
   </crystal>
   <varray name="positions" >
    <v>       0.00000000       0.00000000       0.00000000 </v>
    <v>       0.50000000       0.50000000       0.00000000 </v>
    <v>       0.00000000       0.50000000       0.06551164 </v>
    <v>       0.50000000       0.00000000       0.06551164 </v>
    <v>       0.00000000       0.00000000       0.12876120 </v>
    <v>       0.50000000       0.50000000       0.12876120 </v>
    <v>       0.00000000       0.50000000       0.19193187 </v>
    <v>       0.50000000       0.00000000       0.19193187 </v>
    <v>       0.00000000       0.00000000       0.25406550 </v>
    <v>       0.50000000       0.50000000       0.25406550 </v>
    <v>       0.00000000       0.50000000       0.31747855 </v>
    <v>       0.50000000       0.00000000       0.31747855 </v>
    <v>       0.00000000       0.00000000       0.38132233 </v>
    <v>       0.50000000       0.50000000       0.38132233 </v>
    <v>       0.00000000       0.50000000       0.44440075 </v>
    <v>       0.50000000       0.00000000       0.44440075 </v>
    <v>       0.75000000       0.25000000       0.50150658 </v>
    <v>       0.75000000       0.25000000       0.52843313 </v>
   </varray>
  </structure>
  <varray name="forces" >
   <v>       0.00092356      -0.00092356       0.24545939 </v>
   <v>      -0.00092356       0.00092356       0.24545939 </v>
   <v>       0.00024351       0.00024351      -0.24172073 </v>
   <v>      -0.00024351      -0.00024351      -0.24172073 </v>
   <v>      -0.00411152       0.00411152       0.01154757 </v>
   <v>       0.00411152      -0.00411152       0.01154757 </v>
   <v>      -0.00580244      -0.00580244      -0.00572725 </v>
   <v>       0.00580244       0.00580244      -0.00572725 </v>
   <v>       0.00757469      -0.00757469       0.02630423 </v>
   <v>      -0.00757469       0.00757469       0.02630423 </v>
   <v>      -0.00084453      -0.00084453       0.00642105 </v>
   <v>       0.00084453       0.00084453       0.00642105 </v>
   <v>       0.02388249      -0.02388249       0.00280618 </v>
   <v>      -0.02388249       0.02388249       0.00280618 </v>
   <v>       0.10652383       0.10652383      -0.35991216 </v>
   <v>      -0.10652383      -0.10652383      -0.35991216 </v>
   <v>      -0.00000000       0.00000000      -0.61868138 </v>
   <v>      -0.00000000       0.00000000       1.24832485 </v>
  </varray>
  <varray name="stress" >
   <v>     -22.25471378      -0.17543358       0.00000000 </v>
   <v>      -0.17543358     -22.25471378       0.00000000 </v>
   <v>       0.00000000       0.00000000      -3.45817037 </v>
  </varray>
  <energy>
   <i name="e_fr_energy">    -69.77618739 </i>
   <i name="e_wo_entrp">    -69.74580818 </i>
   <i name="e_0_energy">    -69.76606098 </i>
  </energy>
  <time name="totalsc">   45.57   45.99</time>
 </calculation>
 <calculation>
  <scstep>
   <time name="dav">    1.16    1.17</time>
   <time name="total">    1.31    1.32</time>
   <energy>
    <i name="alphaZ">    521.04204123 </i>
    <i name="ewald"> 102777.99500987 </i>
    <i name="hartreedc">-124463.98717214 </i>
    <i name="XCdc">    719.53132915 </i>
    <i name="pawpsdc">  21075.48764919 </i>
    <i name="pawaedc"> -22801.70823144 </i>
    <i name="eentropy">     -0.03401974 </i>
    <i name="bandstr">   -171.43607599 </i>
    <i name="atom">  22280.27950853 </i>
    <i name="e_fr_energy">    -62.82996134 </i>
    <i name="e_wo_entrp">    -62.79594161 </i>
    <i name="e_0_energy">    -62.81862143 </i>
   </energy>
  </scstep>
  <scstep>
   <time name="dav">    1.47    1.48</time>
   <time name="total">    1.61    1.63</time>
   <energy>
    <i name="e_fr_energy">    -62.85227558 </i>
    <i name="e_wo_entrp">    -62.82278931 </i>
    <i name="e_0_energy">    -62.84244682 </i>
   </energy>
  </scstep>
  <scstep>
   <time name="dav">    1.27    1.28</time>
   <time name="total">    1.42    1.43</time>
   <energy>
    <i name="e_fr_energy">    -62.86551740 </i>
    <i name="e_wo_entrp">    -62.83981507 </i>
    <i name="e_0_energy">    -62.85694995 </i>
   </energy>
  </scstep>
  <scstep>
   <time name="dav">    1.36    1.37</time>
   <time name="total">    1.50    1.52</time>
   <energy>
    <i name="e_fr_energy">    -62.84585801 </i>
    <i name="e_wo_entrp">    -62.81585798 </i>
    <i name="e_0_energy">    -62.83585800 </i>
   </energy>
  </scstep>
  <scstep>
   <time name="dav">    1.40    1.41</time>
   <time name="total">    1.54    1.56</time>
   <energy>
    <i name="e_fr_energy">    -62.84617961 </i>
    <i name="e_wo_entrp">    -62.80572085 </i>
    <i name="e_0_energy">    -62.83269336 </i>
   </energy>
  </scstep>
  <scstep>
   <time name="dav">    1.52    1.53</time>
   <time name="total">    1.66    1.68</time>
   <energy>
    <i name="e_fr_energy">    -62.84552357 </i>
    <i name="e_wo_entrp">    -62.81905533 </i>
    <i name="e_0_energy">    -62.83670083 </i>
   </energy>
  </scstep>
  <scstep>
   <time name="dav">    1.56    1.57</time>
   <time name="total">    1.71    1.72</time>
   <energy>
    <i name="e_fr_energy">    -62.84354631 </i>
    <i name="e_wo_entrp">    -62.81043600 </i>
    <i name="e_0_energy">    -62.83250954 </i>
   </energy>
  </scstep>
  <scstep>
   <time name="dav">    1.17    1.18</time>
   <time name="total">    1.21    1.22</time>
   <energy>
    <i name="alphaZ">    521.04204123 </i>
    <i name="ewald"> 102777.99500987 </i>
    <i name="hartreedc">-124457.04224774 </i>
    <i name="XCdc">    719.39143025 </i>
    <i name="pawpsdc">  21079.72000259 </i>
    <i name="pawaedc"> -22806.07824306 </i>
    <i name="eentropy">     -0.03299834 </i>
    <i name="bandstr">   -178.11820778 </i>
    <i name="atom">  22280.27950853 </i>
    <i name="e_fr_energy">    -62.84370444 </i>
    <i name="e_wo_entrp">    -62.81070610 </i>
    <i name="e_0_energy">    -62.83270499 </i>
   </energy>
  </scstep>
  <structure>
   <crystal>
    <varray name="basis" >
     <v>       3.63000011       0.00000000       0.00000000 </v>
     <v>       0.00000000       3.63000011       0.00000000 </v>
     <v>       0.00000000       0.00000000      27.70499992 </v>
    </varray>
    <i name="volume">    365.06603650 </i>
    <varray name="rec_basis" >
     <v>       0.27548208       0.00000000       0.00000000 </v>
     <v>       0.00000000       0.27548208       0.00000000 </v>
     <v>       0.00000000       0.00000000       0.03609457 </v>
    </varray>
   </crystal>
   <varray name="positions" >
    <v>       0.00001227      -0.00001227       0.00042742 </v>
    <v>       0.49998773       0.50001227       0.00042742 </v>
    <v>       0.00000324       0.50000324       0.06509073 </v>
    <v>       0.49999676      -0.00000324       0.06509073 </v>
    <v>      -0.00005464       0.00005464       0.12878130 </v>
    <v>       0.50005464       0.49994536       0.12878130 </v>
    <v>      -0.00007711       0.49992289       0.19192189 </v>
    <v>       0.50007711       0.00007711       0.19192189 </v>
    <v>       0.00010067      -0.00010067       0.25411131 </v>
    <v>       0.49989933       0.50010067       0.25411131 </v>
    <v>      -0.00001122       0.49998878       0.31748973 </v>
    <v>       0.50001122       0.00001122       0.31748973 </v>
    <v>       0.00031740      -0.00031740       0.38132721 </v>
    <v>       0.49968260       0.50031740       0.38132721 </v>
    <v>       0.00141570       0.50141570       0.44377404 </v>
    <v>       0.49858430      -0.00141570       0.44377404 </v>
    <v>       0.75000000       0.25000000       0.50042927 </v>
    <v>       0.75000000       0.25000000       0.53060683 </v>
   </varray>
  </structure>
  <varray name="forces" >
   <v>       0.00016411      -0.00016411       0.15039550 </v>
   <v>      -0.00016411       0.00016411       0.15039550 </v>
   <v>       0.00062708       0.00062708      -0.11220652 </v>
   <v>      -0.00062708      -0.00062708      -0.11220652 </v>
   <v>       0.00018487      -0.00018487      -0.03621696 </v>
   <v>      -0.00018487       0.00018487      -0.03621696 </v>
   <v>      -0.00219138      -0.00219138       0.00295706 </v>
   <v>       0.00219138       0.00219138       0.00295706 </v>
   <v>       0.00291827      -0.00291827       0.01588225 </v>
   <v>      -0.00291827       0.00291827       0.01588225 </v>
   <v>      -0.00583719      -0.00583719       0.00636934 </v>
   <v>       0.00583719       0.00583719       0.00636934 </v>
   <v>      -0.00014708       0.00014708      -0.06919148 </v>
   <v>       0.00014708      -0.00014708      -0.06919148 </v>
   <v>       0.01763776       0.01763776      -0.20855837 </v>
   <v>      -0.01763776      -0.01763776      -0.20855837 </v>
   <v>       0.00000000      -0.00000000       1.16143642 </v>
   <v>       0.00000000      -0.00000000      -0.66029810 </v>
  </varray>
  <varray name="stress" >
   <v>     -19.57249993      -0.35281719      -0.00000000 </v>
   <v>      -0.35281719     -19.57249993       0.00000000 </v>
   <v>       0.00000000      -0.00000000      -7.35249066 </v>
  </varray>
  <energy>
   <i name="e_fr_energy">    -69.79002854 </i>
   <i name="e_wo_entrp">    -69.75703021 </i>
   <i name="e_0_energy">    -69.77902910 </i>
  </energy>
  <time name="totalsc">   13.85   14.01</time>
 </calculation>
 <calculation>
  <scstep>
   <time name="dav">    1.16    1.17</time>
   <time name="total">    1.31    1.32</time>
   <energy>
    <i name="alphaZ">    521.04204123 </i>
    <i name="ewald"> 102678.33269880 </i>
    <i name="hartreedc">-124357.24207083 </i>
    <i name="XCdc">    719.39060492 </i>
    <i name="pawpsdc">  21080.00319247 </i>
    <i name="pawaedc"> -22806.37940794 </i>
    <i name="eentropy">     -0.03139070 </i>
    <i name="bandstr">   -178.26410559 </i>
    <i name="atom">  22280.27950853 </i>
    <i name="e_fr_energy">    -62.86892911 </i>
    <i name="e_wo_entrp">    -62.83753841 </i>
    <i name="e_0_energy">    -62.85846555 </i>
   </energy>
  </scstep>
  <scstep>
   <time name="dav">    1.65    1.66</time>
   <time name="total">    1.79    1.80</time>
   <energy>
    <i name="e_fr_energy">    -62.87690706 </i>
    <i name="e_wo_entrp">    -62.84460618 </i>
    <i name="e_0_energy">    -62.86614010 </i>
   </energy>
  </scstep>
  <scstep>
   <time name="dav">    1.55    1.57</time>
   <time name="total">    1.70    1.71</time>
   <energy>
    <i name="e_fr_energy">    -62.87350112 </i>
    <i name="e_wo_entrp">    -62.84107344 </i>
    <i name="e_0_energy">    -62.86269189 </i>
   </energy>
  </scstep>
  <scstep>
   <time name="dav">    1.22    1.23</time>
   <time name="total">    1.36    1.37</time>
   <energy>
    <i name="e_fr_energy">    -62.87338797 </i>
    <i name="e_wo_entrp">    -62.84537196 </i>
    <i name="e_0_energy">    -62.86404930 </i>
   </energy>
  </scstep>
  <scstep>
   <time name="dav">    1.28    1.29</time>
   <time name="total">    1.42    1.43</time>
   <energy>
    <i name="e_fr_energy">    -62.87306215 </i>
    <i name="e_wo_entrp">    -62.83743762 </i>
    <i name="e_0_energy">    -62.86118731 </i>
   </energy>
  </scstep>
  <scstep>
   <time name="dav">    1.20    1.21</time>
   <time name="total">    1.34    1.35</time>
   <energy>
    <i name="e_fr_energy">    -62.87266826 </i>
    <i name="e_wo_entrp">    -62.84190791 </i>
    <i name="e_0_energy">    -62.86241481 </i>
   </energy>
  </scstep>
  <scstep>
   <time name="dav">    1.04    1.05</time>
   <time name="total">    1.07    1.08</time>
   <energy>
    <i name="alphaZ">    521.04204123 </i>
    <i name="ewald"> 102678.33269880 </i>
    <i name="hartreedc">-124359.32824826 </i>
    <i name="XCdc">    719.44948603 </i>
    <i name="pawpsdc">  21078.05792221 </i>
    <i name="pawaedc"> -22804.38409936 </i>
    <i name="eentropy">     -0.03181513 </i>
    <i name="bandstr">   -176.29002966 </i>
    <i name="atom">  22280.27950853 </i>
    <i name="e_fr_energy">    -62.87253561 </i>
    <i name="e_wo_entrp">    -62.84072048 </i>
    <i name="e_0_energy">    -62.86193057 </i>
   </energy>
  </scstep>
  <structure>
   <crystal>
    <varray name="basis" >
     <v>       3.63000011       0.00000000       0.00000000 </v>
     <v>       0.00000000       3.63000011       0.00000000 </v>
     <v>       0.00000000       0.00000000      27.70499992 </v>
    </varray>
    <i name="volume">    365.06603650 </i>
    <varray name="rec_basis" >
     <v>       0.27548208       0.00000000       0.00000000 </v>
     <v>       0.00000000       0.27548208       0.00000000 </v>
     <v>       0.00000000       0.00000000       0.03609457 </v>
    </varray>
   </crystal>
   <varray name="positions" >
    <v>       0.00000655      -0.00000655       0.00022798 </v>
    <v>       0.49999345       0.50000655       0.00022798 </v>
    <v>       0.00000173       0.50000173       0.06528714 </v>
    <v>       0.49999827      -0.00000173       0.06528714 </v>
    <v>      -0.00002915       0.00002915       0.12877192 </v>
    <v>       0.50002915       0.49997085       0.12877192 </v>
    <v>      -0.00004113       0.49995887       0.19192655 </v>
    <v>       0.50004113       0.00004113       0.19192655 </v>
    <v>       0.00005369      -0.00005369       0.25408993 </v>
    <v>       0.49994631       0.50005369       0.25408993 </v>
    <v>      -0.00000599       0.49999401       0.31748452 </v>
    <v>       0.50000599       0.00000599       0.31748452 </v>
    <v>       0.00016930      -0.00016930       0.38132493 </v>
    <v>       0.49983070       0.50016930       0.38132493 </v>
    <v>       0.00075511       0.50075511       0.44406647 </v>
    <v>       0.49924488      -0.00075511       0.44406647 </v>
    <v>       0.75000000       0.25000000       0.50093196 </v>
    <v>       0.75000000       0.25000000       0.52959255 </v>
   </varray>
  </structure>
  <varray name="forces" >
   <v>       0.00063689      -0.00063689       0.19265236 </v>
   <v>      -0.00063689       0.00063689       0.19265236 </v>
   <v>       0.00045133       0.00045133      -0.18003391 </v>
   <v>      -0.00045133      -0.00045133      -0.18003391 </v>
   <v>      -0.00229281       0.00229281      -0.01181119 </v>
   <v>       0.00229281      -0.00229281      -0.01181119 </v>
   <v>      -0.00482350      -0.00482350       0.00300663 </v>
   <v>       0.00482350       0.00482350       0.00300663 </v>
   <v>       0.00636197      -0.00636197       0.02951526 </v>
   <v>      -0.00636197       0.00636197       0.02951526 </v>
   <v>      -0.00369302      -0.00369302       0.01219544 </v>
   <v>       0.00369302       0.00369302       0.01219544 </v>
   <v>       0.01251882      -0.01251882      -0.03531724 </v>
   <v>      -0.01251882       0.01251882      -0.03531724 </v>
   <v>       0.06253922       0.06253922      -0.28824885 </v>
   <v>      -0.06253922      -0.06253922      -0.28824885 </v>
   <v>       0.00000000       0.00000000       0.59792462 </v>
   <v>       0.00000000      -0.00000000      -0.04184161 </v>
  </varray>
  <varray name="stress" >
   <v>     -21.16238864      -0.28070755       0.00000000 </v>
   <v>      -0.28070755     -21.16238864       0.00000000 </v>
   <v>       0.00000000       0.00000000      -6.65946166 </v>
  </varray>
  <energy>
   <i name="e_fr_energy">    -69.80585042 </i>
   <i name="e_wo_entrp">    -69.77403528 </i>
   <i name="e_0_energy">    -69.79524537 </i>
  </energy>
  <time name="totalsc">   11.88   11.99</time>
 </calculation>
 <calculation>
  <scstep>
   <time name="dav">    1.15    1.16</time>
   <time name="total">    1.30    1.31</time>
   <energy>
    <i name="alphaZ">    521.04204123 </i>
    <i name="ewald"> 102895.22342464 </i>
    <i name="hartreedc">-124575.84148436 </i>
    <i name="XCdc">    719.52010250 </i>
    <i name="pawpsdc">  21078.05879711 </i>
    <i name="pawaedc"> -22804.38489600 </i>
    <i name="eentropy">     -0.03347304 </i>
    <i name="bandstr">   -176.74601704 </i>
    <i name="atom">  22280.27950853 </i>
    <i name="e_fr_energy">    -62.88199643 </i>
    <i name="e_wo_entrp">    -62.84852339 </i>
    <i name="e_0_energy">    -62.87083875 </i>
   </energy>
  </scstep>
  <scstep>
   <time name="dav">    1.56    1.58</time>
   <time name="total">    1.71    1.72</time>
   <energy>
    <i name="e_fr_energy">    -62.90073053 </i>
    <i name="e_wo_entrp">    -62.87130829 </i>
    <i name="e_0_energy">    -62.89092311 </i>
   </energy>
  </scstep>
  <scstep>
   <time name="dav">    1.36    1.38</time>
   <time name="total">    1.51    1.53</time>
   <energy>
    <i name="e_fr_energy">    -62.89544420 </i>
    <i name="e_wo_entrp">    -62.86361390 </i>
    <i name="e_0_energy">    -62.88483410 </i>
   </energy>
  </scstep>
  <scstep>
   <time name="dav">    1.19    1.20</time>
   <time name="total">    1.33    1.34</time>
   <energy>
    <i name="e_fr_energy">    -62.89398125 </i>
    <i name="e_wo_entrp">    -62.86083727 </i>
    <i name="e_0_energy">    -62.88293326 </i>
   </energy>
  </scstep>
  <scstep>
   <time name="dav">    1.17    1.18</time>
   <time name="total">    1.32    1.33</time>
   <energy>
    <i name="e_fr_energy">    -62.89399216 </i>
    <i name="e_wo_entrp">    -62.86130070 </i>
    <i name="e_0_energy">    -62.88309501 </i>
   </energy>
  </scstep>
  <scstep>
   <time name="dav">    1.27    1.28</time>
   <time name="total">    1.30    1.31</time>
   <energy>
    <i name="alphaZ">    521.04204123 </i>
    <i name="ewald"> 102895.22342464 </i>
    <i name="hartreedc">-124575.19864217 </i>
    <i name="XCdc">    719.51088082 </i>
    <i name="pawpsdc">  21087.06859310 </i>
    <i name="pawaedc"> -22813.59792600 </i>
    <i name="eentropy">     -0.03493719 </i>
    <i name="bandstr">   -177.18674997 </i>
    <i name="atom">  22280.27950853 </i>
    <i name="e_fr_energy">    -62.89380701 </i>
    <i name="e_wo_entrp">    -62.85886982 </i>
    <i name="e_0_energy">    -62.88216128 </i>
   </energy>
  </scstep>
  <structure>
   <crystal>
    <varray name="basis" >
     <v>       3.63000011       0.00000000       0.00000000 </v>
     <v>       0.00000000       3.63000011       0.00000000 </v>
     <v>       0.00000000       0.00000000      27.70499992 </v>
    </varray>
    <i name="volume">    365.06603650 </i>
    <varray name="rec_basis" >
     <v>       0.27548208       0.00000000       0.00000000 </v>
     <v>       0.00000000       0.27548208       0.00000000 </v>
     <v>       0.00000000       0.00000000       0.03609457 </v>
    </varray>
   </crystal>
   <varray name="positions" >
    <v>       0.00001731      -0.00001731       0.00063957 </v>
    <v>       0.49998269       0.50001731       0.00063957 </v>
    <v>       0.00000798       0.50000798       0.06489710 </v>
    <v>       0.49999202      -0.00000798       0.06489710 </v>
    <v>      -0.00007051       0.00007051       0.12875833 </v>
    <v>       0.50007051       0.49992949       0.12875833 </v>
    <v>      -0.00011864       0.49988136       0.19192879 </v>
    <v>       0.50011864       0.00011864       0.19192879 </v>
    <v>       0.00015566      -0.00015566       0.25414804 </v>
    <v>       0.49984434       0.50015566       0.25414804 </v>
    <v>      -0.00005331       0.49994669       0.31750658 </v>
    <v>       0.50005331       0.00005331       0.31750658 </v>
    <v>       0.00039992      -0.00039992       0.38127040 </v>
    <v>       0.49960008       0.50039992       0.38127040 </v>
    <v>       0.00186454       0.50186454       0.44345386 </v>
    <v>       0.49813546      -0.00186454       0.44345386 </v>
    <v>       0.75000000       0.25000000       0.50160517 </v>
    <v>       0.75000000       0.25000000       0.53007286 </v>
   </varray>
  </structure>
  <varray name="forces" >
   <v>      -0.00001891       0.00001891       0.11890283 </v>
   <v>       0.00001891      -0.00001891       0.11890283 </v>
   <v>       0.00065227       0.00065227      -0.06002873 </v>
   <v>      -0.00065227      -0.00065227      -0.06002873 </v>
   <v>       0.00076412      -0.00076412      -0.04767493 </v>
   <v>      -0.00076412       0.00076412      -0.04767493 </v>
   <v>      -0.00164970      -0.00164970       0.00328346 </v>
   <v>       0.00164970       0.00164970       0.00328346 </v>
   <v>       0.00216594      -0.00216594       0.01534849 </v>
   <v>      -0.00216594       0.00216594       0.01534849 </v>
   <v>      -0.00473806      -0.00473806       0.00427406 </v>
   <v>       0.00473806       0.00473806       0.00427406 </v>
   <v>      -0.01102464       0.01102464      -0.09647998 </v>
   <v>       0.01102464      -0.01102464      -0.09647998 </v>
   <v>       0.01185270       0.01185270      -0.20247955 </v>
   <v>      -0.01185270      -0.01185270      -0.20247955 </v>
   <v>       0.00000000      -0.00000000       0.51996036 </v>
   <v>       0.00000000      -0.00000000       0.00974836 </v>
  </varray>
  <varray name="stress" >
   <v>     -22.07561289      -0.27738689       0.00000000 </v>
   <v>      -0.27738689     -22.07561289      -0.00000000 </v>
   <v>       0.00000000       0.00000000      -7.40726080 </v>
  </varray>
  <energy>
   <i name="e_fr_energy">    -69.83168580 </i>
   <i name="e_wo_entrp">    -69.79674860 </i>
   <i name="e_0_energy">    -69.82004007 </i>
  </energy>
  <time name="totalsc">   10.36   10.49</time>
 </calculation>
 <calculation>
  <scstep>
   <time name="dav">    1.15    1.16</time>
   <time name="total">    1.30    1.31</time>
   <energy>
    <i name="alphaZ">    521.04204123 </i>
    <i name="ewald"> 103428.32862342 </i>
    <i name="hartreedc">-125105.53402063 </i>
    <i name="XCdc">    719.70228746 </i>
    <i name="pawpsdc">  21087.53963428 </i>
    <i name="pawaedc"> -22814.06550085 </i>
    <i name="eentropy">     -0.03454999 </i>
    <i name="bandstr">   -180.08576940 </i>
    <i name="atom">  22280.27950853 </i>
    <i name="e_fr_energy">    -62.82774595 </i>
    <i name="e_wo_entrp">    -62.79319596 </i>
    <i name="e_0_energy">    -62.81622928 </i>
   </energy>
  </scstep>
  <scstep>
   <time name="dav">    1.64    1.65</time>
   <time name="total">    1.79    1.80</time>
   <energy>
    <i name="e_fr_energy">    -62.97092161 </i>
    <i name="e_wo_entrp">    -62.94660698 </i>
    <i name="e_0_energy">    -62.96281673 </i>
   </energy>
  </scstep>
  <scstep>
   <time name="dav">    1.47    1.48</time>
   <time name="total">    1.61    1.63</time>
   <energy>
    <i name="e_fr_energy">    -62.93298786 </i>
    <i name="e_wo_entrp">    -62.90402241 </i>
    <i name="e_0_energy">    -62.92333271 </i>
   </energy>
  </scstep>
  <scstep>
   <time name="dav">    1.43    1.44</time>
   <time name="total">    1.58    1.59</time>
   <energy>
    <i name="e_fr_energy">    -62.91223589 </i>
    <i name="e_wo_entrp">    -62.88535748 </i>
    <i name="e_0_energy">    -62.90327642 </i>
   </energy>
  </scstep>
  <scstep>
   <time name="dav">    1.44    1.46</time>
   <time name="total">    1.59    1.61</time>
   <energy>
    <i name="e_fr_energy">    -62.90829680 </i>
    <i name="e_wo_entrp">    -62.87050928 </i>
    <i name="e_0_energy">    -62.89570096 </i>
   </energy>
  </scstep>
  <scstep>
   <time name="dav">    1.21    1.22</time>
   <time name="total">    1.36    1.37</time>
   <energy>
    <i name="e_fr_energy">    -62.90802134 </i>
    <i name="e_wo_entrp">    -62.87299319 </i>
    <i name="e_0_energy">    -62.89634529 </i>
   </energy>
  </scstep>
  <scstep>
   <time name="dav">    1.27    1.28</time>
   <time name="total">    1.42    1.43</time>
   <energy>
    <i name="e_fr_energy">    -62.90636389 </i>
    <i name="e_wo_entrp">    -62.86919630 </i>
    <i name="e_0_energy">    -62.89397469 </i>
   </energy>
  </scstep>
  <scstep>
   <time name="dav">    1.49    1.50</time>
   <time name="total">    1.64    1.65</time>
   <energy>
    <i name="e_fr_energy">    -62.90658780 </i>
    <i name="e_wo_entrp">    -62.86985621 </i>
    <i name="e_0_energy">    -62.89434394 </i>
   </energy>
  </scstep>
  <scstep>
   <time name="dav">    1.15    1.16</time>
   <time name="total">    1.30    1.31</time>
   <energy>
    <i name="e_fr_energy">    -62.90637747 </i>
    <i name="e_wo_entrp">    -62.86978413 </i>
    <i name="e_0_energy">    -62.89417969 </i>
   </energy>
  </scstep>
  <scstep>
   <time name="dav">    0.83    0.83</time>
   <time name="total">    0.86    0.87</time>
   <energy>
    <i name="alphaZ">    521.04204123 </i>
    <i name="ewald"> 103428.32862342 </i>
    <i name="hartreedc">-125103.55725963 </i>
    <i name="XCdc">    719.64864086 </i>
    <i name="pawpsdc">  21116.76373905 </i>
    <i name="pawaedc"> -22843.83509435 </i>
    <i name="eentropy">     -0.03679249 </i>
    <i name="bandstr">   -181.53970743 </i>
    <i name="atom">  22280.27950853 </i>
    <i name="e_fr_energy">    -62.90630081 </i>
    <i name="e_wo_entrp">    -62.86950832 </i>
    <i name="e_0_energy">    -62.89403664 </i>
   </energy>
  </scstep>
  <structure>
   <crystal>
    <varray name="basis" >
     <v>       3.63000011       0.00000000       0.00000000 </v>
     <v>       0.00000000       3.63000011       0.00000000 </v>
     <v>       0.00000000       0.00000000      27.70499992 </v>
    </varray>
    <i name="volume">    365.06603650 </i>
    <varray name="rec_basis" >
     <v>       0.27548208       0.00000000       0.00000000 </v>
     <v>       0.00000000       0.27548208       0.00000000 </v>
     <v>       0.00000000       0.00000000       0.03609457 </v>
    </varray>
   </crystal>
   <varray name="positions" >
    <v>       0.00004358      -0.00004358       0.00164460 </v>
    <v>       0.49995642       0.50004358       0.00164460 </v>
    <v>       0.00002324       0.50002324       0.06394471 </v>
    <v>       0.49997676      -0.00002324       0.06394471 </v>
    <v>      -0.00017151       0.00017151       0.12872514 </v>
    <v>       0.50017151       0.49982849       0.12872514 </v>
    <v>      -0.00030789       0.49969211       0.19193426 </v>
    <v>       0.50030789       0.00030789       0.19193426 </v>
    <v>       0.00040463      -0.00040463       0.25428994 </v>
    <v>       0.49959537       0.50040463       0.25428994 </v>
    <v>      -0.00016886       0.49983114       0.31756046 </v>
    <v>       0.50016886       0.00016886       0.31756046 </v>
    <v>       0.00096307      -0.00096307       0.38113725 </v>
    <v>       0.49903693       0.50096307       0.38113725 </v>
    <v>       0.00457354       0.50457354       0.44195797 </v>
    <v>       0.49542646      -0.00457354       0.44195797 </v>
    <v>       0.75000000       0.25000000       0.50324904 </v>
    <v>       0.75000000       0.25000000       0.53124569 </v>
   </varray>
  </structure>
  <varray name="forces" >
   <v>      -0.00116473       0.00116473      -0.07083257 </v>
   <v>       0.00116473      -0.00116473      -0.07083257 </v>
   <v>       0.00081807       0.00081807       0.24163486 </v>
   <v>      -0.00081807      -0.00081807       0.24163486 </v>
   <v>       0.00697707      -0.00697707      -0.13422916 </v>
   <v>      -0.00697707       0.00697707      -0.13422916 </v>
   <v>       0.00399231       0.00399231       0.00544011 </v>
   <v>      -0.00399231      -0.00399231       0.00544011 </v>
   <v>      -0.00525228       0.00525228      -0.01566025 </v>
   <v>       0.00525228      -0.00525228      -0.01566025 </v>
   <v>      -0.00871392      -0.00871392      -0.00862050 </v>
   <v>       0.00871392       0.00871392      -0.00862050 </v>
   <v>      -0.06847119       0.06847119      -0.24230930 </v>
   <v>       0.06847119      -0.06847119      -0.24230930 </v>
   <v>      -0.09970950      -0.09970950       0.01360173 </v>
   <v>       0.09970950       0.09970950       0.01360173 </v>
   <v>      -0.00000000      -0.00000000       0.25861454 </v>
   <v>      -0.00000000      -0.00000000       0.16333562 </v>
  </varray>
  <varray name="stress" >
   <v>     -18.83126272      -0.18061690       0.00000000 </v>
   <v>      -0.18061690     -18.83126272      -0.00000000 </v>
   <v>       0.00000000       0.00000000      -2.70035882 </v>
  </varray>
  <energy>
   <i name="e_fr_energy">    -69.85551289 </i>
   <i name="e_wo_entrp">    -69.81872040 </i>
   <i name="e_0_energy">    -69.84324873 </i>
  </energy>
  <time name="totalsc">   16.35   16.52</time>
 </calculation>
 <calculation>
  <scstep>
   <time name="dav">    1.15    1.16</time>
   <time name="total">    1.31    1.32</time>
   <energy>
    <i name="alphaZ">    521.04204123 </i>
    <i name="ewald"> 103768.18701959 </i>
    <i name="hartreedc">-125443.14115506 </i>
    <i name="XCdc">    719.69364861 </i>
    <i name="pawpsdc">  21116.84964947 </i>
    <i name="pawaedc"> -22843.88966986 </i>
    <i name="eentropy">     -0.03778272 </i>
    <i name="bandstr">   -181.88898426 </i>
    <i name="atom">  22280.27950853 </i>
    <i name="e_fr_energy">    -62.90572447 </i>
    <i name="e_wo_entrp">    -62.86794175 </i>
    <i name="e_0_energy">    -62.89313023 </i>
   </energy>
  </scstep>
  <scstep>
   <time name="dav">    1.46    1.47</time>
   <time name="total">    1.61    1.63</time>
   <energy>
    <i name="e_fr_energy">    -62.92783553 </i>
    <i name="e_wo_entrp">    -62.89181003 </i>
    <i name="e_0_energy">    -62.91582703 </i>
   </energy>
  </scstep>
  <scstep>
   <time name="dav">    1.22    1.23</time>
   <time name="total">    1.37    1.38</time>
   <energy>
    <i name="e_fr_energy">    -62.92358860 </i>
    <i name="e_wo_entrp">    -62.88688724 </i>
    <i name="e_0_energy">    -62.91135481 </i>
   </energy>
  </scstep>
  <scstep>
   <time name="dav">    1.18    1.19</time>
   <time name="total">    1.33    1.34</time>
   <energy>
    <i name="e_fr_energy">    -62.92276448 </i>
    <i name="e_wo_entrp">    -62.88559110 </i>
    <i name="e_0_energy">    -62.91037335 </i>
   </energy>
  </scstep>
  <scstep>
   <time name="dav">    1.31    1.32</time>
   <time name="total">    1.46    1.47</time>
   <energy>
    <i name="e_fr_energy">    -62.92273548 </i>
    <i name="e_wo_entrp">    -62.88335633 </i>
    <i name="e_0_energy">    -62.90960910 </i>
   </energy>
  </scstep>
  <scstep>
   <time name="dav">    1.30    1.31</time>
   <time name="total">    1.45    1.46</time>
   <energy>
    <i name="e_fr_energy">    -62.92322945 </i>
    <i name="e_wo_entrp">    -62.89063416 </i>
    <i name="e_0_energy">    -62.91236436 </i>
   </energy>
  </scstep>
  <scstep>
   <time name="dav">    1.48    1.49</time>
   <time name="total">    1.63    1.64</time>
   <energy>
    <i name="e_fr_energy">    -62.92189077 </i>
    <i name="e_wo_entrp">    -62.88340286 </i>
    <i name="e_0_energy">    -62.90906146 </i>
   </energy>
  </scstep>
  <scstep>
   <time name="dav">    0.90    0.91</time>
   <time name="total">    0.94    0.95</time>
   <energy>
    <i name="alphaZ">    521.04204123 </i>
    <i name="ewald"> 103768.18701959 </i>
    <i name="hartreedc">-125441.94442799 </i>
    <i name="XCdc">    719.70394678 </i>
    <i name="pawpsdc">  21124.42978535 </i>
    <i name="pawaedc"> -22851.63707030 </i>
    <i name="eentropy">     -0.03764362 </i>
    <i name="bandstr">   -182.94504603 </i>
    <i name="atom">  22280.27950853 </i>
    <i name="e_fr_energy">    -62.92188647 </i>
    <i name="e_wo_entrp">    -62.88424285 </i>
    <i name="e_0_energy">    -62.90933860 </i>
   </energy>
  </scstep>
  <structure>
   <crystal>
    <varray name="basis" >
     <v>       3.63000011       0.00000000       0.00000000 </v>
     <v>       0.00000000       3.63000011       0.00000000 </v>
     <v>       0.00000000       0.00000000      27.70499992 </v>
    </varray>
    <i name="volume">    365.06603650 </i>
    <varray name="rec_basis" >
     <v>       0.27548208       0.00000000       0.00000000 </v>
     <v>       0.00000000       0.27548208       0.00000000 </v>
     <v>       0.00000000       0.00000000       0.03609457 </v>
    </varray>
   </crystal>
   <varray name="positions" >
    <v>       0.00003244      -0.00003244       0.00185127 </v>
    <v>       0.49996756       0.50003244       0.00185127 </v>
    <v>       0.00004358       0.50004358       0.06415894 </v>
    <v>       0.49995642      -0.00004358       0.06415894 </v>
    <v>      -0.00008387       0.00008387       0.12839740 </v>
    <v>       0.50008387       0.49991613       0.12839740 </v>
    <v>      -0.00030655       0.49969345       0.19194907 </v>
    <v>       0.50030655       0.00030655       0.19194907 </v>
    <v>       0.00040287      -0.00040287       0.25430582 </v>
    <v>       0.49959713       0.50040287       0.25430582 </v>
    <v>      -0.00036803       0.49963197       0.31756020 </v>
    <v>       0.50036803       0.00036803       0.31756020 </v>
    <v>      -0.00005585       0.00005585       0.38051843 </v>
    <v>       0.50005585       0.49994415       0.38051843 </v>
    <v>       0.00379102       0.50379102       0.44143459 </v>
    <v>       0.49620898      -0.00379102       0.44143459 </v>
    <v>       0.75000000       0.25000000       0.50446702 </v>
    <v>       0.75000000       0.25000000       0.53206490 </v>
   </varray>
  </structure>
  <varray name="forces" >
   <v>      -0.00123075       0.00123075      -0.08232344 </v>
   <v>       0.00123075      -0.00123075      -0.08232344 </v>
   <v>      -0.00077033      -0.00077033       0.17303475 </v>
   <v>       0.00077033       0.00077033       0.17303475 </v>
   <v>       0.00392269      -0.00392269      -0.02788426 </v>
   <v>      -0.00392269       0.00392269      -0.02788426 </v>
   <v>       0.00336335       0.00336335      -0.02821884 </v>
   <v>      -0.00336335      -0.00336335      -0.02821884 </v>
   <v>      -0.00304958       0.00304958      -0.02145510 </v>
   <v>       0.00304958      -0.00304958      -0.02145510 </v>
   <v>       0.00821041       0.00821041      -0.07617688 </v>
   <v>      -0.00821041      -0.00821041      -0.07617688 </v>
   <v>      -0.01767170       0.01767170      -0.16062053 </v>
   <v>       0.01767170      -0.01767170      -0.16062053 </v>
   <v>      -0.06454973      -0.06454973       0.02617301 </v>
   <v>       0.06454973       0.06454973       0.02617301 </v>
   <v>      -0.00000000       0.00000000      -0.00272033 </v>
   <v>      -0.00000000       0.00000000       0.39766288 </v>
  </varray>
  <varray name="stress" >
   <v>     -16.82564984      -0.17068825       0.00000000 </v>
   <v>      -0.17068825     -16.82564984       0.00000000 </v>
   <v>       0.00000000       0.00000000       0.24299971 </v>
  </varray>
  <energy>
   <i name="e_fr_energy">    -69.87753789 </i>
   <i name="e_wo_entrp">    -69.83989427 </i>
   <i name="e_0_energy">    -69.86499001 </i>
  </energy>
  <time name="totalsc">   12.99   13.16</time>
 </calculation>
 <calculation>
  <scstep>
   <time name="dav">    1.12    1.13</time>
   <time name="total">    1.28    1.29</time>
   <energy>
    <i name="alphaZ">    521.04204123 </i>
    <i name="ewald"> 104282.21790814 </i>
    <i name="hartreedc">-125955.49789369 </i>
    <i name="XCdc">    719.78413131 </i>
    <i name="pawpsdc">  21124.51949530 </i>
    <i name="pawaedc"> -22851.70742864 </i>
    <i name="eentropy">     -0.03939105 </i>
    <i name="bandstr">   -183.48660023 </i>
    <i name="atom">  22280.27950853 </i>
    <i name="e_fr_energy">    -62.88822909 </i>
    <i name="e_wo_entrp">    -62.84883804 </i>
    <i name="e_0_energy">    -62.87509874 </i>
   </energy>
  </scstep>
  <scstep>
   <time name="dav">    1.49    1.51</time>
   <time name="total">    1.64    1.66</time>
   <energy>
    <i name="e_fr_energy">    -62.93789642 </i>
    <i name="e_wo_entrp">    -62.90060688 </i>
    <i name="e_0_energy">    -62.92546658 </i>
   </energy>
  </scstep>
  <scstep>
   <time name="dav">    1.26    1.27</time>
   <time name="total">    1.41    1.42</time>
   <energy>
    <i name="e_fr_energy">    -62.93099606 </i>
    <i name="e_wo_entrp">    -62.89368380 </i>
    <i name="e_0_energy">    -62.91855864 </i>
   </energy>
  </scstep>
  <scstep>
   <time name="dav">    1.35    1.36</time>
   <time name="total">    1.50    1.51</time>
   <energy>
    <i name="e_fr_energy">    -62.92752419 </i>
    <i name="e_wo_entrp">    -62.88986546 </i>
    <i name="e_0_energy">    -62.91497128 </i>
   </energy>
  </scstep>
  <scstep>
   <time name="dav">    1.39    1.40</time>
   <time name="total">    1.54    1.55</time>
   <energy>
    <i name="e_fr_energy">    -62.92788934 </i>
    <i name="e_wo_entrp">    -62.88392625 </i>
    <i name="e_0_energy">    -62.91323497 </i>
   </energy>
  </scstep>
  <scstep>
   <time name="dav">    1.37    1.38</time>
   <time name="total">    1.52    1.53</time>
   <energy>
    <i name="e_fr_energy">    -62.92719043 </i>
    <i name="e_wo_entrp">    -62.89205244 </i>
    <i name="e_0_energy">    -62.91547776 </i>
   </energy>
  </scstep>
  <scstep>
   <time name="dav">    1.71    1.72</time>
   <time name="total">    1.86    1.88</time>
   <energy>
    <i name="e_fr_energy">    -62.92539175 </i>
    <i name="e_wo_entrp">    -62.88515860 </i>
    <i name="e_0_energy">    -62.91198070 </i>
   </energy>
  </scstep>
  <scstep>
   <time name="dav">    1.28    1.29</time>
   <time name="total">    1.31    1.32</time>
   <energy>
    <i name="alphaZ">    521.04204123 </i>
    <i name="ewald"> 104282.21790814 </i>
    <i name="hartreedc">-125953.42533372 </i>
    <i name="XCdc">    719.79471112 </i>
    <i name="pawpsdc">  21137.39215262 </i>
    <i name="pawaedc"> -22864.85395903 </i>
    <i name="eentropy">     -0.03955528 </i>
    <i name="bandstr">   -185.33289333 </i>
    <i name="atom">  22280.27950853 </i>
    <i name="e_fr_energy">    -62.92541971 </i>
    <i name="e_wo_entrp">    -62.88586444 </i>
    <i name="e_0_energy">    -62.91223462 </i>
   </energy>
  </scstep>
  <structure>
   <crystal>
    <varray name="basis" >
     <v>       3.63000011       0.00000000       0.00000000 </v>
     <v>       0.00000000       3.63000011       0.00000000 </v>
     <v>       0.00000000       0.00000000      27.70499992 </v>
    </varray>
    <i name="volume">    365.06603650 </i>
    <varray name="rec_basis" >
     <v>       0.27548208       0.00000000       0.00000000 </v>
     <v>       0.00000000       0.27548208       0.00000000 </v>
     <v>       0.00000000       0.00000000       0.03609457 </v>
    </varray>
   </crystal>
   <varray name="positions" >
    <v>       0.00001567      -0.00001567       0.00216255 </v>
    <v>       0.49998433       0.50001567       0.00216255 </v>
    <v>       0.00007422       0.50007422       0.06448161 </v>
    <v>       0.49992578      -0.00007422       0.06448161 </v>
    <v>       0.00004812      -0.00004812       0.12790377 </v>
    <v>       0.49995188       0.50004812       0.12790377 </v>
    <v>      -0.00030453       0.49969547       0.19197138 </v>
    <v>       0.50030453       0.00030453       0.19197138 </v>
    <v>       0.00040021      -0.00040021       0.25432974 </v>
    <v>       0.49959979       0.50040021       0.25432974 </v>
    <v>      -0.00066803       0.49933197       0.31755982 </v>
    <v>       0.50066803       0.00066803       0.31755982 </v>
    <v>      -0.00159052       0.00159052       0.37958639 </v>
    <v>       0.50159052       0.49840948       0.37958639 </v>
    <v>       0.00261241       0.50261241       0.44064629 </v>
    <v>       0.49738759      -0.00261241       0.44064629 </v>
    <v>       0.75000000       0.25000000       0.50630150 </v>
    <v>       0.75000000       0.25000000       0.53329879 </v>
   </varray>
  </structure>
  <varray name="forces" >
   <v>      -0.00124039       0.00124039      -0.07916724 </v>
   <v>       0.00124039      -0.00124039      -0.07916724 </v>
   <v>      -0.00313190      -0.00313190       0.07838180 </v>
   <v>       0.00313190       0.00313190       0.07838180 </v>
   <v>      -0.00043870       0.00043870       0.12182449 </v>
   <v>       0.00043870      -0.00043870       0.12182449 </v>
   <v>       0.00254893       0.00254893      -0.07766722 </v>
   <v>      -0.00254893      -0.00254893      -0.07766722 </v>
   <v>      -0.00018380       0.00018380      -0.02518269 </v>
   <v>       0.00018380      -0.00018380      -0.02518269 </v>
   <v>       0.03567549       0.03567549      -0.18066135 </v>
   <v>      -0.03567549      -0.03567549      -0.18066135 </v>
   <v>       0.06019089      -0.06019089      -0.03493881 </v>
   <v>      -0.06019089       0.06019089      -0.03493881 </v>
   <v>      -0.01601206      -0.01601206       0.02225371 </v>
   <v>       0.01601206       0.01601206       0.02225371 </v>
   <v>       0.00000000      -0.00000000      -0.46230703 </v>
   <v>       0.00000000      -0.00000000       0.81262162 </v>
  </varray>
  <varray name="stress" >
   <v>     -16.90935658      -0.17275200       0.00000000 </v>
   <v>      -0.17275200     -16.90935658       0.00000000 </v>
   <v>      -0.00000000       0.00000000       1.82131183 </v>
  </varray>
  <energy>
   <i name="e_fr_energy">    -69.89139230 </i>
   <i name="e_wo_entrp">    -69.85183702 </i>
   <i name="e_0_energy">    -69.87820721 </i>
  </energy>
  <time name="totalsc">   13.96   14.11</time>
 </calculation>
 <calculation>
  <scstep>
   <time name="dav">    1.16    1.17</time>
   <time name="total">    1.32    1.33</time>
   <energy>
    <i name="alphaZ">    521.04204123 </i>
    <i name="ewald"> 104446.87039341 </i>
    <i name="hartreedc">-126118.43046219 </i>
    <i name="XCdc">    719.79666644 </i>
    <i name="pawpsdc">  21137.44965002 </i>
    <i name="pawaedc"> -22864.87497670 </i>
    <i name="eentropy">     -0.03951373 </i>
    <i name="bandstr">   -185.02295914 </i>
    <i name="atom">  22280.27950853 </i>
    <i name="e_fr_energy">    -62.92965212 </i>
    <i name="e_wo_entrp">    -62.89013838 </i>
    <i name="e_0_energy">    -62.91648087 </i>
   </energy>
  </scstep>
  <scstep>
   <time name="dav">    1.43    1.45</time>
   <time name="total">    1.58    1.60</time>
   <energy>
    <i name="e_fr_energy">    -62.93343257 </i>
    <i name="e_wo_entrp">    -62.89199446 </i>
    <i name="e_0_energy">    -62.91961987 </i>
   </energy>
  </scstep>
  <scstep>
   <time name="dav">    1.25    1.26</time>
   <time name="total">    1.40    1.41</time>
   <energy>
    <i name="e_fr_energy">    -62.93351714 </i>
    <i name="e_wo_entrp">    -62.89434775 </i>
    <i name="e_0_energy">    -62.92046067 </i>
   </energy>
  </scstep>
  <scstep>
   <time name="dav">    1.15    1.16</time>
   <time name="total">    1.30    1.31</time>
   <energy>
    <i name="e_fr_energy">    -62.93294567 </i>
    <i name="e_wo_entrp">    -62.89458842 </i>
    <i name="e_0_energy">    -62.92015992 </i>
   </energy>
  </scstep>
  <scstep>
   <time name="dav">    0.94    0.94</time>
   <time name="total">    0.97    0.98</time>
   <energy>
    <i name="alphaZ">    521.04204123 </i>
    <i name="ewald"> 104446.87039341 </i>
    <i name="hartreedc">-126118.25418756 </i>
    <i name="XCdc">    719.78135972 </i>
    <i name="pawpsdc">  21138.98351269 </i>
    <i name="pawaedc"> -22866.38415215 </i>
    <i name="eentropy">     -0.04126149 </i>
    <i name="bandstr">   -185.21003885 </i>
    <i name="atom">  22280.27950853 </i>
    <i name="e_fr_energy">    -62.93282448 </i>
    <i name="e_wo_entrp">    -62.89156298 </i>
    <i name="e_0_energy">    -62.91907064 </i>
   </energy>
  </scstep>
  <structure>
   <crystal>
    <varray name="basis" >
     <v>       3.63000011       0.00000000       0.00000000 </v>
     <v>       0.00000000       3.63000011       0.00000000 </v>
     <v>       0.00000000       0.00000000      27.70499992 </v>
    </varray>
    <i name="volume">    365.06603650 </i>
    <varray name="rec_basis" >
     <v>       0.27548208       0.00000000       0.00000000 </v>
     <v>       0.00000000       0.27548208       0.00000000 </v>
     <v>       0.00000000       0.00000000       0.03609457 </v>
    </varray>
   </crystal>
   <varray name="positions" >
    <v>       0.00000639      -0.00000639       0.00221828 </v>
    <v>       0.49999361       0.50000639       0.00221828 </v>
    <v>       0.00007234       0.50007234       0.06461272 </v>
    <v>       0.49992766      -0.00007234       0.06461272 </v>
    <v>       0.00008557      -0.00008557       0.12781369 </v>
    <v>       0.49991443       0.50008557       0.12781369 </v>
    <v>      -0.00029504       0.49970496       0.19194247 </v>
    <v>       0.50029504       0.00029504       0.19194247 </v>
    <v>       0.00039878      -0.00039878       0.25432529 </v>
    <v>       0.49960122       0.50039878       0.25432529 </v>
    <v>      -0.00063214       0.49936786       0.31747712 </v>
    <v>       0.50063214       0.00063214       0.31747712 </v>
    <v>      -0.00183370       0.00183370       0.37929519 </v>
    <v>       0.50183370       0.49816630       0.37929519 </v>
    <v>       0.00220850       0.50220850       0.44042368 </v>
    <v>       0.49779149      -0.00220850       0.44042368 </v>
    <v>       0.75000000       0.25000000       0.50663188 </v>
    <v>       0.75000000       0.25000000       0.53403462 </v>
   </varray>
  </structure>
  <varray name="forces" >
   <v>      -0.00088012       0.00088012      -0.07718856 </v>
   <v>       0.00088012      -0.00088012      -0.07718856 </v>
   <v>      -0.00334671      -0.00334671       0.03629580 </v>
   <v>       0.00334671       0.00334671       0.03629580 </v>
   <v>      -0.00204637       0.00204637       0.15416623 </v>
   <v>       0.00204637      -0.00204637       0.15416623 </v>
   <v>       0.00194932       0.00194932      -0.08228354 </v>
   <v>      -0.00194932      -0.00194932      -0.08228354 </v>
   <v>      -0.00068532       0.00068532      -0.04548148 </v>
   <v>       0.00068532      -0.00068532      -0.04548148 </v>
   <v>       0.03652946       0.03652946      -0.19714814 </v>
   <v>      -0.03652946      -0.03652946      -0.19714814 </v>
   <v>       0.07629192      -0.07629192       0.00723133 </v>
   <v>      -0.07629192       0.07629192       0.00723133 </v>
   <v>      -0.00060703      -0.00060703       0.02822177 </v>
   <v>       0.00060703       0.00060703       0.02822177 </v>
   <v>       0.00000000       0.00000000      -0.11670980 </v>
   <v>       0.00000000       0.00000000       0.46908296 </v>
  </varray>
  <varray name="stress" >
   <v>     -14.13413599      -0.16267761       0.00000000 </v>
   <v>      -0.16267761     -14.13413599       0.00000000 </v>
   <v>       0.00000000       0.00000000       2.74641512 </v>
  </varray>
  <energy>
   <i name="e_fr_energy">    -69.90240616 </i>
   <i name="e_wo_entrp">    -69.86114467 </i>
   <i name="e_0_energy">    -69.88865233 </i>
  </energy>
  <time name="totalsc">    8.48    8.58</time>
 </calculation>
 <calculation>
  <scstep>
   <time name="dav">    1.15    1.16</time>
   <time name="total">    1.30    1.31</time>
   <energy>
    <i name="alphaZ">    521.04204123 </i>
    <i name="ewald"> 104707.60465818 </i>
    <i name="hartreedc">-126378.56725234 </i>
    <i name="XCdc">    719.79247459 </i>
    <i name="pawpsdc">  21139.47554923 </i>
    <i name="pawaedc"> -22866.91237503 </i>
    <i name="eentropy">     -0.03933985 </i>
    <i name="bandstr">   -185.60129380 </i>
    <i name="atom">  22280.27950853 </i>
    <i name="e_fr_energy">    -62.92602926 </i>
    <i name="e_wo_entrp">    -62.88668941 </i>
    <i name="e_0_energy">    -62.91291597 </i>
   </energy>
  </scstep>
  <scstep>
   <time name="dav">    1.52    1.54</time>
   <time name="total">    1.67    1.68</time>
   <energy>
    <i name="e_fr_energy">    -62.93676289 </i>
    <i name="e_wo_entrp">    -62.89335825 </i>
    <i name="e_0_energy">    -62.92229468 </i>
   </energy>
  </scstep>
  <scstep>
   <time name="dav">    1.34    1.35</time>
   <time name="total">    1.49    1.50</time>
   <energy>
    <i name="e_fr_energy">    -62.93503128 </i>
    <i name="e_wo_entrp">    -62.89481183 </i>
    <i name="e_0_energy">    -62.92162480 </i>
   </energy>
  </scstep>
  <scstep>
   <time name="dav">    1.25    1.26</time>
   <time name="total">    1.39    1.40</time>
   <energy>
    <i name="e_fr_energy">    -62.93402520 </i>
    <i name="e_wo_entrp">    -62.89627976 </i>
    <i name="e_0_energy">    -62.92144339 </i>
   </energy>
  </scstep>
  <scstep>
   <time name="dav">    1.25    1.26</time>
[...]
       <r>     8.1583     1.6044   104.1729 </r>
       <r>     8.2338     2.5893   104.3684 </r>
       <r>     8.3093     3.5257   104.6346 </r>
       <r>     8.3848     3.4924   104.8983 </r>
       <r>     8.4603     2.6977   105.1020 </r>
       <r>     8.5358     1.8800   105.2439 </r>
       <r>     8.6113     1.4808   105.3558 </r>
       <r>     8.6868     1.9499   105.5030 </r>
       <r>     8.7623     3.5199   105.7688 </r>
       <r>     8.8378     5.3911   106.1758 </r>
       <r>     8.9133     6.3912   106.6584 </r>
       <r>     8.9888     6.3891   107.1408 </r>
       <r>     9.0643     6.0008   107.5940 </r>
       <r>     9.1399     5.2922   107.9936 </r>
       <r>     9.2154     3.9268   108.2901 </r>
       <r>     9.2909     2.2631   108.4609 </r>
       <r>     9.3664     1.2604   108.5561 </r>
       <r>     9.4419     1.4959   108.6691 </r>
       <r>     9.5174     2.8039   108.8808 </r>
       <r>     9.5929     4.5008   109.2206 </r>
       <r>     9.6684     5.7085   109.6517 </r>
       <r>     9.7439     5.8028   110.0898 </r>
       <r>     9.8194     4.8835   110.4586 </r>
       <r>     9.8949     3.7507   110.7418 </r>
       <r>     9.9704     3.0721   110.9737 </r>
       <r>    10.0459     2.7663   111.1826 </r>
       <r>    10.1215     2.5767   111.3772 </r>
       <r>    10.1970     2.7533   111.5851 </r>
       <r>    10.2725     3.6273   111.8590 </r>
       <r>    10.3480     4.9325   112.2314 </r>
       <r>    10.4235     6.1326   112.6945 </r>
       <r>    10.4990     7.0021   113.2232 </r>
       <r>    10.5745     7.2358   113.7695 </r>
       <r>    10.6500     6.2079   114.2383 </r>
       <r>    10.7255     3.9468   114.5363 </r>
       <r>    10.8010     1.5429   114.6528 </r>
       <r>    10.8765     0.1100   114.6611 </r>
       <r>    10.9520     0.1306   114.6709 </r>
       <r>    11.0275     1.6005   114.7918 </r>
       <r>    11.1031     3.7654   115.0761 </r>
       <r>    11.1786     5.0619   115.4583 </r>
       <r>    11.2541     4.4298   115.7928 </r>
       <r>    11.3296     2.4915   115.9809 </r>
       <r>    11.4051     0.7287   116.0359 </r>
       <r>    11.4806    -0.0953   116.0288 </r>
       <r>    11.5561    -0.2155   116.0125 </r>
       <r>    11.6316    -0.1167   116.0037 </r>
       <r>    11.7071    -0.0384   116.0008 </r>
       <r>    11.7826    -0.0087   116.0001 </r>
       <r>    11.8581    -0.0014   116.0000 </r>
       <r>    11.9336    -0.0002   116.0000 </r>
       <r>    12.0091    -0.0000   116.0000 </r>
       <r>    12.0847    -0.0000   116.0000 </r>
       <r>    12.1602    -0.0000   116.0000 </r>
       <r>    12.2357    -0.0000   116.0000 </r>
       <r>    12.3112    -0.0000   116.0000 </r>
       <r>    12.3867    -0.0000   116.0000 </r>
       <r>    12.4622    -0.0000   116.0000 </r>
       <r>    12.5377     0.0000   116.0000 </r>
       <r>    12.6132     0.0000   116.0000 </r>
       <r>    12.6887     0.0000   116.0000 </r>
       <r>    12.7642     0.0000   116.0000 </r>
       <r>    12.8397     0.0000   116.0000 </r>
       <r>    12.9152     0.0000   116.0000 </r>
       <r>    12.9907     0.0000   116.0000 </r>
       <r>    13.0663     0.0000   116.0000 </r>
       <r>    13.1418     0.0000   116.0000 </r>
       <r>    13.2173     0.0000   116.0000 </r>
      </set>
      <set comment="spin 2">
       <r>    -9.4350     0.0000     0.0000 </r>
       <r>    -9.3595     0.0000     0.0000 </r>
       <r>    -9.2840     0.0000     0.0000 </r>
       <r>    -9.2085     0.0000     0.0000 </r>
       <r>    -9.1330     0.0000     0.0000 </r>
       <r>    -9.0575    -0.0000    -0.0000 </r>
       <r>    -8.9820    -0.0000    -0.0000 </r>
       <r>    -8.9065    -0.0000    -0.0000 </r>
       <r>    -8.8310    -0.0000    -0.0000 </r>
       <r>    -8.7555    -0.0000    -0.0000 </r>
       <r>    -8.6799    -0.0000    -0.0000 </r>
       <r>    -8.6044    -0.0000    -0.0000 </r>
       <r>    -8.5289    -0.0000    -0.0000 </r>
       <r>    -8.4534    -0.0000    -0.0000 </r>
       <r>    -8.3779    -0.0000    -0.0000 </r>
       <r>    -8.3024    -0.0000    -0.0000 </r>
       <r>    -8.2269    -0.0000    -0.0000 </r>
       <r>    -8.1514    -0.0000    -0.0000 </r>
       <r>    -8.0759    -0.0000    -0.0000 </r>
       <r>    -8.0004    -0.0003    -0.0000 </r>
       <r>    -7.9249    -0.0018    -0.0002 </r>
       <r>    -7.8494    -0.0071    -0.0007 </r>
       <r>    -7.7739    -0.0184    -0.0021 </r>
       <r>    -7.6983    -0.0228    -0.0038 </r>
       <r>    -7.6228     0.0246    -0.0020 </r>
       <r>    -7.5473     0.1700     0.0109 </r>
       <r>    -7.4718     0.3662     0.0385 </r>
       <r>    -7.3963     0.4584     0.0731 </r>
       <r>    -7.3208     0.3530     0.0998 </r>
       <r>    -7.2453     0.1442     0.1107 </r>
       <r>    -7.1698     0.0036     0.1110 </r>
       <r>    -7.0943     0.0260     0.1129 </r>
       <r>    -7.0188     0.1977     0.1279 </r>
       <r>    -6.9433     0.3967     0.1578 </r>
       <r>    -6.8678     0.4529     0.1920 </r>
       <r>    -6.7923     0.3186     0.2161 </r>
       <r>    -6.7167     0.1223     0.2253 </r>
       <r>    -6.6412    -0.0027     0.2251 </r>
       <r>    -6.5657    -0.0531     0.2211 </r>
       <r>    -6.4902    -0.0954     0.2139 </r>
       <r>    -6.4147    -0.1229     0.2046 </r>
       <r>    -6.3392     0.0512     0.2085 </r>
       <r>    -6.2637     0.6825     0.2600 </r>
       <r>    -6.1882     1.6504     0.3846 </r>
       <r>    -6.1127     2.2520     0.5547 </r>
       <r>    -6.0372     1.9008     0.6982 </r>
       <r>    -5.9617     0.9184     0.7675 </r>
       <r>    -5.8862     0.2012     0.7827 </r>
       <r>    -5.8107     0.3099     0.8061 </r>
       <r>    -5.7351     1.0678     0.8867 </r>
       <r>    -5.6596     1.7395     1.0181 </r>
       <r>    -5.5841     1.6733     1.1444 </r>
       <r>    -5.5086     0.9631     1.2172 </r>
       <r>    -5.4331     0.2315     1.2346 </r>
       <r>    -5.3576    -0.1544     1.2230 </r>
       <r>    -5.2821    -0.2571     1.2036 </r>
       <r>    -5.2066    -0.0883     1.1969 </r>
       <r>    -5.1311     0.6388     1.2451 </r>
       <r>    -5.0556     2.0466     1.3997 </r>
       <r>    -4.9801     3.4469     1.6599 </r>
       <r>    -4.9046     3.7147     1.9404 </r>
       <r>    -4.8291     2.6690     2.1419 </r>
       <r>    -4.7535     1.4771     2.2535 </r>
       <r>    -4.6780     1.2073     2.3446 </r>
       <r>    -4.6025     1.5951     2.4651 </r>
       <r>    -4.5270     1.7486     2.5971 </r>
       <r>    -4.4515     1.5104     2.7112 </r>
       <r>    -4.3760     1.4634     2.8217 </r>
       <r>    -4.3005     1.9064     2.9656 </r>
       <r>    -4.2250     2.5179     3.1557 </r>
       <r>    -4.1495     2.9733     3.3802 </r>
       <r>    -4.0740     3.3334     3.6319 </r>
       <r>    -3.9985     3.7065     3.9118 </r>
       <r>    -3.9230     3.8350     4.2014 </r>
       <r>    -3.8475     3.2679     4.4481 </r>
       <r>    -3.7719     1.9925     4.5986 </r>
       <r>    -3.6964     0.7161     4.6526 </r>
       <r>    -3.6209     0.3832     4.6816 </r>
       <r>    -3.5454     1.3528     4.7837 </r>
       <r>    -3.4699     2.8364     4.9979 </r>
       <r>    -3.3944     3.3800     5.2531 </r>
       <r>    -3.3189     2.4776     5.4402 </r>
       <r>    -3.2434     1.3578     5.5427 </r>
       <r>    -3.1679     1.6299     5.6658 </r>
       <r>    -3.0924     3.6915     5.9445 </r>
       <r>    -3.0169     6.8206     6.4595 </r>
       <r>    -2.9414    10.0914     7.2215 </r>
       <r>    -2.8659    12.5220     8.1670 </r>
       <r>    -2.7903    12.9669     9.1461 </r>
       <r>    -2.7148    11.2948     9.9990 </r>
       <r>    -2.6393     9.3552    10.7053 </r>
       <r>    -2.5638     9.2426    11.4032 </r>
       <r>    -2.4883    11.2324    12.2514 </r>
       <r>    -2.4128    14.3962    13.3384 </r>
       <r>    -2.3373    17.8476    14.6860 </r>
       <r>    -2.2618    20.6055    16.2419 </r>
       <r>    -2.1863    21.3709    17.8556 </r>
       <r>    -2.1108    19.4283    19.3225 </r>
       <r>    -2.0353    15.8045    20.5159 </r>
       <r>    -1.9598    12.7689    21.4800 </r>
       <r>    -1.8843    11.9865    22.3851 </r>
       <r>    -1.8087    13.5218    23.4061 </r>
       <r>    -1.7332    16.2138    24.6304 </r>
       <r>    -1.6577    18.6006    26.0349 </r>
       <r>    -1.5822    19.6905    27.5217 </r>
       <r>    -1.5067    19.4469    28.9900 </r>
       <r>    -1.4312    18.9718    30.4226 </r>
       <r>    -1.3557    19.6721    31.9079 </r>
       <r>    -1.2802    22.0658    33.5741 </r>
       <r>    -1.2047    25.8048    35.5225 </r>
       <r>    -1.1292    30.0754    37.7935 </r>
       <r>    -1.0537    33.3288    40.3100 </r>
       <r>    -0.9782    33.8346    42.8648 </r>
       <r>    -0.9027    31.5931    45.2503 </r>
       <r>    -0.8272    28.5446    47.4057 </r>
       <r>    -0.7516    26.0744    49.3745 </r>
       <r>    -0.6761    24.2744    51.2074 </r>
       <r>    -0.6006    23.6265    52.9914 </r>
       <r>    -0.5251    24.3760    54.8319 </r>
       <r>    -0.4496    25.1370    56.7300 </r>
       <r>    -0.3741    25.0456    58.6211 </r>
       <r>    -0.2986    25.7036    60.5619 </r>
       <r>    -0.2231    28.8366    62.7393 </r>
       <r>    -0.1476    33.4150    65.2624 </r>
       <r>    -0.0721    36.5275    68.0205 </r>
       <r>     0.0034    36.7282    70.7938 </r>
       <r>     0.0789    35.6597    73.4863 </r>
       <r>     0.1544    35.7655    76.1869 </r>
       <r>     0.2300    36.6288    78.9526 </r>
       <r>     0.3055    34.7742    81.5784 </r>
       <r>     0.3810    27.7837    83.6762 </r>
       <r>     0.4565    17.4552    84.9942 </r>
       <r>     0.5320     7.9571    85.5951 </r>
       <r>     0.6075     2.0104    85.7469 </r>
       <r>     0.6830    -0.2844    85.7254 </r>
       <r>     0.7585    -0.0103    85.7246 </r>
       <r>     0.8340     1.7451    85.8564 </r>
       <r>     0.9095     3.7377    86.1386 </r>
       <r>     0.9850     4.6270    86.4880 </r>
       <r>     1.0605     3.9137    86.7835 </r>
       <r>     1.1360     2.2873    86.9562 </r>
       <r>     1.2116     0.8154    87.0178 </r>
       <r>     1.2871     0.0783    87.0237 </r>
       <r>     1.3626    -0.0180    87.0223 </r>
       <r>     1.4381     0.1320    87.0323 </r>
       <r>     1.5136     0.3755    87.0607 </r>
       <r>     1.5891     1.0275    87.1382 </r>
       <r>     1.6646     2.4881    87.3261 </r>
       <r>     1.7401     4.5478    87.6695 </r>
       <r>     1.8156     6.1876    88.1367 </r>
       <r>     1.8911     6.5002    88.6275 </r>
       <r>     1.9666     5.7028    89.0581 </r>
       <r>     2.0421     4.4800    89.3964 </r>
       <r>     2.1176     2.9741    89.6210 </r>
       <r>     2.1932     1.5609    89.7388 </r>
       <r>     2.2687     1.4544    89.8486 </r>
       <r>     2.3442     3.1564    90.0870 </r>
       <r>     2.4197     5.1804    90.4781 </r>
       <r>     2.4952     5.5919    90.9004 </r>
       <r>     2.5707     4.3295    91.2273 </r>
       <r>     2.6462     2.9626    91.4510 </r>
       <r>     2.7217     2.7167    91.6561 </r>
       <r>     2.7972     3.4110    91.9137 </r>
       <r>     2.8727     3.8172    92.2019 </r>
       <r>     2.9482     3.0700    92.4337 </r>
       <r>     3.0237     1.8011    92.5697 </r>
       <r>     3.0992     1.2340    92.6629 </r>
       <r>     3.1748     1.4630    92.7734 </r>
       <r>     3.2503     1.5639    92.8914 </r>
       <r>     3.3258     1.1060    92.9750 </r>
       <r>     3.4013     0.6054    93.0207 </r>
       <r>     3.4768     0.5724    93.0639 </r>
       <r>     3.5523     0.9347    93.1345 </r>
       <r>     3.6278     1.4618    93.2448 </r>
       <r>     3.7033     2.0716    93.4013 </r>
       <r>     3.7788     2.6092    93.5983 </r>
       <r>     3.8543     2.8266    93.8117 </r>
       <r>     3.9298     2.5834    94.0068 </r>
       <r>     4.0053     1.8832    94.1490 </r>
       <r>     4.0808     0.9455    94.2204 </r>
       <r>     4.1564     0.1761    94.2337 </r>
       <r>     4.2319    -0.1625    94.2214 </r>
       <r>     4.3074    -0.0616    94.2167 </r>
       <r>     4.3829     0.4433    94.2502 </r>
       <r>     4.4584     1.2699    94.3461 </r>
       <r>     4.5339     2.0640    94.5019 </r>
       <r>     4.6094     2.2845    94.6744 </r>
       <r>     4.6849     1.7767    94.8086 </r>
       <r>     4.7604     1.1328    94.8941 </r>
       <r>     4.8359     1.0672    94.9747 </r>
       <r>     4.9114     1.5143    95.0891 </r>
       <r>     4.9869     1.8755    95.2307 </r>
       <r>     5.0624     1.9615    95.3788 </r>
       <r>     5.1380     2.0077    95.5304 </r>
       <r>     5.2135     2.0892    95.6881 </r>
       <r>     5.2890     2.1734    95.8522 </r>
       <r>     5.3645     2.3324    96.0283 </r>
       <r>     5.4400     2.5226    96.2188 </r>
       <r>     5.5155     2.5144    96.4087 </r>
       <r>     5.5910     2.2366    96.5776 </r>
       <r>     5.6665     2.1448    96.7395 </r>
       <r>     5.7420     2.9973    96.9658 </r>
       <r>     5.8175     4.8767    97.3341 </r>
       <r>     5.8930     6.5751    97.8305 </r>
       <r>     5.9685     6.5046    98.3217 </r>
       <r>     6.0440     4.4150    98.6550 </r>
       <r>     6.1196     1.7946    98.7905 </r>
       <r>     6.1951     0.3642    98.8180 </r>
       <r>     6.2706     0.5726    98.8613 </r>
       <r>     6.3461     1.5508    98.9784 </r>
       <r>     6.4216     2.1336    99.1395 </r>
       <r>     6.4971     1.9906    99.2898 </r>
       <r>     6.5726     1.7198    99.4196 </r>
       <r>     6.6481     1.8475    99.5591 </r>
       <r>     6.7236     2.3917    99.7397 </r>
       <r>     6.7991     3.3038    99.9892 </r>
       <r>     6.8746     4.4482   100.3251 </r>
       <r>     6.9501     5.2776   100.7236 </r>
       <r>     7.0256     5.1508   101.1125 </r>
       <r>     7.1011     3.9889   101.4137 </r>
       <r>     7.1767     2.5185   101.6039 </r>
       <r>     7.2522     1.7263   101.7342 </r>
       <r>     7.3277     1.9854   101.8841 </r>
       <r>     7.4032     2.8693   102.1008 </r>
       <r>     7.4787     3.7894   102.3869 </r>
       <r>     7.5542     4.4772   102.7250 </r>
       <r>     7.6297     4.7031   103.0801 </r>
       <r>     7.7052     4.0987   103.3896 </r>
       <r>     7.7807     2.8086   103.6016 </r>
       <r>     7.8562     1.7308   103.7323 </r>
       <r>     7.9317     1.4310   103.8404 </r>
       <r>     8.0072     1.4499   103.9498 </r>
       <r>     8.0827     1.3492   104.0517 </r>
       <r>     8.1583     1.6043   104.1729 </r>
       <r>     8.2338     2.5892   104.3684 </r>
       <r>     8.3093     3.5257   104.6346 </r>
       <r>     8.3848     3.4924   104.8983 </r>
       <r>     8.4603     2.6978   105.1020 </r>
       <r>     8.5358     1.8800   105.2439 </r>
       <r>     8.6113     1.4806   105.3557 </r>
       <r>     8.6868     1.9496   105.5029 </r>
       <r>     8.7623     3.5196   105.7687 </r>
       <r>     8.8378     5.3911   106.1758 </r>
       <r>     8.9133     6.3915   106.6584 </r>
       <r>     8.9888     6.3894   107.1408 </r>
       <r>     9.0643     6.0009   107.5939 </r>
       <r>     9.1399     5.2923   107.9935 </r>
       <r>     9.2154     3.9268   108.2901 </r>
       <r>     9.2909     2.2632   108.4609 </r>
       <r>     9.3664     1.2605   108.5561 </r>
       <r>     9.4419     1.4958   108.6691 </r>
       <r>     9.5174     2.8038   108.8808 </r>
       <r>     9.5929     4.5007   109.2206 </r>
       <r>     9.6684     5.7084   109.6516 </r>
       <r>     9.7439     5.8028   110.0898 </r>
       <r>     9.8194     4.8837   110.4585 </r>
       <r>     9.8949     3.7508   110.7418 </r>
       <r>     9.9704     3.0722   110.9737 </r>
       <r>    10.0459     2.7663   111.1826 </r>
       <r>    10.1215     2.5767   111.3772 </r>
       <r>    10.1970     2.7532   111.5851 </r>
       <r>    10.2725     3.6272   111.8589 </r>
       <r>    10.3480     4.9324   112.2314 </r>
       <r>    10.4235     6.1327   112.6944 </r>
       <r>    10.4990     7.0021   113.2231 </r>
       <r>    10.5745     7.2359   113.7695 </r>
       <r>    10.6500     6.2079   114.2383 </r>
       <r>    10.7255     3.9469   114.5363 </r>
       <r>    10.8010     1.5429   114.6528 </r>
       <r>    10.8765     0.1100   114.6611 </r>
       <r>    10.9520     0.1305   114.6709 </r>
       <r>    11.0275     1.6003   114.7918 </r>
       <r>    11.1031     3.7652   115.0761 </r>
       <r>    11.1786     5.0619   115.4583 </r>
       <r>    11.2541     4.4299   115.7928 </r>
       <r>    11.3296     2.4916   115.9809 </r>
       <r>    11.4051     0.7288   116.0359 </r>
       <r>    11.4806    -0.0953   116.0288 </r>
       <r>    11.5561    -0.2155   116.0125 </r>
       <r>    11.6316    -0.1167   116.0037 </r>
       <r>    11.7071    -0.0384   116.0008 </r>
       <r>    11.7826    -0.0087   116.0001 </r>
       <r>    11.8581    -0.0014   116.0000 </r>
       <r>    11.9336    -0.0002   116.0000 </r>
       <r>    12.0091    -0.0000   116.0000 </r>
       <r>    12.0847    -0.0000   116.0000 </r>
       <r>    12.1602    -0.0000   116.0000 </r>
       <r>    12.2357    -0.0000   116.0000 </r>
       <r>    12.3112    -0.0000   116.0000 </r>
       <r>    12.3867    -0.0000   116.0000 </r>
       <r>    12.4622    -0.0000   116.0000 </r>
       <r>    12.5377     0.0000   116.0000 </r>
       <r>    12.6132     0.0000   116.0000 </r>
       <r>    12.6887     0.0000   116.0000 </r>
       <r>    12.7642     0.0000   116.0000 </r>
       <r>    12.8397     0.0000   116.0000 </r>
       <r>    12.9152     0.0000   116.0000 </r>
       <r>    12.9907     0.0000   116.0000 </r>
       <r>    13.0663     0.0000   116.0000 </r>
       <r>    13.1418     0.0000   116.0000 </r>
       <r>    13.2173     0.0000   116.0000 </r>
      </set>
     </set>
    </array>
   </total>
  </dos>
 </calculation>
 <structure name="finalpos" >
  <crystal>
   <varray name="basis" >
    <v>       3.63000011       0.00000000       0.00000000 </v>
    <v>       0.00000000       3.63000011       0.00000000 </v>
    <v>       0.00000000       0.00000000      27.70499992 </v>
   </varray>
   <i name="volume">    365.06603650 </i>
   <varray name="rec_basis" >
    <v>       0.27548208       0.00000000       0.00000000 </v>
    <v>       0.00000000       0.27548208       0.00000000 </v>
    <v>       0.00000000       0.00000000       0.03609457 </v>
   </varray>
  </crystal>
  <varray name="positions" >
   <v>       0.00016022      -0.00016022      -0.00085686 </v>
   <v>       0.49983978       0.50016022      -0.00085686 </v>
   <v>       0.00015433       0.50015433       0.06212606 </v>
   <v>       0.49984567      -0.00015433       0.06212606 </v>
   <v>      -0.00003452       0.00003452       0.12570260 </v>
   <v>       0.50003452       0.49996548       0.12570260 </v>
   <v>       0.00015610       0.50015610       0.18875817 </v>
   <v>       0.49984390      -0.00015610       0.18875817 </v>
   <v>      -0.00000307       0.00000307       0.25097576 </v>
   <v>       0.50000307       0.49999693       0.25097576 </v>
   <v>       0.00000870       0.50000870       0.31402114 </v>
   <v>       0.49999130      -0.00000870       0.31402114 </v>
   <v>       0.00022928      -0.00022928       0.37750012 </v>
   <v>       0.49977072       0.50022928       0.37750012 </v>
   <v>       0.00014976       0.50014976       0.44009108 </v>
   <v>       0.49985024      -0.00014976       0.44009108 </v>
   <v>       0.75000000       0.25000000       0.52644012 </v>
   <v>       0.75000000       0.25000000       0.55380712 </v>
  </varray>
 </structure>
</modeling>
