unknown system                          
           1
     3.630000    0.000000    0.000000
     0.000000    3.630000    0.000000
     0.000000    0.000000   27.705000
   Cu   H 
    16     2
Direct configuration=     1
   0.00000000  0.00000000  0.00000000
   0.50000000  0.50000000  0.00000000
   0.00000000  0.50000000  0.06551164
   0.50000000  0.00000000  0.06551164
   0.00000000  0.00000000  0.12876120
   0.50000000  0.50000000  0.12876120
   0.00000000  0.50000000  0.19193187
   0.50000000  0.00000000  0.19193187
   0.00000000  0.00000000  0.25406550
   0.50000000  0.50000000  0.25406550
   0.00000000  0.50000000  0.31747855
   0.50000000  0.00000000  0.31747855
   0.00000000  0.00000000  0.38132233
   0.50000000  0.50000000  0.38132233
   0.00000000  0.50000000  0.44440075
   0.50000000  0.00000000  0.44440075
   0.75000000  0.25000000  0.50150658
   0.75000000  0.25000000  0.52843313
Direct configuration=     2
   0.00001227 -0.00001227  0.00042742
   0.49998773  0.50001227  0.00042742
   0.00000324  0.50000324  0.06509073
   0.49999676 -0.00000324  0.06509073
  -0.00005464  0.00005464  0.12878130
   0.50005464  0.49994536  0.12878130
  -0.00007711  0.49992289  0.19192189
   0.50007711  0.00007711  0.19192189
   0.00010067 -0.00010067  0.25411131
   0.49989933  0.50010067  0.25411131
  -0.00001122  0.49998878  0.31748973
   0.50001122  0.00001122  0.31748973
   0.00031740 -0.00031740  0.38132721
   0.49968260  0.50031740  0.38132721
   0.00141570  0.50141570  0.44377404
   0.49858430 -0.00141570  0.44377404
   0.75000000  0.25000000  0.50042927
   0.75000000  0.25000000  0.53060683
Direct configuration=     3
   0.00000655 -0.00000655  0.00022798
   0.49999345  0.50000655  0.00022798
   0.00000173  0.50000173  0.06528714
   0.49999827 -0.00000173  0.06528714
  -0.00002915  0.00002915  0.12877192
   0.50002915  0.49997085  0.12877192
  -0.00004113  0.49995887  0.19192655
   0.50004113  0.00004113  0.19192655
   0.00005369 -0.00005369  0.25408993
   0.49994631  0.50005369  0.25408993
  -0.00000599  0.49999401  0.31748452
   0.50000599  0.00000599  0.31748452
   0.00016930 -0.00016930  0.38132493
   0.49983070  0.50016930  0.38132493
   0.00075511  0.50075511  0.44406647
   0.49924488 -0.00075511  0.44406647
   0.75000000  0.25000000  0.50093196
   0.75000000  0.25000000  0.52959255
Direct configuration=     4
   0.00001731 -0.00001731  0.00063957
   0.49998269  0.50001731  0.00063957
   0.00000798  0.50000798  0.06489710
   0.49999202 -0.00000798  0.06489710
  -0.00007051  0.00007051  0.12875833
   0.50007051  0.49992949  0.12875833
  -0.00011864  0.49988136  0.19192879
   0.50011864  0.00011864  0.19192879
   0.00015566 -0.00015566  0.25414804
   0.49984434  0.50015566  0.25414804
  -0.00005331  0.49994669  0.31750658
   0.50005331  0.00005331  0.31750658
   0.00039992 -0.00039992  0.38127040
   0.49960008  0.50039992  0.38127040
   0.00186454  0.50186454  0.44345386
   0.49813546 -0.00186454  0.44345386
   0.75000000  0.25000000  0.50160517
   0.75000000  0.25000000  0.53007286
Direct configuration=     5
   0.00004358 -0.00004358  0.00164460
   0.49995642  0.50004358  0.00164460
   0.00002324  0.50002324  0.06394471
   0.49997676 -0.00002324  0.06394471
  -0.00017151  0.00017151  0.12872514
   0.50017151  0.49982849  0.12872514
  -0.00030789  0.49969211  0.19193426
   0.50030789  0.00030789  0.19193426
   0.00040463 -0.00040463  0.25428994
   0.49959537  0.50040463  0.25428994
  -0.00016886  0.49983114  0.31756046
   0.50016886  0.00016886  0.31756046
   0.00096307 -0.00096307  0.38113725
   0.49903693  0.50096307  0.38113725
   0.00457354  0.50457354  0.44195797
   0.49542646 -0.00457354  0.44195797
   0.75000000  0.25000000  0.50324904
   0.75000000  0.25000000  0.53124569
Direct configuration=     6
   0.00003244 -0.00003244  0.00185127
   0.49996756  0.50003244  0.00185127
   0.00004358  0.50004358  0.06415894
   0.49995642 -0.00004358  0.06415894
  -0.00008387  0.00008387  0.12839740
   0.50008387  0.49991613  0.12839740
  -0.00030655  0.49969345  0.19194907
   0.50030655  0.00030655  0.19194907
   0.00040287 -0.00040287  0.25430582
   0.49959713  0.50040287  0.25430582
  -0.00036803  0.49963197  0.31756020
   0.50036803  0.00036803  0.31756020
  -0.00005585  0.00005585  0.38051843
   0.50005585  0.49994415  0.38051843
   0.00379102  0.50379102  0.44143459
   0.49620898 -0.00379102  0.44143459
   0.75000000  0.25000000  0.50446702
   0.75000000  0.25000000  0.53206490
Direct configuration=     7
   0.00001567 -0.00001567  0.00216255
   0.49998433  0.50001567  0.00216255
   0.00007422  0.50007422  0.06448161
   0.49992578 -0.00007422  0.06448161
   0.00004812 -0.00004812  0.12790377
   0.49995188  0.50004812  0.12790377
  -0.00030453  0.49969547  0.19197138
   0.50030453  0.00030453  0.19197138
   0.00040021 -0.00040021  0.25432974
   0.49959979  0.50040021  0.25432974
  -0.00066803  0.49933197  0.31755982
   0.50066803  0.00066803  0.31755982
  -0.00159052  0.00159052  0.37958639
   0.50159052  0.49840948  0.37958639
   0.00261241  0.50261241  0.44064629
   0.49738759 -0.00261241  0.44064629
   0.75000000  0.25000000  0.50630150
   0.75000000  0.25000000  0.53329879
Direct configuration=     8
   0.00000639 -0.00000639  0.00221828
   0.49999361  0.50000639  0.00221828
   0.00007234  0.50007234  0.06461272
   0.49992766 -0.00007234  0.06461272
   0.00008557 -0.00008557  0.12781369
   0.49991443  0.50008557  0.12781369
  -0.00029504  0.49970496  0.19194247
   0.50029504  0.00029504  0.19194247
   0.00039878 -0.00039878  0.25432529
   0.49960122  0.50039878  0.25432529
  -0.00063214  0.49936786  0.31747712
   0.50063214  0.00063214  0.31747712
  -0.00183370  0.00183370  0.37929519
   0.50183370  0.49816630  0.37929519
   0.00220850  0.50220850  0.44042368
   0.49779149 -0.00220850  0.44042368
   0.75000000  0.25000000  0.50663188
   0.75000000  0.25000000  0.53403462
Direct configuration=     9
  -0.00000828  0.00000828  0.00230637
   0.50000828  0.49999172  0.00230637
   0.00006936  0.50006936  0.06481995
   0.49993064 -0.00006936  0.06481995
   0.00014475 -0.00014475  0.12767132
   0.49985525  0.50014475  0.12767132
  -0.00028004  0.49971996  0.19189677
   0.50028004  0.00028004  0.19189677
   0.00039653 -0.00039653  0.25431826
   0.49960347  0.50039653  0.25431826
  -0.00057543  0.49942457  0.31734641
   0.50057543  0.00057543  0.31734641
  -0.00221806  0.00221806  0.37883493
   0.50221806  0.49778194  0.37883493
   0.00157011  0.50157011  0.44007183
   0.49842989 -0.00157011  0.44007183
   0.75000000  0.25000000  0.50715406
   0.75000000  0.25000000  0.53519765
Direct configuration=    10
  -0.00001590  0.00001590  0.00230387
   0.50001590  0.49998410  0.00230387
   0.00005135  0.50005135  0.06488750
   0.49994865 -0.00005135  0.06488750
   0.00014794 -0.00014794  0.12774230
   0.49985206  0.50014794  0.12774230
  -0.00026818  0.49973182  0.19183151
   0.50026818  0.00026818  0.19183151
   0.00038937 -0.00038937  0.25428268
   0.49961063  0.50038937  0.25428268
  -0.00037509  0.49962491  0.31716804
   0.50037509  0.00037509  0.31716804
  -0.00189857  0.00189857  0.37870791
   0.50189857  0.49810143  0.37870791
   0.00139582  0.50139582  0.43996491
   0.49860418 -0.00139582  0.43996491
   0.75000000  0.25000000  0.50754770
   0.75000000  0.25000000  0.53555824
Direct configuration=    11
  -0.00003878  0.00003878  0.00229638
   0.50003878  0.49996122  0.00229638
  -0.00000268  0.49999732  0.06509016
   0.50000268  0.00000268  0.06509016
   0.00015750 -0.00015750  0.12795522
   0.49984250  0.50015750  0.12795522
  -0.00023260  0.49976740  0.19163574
   0.50023260  0.00023260  0.19163574
   0.00036789 -0.00036789  0.25417593
   0.49963211  0.50036789  0.25417593
   0.00022592  0.50022592  0.31663293
   0.49977408 -0.00022592  0.31663293
  -0.00094010  0.00094010  0.37832685
   0.50094010  0.49905990  0.37832685
   0.00087295  0.50087295  0.43964417
   0.49912705 -0.00087295  0.43964417
   0.75000000  0.25000000  0.50872862
   0.75000000  0.25000000  0.53664001
Direct configuration=    12
  -0.00008453  0.00008453  0.00228141
   0.50008453  0.49991547  0.00228141
  -0.00011074  0.49988926  0.06549548
   0.50011074  0.00011074  0.06549548
   0.00017663 -0.00017663  0.12838107
   0.49982337  0.50017663  0.12838107
  -0.00016143  0.49983857  0.19124421
   0.50016143  0.00016143  0.19124421
   0.00032494 -0.00032494  0.25396243
   0.49967506  0.50032494  0.25396243
   0.00142795  0.50142795  0.31556271
   0.49857205 -0.00142795  0.31556271
   0.00097684 -0.00097684  0.37756472
   0.49902316  0.50097684  0.37756472
  -0.00017280  0.49982720  0.43900267
   0.50017280  0.00017280  0.43900267
   0.75000000  0.25000000  0.51109046
   0.75000000  0.25000000  0.53880355
Direct configuration=    13
  -0.00010559  0.00010559  0.00227452
   0.50010559  0.49989441  0.00227452
  -0.00016047  0.49983953  0.06568203
   0.50016047  0.00016047  0.06568203
   0.00018543 -0.00018543  0.12857706
   0.49981457  0.50018543  0.12857706
  -0.00012868  0.49987132  0.19106400
   0.50012868  0.00012868  0.19106400
   0.00030517 -0.00030517  0.25386416
   0.49969483  0.50030517  0.25386416
   0.00198118  0.50198118  0.31507014
   0.49801882 -0.00198118  0.31507014
   0.00185911 -0.00185911  0.37721395
   0.49814089  0.50185911  0.37721395
  -0.00065410  0.49934590  0.43870742
   0.50065410  0.00065410  0.43870742
   0.75000000  0.25000000  0.51217749
   0.75000000  0.25000000  0.53979932
Direct configuration=    14
  -0.00007394  0.00007394  0.00232838
   0.50007394  0.49992606  0.00232838
  -0.00015038  0.49984962  0.06570796
   0.50015038  0.00015038  0.06570796
   0.00014835 -0.00014835  0.12873291
   0.49985165  0.50014835  0.12873291
  -0.00011057  0.49988943  0.19110928
   0.50011057  0.00011057  0.19110928
  -0.00004659  0.00004659  0.25335521
   0.50004659  0.49995341  0.25335521
   0.00135230  0.50135230  0.31471827
   0.49864770 -0.00135230  0.31471827
   0.00174967 -0.00174967  0.37692141
   0.49825033  0.50174967  0.37692141
  -0.00076031  0.49923969  0.43852610
   0.50076031  0.00076031  0.43852610
   0.75000000  0.25000000  0.51331918
   0.75000000  0.25000000  0.54076516
Direct configuration=    15
  -0.00001066  0.00001066  0.00243606
   0.50001066  0.49998934  0.00243606
  -0.00013021  0.49986979  0.06575979
   0.50013021  0.00013021  0.06575979
   0.00007420 -0.00007420  0.12904449
   0.49992580  0.50007420  0.12904449
  -0.00007435  0.49992565  0.19119981
   0.50007435  0.00007435  0.19119981
  -0.00074983  0.00074983  0.25233770
   0.50074982  0.49925017  0.25233770
   0.00009503  0.50009503  0.31401480
   0.49990497 -0.00009503  0.31401480
   0.00153087 -0.00153087  0.37633655
   0.49846913  0.50153087  0.37633655
  -0.00097265  0.49902735  0.43816359
   0.50097265  0.00097265  0.43816359
   0.75000000  0.25000000  0.51560169
   0.75000000  0.25000000  0.54269612
Direct configuration=    16
   0.00004226 -0.00004226  0.00255225
   0.49995774  0.50004226  0.00255225
  -0.00006690  0.49993310  0.06569186
   0.50006690  0.00006690  0.06569186
   0.00003067 -0.00003067  0.12900029
   0.49996933  0.50003067  0.12900029
   0.00008665  0.50008665  0.19121509
   0.49991335 -0.00008665  0.19121509
  -0.00060597  0.00060597  0.25182573
   0.50060597  0.49939403  0.25182573
  -0.00061567  0.49938433  0.31378055
   0.50061567  0.00061567  0.31378055
   0.00074080 -0.00074080  0.37610882
   0.49925920  0.50074080  0.37610882
  -0.00052796  0.49947204  0.43807919
   0.50052796  0.00052796  0.43807919
   0.75000000  0.25000000  0.51607171
   0.75000000  0.25000000  0.54430411
Direct configuration=    17
   0.00001785 -0.00001785  0.00249865
   0.49998215  0.50001785  0.00249865
  -0.00009610  0.49990390  0.06572320
   0.50009610  0.00009610  0.06572320
   0.00005075 -0.00005075  0.12902068
   0.49994925  0.50005075  0.12902068
   0.00001238  0.50001238  0.19120804
   0.49998762 -0.00001238  0.19120804
  -0.00067233  0.00067233  0.25206190
   0.50067233  0.49932767  0.25206190
  -0.00028782  0.49971218  0.31388861
   0.50028782  0.00028782  0.31388861
   0.00110527 -0.00110527  0.37621387
   0.49889473  0.50110526  0.37621387
  -0.00073310  0.49926690  0.43811812
   0.50073310  0.00073310  0.43811812
   0.75000000  0.25000000  0.51585489
   0.75000000  0.25000000  0.54356234
Direct configuration=    18
   0.00005558 -0.00005558  0.00261150
   0.49994442  0.50005558  0.00261150
  -0.00002605  0.49997395  0.06564184
   0.50002605  0.00002605  0.06564184
   0.00001101 -0.00001101  0.12885120
   0.49998899  0.50001101  0.12885120
   0.00018303  0.50018303  0.19112595
   0.49981697 -0.00018303  0.19112595
  -0.00018777  0.00018777  0.25180468
   0.50018777  0.49981223  0.25180468
  -0.00057737  0.49942263  0.31379522
   0.50057737  0.00057737  0.31379522
   0.00028934 -0.00028934  0.37612526
   0.49971066  0.50028934  0.37612526
  -0.00009284  0.49990716  0.43813580
   0.50009284  0.00009284  0.43813580
   0.75000000  0.25000000  0.51649348
   0.75000000  0.25000000  0.54420701
Direct configuration=    19
   0.00016879 -0.00016879  0.00295003
   0.49983121  0.50016879  0.00295003
   0.00018409  0.50018409  0.06539777
   0.49981591 -0.00018409  0.06539777
  -0.00010820  0.00010820  0.12834277
   0.50010820  0.49989180  0.12834277
   0.00069496  0.50069496  0.19087969
   0.49930504 -0.00069496  0.19087969
   0.00126592 -0.00126592  0.25103299
   0.49873408  0.50126592  0.25103299
  -0.00144602  0.49855398  0.31351504
   0.50144602  0.00144602  0.31351504
  -0.00215843  0.00215843  0.37585942
   0.50215843  0.49784157  0.37585942
   0.00182795  0.50182795  0.43818882
   0.49817205 -0.00182795  0.43818882
   0.75000000  0.25000000  0.51840928
   0.75000000  0.25000000  0.54614103
Direct configuration=    20
   0.00012825 -0.00012825  0.00282879
   0.49987175  0.50012825  0.00282879
   0.00010883  0.50010883  0.06548518
   0.49989117 -0.00010883  0.06548518
  -0.00006550  0.00006550  0.12852486
   0.50006550  0.49993450  0.12852486
   0.00051162  0.50051162  0.19096788
   0.49948838 -0.00051162  0.19096788
   0.00074530 -0.00074530  0.25130936
   0.49925470  0.50074530  0.25130936
  -0.00113493  0.49886507  0.31361538
   0.50113493  0.00113493  0.31361538
  -0.00128180  0.00128180  0.37595462
   0.50128180  0.49871820  0.37595462
   0.00114005  0.50114005  0.43816983
   0.49885995 -0.00114005  0.43816983
   0.75000000  0.25000000  0.51772317
   0.75000000  0.25000000  0.54544840
Direct configuration=    21
   0.00011436 -0.00011436  0.00288532
   0.49988564  0.50011436  0.00288532
   0.00012586  0.50012586  0.06541454
   0.49987414 -0.00012586  0.06541454
  -0.00012791  0.00012791  0.12835196
   0.50012791  0.49987209  0.12835196
   0.00036731  0.50036731  0.19070398
   0.49963269 -0.00036731  0.19070398
   0.00094238 -0.00094238  0.25124003
   0.49905762  0.50094238  0.25124003
  -0.00092785  0.49907215  0.31348762
   0.50092785  0.00092785  0.31348762
  -0.00147130  0.00147130  0.37593888
   0.50147130  0.49852870  0.37593888
   0.00164477  0.50164477  0.43820647
   0.49835523 -0.00164477  0.43820647
   0.75000000  0.25000000  0.51859872
   0.75000000  0.25000000  0.54582709
Direct configuration=    22
   0.00010910 -0.00010910  0.00290670
   0.49989090  0.50010910  0.00290670
   0.00013230  0.50013230  0.06538782
   0.49986770 -0.00013230  0.06538782
  -0.00015152  0.00015152  0.12828655
   0.50015152  0.49984848  0.12828655
   0.00031271  0.50031271  0.19060413
   0.49968729 -0.00031271  0.19060413
   0.00101694 -0.00101694  0.25121380
   0.49898306  0.50101694  0.25121380
  -0.00084951  0.49915049  0.31343929
   0.50084951  0.00084951  0.31343929
  -0.00154300  0.00154300  0.37593292
   0.50154300  0.49845700  0.37593292
   0.00183572  0.50183572  0.43822033
   0.49816428 -0.00183572  0.43822033
   0.75000000  0.25000000  0.51892996
   0.75000000  0.25000000  0.54597036
Direct configuration=    23
   0.00011189 -0.00011189  0.00289536
   0.49988811  0.50011189  0.00289536
   0.00012888  0.50012888  0.06540200
   0.49987112 -0.00012888  0.06540200
  -0.00013899  0.00013899  0.12832126
   0.50013899  0.49986101  0.12832126
   0.00034168  0.50034168  0.19065712
   0.49965832 -0.00034168  0.19065712
   0.00097737 -0.00097737  0.25122772
   0.49902263  0.50097737  0.25122772
  -0.00089108  0.49910892  0.31346494
   0.50089108  0.00089108  0.31346494
  -0.00150495  0.00150495  0.37593608
   0.50150495  0.49849505  0.37593608
   0.00173439  0.50173439  0.43821297
   0.49826561 -0.00173439  0.43821297
   0.75000000  0.25000000  0.51875418
   0.75000000  0.25000000  0.54589433
Direct configuration=    24
   0.00006595 -0.00006595  0.00290138
   0.49993405  0.50006595  0.00290138
   0.00011107  0.50011107  0.06534839
   0.49988893 -0.00011107  0.06534839
  -0.00018098  0.00018098  0.12817215
   0.50018098  0.49981902  0.12817215
   0.00003858  0.50003858  0.19034022
   0.49996142 -0.00003858  0.19034022
   0.00091353 -0.00091353  0.25124936
   0.49908647  0.50091353  0.25124936
  -0.00044659  0.49955341  0.31334622
   0.50044659  0.00044659  0.31334622
  -0.00127555  0.00127555  0.37595943
   0.50127555  0.49872445  0.37595943
   0.00199987  0.50199987  0.43825690
   0.49800013 -0.00199987  0.43825690
   0.75000000  0.25000000  0.51925751
   0.75000000  0.25000000  0.54647776
Direct configuration=    25
  -0.00005570  0.00005570  0.00291735
   0.50005570  0.49994430  0.00291735
   0.00006390  0.50006390  0.06520644
   0.49993610 -0.00006390  0.06520644
  -0.00029218  0.00029218  0.12777730
   0.50029218  0.49970782  0.12777730
  -0.00076407  0.49923593  0.18950105
   0.50076407  0.00076407  0.18950105
   0.00074447 -0.00074447  0.25130666
   0.49925553  0.50074447  0.25130666
   0.00073045  0.50073045  0.31303185
   0.49926955 -0.00073045  0.31303185
  -0.00066807  0.00066807  0.37602126
   0.50066807  0.49933193  0.37602126
   0.00270287  0.50270287  0.43837323
   0.49729713 -0.00270287  0.43837323
   0.75000000  0.25000000  0.52059037
   0.75000000  0.25000000  0.54802274
Direct configuration=    26
  -0.00001599  0.00001599  0.00291214
   0.50001599  0.49998401  0.00291214
   0.00007930  0.50007930  0.06525278
   0.49992070 -0.00007930  0.06525278
  -0.00025588  0.00025588  0.12790620
   0.50025588  0.49974412  0.12790620
  -0.00050204  0.49949796  0.18977500
   0.50050204  0.00050204  0.18977500
   0.00079966 -0.00079966  0.25128796
   0.49920034  0.50079966  0.25128796
   0.00034620  0.50034620  0.31313448
   0.49965380 -0.00034620  0.31313448
  -0.00086638  0.00086638  0.37600107
   0.50086638  0.49913362  0.37600107
   0.00247337  0.50247337  0.43833525
   0.49752663 -0.00247337  0.43833525
   0.75000000  0.25000000  0.52015525
   0.75000000  0.25000000  0.54751837
Direct configuration=    27
  -0.00000664  0.00000664  0.00291091
   0.50000664  0.49999336  0.00291091
   0.00008292  0.50008292  0.06526369
   0.49991708 -0.00008292  0.06526369
  -0.00024733  0.00024733  0.12793654
   0.50024733  0.49975267  0.12793654
  -0.00044036  0.49955964  0.18983949
   0.50044036  0.00044036  0.18983949
   0.00081266 -0.00081266  0.25128355
   0.49918734  0.50081266  0.25128355
   0.00025575  0.50025575  0.31315863
   0.49974425 -0.00025575  0.31315863
  -0.00091306  0.00091306  0.37599632
   0.50091306  0.49908694  0.37599632
   0.00241935  0.50241935  0.43832631
   0.49758065 -0.00241935  0.43832631
   0.75000000  0.25000000  0.52005283
   0.75000000  0.25000000  0.54739965
Direct configuration=    28
  -0.00001129  0.00001129  0.00291152
   0.50001129  0.49998871  0.00291152
   0.00008112  0.50008112  0.06525827
   0.49991888 -0.00008112  0.06525827
  -0.00025158  0.00025158  0.12792146
   0.50025158  0.49974842  0.12792146
  -0.00047101  0.49952899  0.18980744
   0.50047101  0.00047101  0.18980744
   0.00080620 -0.00080620  0.25128574
   0.49919380  0.50080620  0.25128574
   0.00030070  0.50030070  0.31314663
   0.49969930 -0.00030070  0.31314663
  -0.00088986  0.00088986  0.37599868
   0.50088986  0.49911014  0.37599868
   0.00244620  0.50244620  0.43833076
   0.49755380 -0.00244620  0.43833076
   0.75000000  0.25000000  0.52010373
   0.75000000  0.25000000  0.54745866
Direct configuration=    29
  -0.00002946  0.00002946  0.00282695
   0.50002946  0.49997054  0.00282695
   0.00007263  0.50007263  0.06522714
   0.49992737 -0.00007263  0.06522714
  -0.00013044  0.00013044  0.12783916
   0.50013044  0.49986956  0.12783916
  -0.00044532  0.49955468  0.18977370
   0.50044532  0.00044532  0.18977370
   0.00052323 -0.00052323  0.25119736
   0.49947677  0.50052323  0.25119736
   0.00028874  0.50028874  0.31319822
   0.49971126 -0.00028874  0.31319822
  -0.00070430  0.00070430  0.37600485
   0.50070430  0.49929570  0.37600485
   0.00201684  0.50201684  0.43835458
   0.49798316 -0.00201684  0.43835458
   0.75000000  0.25000000  0.52025587
   0.75000000  0.25000000  0.54778358
Direct configuration=    30
  -0.00007824  0.00007824  0.00259993
   0.50007824  0.49992176  0.00259993
   0.00004982  0.50004982  0.06514359
   0.49995018 -0.00004982  0.06514359
   0.00019476 -0.00019476  0.12761824
   0.49980524  0.50019476  0.12761824
  -0.00037635  0.49962365  0.18968315
   0.50037635  0.00037635  0.18968315
  -0.00023636  0.00023636  0.25096011
   0.50023636  0.49976364  0.25096011
   0.00025664  0.50025664  0.31333673
   0.49974336 -0.00025664  0.31333673
  -0.00020617  0.00020617  0.37602141
   0.50020617  0.49979383  0.37602141
   0.00086426  0.50086426  0.43841852
   0.49913574 -0.00086426  0.43841852
   0.75000000  0.25000000  0.52066425
   0.75000000  0.25000000  0.54865580
Direct configuration=    31
  -0.00005790  0.00005790  0.00269459
   0.50005790  0.49994210  0.00269459
   0.00005933  0.50005933  0.06517843
   0.49994067 -0.00005933  0.06517843
   0.00005915 -0.00005915  0.12771037
   0.49994085  0.50005915  0.12771037
  -0.00040511  0.49959489  0.18972091
   0.50040511  0.00040511  0.18972091
   0.00008039 -0.00008039  0.25105904
   0.49991961  0.50008039  0.25105904
   0.00027003  0.50027003  0.31327897
   0.49972997 -0.00027003  0.31327897
  -0.00041389  0.00041389  0.37601451
   0.50041389  0.49958611  0.37601451
   0.00134489  0.50134489  0.43839185
   0.49865511 -0.00134489  0.43839185
   0.75000000  0.25000000  0.52049396
   0.75000000  0.25000000  0.54829208
Direct configuration=    32
  -0.00006395  0.00006395  0.00264914
   0.50006395  0.49993605  0.00264914
   0.00005248  0.50005248  0.06515708
   0.49994752 -0.00005248  0.06515708
   0.00011282 -0.00011282  0.12767553
   0.49988718  0.50011282  0.12767553
  -0.00037423  0.49962577  0.18971061
   0.50037423  0.00037423  0.18971061
  -0.00004028  0.00004028  0.25101908
   0.50004028  0.49995972  0.25101908
   0.00025275  0.50025275  0.31330464
   0.49974725 -0.00025275  0.31330464
  -0.00032652  0.00032652  0.37602138
   0.50032652  0.49967348  0.37602138
   0.00112680  0.50112680  0.43840569
   0.49887320 -0.00112680  0.43840569
   0.75000000  0.25000000  0.52061781
   0.75000000  0.25000000  0.54837926
Direct configuration=    33
  -0.00007518  0.00007518  0.00256480
   0.50007518  0.49992482  0.00256480
   0.00003979  0.50003979  0.06511748
   0.49996021 -0.00003979  0.06511748
   0.00021241 -0.00021241  0.12761088
   0.49978759  0.50021241  0.12761088
  -0.00031692  0.49968308  0.18969150
   0.50031692  0.00031692  0.18969150
  -0.00026418  0.00026418  0.25094492
   0.50026418  0.49973582  0.25094492
   0.00022070  0.50022070  0.31335226
   0.49977930 -0.00022070  0.31335226
  -0.00016441  0.00016441  0.37603415
   0.50016441  0.49983559  0.37603415
   0.00072215  0.50072215  0.43843137
   0.49927785 -0.00072215  0.43843137
   0.75000000  0.25000000  0.52084763
   0.75000000  0.25000000  0.54854103
Direct configuration=    34
  -0.00009764  0.00009764  0.00239613
   0.50009764  0.49990236  0.00239613
   0.00001439  0.50001439  0.06503827
   0.49998561 -0.00001439  0.06503827
   0.00041159 -0.00041159  0.12748158
   0.49958841  0.50041159  0.12748158
  -0.00020232  0.49979768  0.18965328
   0.50020232  0.00020232  0.18965328
  -0.00071198  0.00071198  0.25079662
   0.50071198  0.49928802  0.25079662
   0.00015659  0.50015659  0.31344751
   0.49984341 -0.00015659  0.31344751
   0.00015981 -0.00015981  0.37605967
   0.49984019  0.50015981  0.37605967
  -0.00008715  0.49991285  0.43848273
   0.50008715  0.00008715  0.43848273
   0.75000000  0.25000000  0.52130726
   0.75000000  0.25000000  0.54886456
Direct configuration=    35
  -0.00014255  0.00014255  0.00205877
   0.50014255  0.49985745  0.00205877
  -0.00003640  0.49996360  0.06487985
   0.50003640  0.00003640  0.06487985
   0.00080994 -0.00080994  0.12722299
   0.49919006  0.50080994  0.12722299
   0.00002689  0.50002689  0.18957683
   0.49997311 -0.00002689  0.18957683
  -0.00160759  0.00160759  0.25050000
   0.50160759  0.49839241  0.25050000
   0.00002838  0.50002838  0.31363800
   0.49997162 -0.00002838  0.31363800
   0.00080825 -0.00080825  0.37611073
   0.49919175  0.50080825  0.37611073
  -0.00170576  0.49829424  0.43858544
   0.50170576  0.00170576  0.43858544
   0.75000000  0.25000000  0.52222652
   0.75000000  0.25000000  0.54951162
Direct configuration=    36
  -0.00011377  0.00011377  0.00227491
   0.50011377  0.49988623  0.00227491
  -0.00000386  0.49999614  0.06498135
   0.50000386  0.00000386  0.06498135
   0.00055472 -0.00055472  0.12738867
   0.49944528  0.50055472  0.12738867
  -0.00011996  0.49988004  0.18962581
   0.50011996  0.00011996  0.18962581
  -0.00103378  0.00103378  0.25069004
   0.50103378  0.49896622  0.25069004
   0.00011052  0.50011052  0.31351595
   0.49988948 -0.00011052  0.31351595
   0.00039280 -0.00039280  0.37607802
   0.49960720  0.50039280  0.37607802
  -0.00066874  0.49933126  0.43851964
   0.50066874  0.00066874  0.43851964
   0.75000000  0.25000000  0.52163756
   0.75000000  0.25000000  0.54909706
Direct configuration=    37
  -0.00010814  0.00010814  0.00231724
   0.50010814  0.49989186  0.00231724
   0.00000251  0.50000251  0.06500123
   0.49999749 -0.00000251  0.06500123
   0.00050474 -0.00050474  0.12742111
   0.49949526  0.50050474  0.12742111
  -0.00014872  0.49985128  0.18963540
   0.50014872  0.00014872  0.18963540
  -0.00092141  0.00092141  0.25072726
   0.50092141  0.49907859  0.25072726
   0.00012661  0.50012661  0.31349205
   0.49987339 -0.00012661  0.31349205
   0.00031144 -0.00031144  0.37607161
   0.49968856  0.50031144  0.37607161
  -0.00046564  0.49953436  0.43850675
   0.50046564  0.00046564  0.43850675
   0.75000000  0.25000000  0.52152221
   0.75000000  0.25000000  0.54901586
Direct configuration=    38
  -0.00009809  0.00009809  0.00228686
   0.50009809  0.49990191  0.00228686
  -0.00001537  0.49998463  0.06495868
   0.50001537  0.00001537  0.06495868
   0.00045750 -0.00045750  0.12742782
   0.49954250  0.50045750  0.12742782
  -0.00009942  0.49990058  0.18961859
   0.50009942  0.00009942  0.18961859
  -0.00082286  0.00082286  0.25075033
   0.50082286  0.49917714  0.25075033
   0.00012342  0.50012342  0.31347070
   0.49987658 -0.00012342  0.31347070
   0.00032207 -0.00032207  0.37609444
   0.49967793  0.50032207  0.37609444
  -0.00044557  0.49955443  0.43851917
   0.50044557  0.00044557  0.43851917
   0.75000000  0.25000000  0.52160043
   0.75000000  0.25000000  0.54902980
Direct configuration=    39
  -0.00007151  0.00007151  0.00220647
   0.50007151  0.49992849  0.00220647
  -0.00006270  0.49993730  0.06484610
   0.50006270  0.00006270  0.06484610
   0.00033251 -0.00033251  0.12744558
   0.49966749  0.50033251  0.12744558
   0.00003104  0.50003104  0.18957409
   0.49996896 -0.00003104  0.18957409
  -0.00056209  0.00056209  0.25081138
   0.50056209  0.49943791  0.25081138
   0.00011496  0.50011496  0.31341419
   0.49988504 -0.00011496  0.31341419
   0.00035021 -0.00035021  0.37615483
   0.49964979  0.50035021  0.37615483
  -0.00039246  0.49960754  0.43855203
   0.50039246  0.00039246  0.43855203
   0.75000000  0.25000000  0.52180740
   0.75000000  0.25000000  0.54906669
Direct configuration=    40
  -0.00001833  0.00001833  0.00204568
   0.50001833  0.49998167  0.00204568
  -0.00015735  0.49984265  0.06462093
   0.50015735  0.00015735  0.06462093
   0.00008252 -0.00008252  0.12748108
   0.49991748  0.50008252  0.12748108
   0.00029196  0.50029196  0.18948509
   0.49970804 -0.00029196  0.18948509
  -0.00004056  0.00004056  0.25093348
   0.50004056  0.49995944  0.25093348
   0.00009806  0.50009806  0.31330117
   0.49990194 -0.00009806  0.31330117
   0.00040650 -0.00040650  0.37627562
   0.49959350  0.50040650  0.37627562
  -0.00028625  0.49971375  0.43861775
   0.50028625  0.00028625  0.43861775
   0.75000000  0.25000000  0.52222133
   0.75000000  0.25000000  0.54914045
Direct configuration=    41
  -0.00005487  0.00005487  0.00215616
   0.50005487  0.49994513  0.00215616
  -0.00009231  0.49990769  0.06477565
   0.50009231  0.00009231  0.06477565
   0.00025430 -0.00025430  0.12745668
   0.49974570  0.50025430  0.12745668
   0.00011267  0.50011267  0.18954624
   0.49988733 -0.00011267  0.18954624
  -0.00039893  0.00039893  0.25084958
   0.50039893  0.49960107  0.25084958
   0.00010967  0.50010967  0.31337883
   0.49989033 -0.00010967  0.31337883
   0.00036782 -0.00036782  0.37619262
   0.49963218  0.50036782  0.37619262
  -0.00035923  0.49964077  0.43857259
   0.50035923  0.00035923  0.43857259
   0.75000000  0.25000000  0.52193690
   0.75000000  0.25000000  0.54908976
Direct configuration=    42
  -0.00004396  0.00004396  0.00212686
   0.50004396  0.49995604  0.00212686
  -0.00010359  0.49989641  0.06473695
   0.50010359  0.00010359  0.06473695
   0.00020511 -0.00020511  0.12745884
   0.49979489  0.50020511  0.12745884
   0.00014472  0.50014472  0.18953598
   0.49985528 -0.00014472  0.18953598
  -0.00030803  0.00030803  0.25087058
   0.50030803  0.49969197  0.25087058
   0.00010160  0.50010160  0.31336197
   0.49989840 -0.00010160  0.31336197
   0.00036378 -0.00036378  0.37621167
   0.49963622  0.50036378  0.37621167
  -0.00031723  0.49968277  0.43858547