   5   5   0   0
  0.2668373E+02  0.2566798E-09  0.2566798E-09  0.2338313E-08  0.5000000E-15
  1.000000000000000E-004
  CAR 
 unknown system                          
     11.39048821    -10.22621446  301      0.06916628      1.00000000
    -10.226  0.0000E+00  0.0000E+00  0.0000E+00  0.0000E+00
    -10.154  0.0000E+00  0.0000E+00  0.0000E+00  0.0000E+00
    -10.082  0.0000E+00  0.0000E+00  0.0000E+00  0.0000E+00
    -10.010  0.0000E+00  0.0000E+00  0.0000E+00  0.0000E+00
     -9.938  0.0000E+00  0.0000E+00  0.0000E+00  0.0000E+00
     -9.866 -0.2865E-31 -0.2859E-31 -0.2064E-32 -0.2060E-32
     -9.794 -0.8819E-29 -0.8802E-29 -0.6375E-30 -0.6363E-30
     -9.722 -0.2094E-26 -0.2091E-26 -0.1516E-27 -0.1513E-27
     -9.650 -0.3827E-24 -0.3820E-24 -0.2773E-25 -0.2768E-25
     -9.578 -0.5377E-22 -0.5369E-22 -0.3902E-23 -0.3896E-23
     -9.506 -0.5809E-20 -0.5800E-20 -0.4225E-21 -0.4218E-21
     -9.434 -0.4822E-18 -0.4815E-18 -0.3517E-19 -0.3512E-19
     -9.362 -0.2978E-16 -0.2974E-16 -0.2181E-17 -0.2178E-17
     -9.289 -0.1451E-14 -0.1450E-14 -0.1068E-15 -0.1066E-15
     -9.217 -0.5414E-13 -0.5408E-13 -0.4008E-14 -0.4003E-14
     -9.145 -0.1545E-11 -0.1543E-11 -0.1153E-12 -0.1152E-12
     -9.073 -0.3363E-10 -0.3359E-10 -0.2538E-11 -0.2536E-11
     -9.001 -0.5572E-09 -0.5567E-09 -0.4269E-10 -0.4265E-10
     -8.929 -0.6998E-08 -0.6993E-08 -0.5469E-09 -0.5465E-09
     -8.857 -0.6625E-07 -0.6621E-07 -0.5321E-08 -0.5317E-08
     -8.785 -0.4685E-06 -0.4682E-06 -0.3908E-07 -0.3906E-07
     -8.713 -0.2438E-05 -0.2437E-05 -0.2147E-06 -0.2146E-06
     -8.641 -0.9069E-05 -0.9066E-05 -0.8682E-06 -0.8679E-06
     -8.569 -0.2257E-04 -0.2256E-04 -0.2494E-05 -0.2494E-05
     -8.497 -0.2963E-04 -0.2964E-04 -0.4630E-05 -0.4629E-05
     -8.425  0.1724E-04  0.1720E-04 -0.3387E-05 -0.3389E-05
     -8.353  0.1739E-03  0.1738E-03  0.9142E-05  0.9135E-05
     -8.281  0.4102E-03  0.4101E-03  0.3870E-04  0.3868E-04
     -8.209  0.5693E-03  0.5693E-03  0.7972E-04  0.7971E-04
     -8.137  0.5133E-03  0.5133E-03  0.1167E-03  0.1167E-03
     -8.065  0.2928E-03  0.2929E-03  0.1378E-03  0.1378E-03
     -7.992  0.8246E-04  0.8252E-04  0.1437E-03  0.1437E-03
     -7.920 -0.1655E-04 -0.1654E-04  0.1425E-03  0.1425E-03
     -7.848 -0.2911E-04 -0.2911E-04  0.1405E-03  0.1405E-03
     -7.776 -0.1534E-04 -0.1535E-04  0.1393E-03  0.1393E-03
     -7.704 -0.5098E-05 -0.5101E-05  0.1390E-03  0.1390E-03
     -7.632 -0.1797E-05 -0.1797E-05  0.1388E-03  0.1388E-03
     -7.560 -0.3420E-05 -0.3418E-05  0.1386E-03  0.1386E-03
     -7.488 -0.1123E-04 -0.1122E-04  0.1378E-03  0.1378E-03
     -7.416 -0.2538E-04 -0.2537E-04  0.1360E-03  0.1360E-03
     -7.344 -0.2681E-04 -0.2682E-04  0.1340E-03  0.1340E-03
     -7.272  0.3808E-04  0.3803E-04  0.1368E-03  0.1368E-03
     -7.200  0.2169E-03  0.2168E-03  0.1524E-03  0.1524E-03
     -7.128  0.4530E-03  0.4529E-03  0.1851E-03  0.1850E-03
     -7.056  0.5768E-03  0.5768E-03  0.2266E-03  0.2266E-03
     -6.984  0.4784E-03  0.4785E-03  0.2611E-03  0.2611E-03
     -6.912  0.2461E-03  0.2462E-03  0.2788E-03  0.2788E-03
     -6.840  0.5395E-04  0.5401E-04  0.2827E-03  0.2827E-03
     -6.768 -0.2372E-04 -0.2371E-04  0.2810E-03  0.2810E-03
     -6.695 -0.2702E-04 -0.2702E-04  0.2790E-03  0.2790E-03
     -6.623 -0.1274E-04 -0.1274E-04  0.2781E-03  0.2781E-03
     -6.551 -0.3851E-05 -0.3853E-05  0.2778E-03  0.2778E-03
     -6.479 -0.8204E-06 -0.8211E-06  0.2778E-03  0.2778E-03
     -6.407 -0.1306E-06 -0.1307E-06  0.2778E-03  0.2778E-03
     -6.335 -0.4608E-07 -0.4605E-07  0.2778E-03  0.2778E-03
     -6.263 -0.2466E-06 -0.2463E-06  0.2778E-03  0.2778E-03
     -6.191 -0.1424E-05 -0.1422E-05  0.2777E-03  0.2777E-03
     -6.119 -0.5981E-05 -0.5976E-05  0.2772E-03  0.2772E-03
     -6.047 -0.1733E-04 -0.1732E-04  0.2760E-03  0.2760E-03
     -5.975 -0.3009E-04 -0.3009E-04  0.2738E-03  0.2738E-03
     -5.903 -0.9410E-05 -0.9444E-05  0.2731E-03  0.2731E-03
     -5.831  0.1055E-03  0.1054E-03  0.2807E-03  0.2807E-03
     -5.759  0.3246E-03  0.3245E-03  0.3041E-03  0.3041E-03
     -5.687  0.5222E-03  0.5221E-03  0.3417E-03  0.3417E-03
     -5.615  0.5114E-03  0.5115E-03  0.3786E-03  0.3786E-03
     -5.543  0.2535E-03  0.2536E-03  0.3969E-03  0.3969E-03
     -5.471 -0.3720E-04 -0.3709E-04  0.3942E-03  0.3942E-03
     -5.398  0.4166E-04  0.4156E-04  0.3972E-03  0.3972E-03
     -5.326  0.8567E-03  0.8563E-03  0.4589E-03  0.4589E-03
     -5.254  0.2264E-02  0.2264E-02  0.6221E-03  0.6220E-03
     -5.182  0.3351E-02  0.3351E-02  0.8635E-03  0.8634E-03
     -5.110  0.3192E-02  0.3192E-02  0.1094E-02  0.1093E-02
     -5.038  0.1939E-02  0.1940E-02  0.1233E-02  0.1233E-02
     -4.966  0.6132E-03  0.6135E-03  0.1277E-02  0.1277E-02
     -4.894 -0.9308E-04 -0.9296E-04  0.1271E-02  0.1271E-02
     -4.822 -0.2800E-03 -0.2800E-03  0.1251E-02  0.1251E-02
     -4.750 -0.2982E-03 -0.2982E-03  0.1229E-02  0.1229E-02
     -4.678 -0.1651E-03 -0.1652E-03  0.1217E-02  0.1217E-02
     -4.606  0.4920E-03  0.4917E-03  0.1253E-02  0.1253E-02
     -4.534  0.1899E-02  0.1898E-02  0.1389E-02  0.1389E-02
     -4.462  0.3445E-02  0.3444E-02  0.1638E-02  0.1638E-02
     -4.390  0.3946E-02  0.3946E-02  0.1922E-02  0.1922E-02
     -4.318  0.2978E-02  0.2979E-02  0.2137E-02  0.2137E-02
     -4.246  0.1451E-02  0.1451E-02  0.2241E-02  0.2241E-02
     -4.174  0.4681E-03  0.4683E-03  0.2275E-02  0.2275E-02
     -4.101  0.2003E-03  0.2003E-03  0.2289E-02  0.2289E-02
     -4.029  0.2230E-03  0.2230E-03  0.2305E-02  0.2305E-02
     -3.957  0.4670E-03  0.4669E-03  0.2339E-02  0.2339E-02
     -3.885  0.1285E-02  0.1285E-02  0.2432E-02  0.2432E-02
     -3.813  0.2573E-02  0.2573E-02  0.2617E-02  0.2617E-02
     -3.741  0.3366E-02  0.3366E-02  0.2860E-02  0.2859E-02
     -3.669  0.2820E-02  0.2820E-02  0.3063E-02  0.3063E-02
     -3.597  0.1295E-02  0.1295E-02  0.3156E-02  0.3156E-02
     -3.525  0.4483E-04  0.4510E-04  0.3159E-02  0.3159E-02
     -3.453  0.2096E-03  0.2094E-03  0.3174E-02  0.3174E-02
     -3.381  0.2265E-02  0.2265E-02  0.3338E-02  0.3338E-02
     -3.309  0.5635E-02  0.5634E-02  0.3744E-02  0.3744E-02
     -3.237  0.8585E-02  0.8585E-02  0.4362E-02  0.4362E-02
     -3.165  0.9418E-02  0.9418E-02  0.5041E-02  0.5041E-02
     -3.093  0.8159E-02  0.8160E-02  0.5629E-02  0.5629E-02
     -3.021  0.6416E-02  0.6417E-02  0.6091E-02  0.6091E-02
     -2.949  0.5414E-02  0.5414E-02  0.6481E-02  0.6481E-02
     -2.877  0.4920E-02  0.4921E-02  0.6836E-02  0.6836E-02
     -2.804  0.4342E-02  0.4342E-02  0.7149E-02  0.7149E-02
     -2.732  0.3987E-02  0.3987E-02  0.7436E-02  0.7436E-02
     -2.660  0.4526E-02  0.4525E-02  0.7762E-02  0.7762E-02
     -2.588  0.5710E-02  0.5710E-02  0.8173E-02  0.8173E-02
     -2.516  0.6520E-02  0.6520E-02  0.8643E-02  0.8643E-02
     -2.444  0.6425E-02  0.6425E-02  0.9106E-02  0.9106E-02
     -2.372  0.5880E-02  0.5880E-02  0.9530E-02  0.9530E-02
     -2.300  0.5864E-02  0.5864E-02  0.9952E-02  0.9952E-02
     -2.228  0.7252E-02  0.7251E-02  0.1047E-01  0.1047E-01
     -2.156  0.9916E-02  0.9915E-02  0.1119E-01  0.1119E-01
     -2.084  0.1224E-01  0.1224E-01  0.1207E-01  0.1207E-01
     -2.012  0.1244E-01  0.1244E-01  0.1297E-01  0.1297E-01
     -1.940  0.1048E-01  0.1048E-01  0.1372E-01  0.1372E-01
     -1.868  0.7986E-02  0.7986E-02  0.1430E-01  0.1430E-01
     -1.796  0.6423E-02  0.6423E-02  0.1476E-01  0.1476E-01
     -1.724  0.6148E-02  0.6148E-02  0.1520E-01  0.1520E-01
     -1.652  0.6693E-02  0.6693E-02  0.1569E-01  0.1569E-01
     -1.580  0.7198E-02  0.7198E-02  0.1621E-01  0.1621E-01
     -1.507  0.7501E-02  0.7501E-02  0.1675E-01  0.1675E-01
     -1.435  0.8677E-02  0.8677E-02  0.1737E-01  0.1737E-01
     -1.363  0.1123E-01  0.1123E-01  0.1818E-01  0.1818E-01
     -1.291  0.1364E-01  0.1364E-01  0.1916E-01  0.1916E-01
     -1.219  0.1444E-01  0.1444E-01  0.2020E-01  0.2020E-01
     -1.147  0.1439E-01  0.1439E-01  0.2124E-01  0.2124E-01
     -1.075  0.1495E-01  0.1495E-01  0.2232E-01  0.2232E-01
     -1.003  0.1561E-01  0.1561E-01  0.2344E-01  0.2344E-01
     -0.931  0.1491E-01  0.1491E-01  0.2452E-01  0.2452E-01
     -0.859  0.1305E-01  0.1305E-01  0.2546E-01  0.2546E-01
     -0.787  0.1164E-01  0.1164E-01  0.2630E-01  0.2630E-01
     -0.715  0.1128E-01  0.1128E-01  0.2711E-01  0.2711E-01
     -0.643  0.1100E-01  0.1100E-01  0.2790E-01  0.2790E-01
     -0.571  0.1023E-01  0.1023E-01  0.2864E-01  0.2864E-01
     -0.499  0.9788E-02  0.9789E-02  0.2935E-01  0.2935E-01
     -0.427  0.1015E-01  0.1015E-01  0.3008E-01  0.3008E-01
     -0.355  0.1027E-01  0.1027E-01  0.3082E-01  0.3082E-01
     -0.283  0.9511E-02  0.9511E-02  0.3150E-01  0.3150E-01
     -0.210  0.9096E-02  0.9095E-02  0.3216E-01  0.3216E-01
     -0.138  0.9738E-02  0.9737E-02  0.3286E-01  0.3286E-01
     -0.066  0.9767E-02  0.9767E-02  0.3356E-01  0.3356E-01
      0.006  0.7550E-02  0.7551E-02  0.3411E-01  0.3411E-01
      0.078  0.4016E-02  0.4018E-02  0.3440E-01  0.3440E-01
      0.150  0.1237E-02  0.1238E-02  0.3449E-01  0.3449E-01
      0.222 -0.2580E-05 -0.1876E-05  0.3449E-01  0.3449E-01
      0.294 -0.2507E-03 -0.2503E-03  0.3447E-01  0.3447E-01
      0.366 -0.1853E-03 -0.1852E-03  0.3445E-01  0.3445E-01
      0.438 -0.1034E-03 -0.1034E-03  0.3445E-01  0.3445E-01
      0.510 -0.6271E-04 -0.6273E-04  0.3444E-01  0.3444E-01
      0.582 -0.3724E-04 -0.3730E-04  0.3444E-01  0.3444E-01
      0.654  0.4157E-04  0.4134E-04  0.3444E-01  0.3444E-01
      0.726  0.2283E-03  0.2278E-03  0.3446E-01  0.3446E-01
      0.798  0.4635E-03  0.4631E-03  0.3449E-01  0.3449E-01
      0.870  0.5761E-03  0.5761E-03  0.3453E-01  0.3453E-01
      0.942  0.4616E-03  0.4620E-03  0.3457E-01  0.3457E-01
      1.014  0.2047E-03  0.2052E-03  0.3458E-01  0.3458E-01
      1.087 -0.4314E-04 -0.4285E-04  0.3458E-01  0.3458E-01
      1.159 -0.1987E-03 -0.1986E-03  0.3456E-01  0.3456E-01
      1.231 -0.1309E-03 -0.1312E-03  0.3456E-01  0.3456E-01
      1.303  0.4640E-03  0.4632E-03  0.3459E-01  0.3459E-01
      1.375  0.1724E-02  0.1723E-02  0.3471E-01  0.3471E-01
      1.447  0.3059E-02  0.3058E-02  0.3493E-01  0.3493E-01
      1.519  0.3423E-02  0.3423E-02  0.3518E-01  0.3518E-01
      1.591  0.2488E-02  0.2489E-02  0.3536E-01  0.3536E-01
      1.663  0.1069E-02  0.1070E-02  0.3544E-01  0.3544E-01
      1.735  0.1149E-03  0.1154E-03  0.3544E-01  0.3544E-01
      1.807 -0.1767E-03 -0.1766E-03  0.3543E-01  0.3543E-01
      1.879 -0.1372E-03 -0.1372E-03  0.3542E-01  0.3542E-01
      1.951 -0.5564E-04 -0.5569E-04  0.3542E-01  0.3542E-01
      2.023 -0.1506E-04 -0.1508E-04  0.3542E-01  0.3542E-01
      2.095 -0.2913E-05 -0.2917E-05  0.3542E-01  0.3542E-01
      2.167 -0.4143E-06 -0.4150E-06  0.3542E-01  0.3542E-01
      2.239 -0.4401E-07 -0.4410E-07  0.3542E-01  0.3542E-01
      2.311 -0.3524E-08 -0.3531E-08  0.3542E-01  0.3542E-01
      2.384 -0.2138E-09 -0.2143E-09  0.3542E-01  0.3542E-01
      2.456 -0.9874E-11 -0.9899E-11  0.3542E-01  0.3542E-01
      2.528 -0.3522E-12 -0.3531E-12  0.3542E-01  0.3542E-01
      2.600 -0.1737E-12 -0.1731E-12  0.3542E-01  0.3542E-01
      2.672 -0.4940E-11 -0.4921E-11  0.3542E-01  0.3542E-01
      2.744 -0.1133E-09 -0.1129E-09  0.3542E-01  0.3542E-01
      2.816 -0.1981E-08 -0.1974E-08  0.3542E-01  0.3542E-01
      2.888 -0.2626E-07 -0.2619E-07  0.3542E-01  0.3542E-01
      2.960 -0.2628E-06 -0.2621E-06  0.3542E-01  0.3542E-01
      3.032 -0.1969E-05 -0.1964E-05  0.3542E-01  0.3542E-01
      3.104 -0.1089E-04 -0.1087E-04  0.3542E-01  0.3542E-01
      3.176 -0.4339E-04 -0.4332E-04  0.3541E-01  0.3541E-01
      3.248 -0.1178E-03 -0.1177E-03  0.3540E-01  0.3540E-01
      3.320 -0.1829E-03 -0.1829E-03  0.3539E-01  0.3539E-01
      3.392  0.4673E-05  0.4150E-05  0.3539E-01  0.3539E-01
      3.464  0.8058E-03  0.8045E-03  0.3545E-01  0.3545E-01
      3.536  0.2186E-02  0.2184E-02  0.3561E-01  0.3561E-01
      3.608  0.3317E-02  0.3316E-02  0.3585E-01  0.3585E-01
      3.681  0.3243E-02  0.3244E-02  0.3608E-01  0.3608E-01
      3.753  0.2018E-02  0.2019E-02  0.3622E-01  0.3622E-01
      3.825  0.6260E-03  0.6273E-03  0.3627E-01  0.3627E-01
      3.897 -0.1517E-03 -0.1513E-03  0.3626E-01  0.3626E-01
      3.969 -0.2164E-03 -0.2164E-03  0.3624E-01  0.3624E-01
      4.041  0.2925E-03  0.2922E-03  0.3626E-01  0.3626E-01
      4.113  0.1192E-02  0.1192E-02  0.3635E-01  0.3635E-01
      4.185  0.2013E-02  0.2013E-02  0.3650E-01  0.3650E-01
      4.257  0.2205E-02  0.2205E-02  0.3665E-01  0.3665E-01
      4.329  0.1786E-02  0.1786E-02  0.3678E-01  0.3678E-01
      4.401  0.1319E-02  0.1320E-02  0.3688E-01  0.3688E-01
      4.473  0.1100E-02  0.1101E-02  0.3696E-01  0.3696E-01
      4.545  0.9037E-03  0.9025E-03  0.3702E-01  0.3702E-01
      4.617  0.6065E-03  0.5995E-03  0.3707E-01  0.3707E-01
      4.689  0.5114E-03  0.4981E-03  0.3710E-01  0.3710E-01
      4.761  0.8649E-03  0.8532E-03  0.3717E-01  0.3716E-01
      4.833  0.1392E-02  0.1393E-02  0.3727E-01  0.3726E-01
      4.905  0.1552E-02  0.1564E-02  0.3738E-01  0.3738E-01
      4.978  0.1175E-02  0.1184E-02  0.3746E-01  0.3746E-01
      5.050  0.6397E-03  0.6329E-03  0.3751E-01  0.3751E-01
      5.122  0.3540E-03  0.3350E-03  0.3753E-01  0.3753E-01
      5.194  0.2864E-03  0.2738E-03  0.3755E-01  0.3755E-01
      5.266  0.2130E-03  0.2199E-03  0.3757E-01  0.3757E-01
      5.338  0.3363E-03  0.3555E-03  0.3759E-01  0.3759E-01
      5.410  0.1315E-02  0.1330E-02  0.3769E-01  0.3769E-01
      5.482  0.3318E-02  0.3322E-02  0.3793E-01  0.3793E-01
      5.554  0.5199E-02  0.5198E-02  0.3830E-01  0.3830E-01
      5.626  0.5376E-02  0.5375E-02  0.3869E-01  0.3869E-01
      5.698  0.3697E-02  0.3694E-02  0.3896E-01  0.3896E-01
      5.770  0.1639E-02  0.1629E-02  0.3907E-01  0.3907E-01
      5.842  0.5071E-03  0.4951E-03  0.3911E-01  0.3911E-01
      5.914  0.2790E-03  0.2759E-03  0.3913E-01  0.3913E-01
      5.986  0.2668E-03  0.2764E-03  0.3915E-01  0.3915E-01
      6.058  0.1124E-03  0.1263E-03  0.3916E-01  0.3916E-01
      6.130 -0.6127E-04 -0.5232E-04  0.3915E-01  0.3915E-01
      6.202  0.4581E-04  0.4810E-04  0.3916E-01  0.3916E-01
      6.275  0.6472E-03  0.6463E-03  0.3920E-01  0.3920E-01
      6.347  0.1585E-02  0.1584E-02  0.3932E-01  0.3932E-01
      6.419  0.2237E-02  0.2236E-02  0.3948E-01  0.3948E-01
      6.491  0.2054E-02  0.2054E-02  0.3963E-01  0.3963E-01
      6.563  0.1206E-02  0.1207E-02  0.3971E-01  0.3971E-01
      6.635  0.3627E-03  0.3630E-03  0.3974E-01  0.3974E-01
      6.707 -0.6472E-04 -0.6461E-04  0.3974E-01  0.3974E-01
      6.779 -0.1559E-03 -0.1559E-03  0.3972E-01  0.3972E-01
      6.851 -0.1250E-03 -0.1250E-03  0.3972E-01  0.3972E-01
      6.923 -0.1269E-04 -0.1271E-04  0.3971E-01  0.3971E-01
      6.995  0.2773E-03  0.2775E-03  0.3973E-01  0.3973E-01
      7.067  0.7165E-03  0.7177E-03  0.3979E-01  0.3979E-01
      7.139  0.1001E-02  0.1004E-02  0.3986E-01  0.3986E-01
      7.211  0.8532E-03  0.8535E-03  0.3992E-01  0.3992E-01
      7.283  0.5375E-03  0.5255E-03  0.3996E-01  0.3996E-01
      7.355  0.8274E-03  0.7940E-03  0.4002E-01  0.4002E-01
      7.427  0.2155E-02  0.2109E-02  0.4017E-01  0.4017E-01
      7.499  0.3799E-02  0.3771E-02  0.4045E-01  0.4044E-01
      7.572  0.4381E-02  0.4395E-02  0.4076E-01  0.4076E-01
      7.644  0.3434E-02  0.3479E-02  0.4101E-01  0.4101E-01
      7.716  0.1964E-02  0.2006E-02  0.4115E-01  0.4115E-01
      7.788  0.1218E-02  0.1230E-02  0.4124E-01  0.4124E-01
      7.860  0.1566E-02  0.1543E-02  0.4135E-01  0.4135E-01
      7.932  0.2593E-02  0.2554E-02  0.4154E-01  0.4153E-01
      8.004  0.3468E-02  0.3446E-02  0.4179E-01  0.4178E-01
      8.076  0.3352E-02  0.3365E-02  0.4203E-01  0.4203E-01
      8.148  0.2170E-02  0.2207E-02  0.4219E-01  0.4218E-01
      8.220  0.7381E-03  0.7708E-03  0.4224E-01  0.4224E-01
      8.292 -0.1738E-03 -0.1572E-03  0.4223E-01  0.4223E-01
      8.364 -0.3993E-03 -0.3955E-03  0.4220E-01  0.4220E-01
      8.436  0.4072E-04  0.2993E-04  0.4220E-01  0.4220E-01
      8.508  0.1240E-02  0.1197E-02  0.4229E-01  0.4229E-01
      8.580  0.3043E-02  0.2945E-02  0.4251E-01  0.4250E-01
      8.652  0.4826E-02  0.4681E-02  0.4286E-01  0.4284E-01
      8.724  0.5861E-02  0.5744E-02  0.4328E-01  0.4325E-01
      8.796  0.5678E-02  0.5686E-02  0.4369E-01  0.4366E-01
      8.869  0.4260E-02  0.4396E-02  0.4400E-01  0.4398E-01
      8.941  0.2233E-02  0.2396E-02  0.4416E-01  0.4415E-01
      9.013  0.5446E-03  0.6411E-03  0.4420E-01  0.4420E-01
      9.085 -0.2971E-03 -0.2736E-03  0.4418E-01  0.4418E-01
      9.157 -0.3261E-03 -0.3423E-03  0.4415E-01  0.4415E-01
      9.229  0.3901E-03  0.3523E-03  0.4418E-01  0.4418E-01
      9.301  0.1753E-02  0.1705E-02  0.4431E-01  0.4430E-01
      9.373  0.3097E-02  0.3067E-02  0.4453E-01  0.4452E-01
      9.445  0.3402E-02  0.3413E-02  0.4477E-01  0.4477E-01
      9.517  0.2419E-02  0.2461E-02  0.4495E-01  0.4495E-01
      9.589  0.1005E-02  0.1043E-02  0.4502E-01  0.4502E-01
      9.661  0.8651E-04  0.1034E-03  0.4503E-01  0.4503E-01
      9.733 -0.1793E-03 -0.1778E-03  0.4501E-01  0.4501E-01
      9.805 -0.1327E-03 -0.1354E-03  0.4501E-01  0.4501E-01
      9.877 -0.5260E-04 -0.5442E-04  0.4500E-01  0.4500E-01
      9.949 -0.1399E-04 -0.1463E-04  0.4500E-01  0.4500E-01
     10.021 -0.2663E-05 -0.2811E-05  0.4500E-01  0.4500E-01
     10.093 -0.3732E-06 -0.3975E-06  0.4500E-01  0.4500E-01
     10.166 -0.3908E-07 -0.4199E-07  0.4500E-01  0.4500E-01
     10.238 -0.3086E-08 -0.3343E-08  0.4500E-01  0.4500E-01
     10.310 -0.1847E-09 -0.2018E-09  0.4500E-01  0.4500E-01
     10.382 -0.8416E-11 -0.9267E-11  0.4500E-01  0.4500E-01
     10.454 -0.2926E-12 -0.3249E-12  0.4500E-01  0.4500E-01
     10.526 -0.7781E-14 -0.8708E-14  0.4500E-01  0.4500E-01
     10.598 -0.1592E-15 -0.1798E-15  0.4500E-01  0.4500E-01
     10.670 -0.2568E-17 -0.2568E-17  0.4500E-01  0.4500E-01
     10.742  0.0000E+00  0.0000E+00  0.4500E-01  0.4500E-01
     10.814  0.0000E+00  0.0000E+00  0.4500E-01  0.4500E-01
     10.886  0.0000E+00  0.0000E+00  0.4500E-01  0.4500E-01
     10.958  0.0000E+00  0.0000E+00  0.4500E-01  0.4500E-01
     11.030  0.0000E+00  0.0000E+00  0.4500E-01  0.4500E-01
     11.102  0.0000E+00  0.0000E+00  0.4500E-01  0.4500E-01
     11.174  0.0000E+00  0.0000E+00  0.4500E-01  0.4500E-01
     11.246  0.0000E+00  0.0000E+00  0.4500E-01  0.4500E-01
     11.318  0.0000E+00  0.0000E+00  0.4500E-01  0.4500E-01
     11.390  0.0000E+00  0.0000E+00  0.4500E-01  0.4500E-01
