    5    5  800    2
  0.2668373E+02  0.2566798E-09  0.2566798E-09  0.2338313E-08  0.5000000E-15
  1.000000000000000E-004
  CAR 
 unknown system                          
     55      3     36
 
  0.0000000E+00  0.0000000E+00  0.0000000E+00  0.1111111E+00
      1         -8.226214       -8.226190   1.000000   1.000000
      2         -7.087295       -7.087263   1.000000   1.000000
      3         -5.679185       -5.679142   1.000000   1.000000
      4         -4.398645       -4.398606   1.000000   1.000000
      5         -4.092696       -4.092669   1.000000   1.000000
      6         -2.210188       -2.210173   1.000000   1.000000
      7         -2.165154       -2.165146   1.000000   1.000000
      8         -2.165151       -2.165143   1.000000   1.000000
      9         -2.095735       -2.095726   1.000000   1.000000
     10         -2.095733       -2.095724   1.000000   1.000000
     11         -2.010643       -2.010624   1.000000   1.000000
     12         -1.899639       -1.899629   1.000000   1.000000
     13         -1.899635       -1.899625   1.000000   1.000000
     14         -1.641593       -1.641566   1.000000   1.000000
     15         -1.445483       -1.445472   1.000000   1.000000
     16         -1.445481       -1.445470   1.000000   1.000000
     17         -1.342775       -1.342755   1.000000   1.000000
     18         -1.342774       -1.342755   1.000000   1.000000
     19         -1.327907       -1.327859   1.000000   1.000000
     20         -1.115193       -1.115172   1.000000   1.000000
     21         -1.115191       -1.115170   1.000000   1.000000
     22         -0.909332       -0.909312   1.000000   1.000000
     23         -0.909329       -0.909308   1.000000   1.000000
     24         -0.812796       -0.812777   1.000000   1.000000
     25         -0.812795       -0.812776   1.000000   1.000000
     26         -0.345645       -0.345637   1.006247   1.006248
     27         -0.345644       -0.345636   1.006248   1.006248
     28         -0.304707       -0.304687   1.011911   1.011915
     29         -0.304705       -0.304685   1.011911   1.011915
     30          0.097181        0.097318   0.382740   0.382178
     31          0.835131        0.835257  -0.000000  -0.000000
     32          4.797938        4.802156  -0.000000  -0.000000
     33          5.199617        5.205749  -0.000000  -0.000000
     34          5.892605        5.896776   0.000000   0.000000
     35          7.461221        7.466588   0.000000   0.000000
     36          7.552204        7.556903   0.000000   0.000000
 
  0.3333333E+00  0.0000000E+00  0.0000000E+00  0.6666667E+00
      1         -5.190832       -5.190810   1.000000   1.000000
      2         -4.444232       -4.444209   1.000000   1.000000
      3         -3.765125       -3.765101   1.000000   1.000000
      4         -3.301151       -3.301138   1.000000   1.000000
      5         -3.217043       -3.217018   1.000000   1.000000
      6         -2.906338       -2.906321   1.000000   1.000000
      7         -2.586641       -2.586621   1.000000   1.000000
      8         -2.392630       -2.392613   1.000000   1.000000
      9         -2.180009       -2.179990   1.000000   1.000000
     10         -2.063688       -2.063678   1.000000   1.000000
     11         -2.047460       -2.047438   1.000000   1.000000
     12         -1.815434       -1.815413   1.000000   1.000000
     13         -1.634136       -1.634116   1.000000   1.000000
     14         -1.575421       -1.575405   1.000000   1.000000
     15         -1.362324       -1.362301   1.000000   1.000000
     16         -1.225910       -1.225900   1.000000   1.000000
     17         -1.107156       -1.107135   1.000000   1.000000
     18         -1.036152       -1.036144   1.000000   1.000000
     19         -1.007624       -1.007583   1.000000   1.000000
     20         -0.980763       -0.980753   1.000000   1.000000
     21         -0.831502       -0.831492   1.000000   1.000000
     22         -0.700821       -0.700795   1.000000   1.000000
     23         -0.634572       -0.634543   1.000004   1.000004
     24         -0.421927       -0.421914   1.001410   1.001410
     25         -0.372191       -0.372175   1.003876   1.003877
     26         -0.146812       -0.146804   1.031555   1.031553
     27         -0.116676       -0.116631   1.016136   1.016102
     28         -0.070944       -0.070898   0.960066   0.959986
     29          1.465785        1.465841  -0.000000  -0.000000
     30          3.604901        3.604986  -0.000000  -0.000000
     31          5.566143        5.566287   0.000000   0.000000
     32          7.527038        7.527895   0.000000   0.000000
     33          8.011084        8.012904   0.000000   0.000000
     34          8.610491        8.612084   0.000000   0.000000
     35          8.766636        8.774555   0.000000   0.000000
     36          9.388331        9.390488   0.000000   0.000000
 
 -0.3333333E+00  0.3333333E+00  0.0000000E+00  0.2222222E+00
      1         -3.218857       -3.218841   1.000000   1.000000
      2         -3.155689       -3.155677   1.000000   1.000000
      3         -3.154868       -3.154857   1.000000   1.000000
      4         -3.054829       -3.054814   1.000000   1.000000
      5         -3.017266       -3.017251   1.000000   1.000000
      6         -2.814306       -2.814291   1.000000   1.000000
      7         -2.700312       -2.700297   1.000000   1.000000
      8         -2.568729       -2.568703   1.000000   1.000000
      9         -2.496190       -2.496167   1.000000   1.000000
     10         -2.313402       -2.313389   1.000000   1.000000
     11         -2.004671       -2.004662   1.000000   1.000000
     12         -1.870507       -1.870482   1.000000   1.000000
     13         -1.361725       -1.361715   1.000000   1.000000
     14         -1.312599       -1.312582   1.000000   1.000000
     15         -1.309684       -1.309672   1.000000   1.000000
     16         -1.302641       -1.302628   1.000000   1.000000
     17         -1.253542       -1.253492   1.000000   1.000000
     18         -1.239760       -1.239715   1.000000   1.000000
     19         -0.976497       -0.976484   1.000000   1.000000
     20         -0.804853       -0.804835   1.000000   1.000000
     21         -0.699642       -0.699628   1.000000   1.000000
     22         -0.606889       -0.606878   1.000010   1.000010
     23         -0.601368       -0.601349   1.000011   1.000011
     24         -0.456566       -0.456546   1.000639   1.000640
     25         -0.438135       -0.438094   1.000982   1.000983
     26          4.174808        4.174826  -0.000000  -0.000000
     27          4.215780        4.215802  -0.000000  -0.000000
     28          4.472561        4.472584  -0.000000  -0.000000
     29          4.875755        4.875788  -0.000000  -0.000000
     30          5.510258        5.510287  -0.000000  -0.000000
     31          5.586446        5.586499   0.000000   0.000000
     32          6.386442        6.386476   0.000000   0.000000
     33          6.420858        6.420888   0.000000   0.000000
     34          7.131343        7.131400   0.000000   0.000000
     35          7.804255        7.804313   0.000000   0.000000
     36          8.830071        8.830141   0.000000   0.000000
