unknown system                          
           1
     2.566798    0.000000    0.000000
     1.283399    2.222912    0.000000
     0.000000    0.000000   23.383126
   Cu
     5
Direct configuration=     1
   0.00000000  0.00000000  0.00000000
   0.33333333  0.33333333  0.08962794
   0.66666667  0.66666667  0.17925589
   0.00000000  0.00000000  0.26888383
   0.33333333  0.33333333  0.35851178
Direct configuration=     2
   0.00000000  0.00000000  0.00000000
   0.33333333  0.33333333  0.08962794
   0.66666667  0.66666667  0.17925567
   0.00000000 -0.00000000  0.26928788
   0.33333333  0.33333333  0.35738718
Direct configuration=     3
   0.00000000  0.00000000  0.00000000
   0.33333333  0.33333333  0.08962794
   0.66666667  0.66666667  0.17925520
   0.00000000 -0.00000000  0.27014640
   0.33333333  0.33333333  0.35499760
Direct configuration=     4
   0.00000000  0.00000000  0.00000000
   0.33333333  0.33333333  0.08962794
   0.66666667  0.66666667  0.17925534
   0.00000000 -0.00000000  0.26988555
   0.33333333  0.33333333  0.35572364
Direct configuration=     5
   0.00000000  0.00000000  0.00000000
   0.33333333  0.33333333  0.08962794
   0.66666667  0.66666667  0.17925531
   0.00000000 -0.00000000  0.26993740
   0.33333333  0.33333333  0.35557932
Direct configuration=     6
   0.00000000  0.00000000  0.00000000
   0.33333333  0.33333333  0.08962794
   0.66666667  0.66666667  0.17940297
   0.00000000 -0.00000000  0.26932358
   0.33333333  0.33333333  0.35490745
Direct configuration=     7
   0.00000000  0.00000000  0.00000000
   0.33333333  0.33333333  0.08962794
   0.66666667  0.66666667  0.17984596
   0.00000000 -0.00000000  0.26748210
   0.33333333  0.33333333  0.35289185
Direct configuration=     8
   0.00000000  0.00000000  0.00000000
   0.33333333  0.33333333  0.08962794
   0.66666667  0.66666667  0.18073193
   0.00000000 -0.00000000  0.26379914
   0.33333333  0.33333333  0.34886066
Direct configuration=     9
   0.00000000  0.00000000  0.00000000
   0.33333333  0.33333333  0.08962794
   0.66666667  0.66666667  0.17998172
   0.00000000 -0.00000000  0.26691774
   0.33333333  0.33333333  0.35227414
Direct configuration=    10
   0.00000000  0.00000000  0.00000000
   0.33333333  0.33333333  0.08962794
   0.66666667  0.66666667  0.17962532
   0.00000000 -0.00000000  0.26646017
   0.33333333  0.33333333  0.35162204
Direct configuration=    11
   0.00000000  0.00000000  0.00000000
   0.33333333  0.33333333  0.08962794
   0.66666667  0.66666667  0.17855612
   0.00000000 -0.00000000  0.26508743
   0.33333333  0.33333333  0.34966572
Direct configuration=    12
   0.00000000  0.00000000  0.00000000
   0.33333333  0.33333333  0.08962794
   0.66666667  0.66666667  0.17641772
   0.00000000 -0.00000000  0.26234195
   0.33333333  0.33333333  0.34575309
Direct configuration=    13
   0.00000000  0.00000000  0.00000000
   0.33333333  0.33333333  0.08962794
   0.66666667  0.66666667  0.17700402
   0.00000000 -0.00000000  0.26309470
   0.33333333  0.33333333  0.34682584
Direct configuration=    14
   0.00000000  0.00000000  0.00000000
   0.33333333  0.33333333  0.08962794
   0.66666667  0.66666667  0.17610327
   0.00000000 -0.00000000  0.26226275
   0.33333333  0.33333333  0.34692140
Direct configuration=    15
   0.00000000  0.00000000  0.00000000
   0.33333333  0.33333333  0.08962794
   0.66666667  0.66666667  0.17593709
   0.00000000 -0.00000000  0.26210926
   0.33333333  0.33333333  0.34693903
Direct configuration=    16
   0.00000000  0.00000000  0.00000000
   0.33333333  0.33333333  0.08962794
   0.66666667  0.66666667  0.17587850
   0.00000000 -0.00000000  0.26205515
   0.33333333  0.33333333  0.34694525
Direct configuration=    17
   0.00000000  0.00000000  0.00000000
   0.33333333  0.33333333  0.08962794
   0.66666667  0.66666667  0.17592224
   0.00000000 -0.00000000  0.26209554
   0.33333333  0.33333333  0.34694061
Direct configuration=    18
   0.00000000  0.00000000  0.00000000
   0.33333333  0.33333333  0.08962794
   0.66666667  0.66666667  0.17589463
   0.00000000 -0.00000000  0.26207004
   0.33333333  0.33333333  0.34694354
Direct configuration=    19
   0.00000000  0.00000000  0.00000000
   0.33333333  0.33333333  0.08962794
   0.66666667  0.66666667  0.17590085
   0.00000000 -0.00000000  0.26207579
   0.33333333  0.33333333  0.34694288
Direct configuration=    20
   0.00000000  0.00000000  0.00000000
   0.33333333  0.33333333  0.08962794
   0.66666667  0.66666667  0.17589540
   0.00000000 -0.00000000  0.26207075
   0.33333333  0.33333333  0.34694346
Direct configuration=    21
   0.00000000  0.00000000  0.00000000
   0.33333333  0.33333333  0.08962794
   0.66666667  0.66666667  0.17589812
   0.00000000 -0.00000000  0.26207327
   0.33333333  0.33333333  0.34694317
Direct configuration=    22
   0.00000000  0.00000000  0.00000000
   0.33333333  0.33333333  0.08962794
   0.66666667  0.66666667  0.17589896
   0.00000000 -0.00000000  0.26207404
   0.33333333  0.33333333  0.34694308
Direct configuration=    23
   0.00000000  0.00000000  0.00000000
   0.33333333  0.33333333  0.08962794
   0.66666667  0.66666667  0.17589964
   0.00000000 -0.00000000  0.26207467
   0.33333333  0.33333333  0.34694301
Direct configuration=    24
   0.00000000  0.00000000  0.00000000
   0.33333333  0.33333333  0.08962794
   0.66666667  0.66666667  0.17564312
   0.00000000 -0.00000000  0.26222332
   0.33333333  0.33333333  0.34692560
Direct configuration=    25
   0.00000000  0.00000000  0.00000000
   0.33333333  0.33333333  0.08962794
   0.66666667  0.66666667  0.17575495
   0.00000000 -0.00000000  0.26215851
   0.33333333  0.33333333  0.34693319
Direct configuration=    26
   0.00000000  0.00000000  0.00000000
   0.33333333  0.33333333  0.08962794
   0.66666667  0.66666667  0.17571379
   0.00000000 -0.00000000  0.26218236
   0.33333333  0.33333333  0.34693039
Direct configuration=    27
   0.00000000  0.00000000  0.00000000
   0.33333333  0.33333333  0.08962794
   0.66666667  0.66666667  0.17573278
   0.00000000 -0.00000000  0.26217136
   0.33333333  0.33333333  0.34693168
Direct configuration=    28
   0.00000000  0.00000000  0.00000000
   0.33333333  0.33333333  0.08962794
   0.66666667  0.66666667  0.17572611
   0.00000000 -0.00000000  0.26217522
   0.33333333  0.33333333  0.34693123
Direct configuration=    29
   0.00000000  0.00000000  0.00000000
   0.33333333  0.33333333  0.08962794
   0.66666667  0.66666667  0.17573169
   0.00000000 -0.00000000  0.26217199
   0.33333333  0.33333333  0.34693161
Direct configuration=    30
   0.00000000  0.00000000  0.00000000
   0.33333333  0.33333333  0.08962794
   0.66666667  0.66666667  0.17572890
   0.00000000 -0.00000000  0.26217361
   0.33333333  0.33333333  0.34693142
Direct configuration=    31
   0.00000000  0.00000000  0.00000000
   0.33333333  0.33333333  0.08962794
   0.66666667  0.66666667  0.17573024
   0.00000000 -0.00000000  0.26217283
   0.33333333  0.33333333  0.34693151
