   34   34  800    2
  0.2629040E+02  0.7260000E-09  0.5133595E-09  0.2398379E-08  0.5000000E-15
  1.000000000000000E-004
  CAR 
 unknown system                          
    354      4    232
