<?xml version="1.0" encoding="ISO-8859-1"?>
<modeling>
 <generator>
  <i name="program" type="string">vasp </i>
  <i name="version" type="string">6.3.2  </i>
  <i name="subversion" type="string">27Jun22 (build Aug 17 2022 15:43:34) complex                          parallel </i>
  <i name="platform" type="string">tv2STDVTST </i>
  <i name="date" type="string">2025 02 17 </i>
  <i name="time" type="string">17:28:13 </i>
 </generator>
 <incar>
  <i type="int" name="ISTART">     0</i>
  <i type="string" name="PREC">Normal</i>
  <i type="int" name="ISPIN">     2</i>
  <i type="int" name="ICHARG">     2</i>
  <i type="int" name="IBRION">     2</i>
  <i name="EDIFF">      0.00020000</i>
  <i name="EDIFFG">     -0.03000000</i>
  <i type="int" name="NSW">   800</i>
  <i type="int" name="ISIF">     2</i>
  <i type="int" name="ISYM">     1</i>
  <i name="ENCUT">    400.00000000</i>
  <i name="POTIM">      0.50000000</i>
  <i type="logical" name="LREAL"> F  </i>
  <i type="int" name="ISMEAR">     1</i>
  <i name="SIGMA">      0.20000000</i>
  <i type="logical" name="LWAVE"> F  </i>
  <i type="logical" name="LCHARG"> F  </i>
  <i type="string" name="GGA">PE</i>
  <i type="int" name="IVDW">    11</i>
 </incar>
 <primitive_cell>
  <structure name="primitive_cell" >
   <crystal>
    <varray name="basis" >
     <v>       7.26000023       0.00000000       0.00000000 </v>
     <v>       0.00000000       5.13359547       0.00000000 </v>
     <v>       0.00000000       0.00000000      23.98379135 </v>
    </varray>
    <i name="volume">    893.87360752 </i>
    <varray name="rec_basis" >
     <v>       0.13774104       0.00000000       0.00000000 </v>
     <v>       0.00000000       0.19479525       0.00000000 </v>
     <v>       0.00000000       0.00000000       0.04169483 </v>
    </varray>
   </crystal>
   <varray name="positions" >
    <v>       0.00000000       0.00000000       0.00000000 </v>
    <v>       0.00000000       0.50000000       0.00000000 </v>
    <v>       0.50000000       0.00000000       0.00000000 </v>
    <v>       0.50000000       0.50000000       0.00000000 </v>
    <v>       0.25000000       0.25000000       0.05351109 </v>
    <v>       0.25000000       0.75000000       0.05351109 </v>
    <v>       0.75000000       0.25000000       0.05351109 </v>
    <v>       0.75000000       0.75000000       0.05351109 </v>
    <v>       0.00000000       0.00000000       0.10541371 </v>
    <v>       0.00000000       0.50000000       0.10541371 </v>
    <v>       0.50000000       0.00000000       0.10541371 </v>
    <v>       0.50000000       0.50000000       0.10541371 </v>
    <v>       0.25000000       0.25000000       0.15715010 </v>
    <v>       0.25000000       0.75000000       0.15715010 </v>
    <v>       0.75000000       0.25000000       0.15715010 </v>
    <v>       0.75000000       0.75000000       0.15715010 </v>
    <v>       0.00000000       0.00000000       0.20866257 </v>
    <v>       0.00000000       0.50000000       0.20866257 </v>
    <v>       0.50000000       0.00000000       0.20866257 </v>
    <v>       0.50000000       0.50000000       0.20866257 </v>
    <v>       0.25000000       0.25000000       0.25947965 </v>
    <v>       0.25000000       0.75000000       0.25947965 </v>
    <v>       0.75000000       0.25000000       0.25947965 </v>
    <v>       0.75000000       0.75000000       0.25947965 </v>
    <v>       0.00000000       0.00000000       0.31415415 </v>
    <v>       0.00000000       0.50000000       0.31415415 </v>
    <v>       0.50000000       0.00000000       0.31415415 </v>
    <v>       0.50000000       0.50000000       0.31415415 </v>
    <v>       0.25000000       0.25000000       0.36181799 </v>
    <v>       0.25000000       0.75000000       0.36181799 </v>
    <v>       0.75000000       0.25000000       0.36181799 </v>
    <v>       0.75000000       0.75000000       0.36181799 </v>
    <v>       0.50000000       0.75000000       0.42690792 </v>
    <v>       0.50000000       0.89531725       0.42690792 </v>
   </varray>
  </structure>
  <varray name="primitive_index" >
   <v type="int" >        1 </v>
   <v type="int" >        2 </v>
   <v type="int" >        3 </v>
   <v type="int" >        4 </v>
   <v type="int" >        5 </v>
   <v type="int" >        6 </v>
   <v type="int" >        7 </v>
   <v type="int" >        8 </v>
   <v type="int" >        9 </v>
   <v type="int" >       10 </v>
   <v type="int" >       11 </v>
   <v type="int" >       12 </v>
   <v type="int" >       13 </v>
   <v type="int" >       14 </v>
   <v type="int" >       15 </v>
   <v type="int" >       16 </v>
   <v type="int" >       17 </v>
   <v type="int" >       18 </v>
   <v type="int" >       19 </v>
   <v type="int" >       20 </v>
   <v type="int" >       21 </v>
   <v type="int" >       22 </v>
   <v type="int" >       23 </v>
   <v type="int" >       24 </v>
   <v type="int" >       25 </v>
   <v type="int" >       26 </v>
   <v type="int" >       27 </v>
   <v type="int" >       28 </v>
   <v type="int" >       29 </v>
   <v type="int" >       30 </v>
   <v type="int" >       31 </v>
   <v type="int" >       32 </v>
   <v type="int" >       33 </v>
   <v type="int" >       34 </v>
  </varray>
 </primitive_cell>
 <kpoints>
  <generation param="Monkhorst-Pack">
   <v type="int" name="divisions">       3        3        1 </v>
   <v name="usershift">      0.00000000       0.00000000       0.00000000 </v>
   <v name="genvec1">      0.33333333       0.00000000       0.00000000 </v>
   <v name="genvec2">      0.00000000       0.33333333       0.00000000 </v>
   <v name="genvec3">      0.00000000       0.00000000       1.00000000 </v>
   <v name="shift">      0.00000000       0.00000000       0.00000000 </v>
  </generation>
  <varray name="kpointlist" >
   <v>       0.00000000       0.00000000       0.00000000 </v>
   <v>       0.33333333       0.00000000       0.00000000 </v>
   <v>       0.00000000       0.33333333       0.00000000 </v>
   <v>       0.33333333       0.33333333       0.00000000 </v>
  </varray>
  <varray name="weights" >
   <v>       0.11111111 </v>
   <v>       0.22222222 </v>
   <v>       0.22222222 </v>
   <v>       0.44444444 </v>
  </varray>
 </kpoints>
 <parameters>
  <separator name="general" >
   <i type="string" name="SYSTEM">unknown system</i>
   <i type="logical" name="LCOMPAT"> F  </i>
  </separator>
  <separator name="electronic" >
   <i type="string" name="PREC">normal</i>
   <i name="ENMAX">    400.00000000</i>
   <i name="ENAUG">    586.98000000</i>
   <i name="EDIFF">      0.00020000</i>
   <i type="int" name="IALGO">    38</i>
   <i type="int" name="IWAVPR">    11</i>
   <i type="int" name="NBANDS">   232</i>
   <i type="int" name="NBANDSLOW">    -1</i>
   <i type="int" name="NBANDSHIGH">    -1</i>
   <i name="NELECT">    354.00000000</i>
   <i type="int" name="TURBO">     0</i>
   <i type="int" name="IRESTART">     0</i>
   <i type="int" name="NREBOOT">     0</i>
   <i type="int" name="NMIN">     0</i>
   <i name="EREF">      0.00000000</i>
   <separator name="electronic smearing" >
    <i type="int" name="ISMEAR">     1</i>
    <i name="SIGMA">      0.20000000</i>
    <i name="KSPACING">      0.50000000</i>
    <i type="logical" name="KGAMMA"> T  </i>
    <i type="logical" name="KBLOWUP"> T  </i>
   </separator>
   <separator name="electronic projectors" >
    <i type="logical" name="LREAL"> F  </i>
    <v name="ROPT">      0.00000000      0.00000000</v>
    <i type="int" name="LMAXPAW">  -100</i>
    <i type="int" name="LMAXMIX">     2</i>
    <i type="logical" name="NLSPLINE"> F  </i>
   </separator>
   <separator name="electronic startup" >
    <i type="int" name="ISTART">     0</i>
    <i type="int" name="ICHARG">     2</i>
    <i type="int" name="INIWAV">     1</i>
   </separator>
   <separator name="electronic spin" >
    <i type="int" name="ISPIN">     2</i>
    <i type="logical" name="LNONCOLLINEAR"> F  </i>
    <v name="MAGMOM">      1.00000000      1.00000000      1.00000000      1.00000000      1.00000000      1.00000000      1.00000000      1.00000000      1.00000000      1.00000000      1.00000000      1.00000000      1.00000000      1.00000000      1.00000000      1.00000000      1.00000000      1.00000000      1.00000000      1.00000000
      1.00000000      1.00000000      1.00000000      1.00000000      1.00000000      1.00000000      1.00000000      1.00000000      1.00000000      1.00000000      1.00000000      1.00000000      1.00000000      1.00000000</v>
    <i name="NUPDOWN">     -1.00000000</i>
    <i type="logical" name="LSORBIT"> F  </i>
    <v name="SAXIS">      0.00000000      0.00000000      1.00000000</v>
    <i type="logical" name="LSPIRAL"> F  </i>
    <v name="QSPIRAL">      0.00000000      0.00000000      0.00000000</v>
    <i type="logical" name="LZEROZ"> F  </i>
   </separator>
   <separator name="electronic exchange-correlation" >
    <i type="logical" name="LASPH"> F  </i>
    <i type="logical" name="LMETAGGA"> F  </i>
   </separator>
   <separator name="electronic convergence" >
    <i type="int" name="NELM">    60</i>
    <i type="int" name="NELMDL">    -5</i>
    <i type="int" name="NELMIN">     2</i>
    <i name="ENINI">    400.00000000</i>
    <separator name="electronic convergence detail" >
     <i type="logical" name="LDIAG"> T  </i>
     <i type="logical" name="LSUBROT"> F  </i>
     <i name="WEIMIN">      0.00100000</i>
     <i name="EBREAK">      0.00000022</i>
     <i name="DEPER">      0.30000000</i>
     <i type="int" name="NRMM">     4</i>
     <i name="TIME">      0.40000000</i>
    </separator>
   </separator>
   <separator name="electronic mixer" >
    <i name="AMIX">      0.40000000</i>
    <i name="BMIX">      1.00000000</i>
    <i name="AMIN">      0.10000000</i>
    <i name="AMIX_MAG">      1.60000000</i>
    <i name="BMIX_MAG">      1.00000000</i>
    <separator name="electronic mixer details" >
     <i type="int" name="IMIX">     4</i>
     <i type="logical" name="MIXFIRST"> F  </i>
     <i type="int" name="MAXMIX">   -45</i>
     <i name="WC">    100.00000000</i>
     <i type="int" name="INIMIX">     1</i>
     <i type="int" name="MIXPRE">     1</i>
     <i type="int" name="MREMOVE">     5</i>
    </separator>
   </separator>
   <separator name="electronic dipolcorrection" >
    <i type="logical" name="LDIPOL"> F  </i>
    <i type="logical" name="LMONO"> F  </i>
    <i type="int" name="IDIPOL">     0</i>
    <i name="EPSILON">      1.00000000</i>
    <v name="DIPOL">   -100.00000000   -100.00000000   -100.00000000</v>
    <i name="EFIELD">      0.00000000</i>
   </separator>
  </separator>
  <separator name="grids" >
   <i type="int" name="NGX">    36</i>
   <i type="int" name="NGY">    28</i>
   <i type="int" name="NGZ">   120</i>
   <i type="int" name="NGXF">    72</i>
   <i type="int" name="NGYF">    56</i>
   <i type="int" name="NGZF">   240</i>
   <i type="logical" name="ADDGRID"> F  </i>
  </separator>
  <separator name="ionic" >
   <i type="int" name="NSW">   800</i>
   <i type="int" name="IBRION">     2</i>
   <i type="int" name="MDALGO">     0</i>
   <i type="int" name="ISIF">     2</i>
   <i name="PSTRESS">      0.00000000</i>
   <i name="EDIFFG">     -0.03000000</i>
   <i type="int" name="NFREE">     1</i>
   <i name="POTIM">      0.50000000</i>
   <i name="SMASS">     -3.00000000</i>
   <i name="SCALEE">      1.00000000</i>
  </separator>
  <separator name="ionic md" >
   <i name="TEBEG">      0.00010000</i>
   <i name="TEEND">      0.00010000</i>
   <i type="int" name="NBLOCK">     1</i>
   <i type="int" name="KBLOCK">   800</i>
   <i type="int" name="NPACO">   256</i>
   <i name="APACO">     10.00000000</i>
  </separator>
  <separator name="symmetry" >
   <i type="int" name="ISYM">     1</i>
   <i name="SYMPREC">      0.00001000</i>
  </separator>
  <separator name="dos" >
   <i type="int" name="LORBIT">     0</i>
   <v name="RWIGS">     -1.00000000     -1.00000000</v>
   <i type="int" name="NEDOS">   301</i>
   <i name="EMIN">     10.00000000</i>
   <i name="EMAX">    -10.00000000</i>
   <i name="EFERMI">      0.00000000</i>
  </separator>
  <separator name="writing" >
   <i type="int" name="NWRITE">     2</i>
   <i type="logical" name="LWAVE"> F  </i>
   <i type="logical" name="LDOWNSAMPLE"> F  </i>
   <i type="logical" name="LCHARG"> F  </i>
   <i type="logical" name="LPARD"> F  </i>
   <i type="logical" name="LVTOT"> F  </i>
   <i type="logical" name="LVHAR"> F  </i>
   <i type="logical" name="LELF"> F  </i>
   <i type="logical" name="LOPTICS"> F  </i>
   <v name="STM">      0.00000000      0.00000000      0.00000000      0.00000000      0.00000000      0.00000000      0.00000000</v>
  </separator>
  <separator name="performance" >
   <i type="int" name="NPAR">     4</i>
   <i type="int" name="NSIM">     4</i>
   <i type="int" name="NBLK">    -1</i>
   <i type="logical" name="LPLANE"> T  </i>
   <i type="logical" name="LSCALAPACK"> T  </i>
   <i type="logical" name="LSCAAWARE"> F  </i>
   <i type="logical" name="LSCALU"> F  </i>
   <i type="logical" name="LASYNC"> F  </i>
   <i type="logical" name="LORBITALREAL"> F  </i>
  </separator>
  <separator name="miscellaneous" >
   <i type="int" name="IDIOT">     3</i>
   <i type="int" name="PHON_NSTRUCT">    -1</i>
   <i type="logical" name="LMUSIC"> F  </i>
   <v name="POMASS">     63.54600000      1.00000000</v>
   <v name="DARWINR">      0.00000000      0.00000000</v>
   <v name="DARWINV">      1.00000000      1.00000000</v>
   <i type="logical" name="LCORR"> T  </i>
  </separator>
  <i type="logical" name="GGA_COMPAT"> T  </i>
  <i type="logical" name="LBERRY"> F  </i>
  <i type="int" name="ICORELEVEL">     0</i>
  <i type="logical" name="LDAU"> F  </i>
  <i type="int" name="I_CONSTRAINED_M">     0</i>
  <separator name="electronic exchange-correlation" >
   <i type="string" name="GGA">PE</i>
   <i type="int" name="VOSKOWN">     0</i>
   <i type="logical" name="LHFCALC"> F  </i>
   <i type="string" name="PRECFOCK"></i>
   <i type="logical" name="LSYMGRAD"> F  </i>
   <i type="logical" name="LHFONE"> F  </i>
   <i type="logical" name="LRHFCALC"> F  </i>
   <i type="logical" name="LTHOMAS"> F  </i>
   <i type="logical" name="LMODELHF"> F  </i>
   <i type="logical" name="LFOCKACE"> F  </i>
   <i name="ENCUT4O">     -1.00000000</i>
   <i type="int" name="EXXOEP">     0</i>
   <i type="int" name="FOURORBIT">     0</i>
   <i name="AEXX">      0.00000000</i>
   <i name="HFALPHA">      0.00000000</i>
   <i name="MCALPHA">      0.00000000</i>
   <i name="ALDAX">      1.00000000</i>
   <i name="AGGAX">      1.00000000</i>
   <i name="ALDAC">      1.00000000</i>
   <i name="AGGAC">      1.00000000</i>
   <i type="int" name="NKREDX">     1</i>
   <i type="int" name="NKREDY">     1</i>
   <i type="int" name="NKREDZ">     1</i>
   <i type="logical" name="SHIFTRED"> F  </i>
   <i type="logical" name="ODDONLY"> F  </i>
   <i type="logical" name="EVENONLY"> F  </i>
   <i type="int" name="LMAXFOCK">     0</i>
   <i type="int" name="NMAXFOCKAE">     0</i>
   <i type="logical" name="LFOCKAEDFT"> F  </i>
   <i name="HFSCREEN">      0.00000000</i>
   <i name="HFSCREENC">      0.00000000</i>
   <i type="int" name="NBANDSGWLOW">     0</i>
  </separator>
  <separator name="vdW DFT" >
   <i type="logical" name="LUSE_VDW"> F  </i>
   <i name="Zab_VDW">     -0.84910000</i>
   <i name="PARAM1">      0.12340000</i>
   <i name="PARAM2">      1.00000000</i>
   <i name="PARAM3">      0.00000000</i>
  </separator>
  <separator name="model GW" >
   <i type="int" name="MODEL_GW">     0</i>
   <i name="MODEL_EPS0">     15.77424013</i>
   <i name="MODEL_ALPHA">      1.00000000</i>
  </separator>
  <separator name="linear response parameters" >
   <i type="logical" name="LEPSILON"> F  </i>
   <i type="logical" name="LRPA"> F  </i>
   <i type="logical" name="LNABLA"> F  </i>
   <i type="logical" name="LVEL"> F  </i>
   <i name="CSHIFT">      0.10000000</i>
   <i name="OMEGAMAX">     -1.00000000</i>
   <i name="DEG_THRESHOLD">      0.00200000</i>
   <i name="RTIME">     -0.10000000</i>
   <i name="WPLASMAI">      0.00000000</i>
   <v name="DFIELD">      0.00000000      0.00000000      0.00000000</v>
   <v name="WPLASMA">      0.00000000      0.00000000      0.00000000      0.00000000      0.00000000      0.00000000      0.00000000      0.00000000      0.00000000</v>
  </separator>
  <separator name="orbital magnetization" >
   <i type="logical" name="NUCIND"> F  </i>
   <v name="MAGPOS">      0.00000000      0.00000000      0.00000000</v>
   <i type="logical" name="LNICSALL"> T  </i>
   <i type="logical" name="ORBITALMAG"> F  </i>
   <i type="logical" name="LMAGBLOCH"> F  </i>
   <i type="logical" name="LCHIMAG"> F  </i>
   <i type="logical" name="LGAUGE"> T  </i>
   <i type="int" name="MAGATOM">     0</i>
   <v name="MAGDIPOL">      0.00000000      0.00000000      0.00000000</v>
   <v name="AVECCONST">      0.00000000      0.00000000      0.00000000</v>
  </separator>
  <separator name="response functions" >
   <i type="logical" name="LFINITE_TEMPERATURE"> F  </i>
   <i type="logical" name="LADDER"> F  </i>
   <i type="logical" name="LRPAFORCE"> F  </i>
   <i type="logical" name="LFXC"> F  </i>
   <i type="logical" name="LHARTREE"> T  </i>
   <i type="int" name="IBSE">     0</i>
   <v type="int" name="KPOINT">    -1     0     0     0</v>
   <i type="logical" name="LTCTC"> F  </i>
   <i type="logical" name="LTCTE"> F  </i>
   <i type="logical" name="LTETE"> F  </i>
   <i type="logical" name="LTRIPLET"> F  </i>
   <i type="logical" name="LFXCEPS"> F  </i>
   <i type="logical" name="LFXHEG"> F  </i>
   <i type="int" name="NATURALO">     2</i>
   <i type="logical" name="LHOLEGF"> F  </i>
   <i type="logical" name="L2ORDER"> F  </i>
   <i type="logical" name="LDMP1"> F  </i>
   <i type="logical" name="LMP2LT"> F  </i>
   <i type="logical" name="LSMP2LT"> F  </i>
   <i type="logical" name="LGWLF"> F  </i>
   <i name="ENCUTGW">     -2.00000000</i>
   <i name="ENCUTGWSOFT">     -2.00000000</i>
   <i name="ENCUTLF">     -1.00000000</i>
   <i type="logical" name="LESF_SPLINES"> F  </i>
   <i type="int" name="LMAXMP2">    -1</i>
   <i name="SCISSOR">      0.00000000</i>
   <i type="int" name="NOMEGA">     0</i>
   <i type="int" name="NOMEGAR">     0</i>
   <i type="int" name="NBANDSGW">    -1</i>
   <i type="int" name="NBANDSO">    -1</i>
   <i type="int" name="NBANDSV">    -1</i>
   <i type="int" name="NELMGW">     1</i>
   <i type="int" name="NELMHF">     1</i>
   <i type="int" name="DIM">     3</i>
   <i type="int" name="IESPILON">     4</i>
   <i type="int" name="ANTIRES">     0</i>
   <i name="OMEGAMAX">    -30.00000000</i>
   <i name="OMEGAMIN">    -30.00000000</i>
   <i name="OMEGATL">   -200.00000000</i>
   <i type="int" name="OMEGAGRID">     0</i>
   <i name="CSHIFT">     -0.10000000</i>
   <i type="logical" name="LSELFENERGY"> F  </i>
   <i type="logical" name="LSPECTRAL"> F  </i>
   <i type="logical" name="LSPECTRALGW"> F  </i>
   <i type="logical" name="LSINGLES"> F  </i>
   <i type="logical" name="LFERMIGW"> F  </i>
   <i type="logical" name="ODDONLYGW"> F  </i>
   <i type="logical" name="EVENONLYGW"> F  </i>
   <i type="int" name="NKREDLFX">     1</i>
   <i type="int" name="NKREDLFY">     1</i>
   <i type="int" name="NKREDLFZ">     1</i>
   <i type="int" name="MAXMEM">  2800</i>
   <i type="int" name="TELESCOPE">     0</i>
   <i type="int" name="NTAUPAR">    -1</i>
   <i type="int" name="NOMEGAPAR">    -1</i>
   <i name="DAMP_NEWTON">      0.80000001</i>
   <i name="LAMBDA">      1.00000000</i>
  </separator>
  <separator name="External order field" >
   <i name="OFIELD_KAPPA">      0.00000000</i>
   <v name="OFIELD_K">      0.00000000      0.00000000      0.00000000</v>
   <i name="OFIELD_Q6_NEAR">      0.00000000</i>
   <i name="OFIELD_Q6_FAR">      0.00000000</i>
   <i name="OFIELD_A">      0.00000000</i>
  </separator>
  <separator name="optional k-points parameters" >
   <i type="int" name="KPOINTS_OPT_MODE">     1</i>
   <i type="logical" name="LKPOINTS_OPT"> F  </i>
  </separator>
 </parameters>
 <atominfo>
  <atoms>      34 </atoms>
  <types>       2 </types>
  <array name="atoms" >
   <dimension dim="1">ion</dimension>
   <field type="string">element</field>
   <field type="int">atomtype</field>
   <set>
    <rc><c>Cu</c><c>   1</c></rc>
    <rc><c>Cu</c><c>   1</c></rc>
    <rc><c>Cu</c><c>   1</c></rc>
    <rc><c>Cu</c><c>   1</c></rc>
    <rc><c>Cu</c><c>   1</c></rc>
    <rc><c>Cu</c><c>   1</c></rc>
    <rc><c>Cu</c><c>   1</c></rc>
    <rc><c>Cu</c><c>   1</c></rc>
    <rc><c>Cu</c><c>   1</c></rc>
    <rc><c>Cu</c><c>   1</c></rc>
    <rc><c>Cu</c><c>   1</c></rc>
    <rc><c>Cu</c><c>   1</c></rc>
    <rc><c>Cu</c><c>   1</c></rc>
    <rc><c>Cu</c><c>   1</c></rc>
    <rc><c>Cu</c><c>   1</c></rc>
    <rc><c>Cu</c><c>   1</c></rc>
    <rc><c>Cu</c><c>   1</c></rc>
    <rc><c>Cu</c><c>   1</c></rc>
    <rc><c>Cu</c><c>   1</c></rc>
    <rc><c>Cu</c><c>   1</c></rc>
    <rc><c>Cu</c><c>   1</c></rc>
    <rc><c>Cu</c><c>   1</c></rc>
    <rc><c>Cu</c><c>   1</c></rc>
    <rc><c>Cu</c><c>   1</c></rc>
    <rc><c>Cu</c><c>   1</c></rc>
    <rc><c>Cu</c><c>   1</c></rc>
    <rc><c>Cu</c><c>   1</c></rc>
    <rc><c>Cu</c><c>   1</c></rc>
    <rc><c>Cu</c><c>   1</c></rc>
    <rc><c>Cu</c><c>   1</c></rc>
    <rc><c>Cu</c><c>   1</c></rc>
    <rc><c>Cu</c><c>   1</c></rc>
    <rc><c>H </c><c>   2</c></rc>
    <rc><c>H </c><c>   2</c></rc>
   </set>
  </array>
  <array name="atomtypes" >
   <dimension dim="1">type</dimension>
   <field type="int">atomspertype</field>
   <field type="string">element</field>
   <field>mass</field>
   <field>valence</field>
   <field type="string">pseudopotential</field>
   <set>
    <rc><c>  32</c><c>Cu</c><c>     63.54600000</c><c>     11.00000000</c><c>  PAW_PBE Cu 22Jun2005                  </c></rc>
    <rc><c>   2</c><c>H </c><c>      1.00000000</c><c>      1.00000000</c><c>  PAW_PBE H 15Jun2001                   </c></rc>
   </set>
  </array>
 </atominfo>
 <structure name="initialpos" >
  <crystal>
   <varray name="basis" >
    <v>       7.26000023       0.00000000       0.00000000 </v>
    <v>       0.00000000       5.13359547       0.00000000 </v>
    <v>       0.00000000       0.00000000      23.98379135 </v>
   </varray>
   <i name="volume">    893.87360752 </i>
   <varray name="rec_basis" >
    <v>       0.13774104       0.00000000       0.00000000 </v>
    <v>       0.00000000       0.19479525       0.00000000 </v>
    <v>       0.00000000       0.00000000       0.04169483 </v>
   </varray>
  </crystal>
  <varray name="positions" >
   <v>       0.00000000       0.00000000       0.00000000 </v>
   <v>       0.00000000       0.50000000       0.00000000 </v>
   <v>       0.50000000       0.00000000       0.00000000 </v>
   <v>       0.50000000       0.50000000       0.00000000 </v>
   <v>       0.25000000       0.25000000       0.05351109 </v>
   <v>       0.25000000       0.75000000       0.05351109 </v>
   <v>       0.75000000       0.25000000       0.05351109 </v>
   <v>       0.75000000       0.75000000       0.05351109 </v>
   <v>       0.00000000       0.00000000       0.10541371 </v>
   <v>       0.00000000       0.50000000       0.10541371 </v>
   <v>       0.50000000       0.00000000       0.10541371 </v>
   <v>       0.50000000       0.50000000       0.10541371 </v>
   <v>       0.25000000       0.25000000       0.15715010 </v>
   <v>       0.25000000       0.75000000       0.15715010 </v>
   <v>       0.75000000       0.25000000       0.15715010 </v>
   <v>       0.75000000       0.75000000       0.15715010 </v>
   <v>       0.00000000       0.00000000       0.20866257 </v>
   <v>       0.00000000       0.50000000       0.20866257 </v>
   <v>       0.50000000       0.00000000       0.20866257 </v>
   <v>       0.50000000       0.50000000       0.20866257 </v>
   <v>       0.25000000       0.25000000       0.25947965 </v>
   <v>       0.25000000       0.75000000       0.25947965 </v>
   <v>       0.75000000       0.25000000       0.25947965 </v>
   <v>       0.75000000       0.75000000       0.25947965 </v>
   <v>       0.00000000       0.00000000       0.31415415 </v>
   <v>       0.00000000       0.50000000       0.31415415 </v>
   <v>       0.50000000       0.00000000       0.31415415 </v>
   <v>       0.50000000       0.50000000       0.31415415 </v>
   <v>       0.25000000       0.25000000       0.36181799 </v>
   <v>       0.25000000       0.75000000       0.36181799 </v>
   <v>       0.75000000       0.25000000       0.36181799 </v>
   <v>       0.75000000       0.75000000       0.36181799 </v>
   <v>       0.50000000       0.75000000       0.42690792 </v>
   <v>       0.50000000       0.89531725       0.42690792 </v>
  </varray>
  <varray name="selective"  type="logical" >
   <v type="logical" >  F  F  F </v>
   <v type="logical" >  F  F  F </v>
   <v type="logical" >  F  F  F </v>
   <v type="logical" >  F  F  F </v>
   <v type="logical" >  F  F  F </v>
   <v type="logical" >  F  F  F </v>
   <v type="logical" >  F  F  F </v>
   <v type="logical" >  F  F  F </v>
   <v type="logical" >  F  F  F </v>
   <v type="logical" >  F  F  F </v>
   <v type="logical" >  F  F  F </v>
   <v type="logical" >  F  F  F </v>
   <v type="logical" >  T  T  T </v>
   <v type="logical" >  T  T  T </v>
   <v type="logical" >  T  T  T </v>
   <v type="logical" >  T  T  T </v>
   <v type="logical" >  T  T  T </v>
   <v type="logical" >  T  T  T </v>
   <v type="logical" >  T  T  T </v>
   <v type="logical" >  T  T  T </v>
   <v type="logical" >  T  T  T </v>
   <v type="logical" >  T  T  T </v>
   <v type="logical" >  T  T  T </v>
   <v type="logical" >  T  T  T </v>
   <v type="logical" >  T  T  T </v>
   <v type="logical" >  T  T  T </v>
   <v type="logical" >  T  T  T </v>
   <v type="logical" >  T  T  T </v>
   <v type="logical" >  T  T  T </v>
   <v type="logical" >  T  T  T </v>
   <v type="logical" >  T  T  T </v>
   <v type="logical" >  T  T  T </v>
   <v type="logical" >  T  T  T </v>
   <v type="logical" >  T  T  T </v>
  </varray>
  <nose>
   <v>      -3.00000000       0.00000000       0.00010000       0.00010000 </v>
  </nose>
 </structure>
 <calculation>
  <scstep>
   <time name="dav">    7.57    7.64</time>
   <time name="total">    7.66    7.72</time>
   <energy>
    <i name="alphaZ">    844.48149002 </i>
    <i name="ewald"> 173271.33336717 </i>
    <i name="hartreedc">-216410.32722538 </i>
    <i name="XCdc">   1468.44494263 </i>
    <i name="pawpsdc">  39302.70853331 </i>
    <i name="pawaedc"> -42689.07521165 </i>
    <i name="eentropy">     -0.00470164 </i>
    <i name="bandstr">   2948.60125664 </i>
    <i name="atom">  44535.60175172 </i>
    <i name="e_fr_energy">   3271.76420283 </i>
    <i name="e_wo_entrp">   3271.76890446 </i>
    <i name="e_0_energy">   3271.76577004 </i>
   </energy>
  </scstep>
  <scstep>
   <time name="dav">    7.47    7.53</time>
   <time name="total">    7.48    7.54</time>
   <energy>
    <i name="e_fr_energy">    384.18707568 </i>
    <i name="e_wo_entrp">    384.19372040 </i>
    <i name="e_0_energy">    384.18929058 </i>
   </energy>
  </scstep>
  <scstep>
   <time name="dav">    7.48    7.55</time>
   <time name="total">    7.49    7.55</time>
   <energy>
    <i name="e_fr_energy">   -100.12701729 </i>
    <i name="e_wo_entrp">   -100.15277389 </i>
    <i name="e_0_energy">   -100.13560283 </i>
   </energy>
  </scstep>
  <scstep>
   <time name="dav">    8.18    8.25</time>
   <time name="total">    8.19    8.25</time>
   <energy>
    <i name="e_fr_energy">   -133.30898601 </i>
    <i name="e_wo_entrp">   -133.33128653 </i>
    <i name="e_0_energy">   -133.31641952 </i>
   </energy>
  </scstep>
  <scstep>
   <time name="dav">    8.10    8.16</time>
   <time name="total">    8.48    8.55</time>
   <energy>
    <i name="e_fr_energy">   -134.08360413 </i>
    <i name="e_wo_entrp">   -134.10694624 </i>
    <i name="e_0_energy">   -134.09138483 </i>
   </energy>
  </scstep>
  <scstep>
   <time name="dav">    7.95    8.01</time>
   <time name="total">    8.37    8.44</time>
   <energy>
    <i name="e_fr_energy">   -108.25056880 </i>
    <i name="e_wo_entrp">   -108.24290248 </i>
    <i name="e_0_energy">   -108.24801336 </i>
   </energy>
  </scstep>
  <scstep>
   <time name="dav">    8.07    8.13</time>
   <time name="total">    8.49    8.56</time>
   <energy>
    <i name="e_fr_energy">    -95.27693568 </i>
    <i name="e_wo_entrp">    -95.26685807 </i>
    <i name="e_0_energy">    -95.27357648 </i>
   </energy>
  </scstep>
  <scstep>
   <time name="dav">    8.35    8.42</time>
   <time name="total">    8.78    8.85</time>
   <energy>
    <i name="e_fr_energy">    -94.02525076 </i>
    <i name="e_wo_entrp">    -94.02603214 </i>
    <i name="e_0_energy">    -94.02551122 </i>
   </energy>
  </scstep>
  <scstep>
   <time name="dav">    9.54    9.62</time>
   <time name="total">    9.96   10.04</time>
   <energy>
    <i name="e_fr_energy">    -92.24934387 </i>
    <i name="e_wo_entrp">    -92.25002949 </i>
    <i name="e_0_energy">    -92.24957241 </i>
   </energy>
  </scstep>
  <scstep>
   <time name="dav">   10.35   10.44</time>
   <time name="total">   10.81   10.90</time>
   <energy>
    <i name="e_fr_energy">    -93.14951772 </i>
    <i name="e_wo_entrp">    -93.15303855 </i>
    <i name="e_0_energy">    -93.15069133 </i>
   </energy>
  </scstep>
  <scstep>
   <time name="dav">   10.52   10.61</time>
   <time name="total">   10.94   11.03</time>
   <energy>
    <i name="e_fr_energy">    -93.17566886 </i>
    <i name="e_wo_entrp">    -93.16886265 </i>
    <i name="e_0_energy">    -93.17340012 </i>
   </energy>
  </scstep>
  <scstep>
   <time name="dav">    9.12    9.20</time>
   <time name="total">    9.55    9.63</time>
   <energy>
    <i name="e_fr_energy">    -95.46896268 </i>
    <i name="e_wo_entrp">    -95.43960935 </i>
    <i name="e_0_energy">    -95.45917824 </i>
   </energy>
  </scstep>
  <scstep>
   <time name="dav">    8.94    9.01</time>
   <time name="total">    9.38    9.45</time>
   <energy>
    <i name="e_fr_energy">   -100.43572948 </i>
    <i name="e_wo_entrp">   -100.41044479 </i>
    <i name="e_0_energy">   -100.42730125 </i>
   </energy>
  </scstep>
  <scstep>
   <time name="dav">    8.90    8.97</time>
   <time name="total">    9.35    9.43</time>
   <energy>
    <i name="e_fr_energy">   -105.90489438 </i>
    <i name="e_wo_entrp">   -105.88947279 </i>
    <i name="e_0_energy">   -105.89975385 </i>
   </energy>
  </scstep>
  <scstep>
   <time name="dav">    9.70    9.78</time>
   <time name="total">   10.13   10.22</time>
   <energy>
    <i name="e_fr_energy">   -110.00715655 </i>
    <i name="e_wo_entrp">   -110.03273088 </i>
    <i name="e_0_energy">   -110.01568133 </i>
   </energy>
  </scstep>
  <scstep>
   <time name="dav">    8.24    8.31</time>
   <time name="total">    8.68    8.76</time>
   <energy>
    <i name="e_fr_energy">   -113.04099882 </i>
    <i name="e_wo_entrp">   -113.09099094 </i>
    <i name="e_0_energy">   -113.05766286 </i>
   </energy>
  </scstep>
  <scstep>
   <time name="dav">    8.13    8.19</time>
   <time name="total">    8.57    8.64</time>
   <energy>
    <i name="e_fr_energy">   -114.53543548 </i>
    <i name="e_wo_entrp">   -114.58758419 </i>
    <i name="e_0_energy">   -114.55281838 </i>
   </energy>
  </scstep>
  <scstep>
   <time name="dav">    8.23    8.29</time>
   <time name="total">    8.65    8.72</time>
   <energy>
    <i name="e_fr_energy">   -115.79751586 </i>
    <i name="e_wo_entrp">   -115.83323824 </i>
    <i name="e_0_energy">   -115.80942332 </i>
   </energy>
  </scstep>
  <scstep>
   <time name="dav">    8.56    8.63</time>
   <time name="total">    8.99    9.06</time>
   <energy>
    <i name="e_fr_energy">   -116.46505786 </i>
    <i name="e_wo_entrp">   -116.49788495 </i>
    <i name="e_0_energy">   -116.47600022 </i>
   </energy>
  </scstep>
  <scstep>
   <time name="dav">    8.42    8.49</time>
   <time name="total">    8.85    8.92</time>
   <energy>
    <i name="e_fr_energy">   -116.90415842 </i>
    <i name="e_wo_entrp">   -116.93737710 </i>
    <i name="e_0_energy">   -116.91523131 </i>
   </energy>
  </scstep>
  <scstep>
   <time name="dav">    8.38    8.45</time>
   <time name="total">    8.82    8.89</time>
   <energy>
    <i name="e_fr_energy">   -117.04636286 </i>
    <i name="e_wo_entrp">   -117.08119981 </i>
    <i name="e_0_energy">   -117.05797518 </i>
   </energy>
  </scstep>
  <scstep>
   <time name="dav">    8.80    8.87</time>
   <time name="total">    9.24    9.32</time>
   <energy>
    <i name="e_fr_energy">   -117.26283796 </i>
    <i name="e_wo_entrp">   -117.29912215 </i>
    <i name="e_0_energy">   -117.27493269 </i>
   </energy>
  </scstep>
  <scstep>
   <time name="dav">    8.57    8.64</time>
   <time name="total">    9.01    9.09</time>
   <energy>
    <i name="e_fr_energy">   -117.48161640 </i>
    <i name="e_wo_entrp">   -117.51719299 </i>
    <i name="e_0_energy">   -117.49347527 </i>
   </energy>
  </scstep>
  <scstep>
   <time name="dav">    9.35    9.43</time>
   <time name="total">    9.79    9.87</time>
   <energy>
    <i name="e_fr_energy">   -117.64312679 </i>
    <i name="e_wo_entrp">   -117.68004872 </i>
    <i name="e_0_energy">   -117.65543410 </i>
   </energy>
  </scstep>
  <scstep>
   <time name="dav">    8.75    8.82</time>
   <time name="total">    9.19    9.26</time>
   <energy>
    <i name="e_fr_energy">   -117.77113138 </i>
    <i name="e_wo_entrp">   -117.80831642 </i>
    <i name="e_0_energy">   -117.78352640 </i>
   </energy>
  </scstep>
  <scstep>
   <time name="dav">    9.02    9.09</time>
   <time name="total">    9.45    9.53</time>
   <energy>
    <i name="e_fr_energy">   -117.95495770 </i>
    <i name="e_wo_entrp">   -117.99171586 </i>
    <i name="e_0_energy">   -117.96721042 </i>
   </energy>
  </scstep>
  <scstep>
   <time name="dav">    8.99    9.06</time>
   <time name="total">    9.42    9.50</time>
   <energy>
    <i name="e_fr_energy">   -118.02426415 </i>
    <i name="e_wo_entrp">   -118.06165366 </i>
    <i name="e_0_energy">   -118.03672732 </i>
   </energy>
  </scstep>
  <scstep>
   <time name="dav">    6.65    6.70</time>
   <time name="total">    7.08    7.13</time>
   <energy>
    <i name="e_fr_energy">   -118.05601456 </i>
    <i name="e_wo_entrp">   -118.09330851 </i>
    <i name="e_0_energy">   -118.06844588 </i>
   </energy>
  </scstep>
  <scstep>
   <time name="dav">    6.06    6.11</time>
   <time name="total">    6.50    6.55</time>
   <energy>
    <i name="e_fr_energy">   -118.06347878 </i>
    <i name="e_wo_entrp">   -118.10069902 </i>
    <i name="e_0_energy">   -118.07588553 </i>
   </energy>
  </scstep>
  <scstep>
   <time name="dav">    5.95    6.00</time>
   <time name="total">    6.39    6.45</time>
   <energy>
    <i name="e_fr_energy">   -118.06725384 </i>
    <i name="e_wo_entrp">   -118.10455587 </i>
    <i name="e_0_energy">   -118.07968785 </i>
   </energy>
  </scstep>
  <scstep>
   <time name="dav">    5.63    5.67</time>
   <time name="total">    6.06    6.11</time>
   <energy>
    <i name="e_fr_energy">   -118.06865892 </i>
    <i name="e_wo_entrp">   -118.10586217 </i>
    <i name="e_0_energy">   -118.08106000 </i>
   </energy>
  </scstep>
  <scstep>
   <time name="dav">    5.52    5.56</time>
   <time name="total">    5.59    5.64</time>
   <energy>
    <i name="alphaZ">    844.48149002 </i>
    <i name="ewald"> 173271.33336717 </i>
    <i name="hartreedc">-216033.66023823 </i>
    <i name="XCdc">   1431.90862237 </i>
    <i name="pawpsdc">  41952.40115636 </i>
    <i name="pawaedc"> -45400.40636528 </i>
    <i name="eentropy">      0.03717550 </i>
    <i name="bandstr">   -719.76580102 </i>
    <i name="atom">  44535.60175172 </i>
    <i name="e_fr_energy">   -118.06884139 </i>
    <i name="e_wo_entrp">   -118.10601689 </i>
    <i name="e_0_energy">   -118.08123323 </i>
   </energy>
  </scstep>
  <structure>
   <crystal>
    <varray name="basis" >
     <v>       7.26000023       0.00000000       0.00000000 </v>
     <v>       0.00000000       5.13359547       0.00000000 </v>
     <v>       0.00000000       0.00000000      23.98379135 </v>
    </varray>
    <i name="volume">    893.87360752 </i>
    <varray name="rec_basis" >
     <v>       0.13774104       0.00000000       0.00000000 </v>
     <v>       0.00000000       0.19479525       0.00000000 </v>
     <v>       0.00000000       0.00000000       0.04169483 </v>
    </varray>
   </crystal>
   <varray name="positions" >
    <v>       0.00000000       0.00000000       0.00000000 </v>
    <v>       0.00000000       0.50000000       0.00000000 </v>
    <v>       0.50000000       0.00000000       0.00000000 </v>
    <v>       0.50000000       0.50000000       0.00000000 </v>
    <v>       0.25000000       0.25000000       0.05351109 </v>
    <v>       0.25000000       0.75000000       0.05351109 </v>
    <v>       0.75000000       0.25000000       0.05351109 </v>
    <v>       0.75000000       0.75000000       0.05351109 </v>
    <v>       0.00000000       0.00000000       0.10541371 </v>
    <v>       0.00000000       0.50000000       0.10541371 </v>
    <v>       0.50000000       0.00000000       0.10541371 </v>
    <v>       0.50000000       0.50000000       0.10541371 </v>
    <v>       0.25000000       0.25000000       0.15715010 </v>
    <v>       0.25000000       0.75000000       0.15715010 </v>
    <v>       0.75000000       0.25000000       0.15715010 </v>
    <v>       0.75000000       0.75000000       0.15715010 </v>
    <v>       0.00000000       0.00000000       0.20866257 </v>
    <v>       0.00000000       0.50000000       0.20866257 </v>
    <v>       0.50000000       0.00000000       0.20866257 </v>
    <v>       0.50000000       0.50000000       0.20866257 </v>
    <v>       0.25000000       0.25000000       0.25947965 </v>
    <v>       0.25000000       0.75000000       0.25947965 </v>
    <v>       0.75000000       0.25000000       0.25947965 </v>
    <v>       0.75000000       0.75000000       0.25947965 </v>
    <v>       0.00000000       0.00000000       0.31415415 </v>
    <v>       0.00000000       0.50000000       0.31415415 </v>
    <v>       0.50000000       0.00000000       0.31415415 </v>
    <v>       0.50000000       0.50000000       0.31415415 </v>
    <v>       0.25000000       0.25000000       0.36181799 </v>
    <v>       0.25000000       0.75000000       0.36181799 </v>
    <v>       0.75000000       0.25000000       0.36181799 </v>
    <v>       0.75000000       0.75000000       0.36181799 </v>
    <v>       0.50000000       0.75000000       0.42690792 </v>
    <v>       0.50000000       0.89531725       0.42690792 </v>
   </varray>
  </structure>
  <varray name="forces" >
   <v>       0.00000000      -0.02336857       0.43481922 </v>
   <v>       0.00000000       0.02277693       0.44496359 </v>
   <v>       0.00000000      -0.00693512       0.45563137 </v>
   <v>       0.00000000       0.00834008       0.45615058 </v>
   <v>       0.00278973      -0.00551923      -0.44684055 </v>
   <v>      -0.00461865       0.00444279      -0.45169334 </v>
   <v>      -0.00278973      -0.00551923      -0.44684055 </v>
   <v>       0.00461865       0.00444279      -0.45169334 </v>
   <v>       0.00000000      -0.00418918      -0.00904919 </v>
   <v>       0.00000000       0.00153522      -0.00981034 </v>
   <v>       0.00000000       0.00330069      -0.03406809 </v>
   <v>       0.00000000       0.00235904      -0.04651590 </v>
   <v>       0.01798308      -0.00275224       0.01770224 </v>
   <v>      -0.00441817       0.00232215       0.00918285 </v>
   <v>      -0.01798308      -0.00275224       0.01770224 </v>
   <v>       0.00441817       0.00232215       0.00918285 </v>
   <v>       0.00000000      -0.00054362       0.01690163 </v>
   <v>       0.00000000       0.00261149       0.04395321 </v>
   <v>       0.00000000       0.01767371      -0.00785372 </v>
   <v>       0.00000000      -0.02254093      -0.03337130 </v>
   <v>      -0.02261896      -0.01323923       0.00958137 </v>
   <v>       0.03550480       0.01447198       0.03095398 </v>
   <v>       0.02261896      -0.01323923       0.00958137 </v>
   <v>      -0.03550480       0.01447198       0.03095398 </v>
   <v>       0.00000000       0.00375530       0.06129462 </v>
   <v>       0.00000000       0.00705626       0.05525020 </v>
   <v>       0.00000000       0.09722061      -0.25810405 </v>
   <v>       0.00000000      -0.09238346      -0.10173400 </v>
   <v>      -0.05573033       0.04757495      -0.05592356 </v>
   <v>      -0.17546832      -0.03447847      -0.07210577 </v>
   <v>       0.05573033       0.04757495      -0.05592356 </v>
   <v>       0.17546832      -0.03447847      -0.07210577 </v>
   <v>       0.00000000      -0.79099656       0.24067893 </v>
   <v>       0.00000000       0.74868272       0.20914880 </v>
  </varray>
  <varray name="stress" >
   <v>     -31.51002237       0.00000000       0.00000000 </v>
   <v>       0.00000000     -27.21952794      -0.15497763 </v>
   <v>       0.00000000      -0.15497763      -6.45726168 </v>
  </varray>
  <energy>
   <i name="e_fr_energy">   -130.50147036 </i>
   <i name="e_wo_entrp">   -130.53864585 </i>
   <i name="e_0_energy">   -130.51386219 </i>
  </energy>
  <time name="totalsc">  290.27  292.64</time>
 </calculation>
 <calculation>
  <scstep>
   <time name="dav">    7.57    7.63</time>
   <time name="total">    8.00    8.07</time>
   <energy>
    <i name="alphaZ">    844.48149002 </i>
    <i name="ewald"> 173349.63651247 </i>
    <i name="hartreedc">-216112.79683040 </i>
    <i name="XCdc">   1431.85183205 </i>
    <i name="pawpsdc">  41952.35763978 </i>
    <i name="pawaedc"> -45400.35760366 </i>
    <i name="eentropy">      0.03804617 </i>
    <i name="bandstr">   -718.86324964 </i>
    <i name="atom">  44535.60175172 </i>
    <i name="e_fr_energy">   -118.05041150 </i>
    <i name="e_wo_entrp">   -118.08845767 </i>
    <i name="e_0_energy">   -118.06309356 </i>
   </energy>
  </scstep>
  <scstep>
   <time name="dav">    9.78    9.86</time>
   <time name="total">   10.22   10.30</time>
   <energy>
    <i name="e_fr_energy">   -118.05318037 </i>
    <i name="e_wo_entrp">   -118.09032897 </i>
    <i name="e_0_energy">   -118.06556324 </i>
   </energy>
  </scstep>
  <scstep>
   <time name="dav">    8.36    8.43</time>
   <time name="total">    8.79    8.86</time>
   <energy>
    <i name="e_fr_energy">   -118.05745042 </i>
    <i name="e_wo_entrp">   -118.09526227 </i>
    <i name="e_0_energy">   -118.07005437 </i>
   </energy>
  </scstep>
  <scstep>
   <time name="dav">    8.70    8.78</time>
   <time name="total">    9.14    9.22</time>
   <energy>
    <i name="e_fr_energy">   -118.05284066 </i>
    <i name="e_wo_entrp">   -118.09080779 </i>
    <i name="e_0_energy">   -118.06549637 </i>
   </energy>
  </scstep>
  <scstep>
   <time name="dav">   10.79   10.88</time>
   <time name="total">   11.21   11.31</time>
   <energy>
    <i name="e_fr_energy">   -118.05131857 </i>
    <i name="e_wo_entrp">   -118.08822878 </i>
    <i name="e_0_energy">   -118.06362197 </i>
   </energy>
  </scstep>
  <scstep>
   <time name="dav">    9.52    9.60</time>
   <time name="total">    9.60    9.68</time>
   <energy>
    <i name="alphaZ">    844.48149002 </i>
    <i name="ewald"> 173349.63651247 </i>
    <i name="hartreedc">-216110.93689744 </i>
    <i name="XCdc">   1431.75176117 </i>
    <i name="pawpsdc">  41950.25684990 </i>
    <i name="pawaedc"> -45398.18130437 </i>
    <i name="eentropy">      0.03744493 </i>
    <i name="bandstr">   -720.69902610 </i>
    <i name="atom">  44535.60175172 </i>
    <i name="e_fr_energy">   -118.05141770 </i>
    <i name="e_wo_entrp">   -118.08886262 </i>
    <i name="e_0_energy">   -118.06389934 </i>
   </energy>
  </scstep>
  <structure>
   <crystal>
    <varray name="basis" >
     <v>       7.26000023       0.00000000       0.00000000 </v>
     <v>       0.00000000       5.13359547       0.00000000 </v>
     <v>       0.00000000       0.00000000      23.98379135 </v>
    </varray>
    <i name="volume">    893.87360752 </i>
    <varray name="rec_basis" >
     <v>       0.13774104       0.00000000       0.00000000 </v>
     <v>       0.00000000       0.19479525       0.00000000 </v>
     <v>       0.00000000       0.00000000       0.04169483 </v>
    </varray>
   </crystal>
   <varray name="positions" >
    <v>       0.00000000       0.00000000       0.00000000 </v>
    <v>       0.00000000       0.50000000       0.00000000 </v>
    <v>       0.50000000       0.00000000       0.00000000 </v>
    <v>       0.50000000       0.50000000       0.00000000 </v>
    <v>       0.25000000       0.25000000       0.05351109 </v>
    <v>       0.25000000       0.75000000       0.05351109 </v>
    <v>       0.75000000       0.25000000       0.05351109 </v>
    <v>       0.75000000       0.75000000       0.05351109 </v>
    <v>       0.00000000       0.00000000       0.10541371 </v>
    <v>       0.00000000       0.50000000       0.10541371 </v>
    <v>       0.50000000       0.00000000       0.10541371 </v>
    <v>       0.50000000       0.50000000       0.10541371 </v>
    <v>       0.25011950       0.24997414       0.15718570 </v>
    <v>       0.24997064       0.75002182       0.15716857 </v>
    <v>       0.74988050       0.24997414       0.15718570 </v>
    <v>       0.75002936       0.75002182       0.15716857 </v>
    <v>       0.00000000      -0.00000511       0.20869657 </v>
    <v>       0.00000000       0.50002454       0.20875098 </v>
    <v>       0.50000000       0.00016609       0.20864677 </v>
    <v>       0.50000000       0.49978817       0.20859544 </v>
    <v>       0.24984970       0.24987559       0.25949893 </v>
    <v>       0.25023593       0.75013600       0.25954192 </v>
    <v>       0.75015030       0.24987559       0.25949893 </v>
    <v>       0.74976407       0.75013600       0.25954192 </v>
    <v>       0.00000000       0.00003529       0.31427744 </v>
    <v>       0.00000000       0.50006631       0.31426528 </v>
    <v>       0.50000000       0.00091362       0.31363498 </v>
    <v>       0.50000000       0.49913183       0.31394951 </v>
    <v>       0.24962967       0.25044708       0.36170550 </v>
    <v>       0.24883401       0.74967599       0.36167295 </v>
    <v>       0.75037033       0.25044708       0.36170550 </v>
    <v>       0.75116599       0.74967599       0.36167295 </v>
    <v>       0.50000000       0.74256666       0.42739204 </v>
    <v>       0.50000000       0.90235296       0.42732862 </v>
   </varray>
  </structure>
  <varray name="forces" >
   <v>       0.00000000      -0.02520520       0.42883883 </v>
   <v>       0.00000000       0.02470675       0.43957122 </v>
   <v>       0.00000000      -0.00694683       0.45023968 </v>
   <v>       0.00000000       0.00867320       0.45111787 </v>
   <v>       0.00110669      -0.00585850      -0.44466221 </v>
   <v>      -0.00501226       0.00483712      -0.45116174 </v>
   <v>      -0.00110669      -0.00585850      -0.44466221 </v>
   <v>       0.00501226       0.00483712      -0.45116174 </v>
   <v>       0.00000000      -0.00165891      -0.00514773 </v>
   <v>       0.00000000      -0.00105214      -0.00195874 </v>
   <v>       0.00000000       0.00209216      -0.03807447 </v>
   <v>       0.00000000       0.00420730      -0.05234576 </v>
   <v>       0.00383035      -0.00043057       0.00759957 </v>
   <v>      -0.00624267       0.00001932       0.00870872 </v>
   <v>      -0.00383035      -0.00043057       0.00759957 </v>
   <v>       0.00624267       0.00001932       0.00870872 </v>
   <v>       0.00000000      -0.00399155       0.01266877 </v>
   <v>       0.00000000       0.00560531       0.02871591 </v>
   <v>       0.00000000       0.00550508      -0.02830417 </v>
   <v>       0.00000000      -0.00897427      -0.02626737 </v>
   <v>      -0.02974783      -0.00336644      -0.00492659 </v>
   <v>       0.02012377       0.00496934       0.00501054 </v>
   <v>       0.02974783      -0.00336644      -0.00492659 </v>
   <v>      -0.02012377       0.00496934       0.00501054 </v>
   <v>       0.00000000       0.01162312       0.02913616 </v>
   <v>       0.00000000      -0.00159977       0.01750936 </v>
   <v>       0.00000000       0.03559285      -0.15005491 </v>
   <v>       0.00000000      -0.02927723      -0.06049752 </v>
   <v>      -0.02555039       0.02172253      -0.02318894 </v>
   <v>      -0.07293389      -0.01093026      -0.01345983 </v>
   <v>       0.02555039       0.02172253      -0.02318894 </v>
   <v>       0.07293389      -0.01093026      -0.01345983 </v>
   <v>       0.00000000       0.69390869       0.18193164 </v>
   <v>       0.00000000      -0.73513363       0.15508219 </v>
  </varray>
  <varray name="stress" >
   <v>     -29.71959005       0.00000000       0.00000000 </v>
   <v>       0.00000000     -27.21016015      -0.15602599 </v>
   <v>       0.00000000      -0.15602608      -4.44830887 </v>
  </varray>
  <energy>
   <i name="e_fr_energy">   -130.50363720 </i>
   <i name="e_wo_entrp">   -130.54108212 </i>
   <i name="e_0_energy">   -130.51611884 </i>
  </energy>
  <time name="totalsc">   71.88   72.53</time>
 </calculation>
 <calculation>
  <scstep>
   <time name="dav">    7.50    7.56</time>
   <time name="total">    7.93    8.00</time>
   <energy>
    <i name="alphaZ">    844.48149002 </i>
    <i name="ewald"> 173308.04422662 </i>
    <i name="hartreedc">-216069.14079360 </i>
    <i name="XCdc">   1431.78405757 </i>
    <i name="pawpsdc">  41950.30773160 </i>
    <i name="pawaedc"> -45398.26951433 </i>
    <i name="eentropy">      0.03687284 </i>
    <i name="bandstr">   -720.92503303 </i>
    <i name="atom">  44535.60175172 </i>
    <i name="e_fr_energy">   -118.07921058 </i>
    <i name="e_wo_entrp">   -118.11608342 </i>
    <i name="e_0_energy">   -118.09150153 </i>
   </energy>
  </scstep>
  <scstep>
   <time name="dav">    9.79    9.89</time>
   <time name="total">   10.23   10.33</time>
   <energy>
    <i name="e_fr_energy">   -118.08042743 </i>
    <i name="e_wo_entrp">   -118.11762104 </i>
    <i name="e_0_energy">   -118.09282530 </i>
   </energy>
  </scstep>
  <scstep>
   <time name="dav">    8.20    8.27</time>
   <time name="total">    8.63    8.70</time>
   <energy>
    <i name="e_fr_energy">   -118.08043554 </i>
    <i name="e_wo_entrp">   -118.11782725 </i>
    <i name="e_0_energy">   -118.09289944 </i>
   </energy>
  </scstep>
  <scstep>
   <time name="dav">    8.17    8.24</time>
   <time name="total">    8.60    8.68</time>
   <energy>
    <i name="e_fr_energy">   -118.08041071 </i>
    <i name="e_wo_entrp">   -118.11741179 </i>
    <i name="e_0_energy">   -118.09274440 </i>
   </energy>
  </scstep>
  <scstep>
   <time name="dav">    7.34    7.40</time>
   <time name="total">    7.77    7.84</time>
   <energy>
    <i name="e_fr_energy">   -118.07984002 </i>
    <i name="e_wo_entrp">   -118.11703723 </i>
    <i name="e_0_energy">   -118.09223909 </i>
   </energy>
  </scstep>
  <scstep>
   <time name="dav">    5.72    5.77</time>
   <time name="total">    5.80    5.85</time>
   <energy>
    <i name="alphaZ">    844.48149002 </i>
    <i name="ewald"> 173308.04422662 </i>
    <i name="hartreedc">-216069.11211601 </i>
    <i name="XCdc">   1431.83338232 </i>
    <i name="pawpsdc">  41950.84403680 </i>
    <i name="pawaedc"> -45398.85627275 </i>
    <i name="eentropy">      0.03720911 </i>
    <i name="bandstr">   -720.95350917 </i>
    <i name="atom">  44535.60175172 </i>
    <i name="e_fr_energy">   -118.07980133 </i>
    <i name="e_wo_entrp">   -118.11701044 </i>
    <i name="e_0_energy">   -118.09220437 </i>
   </energy>
  </scstep>
  <structure>
   <crystal>
    <varray name="basis" >
     <v>       7.26000023       0.00000000       0.00000000 </v>
     <v>       0.00000000       5.13359547       0.00000000 </v>
     <v>       0.00000000       0.00000000      23.98379135 </v>
    </varray>
    <i name="volume">    893.87360752 </i>
    <varray name="rec_basis" >
     <v>       0.13774104       0.00000000       0.00000000 </v>
     <v>       0.00000000       0.19479525       0.00000000 </v>
     <v>       0.00000000       0.00000000       0.04169483 </v>
    </varray>
   </crystal>
   <varray name="positions" >
    <v>       0.00000000       0.00000000       0.00000000 </v>
    <v>       0.00000000       0.50000000       0.00000000 </v>
    <v>       0.50000000       0.00000000       0.00000000 </v>
    <v>       0.50000000       0.50000000       0.00000000 </v>
    <v>       0.25000000       0.25000000       0.05351109 </v>
    <v>       0.25000000       0.75000000       0.05351109 </v>
    <v>       0.75000000       0.25000000       0.05351109 </v>
    <v>       0.75000000       0.75000000       0.05351109 </v>
    <v>       0.00000000       0.00000000       0.10541371 </v>
    <v>       0.00000000       0.50000000       0.10541371 </v>
    <v>       0.50000000       0.00000000       0.10541371 </v>
    <v>       0.50000000       0.50000000       0.10541371 </v>
    <v>       0.25005615       0.24998785       0.15716683 </v>
    <v>       0.24998621       0.75001025       0.15715877 </v>
    <v>       0.74994385       0.24998785       0.15716683 </v>
    <v>       0.75001379       0.75001025       0.15715877 </v>
    <v>       0.00000000      -0.00000240       0.20867854 </v>
    <v>       0.00000000       0.50001153       0.20870411 </v>
    <v>       0.50000000       0.00007804       0.20865515 </v>
    <v>       0.50000000       0.49990047       0.20863103 </v>
    <v>       0.24992938       0.24994154       0.25948871 </v>
    <v>       0.25011085       0.75006390       0.25950891 </v>
    <v>       0.75007062       0.24994154       0.25948871 </v>
    <v>       0.74988915       0.75006390       0.25950891 </v>
    <v>       0.00000000       0.00001658       0.31421208 </v>
    <v>       0.00000000       0.50003116       0.31420637 </v>
    <v>       0.50000000       0.00042927       0.31391022 </v>
    <v>       0.50000000       0.49959209       0.31405800 </v>
    <v>       0.24982600       0.25021006       0.36176514 </v>
    <v>       0.24945216       0.74984776       0.36174984 </v>
    <v>       0.75017400       0.25021006       0.36176514 </v>
    <v>       0.75054784       0.74984776       0.36174984 </v>
    <v>       0.50000000       0.74650744       0.42713538 </v>
    <v>       0.50000000       0.89862298       0.42710558 </v>
   </varray>
  </structure>
  <varray name="forces" >
   <v>       0.00000000      -0.02417084       0.43197837 </v>
   <v>       0.00000000       0.02334676       0.44260214 </v>
   <v>       0.00000000      -0.00685928       0.45334949 </v>
   <v>       0.00000000       0.00816473       0.45387710 </v>
   <v>       0.00210726      -0.00584831      -0.44294550 </v>
   <v>      -0.00473912       0.00453651      -0.44839059 </v>
   <v>      -0.00210726      -0.00584831      -0.44294550 </v>
   <v>       0.00473912       0.00453651      -0.44839059 </v>
   <v>       0.00000000      -0.00328538      -0.00419719 </v>
   <v>       0.00000000       0.00034579      -0.00362207 </v>
   <v>       0.00000000       0.00289124      -0.03183097 </v>
   <v>       0.00000000       0.00276565      -0.04513680 </v>
   <v>       0.01584734      -0.00262955       0.01919779 </v>
   <v>      -0.00548520       0.00186514       0.01299288 </v>
   <v>      -0.01584734      -0.00262955       0.01919779 </v>
   <v>       0.00548520       0.00186514       0.01299288 </v>
   <v>       0.00000000      -0.00217664       0.01987265 </v>
   <v>       0.00000000       0.00417688       0.04613190 </v>
   <v>       0.00000000       0.01589709      -0.01573403 </v>
   <v>       0.00000000      -0.02097112      -0.03423293 </v>
   <v>      -0.02834421      -0.01130205       0.00417687 </v>
   <v>       0.03262488       0.01257324       0.02330536 </v>
   <v>       0.02834421      -0.01130205       0.00417687 </v>
   <v>      -0.03262488       0.01257324       0.02330536 </v>
   <v>       0.00000000       0.00730830       0.05430162 </v>
   <v>       0.00000000       0.00415600       0.04622835 </v>
   <v>       0.00000000       0.08211385      -0.24307496 </v>
   <v>       0.00000000      -0.07856633      -0.10080861 </v>
   <v>      -0.05338693       0.04274732      -0.04876226 </v>
   <v>      -0.14699560      -0.02776663      -0.05546997 </v>
   <v>       0.05338693       0.04274732      -0.04876226 </v>
   <v>       0.14699560      -0.02776663      -0.05546997 </v>
   <v>       0.00000000       0.15003767       0.21620963 </v>
   <v>       0.00000000      -0.19352570       0.18587713 </v>
  </varray>
  <varray name="stress" >
   <v>     -31.05809349       0.00000000       0.00000000 </v>
   <v>       0.00000000     -27.91132749      -0.15720448 </v>
   <v>       0.00000000      -0.15720463      -5.91693965 </v>
  </varray>
  <energy>
   <i name="e_fr_energy">   -130.51738825 </i>
   <i name="e_wo_entrp">   -130.55459736 </i>
   <i name="e_0_energy">   -130.52979129 </i>
  </energy>
  <time name="totalsc">   63.87   64.42</time>
 </calculation>
 <calculation>
  <scstep>
   <time name="dav">    7.71    7.78</time>
   <time name="total">    8.14    8.22</time>
   <energy>
    <i name="alphaZ">    844.48149002 </i>
    <i name="ewald"> 173388.26884580 </i>
    <i name="hartreedc">-216149.19720518 </i>
    <i name="XCdc">   1431.85025355 </i>
    <i name="pawpsdc">  41950.93457745 </i>
    <i name="pawaedc"> -45398.94242122 </i>
    <i name="eentropy">      0.03772465 </i>
    <i name="bandstr">   -721.11806821 </i>
    <i name="atom">  44535.60175172 </i>
    <i name="e_fr_energy">   -118.08305143 </i>
    <i name="e_wo_entrp">   -118.12077608 </i>
    <i name="e_0_energy">   -118.09562631 </i>
   </energy>
  </scstep>
  <scstep>
   <time name="dav">    9.70    9.78</time>
   <time name="total">   10.13   10.21</time>
   <energy>
    <i name="e_fr_energy">   -118.08792874 </i>
    <i name="e_wo_entrp">   -118.12551446 </i>
    <i name="e_0_energy">   -118.10045731 </i>
   </energy>
  </scstep>
  <scstep>
   <time name="dav">    7.92    7.98</time>
   <time name="total">    8.00    8.07</time>
   <energy>
    <i name="alphaZ">    844.48149002 </i>
    <i name="ewald"> 173388.26884580 </i>
    <i name="hartreedc">-216148.85483506 </i>
    <i name="XCdc">   1431.84555454 </i>
    <i name="pawpsdc">  41952.79034597 </i>
    <i name="pawaedc"> -45400.75145123 </i>
    <i name="eentropy">      0.03778957 </i>
    <i name="bandstr">   -721.50730619 </i>
    <i name="atom">  44535.60175172 </i>
    <i name="e_fr_energy">   -118.08781486 </i>
    <i name="e_wo_entrp">   -118.12560442 </i>
    <i name="e_0_energy">   -118.10041138 </i>
   </energy>
  </scstep>
  <structure>
   <crystal>
    <varray name="basis" >
     <v>       7.26000023       0.00000000       0.00000000 </v>
     <v>       0.00000000       5.13359547       0.00000000 </v>
     <v>       0.00000000       0.00000000      23.98379135 </v>
    </varray>
    <i name="volume">    893.87360752 </i>
    <varray name="rec_basis" >
     <v>       0.13774104       0.00000000       0.00000000 </v>
     <v>       0.00000000       0.19479525       0.00000000 </v>
     <v>       0.00000000       0.00000000       0.04169483 </v>
    </varray>
   </crystal>
   <varray name="positions" >
    <v>       0.00000000       0.00000000       0.00000000 </v>
    <v>       0.00000000       0.50000000       0.00000000 </v>
    <v>       0.50000000       0.00000000       0.00000000 </v>
    <v>       0.50000000       0.50000000       0.00000000 </v>
    <v>       0.25000000       0.25000000       0.05351109 </v>
    <v>       0.25000000       0.75000000       0.05351109 </v>
    <v>       0.75000000       0.25000000       0.05351109 </v>
    <v>       0.75000000       0.75000000       0.05351109 </v>
    <v>       0.00000000       0.00000000       0.10541371 </v>
    <v>       0.00000000       0.50000000       0.10541371 </v>
    <v>       0.50000000       0.00000000       0.10541371 </v>
    <v>       0.50000000       0.50000000       0.10541371 </v>
    <v>       0.25017140       0.24996119       0.15720764 </v>
    <v>       0.24994843       0.75002978       0.15718540 </v>
    <v>       0.74982860       0.24996119       0.15720764 </v>
    <v>       0.75005157       0.75002978       0.15718540 </v>
    <v>       0.00000000      -0.00002159       0.20872028 </v>
    <v>       0.00000000       0.50005096       0.20880268 </v>
    <v>       0.50000000       0.00024093       0.20862406 </v>
    <v>       0.50000000       0.49968687       0.20855761 </v>
    <v>       0.24973445       0.24982461       0.25949962 </v>
    <v>       0.25034634       0.75019356       0.25956182 </v>
    <v>       0.75026555       0.24982461       0.25949962 </v>
    <v>       0.74965366       0.75019356       0.25956182 </v>
    <v>       0.00000000       0.00008421       0.31433151 </v>
    <v>       0.00000000       0.50007779       0.31430913 </v>
    <v>       0.50000000       0.00128053       0.31338139 </v>
    <v>       0.50000000       0.49877866       0.31384057 </v>
    <v>       0.24944343       0.25064818       0.36165758 </v>
    <v>       0.24837293       0.74955725       0.36162447 </v>
    <v>       0.75055657       0.25064818       0.36165758 </v>
    <v>       0.75162707       0.74955725       0.36162447 </v>
    <v>       0.50000000       0.74645456       0.42760971 </v>
    <v>       0.50000000       0.89824027       0.42751416 </v>
   </varray>
  </structure>
  <varray name="forces" >
   <v>       0.00000000      -0.02342469       0.43001765 </v>
   <v>       0.00000000       0.02344796       0.44081392 </v>
   <v>       0.00000000      -0.00629821       0.45142073 </v>
   <v>       0.00000000       0.00826505       0.45190391 </v>
   <v>       0.00172237      -0.00526075      -0.44423783 </v>
   <v>      -0.00499688       0.00487860      -0.45059376 </v>
   <v>      -0.00172237      -0.00526075      -0.44423783 </v>
   <v>       0.00499688       0.00487860      -0.45059376 </v>
   <v>       0.00000000      -0.00057919      -0.00326589 </v>
   <v>       0.00000000      -0.00147098       0.00152731 </v>
   <v>       0.00000000       0.00124905      -0.03961694 </v>
   <v>       0.00000000       0.00483913      -0.05395294 </v>
   <v>      -0.00407183       0.00094809      -0.00001467 </v>
   <v>      -0.00586753      -0.00066804       0.00419360 </v>
   <v>       0.00407183       0.00094809      -0.00001467 </v>
   <v>       0.00586753      -0.00066804       0.00419360 </v>
   <v>       0.00000000      -0.00457691       0.00794253 </v>
   <v>       0.00000000       0.00652810       0.01599684 </v>
   <v>       0.00000000       0.00027408      -0.03940143 </v>
   <v>       0.00000000      -0.00266552      -0.02282815 </v>
   <v>      -0.02880150       0.00208791      -0.01505079 </v>
   <v>       0.00962815      -0.00021333      -0.00828506 </v>
   <v>       0.02880150       0.00208791      -0.01505079 </v>
   <v>      -0.00962815      -0.00021333      -0.00828506 </v>
   <v>       0.00000000       0.01278673       0.00999938 </v>
   <v>       0.00000000      -0.00388349      -0.00356134 </v>
   <v>       0.00000000       0.00217279      -0.07696952 </v>
   <v>       0.00000000       0.00287289      -0.03507824 </v>
   <v>      -0.00782033       0.00824454      -0.01825064 </v>
   <v>      -0.03753128       0.00090529      -0.02650683 </v>
   <v>       0.00782033       0.00824454      -0.01825064 </v>
   <v>       0.03753128       0.00090529      -0.02650683 </v>
   <v>       0.00000000       0.14379061       0.20669014 </v>
   <v>       0.00000000      -0.18517202       0.17585399 </v>
  </varray>
  <varray name="stress" >
   <v>     -28.83825738       0.00000000       0.00000000 </v>
   <v>       0.00000000     -25.74110415      -0.15305031 </v>
   <v>       0.00000000      -0.15305023      -3.53913486 </v>
  </varray>
  <energy>
   <i name="e_fr_energy">   -130.52789696 </i>
   <i name="e_wo_entrp">   -130.56568652 </i>
   <i name="e_0_energy">   -130.54049348 </i>
  </energy>
  <time name="totalsc">   41.16   41.53</time>
 </calculation>
 <calculation>
  <scstep>
   <time name="dav">    7.69    7.75</time>
   <time name="total">    8.12    8.19</time>
   <energy>
    <i name="alphaZ">    844.48149002 </i>
    <i name="ewald"> 173470.59875012 </i>
    <i name="hartreedc">-216231.22589764 </i>
    <i name="XCdc">   1431.87141769 </i>
    <i name="pawpsdc">  41953.22574476 </i>
    <i name="pawaedc"> -45401.24499357 </i>
    <i name="eentropy">      0.03815458 </i>
    <i name="bandstr">   -721.43368386 </i>
    <i name="atom">  44535.60175172 </i>
    <i name="e_fr_energy">   -118.08726617 </i>
    <i name="e_wo_entrp">   -118.12542075 </i>
    <i name="e_0_energy">   -118.09998436 </i>
   </energy>
  </scstep>
  <scstep>
   <time name="dav">    9.63    9.71</time>
   <time name="total">   10.06   10.14</time>
   <energy>
    <i name="e_fr_energy">   -118.09226633 </i>
    <i name="e_wo_entrp">   -118.13045229 </i>
    <i name="e_0_energy">   -118.10499499 </i>
   </energy>
  </scstep>
  <scstep>
   <time name="dav">    8.08    8.16</time>
   <time name="total">    8.52    8.61</time>
   <energy>
    <i name="e_fr_energy">   -118.09206248 </i>
    <i name="e_wo_entrp">   -118.13037576 </i>
    <i name="e_0_energy">   -118.10483357 </i>
   </energy>
  </scstep>
  <scstep>
   <time name="dav">    6.52    6.58</time>
   <time name="total">    6.61    6.66</time>
   <energy>
    <i name="alphaZ">    844.48149002 </i>
    <i name="ewald"> 173470.59875012 </i>
    <i name="hartreedc">-216230.85677299 </i>
    <i name="XCdc">   1431.87272446 </i>
    <i name="pawpsdc">  41957.01027720 </i>
    <i name="pawaedc"> -45405.12647131 </i>
    <i name="eentropy">      0.03805860 </i>
    <i name="bandstr">   -721.71186832 </i>
    <i name="atom">  44535.60175172 </i>
    <i name="e_fr_energy">   -118.09206051 </i>
    <i name="e_wo_entrp">   -118.13011910 </i>
    <i name="e_0_energy">   -118.10474670 </i>
   </energy>
  </scstep>
  <structure>
   <crystal>
    <varray name="basis" >
     <v>       7.26000023       0.00000000       0.00000000 </v>
     <v>       0.00000000       5.13359547       0.00000000 </v>
     <v>       0.00000000       0.00000000      23.98379135 </v>
    </varray>
    <i name="volume">    893.87360752 </i>
    <varray name="rec_basis" >
     <v>       0.13774104       0.00000000       0.00000000 </v>
     <v>       0.00000000       0.19479525       0.00000000 </v>
     <v>       0.00000000       0.00000000       0.04169483 </v>
    </varray>
   </crystal>
   <varray name="positions" >
    <v>       0.00000000       0.00000000       0.00000000 </v>
    <v>       0.00000000       0.50000000       0.00000000 </v>
    <v>       0.50000000       0.00000000       0.00000000 </v>
    <v>       0.50000000       0.50000000       0.00000000 </v>
    <v>       0.25000000       0.25000000       0.05351109 </v>
    <v>       0.25000000       0.75000000       0.05351109 </v>
    <v>       0.75000000       0.25000000       0.05351109 </v>
    <v>       0.75000000       0.75000000       0.05351109 </v>
    <v>       0.00000000       0.00000000       0.10541371 </v>
    <v>       0.00000000       0.50000000       0.10541371 </v>
    <v>       0.50000000       0.00000000       0.10541371 </v>
    <v>       0.50000000       0.50000000       0.10541371 </v>
    <v>       0.25028930       0.24993391       0.15724939 </v>
    <v>       0.24990980       0.75004975       0.15721264 </v>
    <v>       0.74971070       0.24993391       0.15724939 </v>
    <v>       0.75009020       0.75004975       0.15721264 </v>
    <v>       0.00000000      -0.00004122       0.20876298 </v>
    <v>       0.00000000       0.50009129       0.20890352 </v>
    <v>       0.50000000       0.00040757       0.20859227 </v>
    <v>       0.50000000       0.49946836       0.20848251 </v>
    <v>       0.24953504       0.24970500       0.25951079 </v>
    <v>       0.25058724       0.75032619       0.25961594 </v>
    <v>       0.75046496       0.24970500       0.25951079 </v>
    <v>       0.74941276       0.75032619       0.25961594 </v>
    <v>       0.00000000       0.00015340       0.31445368 </v>
    <v>       0.00000000       0.50012549       0.31441425 </v>
    <v>       0.50000000       0.00215134       0.31284043 </v>
    <v>       0.50000000       0.49794656       0.31361815 </v>
    <v>       0.24905208       0.25109635       0.36154755 </v>
    <v>       0.24726893       0.74926006       0.36149622 </v>
    <v>       0.75094792       0.25109635       0.36154755 </v>
    <v>       0.75273107       0.74926006       0.36149622 </v>
    <v>       0.50000000       0.74640046       0.42809492 </v>
    <v>       0.50000000       0.89784876       0.42793211 </v>
   </varray>
  </structure>
  <varray name="forces" >
   <v>       0.00000000      -0.02311331       0.42784140 </v>
   <v>       0.00000000       0.02303771       0.43923162 </v>
   <v>       0.00000000      -0.00619011       0.44978271 </v>
   <v>       0.00000000       0.00796385       0.44971185 </v>
   <v>       0.00151438      -0.00501343      -0.43918824 </v>
   <v>      -0.00491093       0.00462256      -0.44654402 </v>
   <v>      -0.00151438      -0.00501343      -0.43918824 </v>
   <v>       0.00491093       0.00462256      -0.44654402 </v>
   <v>       0.00000000       0.00119919       0.00609864 </v>
   <v>       0.00000000      -0.00332523       0.01407947 </v>
   <v>       0.00000000      -0.00068747      -0.03804936 </v>
   <v>       0.00000000       0.00623408      -0.05314540 </v>
   <v>      -0.01767664       0.00299974      -0.00705705 </v>
   <v>      -0.00732326      -0.00275070       0.00541143 </v>
   <v>       0.01767664       0.00299974      -0.00705705 </v>
   <v>       0.00732326      -0.00275070       0.00541143 </v>
   <v>       0.00000000      -0.00772699       0.00650247 </v>
   <v>       0.00000000       0.00926325       0.00419204 </v>
   <v>       0.00000000      -0.01104815      -0.06274692 </v>
   <v>       0.00000000       0.00921883      -0.01776547 </v>
   <v>      -0.03691268       0.01172979      -0.02954428 </v>
   <v>      -0.00707764      -0.00992574      -0.03083072 </v>
   <v>       0.03691268       0.01172979      -0.02954428 </v>
   <v>       0.00707764      -0.00992574      -0.03083072 </v>
   <v>       0.00000000       0.01871101      -0.01888878 </v>
   <v>       0.00000000      -0.01082477      -0.03838892 </v>
   <v>       0.00000000      -0.04508575       0.01122426 </v>
   <v>       0.00000000       0.05411784      -0.00340147 </v>
   <v>       0.01479978      -0.01099301      -0.00729807 </v>
   <v>       0.02270239       0.01771917      -0.01746351 </v>
   <v>      -0.01479978      -0.01099301      -0.00729807 </v>
   <v>      -0.02270239       0.01771917      -0.01746351 </v>
   <v>       0.00000000       0.12766948       0.20000143 </v>
   <v>       0.00000000      -0.16619021       0.16874940 </v>
  </varray>
  <varray name="stress" >
   <v>     -30.63981666       0.00000000       0.00000000 </v>
   <v>       0.00000000     -27.56814762      -0.14767846 </v>
   <v>       0.00000000      -0.14767847      -5.28394122 </v>
  </varray>
  <energy>
   <i name="e_fr_energy">   -130.53462560 </i>
   <i name="e_wo_entrp">   -130.57268420 </i>
   <i name="e_0_energy">   -130.54731180 </i>
  </energy>
  <time name="totalsc">   48.21   48.62</time>
 </calculation>
 <calculation>
  <scstep>
   <time name="dav">    7.73    7.79</time>
   <time name="total">    8.17    8.23</time>
   <energy>
    <i name="alphaZ">    844.48149002 </i>
    <i name="ewald"> 173636.04753215 </i>
    <i name="hartreedc">-216395.76493030 </i>
    <i name="XCdc">   1431.91748791 </i>
    <i name="pawpsdc">  41957.79392126 </i>
    <i name="pawaedc"> -45405.92923747 </i>
    <i name="eentropy">      0.03953072 </i>
    <i name="bandstr">   -722.25520720 </i>
    <i name="atom">  44535.60175172 </i>
    <i name="e_fr_energy">   -118.06766119 </i>
    <i name="e_wo_entrp">   -118.10719191 </i>
    <i name="e_0_energy">   -118.08083810 </i>
   </energy>
  </scstep>
  <scstep>
   <time name="dav">   10.57   10.66</time>
   <time name="total">   11.01   11.10</time>
   <energy>
    <i name="e_fr_energy">   -118.09169159 </i>
    <i name="e_wo_entrp">   -118.13039658 </i>
    <i name="e_0_energy">   -118.10459325 </i>
   </energy>
  </scstep>
  <scstep>
   <time name="dav">    7.96    8.03</time>
   <time name="total">    8.39    8.46</time>
   <energy>
    <i name="e_fr_energy">   -118.08869155 </i>
    <i name="e_wo_entrp">   -118.12808452 </i>
    <i name="e_0_energy">   -118.10182254 </i>
   </energy>
  </scstep>
  <scstep>
   <time name="dav">    7.80    7.87</time>
   <time name="total">    8.23    8.30</time>
   <energy>
    <i name="e_fr_energy">   -118.08859510 </i>
    <i name="e_wo_entrp">   -118.12795806 </i>
    <i name="e_0_energy">   -118.10171608 </i>
   </energy>
  </scstep>
  <scstep>
   <time name="dav">    7.64    7.70</time>
   <time name="total">    8.07    8.14</time>
   <energy>
    <i name="e_fr_energy">   -118.08860777 </i>
    <i name="e_wo_entrp">   -118.12761165 </i>
    <i name="e_0_energy">   -118.10160906 </i>
   </energy>
  </scstep>
  <scstep>
   <time name="dav">    7.74    7.80</time>
   <time name="total">    8.17    8.23</time>
   <energy>
    <i name="e_fr_energy">   -118.08861052 </i>
    <i name="e_wo_entrp">   -118.12817632 </i>
    <i name="e_0_energy">   -118.10179912 </i>
   </energy>
  </scstep>
  <scstep>
   <time name="dav">    6.92    6.97</time>
   <time name="total">    7.00    7.06</time>
   <energy>
    <i name="alphaZ">    844.48149002 </i>
    <i name="ewald"> 173636.04753215 </i>
    <i name="hartreedc">-216395.20536321 </i>
    <i name="XCdc">   1431.91284914 </i>
    <i name="pawpsdc">  41967.28051653 </i>
    <i name="pawaedc"> -45415.57938251 </i>
    <i name="eentropy">      0.03926519 </i>
    <i name="bandstr">   -722.66711553 </i>
    <i name="atom">  44535.60175172 </i>
    <i name="e_fr_energy">   -118.08845649 </i>
    <i name="e_wo_entrp">   -118.12772168 </i>
    <i name="e_0_energy">   -118.10154489 </i>
   </energy>
  </scstep>
  <structure>
   <crystal>
    <varray name="basis" >
     <v>       7.26000023       0.00000000       0.00000000 </v>
     <v>       0.00000000       5.13359547       0.00000000 </v>
     <v>       0.00000000       0.00000000      23.98379135 </v>
    </varray>
    <i name="volume">    893.87360752 </i>
    <varray name="rec_basis" >
     <v>       0.13774104       0.00000000       0.00000000 </v>
     <v>       0.00000000       0.19479525       0.00000000 </v>
     <v>       0.00000000       0.00000000       0.04169483 </v>
    </varray>
   </crystal>
   <varray name="positions" >
    <v>       0.00000000       0.00000000       0.00000000 </v>
    <v>       0.00000000       0.50000000       0.00000000 </v>
    <v>       0.50000000       0.00000000       0.00000000 </v>
    <v>       0.50000000       0.50000000       0.00000000 </v>
    <v>       0.25000000       0.25000000       0.05351109 </v>
    <v>       0.25000000       0.75000000       0.05351109 </v>
    <v>       0.75000000       0.25000000       0.05351109 </v>
    <v>       0.75000000       0.75000000       0.05351109 </v>
    <v>       0.00000000       0.00000000       0.10541371 </v>
    <v>       0.00000000       0.50000000       0.10541371 </v>
    <v>       0.50000000       0.00000000       0.10541371 </v>
    <v>       0.50000000       0.50000000       0.10541371 </v>
    <v>       0.25052510       0.24987937       0.15733289 </v>
    <v>       0.24983252       0.75008970       0.15726712 </v>
    <v>       0.74947490       0.24987937       0.15733289 </v>
    <v>       0.75016748       0.75008970       0.15726712 </v>
    <v>       0.00000000      -0.00008048       0.20884838 </v>
    <v>       0.00000000       0.50017195       0.20910520 </v>
    <v>       0.50000000       0.00074084       0.20852867 </v>
    <v>       0.50000000       0.49903134       0.20833230 </v>
    <v>       0.24913623       0.24946577       0.25953312 </v>
    <v>       0.25106903       0.75059146       0.25972418 </v>
    <v>       0.75086377       0.24946577       0.25953312 </v>
    <v>       0.74893097       0.75059146       0.25972418 </v>
    <v>       0.00000000       0.00029177       0.31469802 </v>
    <v>       0.00000000       0.50022089       0.31462450 </v>
    <v>       0.50000000       0.00389294       0.31175850 </v>
    <v>       0.50000000       0.49628236       0.31317331 </v>
    <v>       0.24826937       0.25199269       0.36132749 </v>
    <v>       0.24506093       0.74866570       0.36123972 </v>
    <v>       0.75173063       0.25199269       0.36132749 </v>
    <v>       0.75493907       0.74866570       0.36123972 </v>
    <v>       0.50000000       0.74629226       0.42906534 </v>
    <v>       0.50000000       0.89706576       0.42876801 </v>
   </varray>
  </structure>
  <varray name="forces" >
   <v>       0.00000000      -0.02266637       0.43244388 </v>
   <v>       0.00000000       0.02222016       0.44443630 </v>
   <v>       0.00000000      -0.00566145       0.45566973 </v>
   <v>       0.00000000       0.00697428       0.45541311 </v>
   <v>       0.00184545      -0.00498349      -0.43525544 </v>
   <v>      -0.00433346       0.00430453      -0.44407028 </v>
   <v>      -0.00184545      -0.00498349      -0.43525544 </v>
   <v>       0.00433346       0.00430453      -0.44407028 </v>
   <v>       0.00000000       0.00463902       0.01403417 </v>
   <v>       0.00000000      -0.00711689       0.02835946 </v>
   <v>       0.00000000      -0.00376828      -0.04318789 </v>
   <v>       0.00000000       0.00808066      -0.06061631 </v>
   <v>      -0.04112504       0.00617555      -0.02292603 </v>
   <v>      -0.00869126      -0.00649348       0.00393495 </v>
   <v>       0.04112504       0.00617555      -0.02292603 </v>
   <v>       0.00869126      -0.00649348       0.00393495 </v>
   <v>       0.00000000      -0.01321658       0.00183606 </v>
   <v>       0.00000000       0.01385354      -0.01824239 </v>
   <v>       0.00000000      -0.02971631      -0.11069332 </v>
   <v>       0.00000000       0.02836006      -0.00884082 </v>
   <v>      -0.04979233       0.02838383      -0.05917271 </v>
   <v>      -0.03150022      -0.02648135      -0.07244876 </v>
   <v>       0.04979233       0.02838383      -0.05917271 </v>
   <v>       0.03150022      -0.02648135      -0.07244876 </v>
   <v>       0.00000000       0.03415108      -0.06861067 </v>
   <v>       0.00000000      -0.02870323      -0.10157540 </v>
   <v>       0.00000000      -0.12657224       0.17416443 </v>
   <v>       0.00000000       0.14110019       0.05299725 </v>
   <v>       0.05669149      -0.04476161       0.02095995 </v>
   <v>       0.12284023       0.04828280       0.01458473 </v>
   <v>      -0.05669149      -0.04476161       0.02095995 </v>
   <v>      -0.12284023       0.04828280       0.01458473 </v>
   <v>       0.00000000       0.08401903       0.18747790 </v>
   <v>       0.00000000      -0.11483026       0.15372168 </v>
  </varray>
  <varray name="stress" >
   <v>     -31.14191596       0.00000000       0.00000000 </v>
   <v>       0.00000000     -28.02005179      -0.14105621 </v>
   <v>       0.00000000      -0.14105611      -5.48937548 </v>
  </varray>
  <energy>
   <i name="e_fr_energy">   -130.53579810 </i>
   <i name="e_wo_entrp">   -130.57506329 </i>
   <i name="e_0_energy">   -130.54888649 </i>
  </energy>
  <time name="totalsc">   73.95   74.55</time>
 </calculation>
 <calculation>
  <scstep>
   <time name="dav">    7.69    7.75</time>
   <time name="total">    8.12    8.19</time>
   <energy>
    <i name="alphaZ">    844.48149002 </i>
    <i name="ewald"> 173550.29143063 </i>
    <i name="hartreedc">-216309.42004370 </i>
[...]
    <i name="pawpsdc">  41939.54742870 </i>
    <i name="pawaedc"> -45387.32972366 </i>
    <i name="eentropy">      0.02854479 </i>
    <i name="bandstr">   -730.96960280 </i>
    <i name="atom">  44535.60175172 </i>
    <i name="e_fr_energy">   -118.33874182 </i>
    <i name="e_wo_entrp">   -118.36728660 </i>
    <i name="e_0_energy">   -118.34825675 </i>
   </energy>
  </scstep>
  <scstep>
   <time name="dav">    4.71    4.75</time>
   <time name="total">    4.79    4.83</time>
   <energy>
    <i name="alphaZ">    844.48149002 </i>
    <i name="ewald"> 172517.30834685 </i>
    <i name="hartreedc">-215268.61994592 </i>
    <i name="XCdc">   1431.61219133 </i>
    <i name="pawpsdc">  41939.54733115 </i>
    <i name="pawaedc"> -45387.32962428 </i>
    <i name="eentropy">      0.02854487 </i>
    <i name="bandstr">   -730.96882758 </i>
    <i name="atom">  44535.60175172 </i>
    <i name="e_fr_energy">   -118.33874183 </i>
    <i name="e_wo_entrp">   -118.36728670 </i>
    <i name="e_0_energy">   -118.34825678 </i>
   </energy>
  </scstep>
  <structure>
   <crystal>
    <varray name="basis" >
     <v>       7.26000023       0.00000000       0.00000000 </v>
     <v>       0.00000000       5.13359547       0.00000000 </v>
     <v>       0.00000000       0.00000000      23.98379135 </v>
    </varray>
    <i name="volume">    893.87360752 </i>
    <varray name="rec_basis" >
     <v>       0.13774104       0.00000000       0.00000000 </v>
     <v>       0.00000000       0.19479525       0.00000000 </v>
     <v>       0.00000000       0.00000000       0.04169483 </v>
    </varray>
   </crystal>
   <varray name="positions" >
    <v>       0.00000000       0.00000000       0.00000000 </v>
    <v>       0.00000000       0.50000000       0.00000000 </v>
    <v>       0.50000000       0.00000000       0.00000000 </v>
    <v>       0.50000000       0.50000000       0.00000000 </v>
    <v>       0.25000000       0.25000000       0.05351109 </v>
    <v>       0.25000000       0.75000000       0.05351109 </v>
    <v>       0.75000000       0.25000000       0.05351109 </v>
    <v>       0.75000000       0.75000000       0.05351109 </v>
    <v>       0.00000000       0.00000000       0.10541371 </v>
    <v>       0.00000000       0.50000000       0.10541371 </v>
    <v>       0.50000000       0.00000000       0.10541371 </v>
    <v>       0.50000000       0.50000000       0.10541371 </v>
    <v>       0.25007077       0.25044467       0.15720879 </v>
    <v>       0.24988066       0.75043511       0.15726428 </v>
    <v>       0.74992923       0.25044467       0.15720879 </v>
    <v>       0.75011934       0.75043511       0.15726428 </v>
    <v>       0.00000000       0.00078697       0.20879889 </v>
    <v>       0.00000000       0.50070919       0.20886960 </v>
    <v>       0.50000000       0.00080283       0.20871268 </v>
    <v>       0.50000000       0.50077703       0.20869088 </v>
    <v>       0.24997903       0.25096436       0.25954019 </v>
    <v>       0.25001093       0.75105810       0.25962764 </v>
    <v>       0.75002097       0.25096436       0.25954019 </v>
    <v>       0.74998907       0.75105810       0.25962764 </v>
    <v>       0.00000000       0.00138996       0.31450337 </v>
    <v>       0.00000000       0.50122281       0.31455005 </v>
    <v>       0.50000000       0.00137924       0.31409593 </v>
    <v>       0.50000000       0.50114458       0.31414768 </v>
    <v>       0.25002362       0.25158743       0.36184906 </v>
    <v>       0.24955879       0.75143128       0.36192303 </v>
    <v>       0.74997638       0.25158743       0.36184906 </v>
    <v>       0.75044121       0.75143128       0.36192303 </v>
    <v>       0.50000000       0.73768593       0.46623935 </v>
    <v>       0.50000000       0.87600344       0.45475707 </v>
   </varray>
  </structure>
  <varray name="forces" >
   <v>       0.00000000      -0.00639064       0.44586690 </v>
   <v>       0.00000000       0.00715161       0.44738138 </v>
   <v>       0.00000000      -0.00415902       0.45514687 </v>
   <v>       0.00000000       0.00498320       0.45590953 </v>
   <v>       0.00159139      -0.00047442      -0.45400584 </v>
   <v>      -0.00403061       0.00129693      -0.45296027 </v>
   <v>      -0.00159139      -0.00047442      -0.45400584 </v>
   <v>       0.00403061       0.00129693      -0.45296027 </v>
   <v>       0.00000000       0.00305746       0.00199260 </v>
   <v>       0.00000000       0.00535874       0.00614938 </v>
   <v>       0.00000000       0.00334354      -0.01392770 </v>
   <v>       0.00000000       0.00592483      -0.01744711 </v>
   <v>      -0.00556083      -0.00151287       0.00697267 </v>
   <v>       0.00273932       0.00016744      -0.00068038 </v>
   <v>       0.00556083      -0.00151287       0.00697267 </v>
   <v>      -0.00273932       0.00016744      -0.00068038 </v>
   <v>       0.00000000      -0.00057594       0.00943602 </v>
   <v>       0.00000000       0.00073613       0.00311719 </v>
   <v>       0.00000000       0.00198403      -0.01222756 </v>
   <v>       0.00000000      -0.00385788      -0.00624059 </v>
   <v>      -0.01160805       0.00013401      -0.00378377 </v>
   <v>       0.00374220      -0.00201643       0.00337674 </v>
   <v>       0.01160805       0.00013401      -0.00378377 </v>
   <v>      -0.00374220      -0.00201643       0.00337674 </v>
   <v>       0.00000000      -0.00012122       0.00029534 </v>
   <v>       0.00000000      -0.00194291      -0.00438076 </v>
   <v>       0.00000000       0.00138087       0.00142844 </v>
   <v>       0.00000000      -0.00171803       0.00390575 </v>
   <v>      -0.00163002      -0.00188299      -0.00132773 </v>
   <v>       0.00092549      -0.00098612      -0.00169247 </v>
   <v>       0.00163002      -0.00188299      -0.00132773 </v>
   <v>      -0.00092549      -0.00098612      -0.00169247 </v>
   <v>       0.00000000       0.17537571      -0.02038920 </v>
   <v>       0.00000000      -0.17998158       0.05218565 </v>
  </varray>
  <varray name="stress" >
   <v>     -31.60667666       0.00000000       0.00000000 </v>
   <v>       0.00000000     -29.03590258      -0.02234210 </v>
   <v>       0.00000000      -0.02234230      -7.68548516 </v>
  </varray>
  <energy>
   <i name="e_fr_energy">   -130.69398361 </i>
   <i name="e_wo_entrp">   -130.72252848 </i>
   <i name="e_0_energy">   -130.70349856 </i>
  </energy>
  <time name="totalsc">   24.87   25.21</time>
 </calculation>
 <calculation>
  <scstep>
   <time name="dav">    4.75    4.79</time>
   <time name="total">    5.19    5.23</time>
   <energy>
    <i name="alphaZ">    844.48149002 </i>
    <i name="ewald"> 172517.30834675 </i>
    <i name="hartreedc">-215268.62008907 </i>
    <i name="XCdc">   1431.61219144 </i>
    <i name="pawpsdc">  41939.54731886 </i>
    <i name="pawaedc"> -45387.32961470 </i>
    <i name="eentropy">      0.02854478 </i>
    <i name="bandstr">   -730.96868163 </i>
    <i name="atom">  44535.60175172 </i>
    <i name="e_fr_energy">   -118.33874183 </i>
    <i name="e_wo_entrp">   -118.36728661 </i>
    <i name="e_0_energy">   -118.34825676 </i>
   </energy>
  </scstep>
  <scstep>
   <time name="dav">    4.72    4.76</time>
   <time name="total">    4.80    4.84</time>
   <energy>
    <i name="alphaZ">    844.48149002 </i>
    <i name="ewald"> 172517.30834675 </i>
    <i name="hartreedc">-215268.62077404 </i>
    <i name="XCdc">   1431.61219188 </i>
    <i name="pawpsdc">  41939.54729915 </i>
    <i name="pawaedc"> -45387.32959834 </i>
    <i name="eentropy">      0.02854490 </i>
    <i name="bandstr">   -730.96799388 </i>
    <i name="atom">  44535.60175172 </i>
    <i name="e_fr_energy">   -118.33874184 </i>
    <i name="e_wo_entrp">   -118.36728673 </i>
    <i name="e_0_energy">   -118.34825680 </i>
   </energy>
  </scstep>
  <structure>
   <crystal>
    <varray name="basis" >
     <v>       7.26000023       0.00000000       0.00000000 </v>
     <v>       0.00000000       5.13359547       0.00000000 </v>
     <v>       0.00000000       0.00000000      23.98379135 </v>
    </varray>
    <i name="volume">    893.87360752 </i>
    <varray name="rec_basis" >
     <v>       0.13774104       0.00000000       0.00000000 </v>
     <v>       0.00000000       0.19479525       0.00000000 </v>
     <v>       0.00000000       0.00000000       0.04169483 </v>
    </varray>
   </crystal>
   <varray name="positions" >
    <v>       0.00000000       0.00000000       0.00000000 </v>
    <v>       0.00000000       0.50000000       0.00000000 </v>
    <v>       0.50000000       0.00000000       0.00000000 </v>
    <v>       0.50000000       0.50000000       0.00000000 </v>
    <v>       0.25000000       0.25000000       0.05351109 </v>
    <v>       0.25000000       0.75000000       0.05351109 </v>
    <v>       0.75000000       0.25000000       0.05351109 </v>
    <v>       0.75000000       0.75000000       0.05351109 </v>
    <v>       0.00000000       0.00000000       0.10541371 </v>
    <v>       0.00000000       0.50000000       0.10541371 </v>
    <v>       0.50000000       0.00000000       0.10541371 </v>
    <v>       0.50000000       0.50000000       0.10541371 </v>
    <v>       0.25007077       0.25044467       0.15720879 </v>
    <v>       0.24988066       0.75043511       0.15726428 </v>
    <v>       0.74992923       0.25044467       0.15720879 </v>
    <v>       0.75011934       0.75043511       0.15726428 </v>
    <v>       0.00000000       0.00078697       0.20879889 </v>
    <v>       0.00000000       0.50070919       0.20886960 </v>
    <v>       0.50000000       0.00080283       0.20871268 </v>
    <v>       0.50000000       0.50077703       0.20869088 </v>
    <v>       0.24997903       0.25096436       0.25954019 </v>
    <v>       0.25001093       0.75105810       0.25962764 </v>
    <v>       0.75002097       0.25096436       0.25954019 </v>
    <v>       0.74998907       0.75105810       0.25962764 </v>
    <v>       0.00000000       0.00138996       0.31450337 </v>
    <v>       0.00000000       0.50122281       0.31455005 </v>
    <v>       0.50000000       0.00137924       0.31409593 </v>
    <v>       0.50000000       0.50114458       0.31414768 </v>
    <v>       0.25002362       0.25158743       0.36184906 </v>
    <v>       0.24955879       0.75143128       0.36192303 </v>
    <v>       0.74997638       0.25158743       0.36184906 </v>
    <v>       0.75044121       0.75143128       0.36192303 </v>
    <v>       0.50000000       0.73768593       0.46623935 </v>
    <v>       0.50000000       0.87600344       0.45475707 </v>
   </varray>
  </structure>
  <varray name="forces" >
   <v>       0.00000000      -0.00635334       0.44586714 </v>
   <v>       0.00000000       0.00718891       0.44738159 </v>
   <v>       0.00000000      -0.00412179       0.45514712 </v>
   <v>       0.00000000       0.00502054       0.45590966 </v>
   <v>       0.00159136      -0.00043719      -0.45400352 </v>
   <v>      -0.00403053       0.00133439      -0.45295808 </v>
   <v>      -0.00159136      -0.00043719      -0.45400352 </v>
   <v>       0.00403053       0.00133439      -0.45295808 </v>
   <v>       0.00000000       0.00309511       0.00199578 </v>
   <v>       0.00000000       0.00539597       0.00615235 </v>
   <v>       0.00000000       0.00338094      -0.01392458 </v>
   <v>       0.00000000       0.00596230      -0.01744428 </v>
   <v>      -0.00549948      -0.00146254       0.00684524 </v>
   <v>       0.00265431       0.00008716      -0.00068385 </v>
   <v>       0.00549948      -0.00146254       0.00684524 </v>
   <v>      -0.00265431       0.00008716      -0.00068385 </v>
   <v>       0.00000000      -0.00073242       0.00927039 </v>
   <v>       0.00000000       0.00077644       0.00299165 </v>
   <v>       0.00000000       0.00187925      -0.01213147 </v>
   <v>       0.00000000      -0.00384178      -0.00626595 </v>
   <v>      -0.01150260       0.00008516      -0.00370887 </v>
   <v>       0.00363040      -0.00206094       0.00336396 </v>
   <v>       0.01150260       0.00008516      -0.00370887 </v>
   <v>      -0.00363040      -0.00206094       0.00336396 </v>
   <v>       0.00000000      -0.00014001       0.00052471 </v>
   <v>       0.00000000      -0.00194222      -0.00406145 </v>
   <v>       0.00000000       0.00119816       0.00129667 </v>
   <v>       0.00000000      -0.00157529       0.00363594 </v>
   <v>      -0.00141782      -0.00187520      -0.00125768 </v>
   <v>       0.00110167      -0.00100043      -0.00167162 </v>
   <v>       0.00141782      -0.00187520      -0.00125768 </v>
   <v>      -0.00110167      -0.00100043      -0.00167162 </v>
   <v>       0.00000000       0.17541398      -0.02038281 </v>
   <v>       0.00000000      -0.17994557       0.05218639 </v>
  </varray>
  <varray name="stress" >
   <v>     -31.60668533       0.00000000       0.00000000 </v>
   <v>       0.00000000     -29.03592817      -0.02234285 </v>
   <v>       0.00000000      -0.02234293      -7.68552411 </v>
  </varray>
  <energy>
   <i name="e_fr_energy">   -130.69398362 </i>
   <i name="e_wo_entrp">   -130.72252851 </i>
   <i name="e_0_energy">   -130.70349858 </i>
  </energy>
  <time name="totalsc">   24.93   25.20</time>
 </calculation>
 <calculation>
  <scstep>
   <time name="dav">    7.36    7.42</time>
   <time name="total">    7.79    7.85</time>
   <energy>
    <i name="alphaZ">    844.48149002 </i>
    <i name="ewald"> 172518.30867586 </i>
    <i name="hartreedc">-215269.62068874 </i>
    <i name="XCdc">   1431.61243245 </i>
    <i name="pawpsdc">  41939.54729501 </i>
    <i name="pawaedc"> -45387.32959650 </i>
    <i name="eentropy">      0.02855844 </i>
    <i name="bandstr">   -730.96850835 </i>
    <i name="atom">  44535.60175172 </i>
    <i name="e_fr_energy">   -118.33859009 </i>
    <i name="e_wo_entrp">   -118.36714853 </i>
    <i name="e_0_energy">   -118.34810957 </i>
   </energy>
  </scstep>
  <scstep>
   <time name="dav">    5.02    5.06</time>
   <time name="total">    5.10    5.14</time>
   <energy>
    <i name="alphaZ">    844.48149002 </i>
    <i name="ewald"> 172518.30867586 </i>
    <i name="hartreedc">-215269.63304659 </i>
    <i name="XCdc">   1431.61237116 </i>
    <i name="pawpsdc">  41939.55853785 </i>
    <i name="pawaedc"> -45387.34120169 </i>
    <i name="eentropy">      0.02855289 </i>
    <i name="bandstr">   -730.95572261 </i>
    <i name="atom">  44535.60175172 </i>
    <i name="e_fr_energy">   -118.33859140 </i>
    <i name="e_wo_entrp">   -118.36714428 </i>
    <i name="e_0_energy">   -118.34810903 </i>
   </energy>
  </scstep>
  <structure>
   <crystal>
    <varray name="basis" >
     <v>       7.26000023       0.00000000       0.00000000 </v>
     <v>       0.00000000       5.13359547       0.00000000 </v>
     <v>       0.00000000       0.00000000      23.98379135 </v>
    </varray>
    <i name="volume">    893.87360752 </i>
    <varray name="rec_basis" >
     <v>       0.13774104       0.00000000       0.00000000 </v>
     <v>       0.00000000       0.19479525       0.00000000 </v>
     <v>       0.00000000       0.00000000       0.04169483 </v>
    </varray>
   </crystal>
   <varray name="positions" >
    <v>       0.00000000       0.00000000       0.00000000 </v>
    <v>       0.00000000       0.50000000       0.00000000 </v>
    <v>       0.50000000       0.00000000       0.00000000 </v>
    <v>       0.50000000       0.50000000       0.00000000 </v>
    <v>       0.25000000       0.25000000       0.05351109 </v>
    <v>       0.25000000       0.75000000       0.05351109 </v>
    <v>       0.75000000       0.25000000       0.05351109 </v>
    <v>       0.75000000       0.75000000       0.05351109 </v>
    <v>       0.00000000       0.00000000       0.10541371 </v>
    <v>       0.00000000       0.50000000       0.10541371 </v>
    <v>       0.50000000       0.00000000       0.10541371 </v>
    <v>       0.50000000       0.50000000       0.10541371 </v>
    <v>       0.25006775       0.25044376       0.15721072 </v>
    <v>       0.24988485       0.75044330       0.15726437 </v>
    <v>       0.74993225       0.25044376       0.15721072 </v>
    <v>       0.75011515       0.75044330       0.15726437 </v>
    <v>       0.00000000       0.00080213       0.20880171 </v>
    <v>       0.00000000       0.50070888       0.20887165 </v>
    <v>       0.50000000       0.00081335       0.20871120 </v>
    <v>       0.50000000       0.50077854       0.20869132 </v>
    <v>       0.24997335       0.25097069       0.25953906 </v>
    <v>       0.25001681       0.75106412       0.25962790 </v>
    <v>       0.75002665       0.25097069       0.25953906 </v>
    <v>       0.74998319       0.75106412       0.25962790 </v>
    <v>       0.00000000       0.00139442       0.31449950 </v>
    <v>       0.00000000       0.50122589       0.31454432 </v>
    <v>       0.50000000       0.00139693       0.31409821 </v>
    <v>       0.50000000       0.50113579       0.31415244 </v>
    <v>       0.25001157       0.25158980       0.36184792 </v>
    <v>       0.24954902       0.75143528       0.36192270 </v>
    <v>       0.74998843       0.25158980       0.36184792 </v>
    <v>       0.75045098       0.75143528       0.36192270 </v>
    <v>       0.50000000       0.73765078       0.46619269 </v>
    <v>       0.50000000       0.87607091       0.45476087 </v>
   </varray>
  </structure>
  <varray name="forces" >
   <v>       0.00000000      -0.00592960       0.44586383 </v>
   <v>       0.00000000       0.00763557       0.44737733 </v>
   <v>       0.00000000      -0.00368582       0.45515932 </v>
   <v>       0.00000000       0.00545620       0.45592921 </v>
   <v>       0.00160076      -0.00001136      -0.45389108 </v>
   <v>      -0.00400947       0.00178742      -0.45290052 </v>
   <v>      -0.00160076      -0.00001136      -0.45389108 </v>
   <v>       0.00400947       0.00178742      -0.45290052 </v>
   <v>       0.00000000       0.00356566       0.00216902 </v>
   <v>       0.00000000       0.00586634       0.00631530 </v>
   <v>       0.00000000       0.00389317      -0.01388816 </v>
   <v>       0.00000000       0.00639386      -0.01731520 </v>
   <v>      -0.00471577      -0.00073868       0.00507645 </v>
   <v>       0.00151349      -0.00094579      -0.00064976 </v>
   <v>       0.00471577      -0.00073868       0.00507645 </v>
   <v>      -0.00151349      -0.00094579      -0.00064976 </v>
   <v>       0.00000000      -0.00290682       0.00691776 </v>
   <v>       0.00000000       0.00154702       0.00120923 </v>
   <v>       0.00000000       0.00060669      -0.01072980 </v>
   <v>       0.00000000      -0.00358627      -0.00655729 </v>
   <v>      -0.00997285      -0.00055310      -0.00254851 </v>
   <v>       0.00218400      -0.00258252       0.00315240 </v>
   <v>       0.00997285      -0.00055310      -0.00254851 </v>
   <v>      -0.00218400      -0.00258252       0.00315240 </v>
   <v>       0.00000000      -0.00043065       0.00319222 </v>
   <v>       0.00000000      -0.00186423      -0.00029577 </v>
   <v>       0.00000000      -0.00131910      -0.00035036 </v>
   <v>       0.00000000       0.00041785       0.00037623 </v>
   <v>       0.00083660      -0.00173149      -0.00044396 </v>
   <v>       0.00309982      -0.00113962      -0.00141394 </v>
   <v>      -0.00083660      -0.00173149      -0.00044396 </v>
   <v>      -0.00309982      -0.00113962      -0.00141394 </v>
   <v>       0.00000000       0.17721352      -0.02029231 </v>
   <v>       0.00000000      -0.18104314       0.05215727 </v>
  </varray>
  <varray name="stress" >
   <v>     -31.61707239       0.00000000       0.00000000 </v>
   <v>       0.00000000     -29.04902192      -0.02319003 </v>
   <v>       0.00000000      -0.02318990      -7.69416445 </v>
  </varray>
  <energy>
   <i name="e_fr_energy">   -130.69391994 </i>
   <i name="e_wo_entrp">   -130.72247283 </i>
   <i name="e_0_energy">   -130.70343757 </i>
  </energy>
