unknown system                          
           1
     7.260000    0.000000    0.000000
     0.000000    5.133595    0.000000
     0.000000    0.000000   23.983791
   Cu   H 
    32     2
Direct configuration=     1
   0.00000000  0.00000000  0.00000000
   0.00000000  0.50000000  0.00000000
   0.50000000  0.00000000  0.00000000
   0.50000000  0.50000000  0.00000000
   0.25000000  0.25000000  0.05351109
   0.25000000  0.75000000  0.05351109
   0.75000000  0.25000000  0.05351109
   0.75000000  0.75000000  0.05351109
   0.00000000  0.00000000  0.10541371
   0.00000000  0.50000000  0.10541371
   0.50000000  0.00000000  0.10541371
   0.50000000  0.50000000  0.10541371
   0.25000000  0.25000000  0.15715010
   0.25000000  0.75000000  0.15715010
   0.75000000  0.25000000  0.15715010
   0.75000000  0.75000000  0.15715010
   0.00000000  0.00000000  0.20866257
   0.00000000  0.50000000  0.20866257
   0.50000000  0.00000000  0.20866257
   0.50000000  0.50000000  0.20866257
   0.25000000  0.25000000  0.25947965
   0.25000000  0.75000000  0.25947965
   0.75000000  0.25000000  0.25947965
   0.75000000  0.75000000  0.25947965
   0.00000000  0.00000000  0.31415415
   0.00000000  0.50000000  0.31415415
   0.50000000  0.00000000  0.31415415
   0.50000000  0.50000000  0.31415415
   0.25000000  0.25000000  0.36181799
   0.25000000  0.75000000  0.36181799
   0.75000000  0.25000000  0.36181799
   0.75000000  0.75000000  0.36181799
   0.50000000  0.75000000  0.42690792
   0.50000000  0.89531725  0.42690792
Direct configuration=     2
   0.00000000  0.00000000  0.00000000
   0.00000000  0.50000000  0.00000000
   0.50000000  0.00000000  0.00000000
   0.50000000  0.50000000  0.00000000
   0.25000000  0.25000000  0.05351109
   0.25000000  0.75000000  0.05351109
   0.75000000  0.25000000  0.05351109
   0.75000000  0.75000000  0.05351109
   0.00000000  0.00000000  0.10541371
   0.00000000  0.50000000  0.10541371
   0.50000000  0.00000000  0.10541371
   0.50000000  0.50000000  0.10541371
   0.25011950  0.24997414  0.15718570
   0.24997064  0.75002182  0.15716857
   0.74988050  0.24997414  0.15718570
   0.75002936  0.75002182  0.15716857
   0.00000000 -0.00000511  0.20869657
   0.00000000  0.50002454  0.20875098
   0.50000000  0.00016609  0.20864677
   0.50000000  0.49978817  0.20859544
   0.24984970  0.24987559  0.25949893
   0.25023593  0.75013600  0.25954192
   0.75015030  0.24987559  0.25949893
   0.74976407  0.75013600  0.25954192
   0.00000000  0.00003529  0.31427744
   0.00000000  0.50006631  0.31426528
   0.50000000  0.00091362  0.31363498
   0.50000000  0.49913183  0.31394951
   0.24962967  0.25044708  0.36170550
   0.24883401  0.74967599  0.36167295
   0.75037033  0.25044708  0.36170550
   0.75116599  0.74967599  0.36167295
   0.50000000  0.74256666  0.42739204
   0.50000000  0.90235296  0.42732862
Direct configuration=     3
   0.00000000  0.00000000  0.00000000
   0.00000000  0.50000000  0.00000000
   0.50000000  0.00000000  0.00000000
   0.50000000  0.50000000  0.00000000
   0.25000000  0.25000000  0.05351109
   0.25000000  0.75000000  0.05351109
   0.75000000  0.25000000  0.05351109
   0.75000000  0.75000000  0.05351109
   0.00000000  0.00000000  0.10541371
   0.00000000  0.50000000  0.10541371
   0.50000000  0.00000000  0.10541371
   0.50000000  0.50000000  0.10541371
   0.25005615  0.24998785  0.15716683
   0.24998621  0.75001025  0.15715877
   0.74994385  0.24998785  0.15716683
   0.75001379  0.75001025  0.15715877
   0.00000000 -0.00000240  0.20867854
   0.00000000  0.50001153  0.20870411
   0.50000000  0.00007804  0.20865515
   0.50000000  0.49990047  0.20863103
   0.24992938  0.24994154  0.25948871
   0.25011085  0.75006390  0.25950891
   0.75007062  0.24994154  0.25948871
   0.74988915  0.75006390  0.25950891
   0.00000000  0.00001658  0.31421208
   0.00000000  0.50003116  0.31420637
   0.50000000  0.00042927  0.31391022
   0.50000000  0.49959209  0.31405800
   0.24982600  0.25021006  0.36176514
   0.24945216  0.74984776  0.36174984
   0.75017400  0.25021006  0.36176514
   0.75054784  0.74984776  0.36174984
   0.50000000  0.74650744  0.42713538
   0.50000000  0.89862298  0.42710558
Direct configuration=     4
   0.00000000  0.00000000  0.00000000
   0.00000000  0.50000000  0.00000000
   0.50000000  0.00000000  0.00000000
   0.50000000  0.50000000  0.00000000
   0.25000000  0.25000000  0.05351109
   0.25000000  0.75000000  0.05351109
   0.75000000  0.25000000  0.05351109
   0.75000000  0.75000000  0.05351109
   0.00000000  0.00000000  0.10541371
   0.00000000  0.50000000  0.10541371
   0.50000000  0.00000000  0.10541371
   0.50000000  0.50000000  0.10541371
   0.25017140  0.24996119  0.15720764
   0.24994843  0.75002978  0.15718540
   0.74982860  0.24996119  0.15720764
   0.75005157  0.75002978  0.15718540
   0.00000000 -0.00002159  0.20872028
   0.00000000  0.50005096  0.20880268
   0.50000000  0.00024093  0.20862406
   0.50000000  0.49968687  0.20855761
   0.24973445  0.24982461  0.25949962
   0.25034634  0.75019356  0.25956182
   0.75026555  0.24982461  0.25949962
   0.74965366  0.75019356  0.25956182
   0.00000000  0.00008421  0.31433151
   0.00000000  0.50007779  0.31430913
   0.50000000  0.00128053  0.31338139
   0.50000000  0.49877866  0.31384057
   0.24944343  0.25064818  0.36165758
   0.24837293  0.74955725  0.36162447
   0.75055657  0.25064818  0.36165758
   0.75162707  0.74955725  0.36162447
   0.50000000  0.74645456  0.42760971
   0.50000000  0.89824027  0.42751416
Direct configuration=     5
   0.00000000  0.00000000  0.00000000
   0.00000000  0.50000000  0.00000000
   0.50000000  0.00000000  0.00000000
   0.50000000  0.50000000  0.00000000
   0.25000000  0.25000000  0.05351109
   0.25000000  0.75000000  0.05351109
   0.75000000  0.25000000  0.05351109
   0.75000000  0.75000000  0.05351109
   0.00000000  0.00000000  0.10541371
   0.00000000  0.50000000  0.10541371
   0.50000000  0.00000000  0.10541371
   0.50000000  0.50000000  0.10541371
   0.25028930  0.24993391  0.15724939
   0.24990980  0.75004975  0.15721264
   0.74971070  0.24993391  0.15724939
   0.75009020  0.75004975  0.15721264
   0.00000000 -0.00004122  0.20876298
   0.00000000  0.50009129  0.20890352
   0.50000000  0.00040757  0.20859227
   0.50000000  0.49946836  0.20848251
   0.24953504  0.24970500  0.25951079
   0.25058724  0.75032619  0.25961594
   0.75046496  0.24970500  0.25951079
   0.74941276  0.75032619  0.25961594
   0.00000000  0.00015340  0.31445368
   0.00000000  0.50012549  0.31441425
   0.50000000  0.00215134  0.31284043
   0.50000000  0.49794656  0.31361815
   0.24905208  0.25109635  0.36154755
   0.24726893  0.74926006  0.36149622
   0.75094792  0.25109635  0.36154755
   0.75273107  0.74926006  0.36149622
   0.50000000  0.74640046  0.42809492
   0.50000000  0.89784876  0.42793211
Direct configuration=     6
   0.00000000  0.00000000  0.00000000
   0.00000000  0.50000000  0.00000000
   0.50000000  0.00000000  0.00000000
   0.50000000  0.50000000  0.00000000
   0.25000000  0.25000000  0.05351109
   0.25000000  0.75000000  0.05351109
   0.75000000  0.25000000  0.05351109
   0.75000000  0.75000000  0.05351109
   0.00000000  0.00000000  0.10541371
   0.00000000  0.50000000  0.10541371
   0.50000000  0.00000000  0.10541371
   0.50000000  0.50000000  0.10541371
   0.25052510  0.24987937  0.15733289
   0.24983252  0.75008970  0.15726712
   0.74947490  0.24987937  0.15733289
   0.75016748  0.75008970  0.15726712
   0.00000000 -0.00008048  0.20884838
   0.00000000  0.50017195  0.20910520
   0.50000000  0.00074084  0.20852867
   0.50000000  0.49903134  0.20833230
   0.24913623  0.24946577  0.25953312
   0.25106903  0.75059146  0.25972418
   0.75086377  0.24946577  0.25953312
   0.74893097  0.75059146  0.25972418
   0.00000000  0.00029177  0.31469802
   0.00000000  0.50022089  0.31462450
   0.50000000  0.00389294  0.31175850
   0.50000000  0.49628236  0.31317331
   0.24826937  0.25199269  0.36132749
   0.24506093  0.74866570  0.36123972
   0.75173063  0.25199269  0.36132749
   0.75493907  0.74866570  0.36123972
   0.50000000  0.74629226  0.42906534
   0.50000000  0.89706576  0.42876801
Direct configuration=     7
   0.00000000  0.00000000  0.00000000
   0.00000000  0.50000000  0.00000000
   0.50000000  0.00000000  0.00000000
   0.50000000  0.50000000  0.00000000
   0.25000000  0.25000000  0.05351109
   0.25000000  0.75000000  0.05351109
   0.75000000  0.25000000  0.05351109
   0.75000000  0.75000000  0.05351109
   0.00000000  0.00000000  0.10541371
   0.00000000  0.50000000  0.10541371
   0.50000000  0.00000000  0.10541371
   0.50000000  0.50000000  0.10541371
   0.25040306  0.24990760  0.15728967
   0.24987251  0.75006902  0.15723892
   0.74959694  0.24990760  0.15728967
   0.75012749  0.75006902  0.15723892
   0.00000000 -0.00006016  0.20880419
   0.00000000  0.50013020  0.20900082
   0.50000000  0.00056836  0.20856158
   0.50000000  0.49925751  0.20841004
   0.24934263  0.24958958  0.25952157
   0.25081969  0.75045417  0.25966816
   0.75065737  0.24958958  0.25952157
   0.74918031  0.75045417  0.25966816
   0.00000000  0.00022016  0.31457156
   0.00000000  0.50017152  0.31451569
   0.50000000  0.00299160  0.31231844
   0.50000000  0.49714364  0.31340353
   0.24867445  0.25152880  0.36144138
   0.24620365  0.74897330  0.36137247
   0.75132555  0.25152880  0.36144138
   0.75379635  0.74897330  0.36137247
   0.50000000  0.74634826  0.42856311
   0.50000000  0.89747099  0.42833540
Direct configuration=     8
   0.00000000  0.00000000  0.00000000
   0.00000000  0.50000000  0.00000000
   0.50000000  0.00000000  0.00000000
   0.50000000  0.50000000  0.00000000
   0.25000000  0.25000000  0.05351109
   0.25000000  0.75000000  0.05351109
   0.75000000  0.25000000  0.05351109
   0.75000000  0.75000000  0.05351109
   0.00000000  0.00000000  0.10541371
   0.00000000  0.50000000  0.10541371
   0.50000000  0.00000000  0.10541371
   0.50000000  0.50000000  0.10541371
   0.25046408  0.24989348  0.15731128
   0.24985251  0.75007936  0.15725302
   0.74953592  0.24989348  0.15731128
   0.75014748  0.75007936  0.15725302
   0.00000000 -0.00007032  0.20882629
   0.00000000  0.50015108  0.20905301
   0.50000000  0.00065460  0.20854513
   0.50000000  0.49914443  0.20837117
   0.24923943  0.24952767  0.25952734
   0.25094436  0.75052281  0.25969617
   0.75076057  0.24952767  0.25952734
   0.74905564  0.75052281  0.25969617
   0.00000000  0.00025596  0.31463479
   0.00000000  0.50019620  0.31457009
   0.50000000  0.00344227  0.31203847
   0.50000000  0.49671300  0.31328842
   0.24847191  0.25176074  0.36138444
   0.24563229  0.74881950  0.36130610
   0.75152809  0.25176074  0.36138444
   0.75436771  0.74881950  0.36130610
   0.50000000  0.74632026  0.42881422
   0.50000000  0.89726837  0.42855171
Direct configuration=     9
   0.00000000  0.00000000  0.00000000
   0.00000000  0.50000000  0.00000000
   0.50000000  0.00000000  0.00000000
   0.50000000  0.50000000  0.00000000
   0.25000000  0.25000000  0.05351109
   0.25000000  0.75000000  0.05351109
   0.75000000  0.25000000  0.05351109
   0.75000000  0.75000000  0.05351109
   0.00000000  0.00000000  0.10541371
   0.00000000  0.50000000  0.10541371
   0.50000000  0.00000000  0.10541371
   0.50000000  0.50000000  0.10541371
   0.25043901  0.24989928  0.15730240
   0.24986073  0.75007511  0.15724723
   0.74956099  0.24989928  0.15730240
   0.75013927  0.75007511  0.15724723
   0.00000000 -0.00006614  0.20881720
   0.00000000  0.50014250  0.20903157
   0.50000000  0.00061917  0.20855189
   0.50000000  0.49919089  0.20838714
   0.24928183  0.24955311  0.25952497
   0.25089313  0.75049461  0.25968466
   0.75071817  0.24955311  0.25952497
   0.74910687  0.75049461  0.25968466
   0.00000000  0.00024125  0.31460881
   0.00000000  0.50018606  0.31454774
   0.50000000  0.00325709  0.31215351
   0.50000000  0.49688995  0.31333572
   0.24855513  0.25166544  0.36140784
   0.24586706  0.74888270  0.36133337
   0.75144487  0.25166544  0.36140784
   0.75413293  0.74888270  0.36133337
   0.50000000  0.74633176  0.42871104
   0.50000000  0.89735163  0.42846283
Direct configuration=    10
   0.00000000  0.00000000  0.00000000
   0.00000000  0.50000000  0.00000000
   0.50000000  0.00000000  0.00000000
   0.50000000  0.50000000  0.00000000
   0.25000000  0.25000000  0.05351109
   0.25000000  0.75000000  0.05351109
   0.75000000  0.25000000  0.05351109
   0.75000000  0.75000000  0.05351109
   0.00000000  0.00000000  0.10541371
   0.00000000  0.50000000  0.10541371
   0.50000000  0.00000000  0.10541371
   0.50000000  0.50000000  0.10541371
   0.25025654  0.24993651  0.15729645
   0.24976254  0.75002777  0.15728556
   0.74974346  0.24993651  0.15729645
   0.75023746  0.75002777  0.15728556
   0.00000000 -0.00022053  0.20886808
   0.00000000  0.50032214  0.20909094
   0.50000000  0.00047023  0.20830242
   0.50000000  0.49927948  0.20830936
   0.24876587  0.24972067  0.25941928
   0.25089846  0.75035354  0.25958978
   0.75123413  0.24972067  0.25941928
   0.74910154  0.75035354  0.25958978
   0.00000000  0.00062856  0.31457827
   0.00000000  0.49996081  0.31443320
   0.50000000  0.00269615  0.31206909
   0.50000000  0.49761153  0.31326006
   0.24863136  0.25159845  0.36135035
   0.24583446  0.74911739  0.36123847
   0.75136864  0.25159845  0.36135035
   0.75416554  0.74911739  0.36123847
   0.50000000  0.74749962  0.42949762
   0.50000000  0.89551402  0.42912238
Direct configuration=    11
   0.00000000  0.00000000  0.00000000
   0.00000000  0.50000000  0.00000000
   0.50000000  0.00000000  0.00000000
   0.50000000  0.50000000  0.00000000
   0.25000000  0.25000000  0.05351109
   0.25000000  0.75000000  0.05351109
   0.75000000  0.25000000  0.05351109
   0.75000000  0.75000000  0.05351109
   0.00000000  0.00000000  0.10541371
   0.00000000  0.50000000  0.10541371
   0.50000000  0.00000000  0.10541371
   0.50000000  0.50000000  0.10541371
   0.25018017  0.24995209  0.15729396
   0.24972145  0.75000795  0.15730160
   0.74981983  0.24995209  0.15729396
   0.75027855  0.75000795  0.15730160
   0.00000000 -0.00028515  0.20888937
   0.00000000  0.50039732  0.20911579
   0.50000000  0.00040790  0.20819801
   0.50000000  0.49931655  0.20827681
   0.24854991  0.24979081  0.25937504
   0.25090070  0.75029450  0.25955006
   0.75145009  0.24979081  0.25937504
   0.74909930  0.75029450  0.25955006
   0.00000000  0.00079067  0.31456549
   0.00000000  0.49986653  0.31438527
   0.50000000  0.00246137  0.31203376
   0.50000000  0.49791355  0.31322840
   0.24866327  0.25157042  0.36132628
   0.24582082  0.74921562  0.36119875
   0.75133673  0.25157042  0.36132628
   0.75417918  0.74921562  0.36119875
   0.50000000  0.74798842  0.42982685
   0.50000000  0.89474488  0.42939843
Direct configuration=    12
   0.00000000  0.00000000  0.00000000
   0.00000000  0.50000000  0.00000000
   0.50000000  0.00000000  0.00000000
   0.50000000  0.50000000  0.00000000
   0.25000000  0.25000000  0.05351109
   0.25000000  0.75000000  0.05351109
   0.75000000  0.25000000  0.05351109
   0.75000000  0.75000000  0.05351109
   0.00000000  0.00000000  0.10541371
   0.00000000  0.50000000  0.10541371
   0.50000000  0.00000000  0.10541371
   0.50000000  0.50000000  0.10541371
   0.25010544  0.24996764  0.15728538
   0.24968610  0.74998970  0.15730690
   0.74989456  0.24996764  0.15728538
   0.75031390  0.74998970  0.15730690
   0.00000000 -0.00033847  0.20889881
   0.00000000  0.50045866  0.20912122
   0.50000000  0.00036649  0.20812100
   0.50000000  0.49934195  0.20825585
   0.24841650  0.24984630  0.25933775
   0.25088891  0.75024973  0.25951316
   0.75158350  0.24984630  0.25933775
   0.74911109  0.75024973  0.25951316
   0.00000000  0.00090436  0.31454542
   0.00000000  0.49980562  0.31433989
   0.50000000  0.00224500  0.31203359
   0.50000000  0.49818750  0.31321397
   0.24872804  0.25152522  0.36130797
   0.24587071  0.74931526  0.36116780
   0.75127196  0.25152522  0.36130797
   0.75412929  0.74931526  0.36116780
   0.50000000  0.74777468  0.43011495
   0.50000000  0.89472260  0.42963568
Direct configuration=    13
   0.00000000  0.00000000  0.00000000
   0.00000000  0.50000000  0.00000000
   0.50000000  0.00000000  0.00000000
   0.50000000  0.50000000  0.00000000
   0.25000000  0.25000000  0.05351109
   0.25000000  0.75000000  0.05351109
   0.75000000  0.25000000  0.05351109
   0.75000000  0.75000000  0.05351109
   0.00000000  0.00000000  0.10541371
   0.00000000  0.50000000  0.10541371
   0.50000000  0.00000000  0.10541371
   0.50000000  0.50000000  0.10541371
   0.24988125  0.25001426  0.15725961
   0.24958006  0.74993494  0.15732280
   0.75011875  0.25001426  0.15725961
   0.75041994  0.74993494  0.15732280
   0.00000000 -0.00049843  0.20892713
   0.00000000  0.50064268  0.20913749
   0.50000000  0.00024226  0.20788998
   0.50000000  0.49941813  0.20819299
   0.24801627  0.25001278  0.25922589
   0.25085354  0.75011543  0.25940245
   0.75198373  0.25001278  0.25922589
   0.74914646  0.75011543  0.25940245
   0.00000000  0.00124544  0.31448520
   0.00000000  0.49962286  0.31420378
   0.50000000  0.00159589  0.31203308
   0.50000000  0.49900935  0.31317070
   0.24892236  0.25138962  0.36125302
   0.24602040  0.74961419  0.36107494
   0.75107764  0.25138962  0.36125302
   0.75397960  0.74961419  0.36107494
   0.50000000  0.74713348  0.43097925
   0.50000000  0.89465577  0.43034742
Direct configuration=    14
   0.00000000  0.00000000  0.00000000
   0.00000000  0.50000000  0.00000000
   0.50000000  0.00000000  0.00000000
   0.50000000  0.50000000  0.00000000
   0.25000000  0.25000000  0.05351109
   0.25000000  0.75000000  0.05351109
   0.75000000  0.25000000  0.05351109
   0.75000000  0.75000000  0.05351109
   0.00000000  0.00000000  0.10541371
   0.00000000  0.50000000  0.10541371
   0.50000000  0.00000000  0.10541371
   0.50000000  0.50000000  0.10541371
   0.24943286  0.25010751  0.15720808
   0.24936797  0.74982541  0.15735460
   0.75056714  0.25010751  0.15720808
   0.75063203  0.74982541  0.15735460
   0.00000000 -0.00081834  0.20898375
   0.00000000  0.50101072  0.20917004
   0.50000000 -0.00000620  0.20742793
   0.50000000  0.49957050  0.20806725
   0.24721580  0.25034573  0.25900216
   0.25078282  0.74984682  0.25918102
   0.75278420  0.25034573  0.25900216
   0.74921718  0.74984682  0.25918102
   0.00000000  0.00192759  0.31436477
   0.00000000  0.49925734  0.31393154
   0.50000000  0.00029766  0.31203207
   0.50000000  0.50065304  0.31308416
   0.24931100  0.25111841  0.36114312
   0.24631977  0.75021205  0.36088922
   0.75068900  0.25111841  0.36114312
   0.75368023  0.75021205  0.36088922
   0.50000000  0.74585106  0.43270786
   0.50000000  0.89452211  0.43177091
Direct configuration=    15
   0.00000000  0.00000000  0.00000000
   0.00000000  0.50000000  0.00000000
   0.50000000  0.00000000  0.00000000
   0.50000000  0.50000000  0.00000000
   0.25000000  0.25000000  0.05351109
   0.25000000  0.75000000  0.05351109
   0.75000000  0.25000000  0.05351109
   0.75000000  0.75000000  0.05351109
   0.00000000  0.00000000  0.10541371
   0.00000000  0.50000000  0.10541371
   0.50000000  0.00000000  0.10541371
   0.50000000  0.50000000  0.10541371
   0.24853609  0.25029402  0.15710502
   0.24894380  0.74960635  0.15741820
   0.75146391  0.25029402  0.15710502
   0.75105620  0.74960635  0.15741820
   0.00000000 -0.00145817  0.20909701
   0.00000000  0.50174679  0.20923515
   0.50000000 -0.00050313  0.20650384
   0.50000000  0.49987523  0.20781579
   0.24561487  0.25101164  0.25855470
   0.25064136  0.74930961  0.25873818
   0.75438513  0.25101164  0.25855470
   0.74935864  0.74930961  0.25873818
   0.00000000  0.00329190  0.31412392
   0.00000000  0.49852631  0.31338707
   0.50000000 -0.00229879  0.31203006
   0.50000000  0.50394042  0.31291108
   0.25008829  0.25057601  0.36092332
   0.24691851  0.75140778  0.36051778
   0.74991171  0.25057601  0.36092332
   0.75308149  0.75140778  0.36051778
   0.50000000  0.74328623  0.43616507
   0.50000000  0.89425477  0.43461789
Direct configuration=    16
   0.00000000  0.00000000  0.00000000
   0.00000000  0.50000000  0.00000000
   0.50000000  0.00000000  0.00000000
   0.50000000  0.50000000  0.00000000
   0.25000000  0.25000000  0.05351109
   0.25000000  0.75000000  0.05351109
   0.75000000  0.25000000  0.05351109
   0.75000000  0.75000000  0.05351109
   0.00000000  0.00000000  0.10541371
   0.00000000  0.50000000  0.10541371
   0.50000000  0.00000000  0.10541371
   0.50000000  0.50000000  0.10541371
   0.24900818  0.25019584  0.15715928
   0.24916710  0.74972167  0.15738472
   0.75099182  0.25019584  0.15715928
   0.75083290  0.74972167  0.15738472
   0.00000000 -0.00112134  0.20903739
   0.00000000  0.50135930  0.20920087
   0.50000000 -0.00024153  0.20699031
   0.50000000  0.49971481  0.20794817
   0.24645765  0.25066108  0.25879026
   0.25071583  0.74959242  0.25897131
   0.75354235  0.25066108  0.25879026
   0.74928417  0.74959242  0.25897131
   0.00000000  0.00257368  0.31425071
   0.00000000  0.49891115  0.31367370
   0.50000000 -0.00093193  0.31203112
   0.50000000  0.50220983  0.31300220
   0.24967910  0.25086155  0.36103903
   0.24660331  0.75077831  0.36071332
   0.75032090  0.25086155  0.36103903
   0.75339669  0.75077831  0.36071332
   0.50000000  0.74463644  0.43434508
   0.50000000  0.89439551  0.43311914
Direct configuration=    17
   0.00000000  0.00000000  0.00000000
   0.00000000  0.50000000  0.00000000
   0.50000000  0.00000000  0.00000000
   0.50000000  0.50000000  0.00000000
   0.25000000  0.25000000  0.05351109
   0.25000000  0.75000000  0.05351109
   0.75000000  0.25000000  0.05351109
   0.75000000  0.75000000  0.05351109
   0.00000000  0.00000000  0.10541371
   0.00000000  0.50000000  0.10541371
   0.50000000  0.00000000  0.10541371
   0.50000000  0.50000000  0.10541371
   0.24877213  0.25024493  0.15713215
   0.24905545  0.74966401  0.15740146
   0.75122787  0.25024493  0.15713215
   0.75094455  0.74966401  0.15740146
   0.00000000 -0.00128975  0.20906720
   0.00000000  0.50155305  0.20921801
   0.50000000 -0.00037233  0.20674708
   0.50000000  0.49979502  0.20788198
   0.24603626  0.25083636  0.25867248
   0.25067859  0.74945101  0.25885474
   0.75396374  0.25083636  0.25867248
   0.74932141  0.74945101  0.25885474
   0.00000000  0.00293279  0.31418731
   0.00000000  0.49871873  0.31353038
   0.50000000 -0.00161536  0.31203059
   0.50000000  0.50307513  0.31295664
   0.24988369  0.25071878  0.36098117
   0.24676091  0.75109305  0.36061555
   0.75011631  0.25071878  0.36098117
   0.75323909  0.75109305  0.36061555
   0.50000000  0.74396134  0.43525507
   0.50000000  0.89432514  0.43386851
Direct configuration=    18
   0.00000000  0.00000000  0.00000000
   0.00000000  0.50000000  0.00000000
   0.50000000  0.00000000  0.00000000
   0.50000000  0.50000000  0.00000000
   0.25000000  0.25000000  0.05351109
   0.25000000  0.75000000  0.05351109
   0.75000000  0.25000000  0.05351109
   0.75000000  0.75000000  0.05351109
   0.00000000  0.00000000  0.10541371
   0.00000000  0.50000000  0.10541371
   0.50000000  0.00000000  0.10541371
   0.50000000  0.50000000  0.10541371
   0.24888192  0.25022210  0.15714476
   0.24910738  0.74969082  0.15739368
   0.75111808  0.25022210  0.15714476
   0.75089262  0.74969082  0.15739368
   0.00000000 -0.00121143  0.20905333
   0.00000000  0.50146294  0.20921004
   0.50000000 -0.00031149  0.20686020
   0.50000000  0.49975771  0.20791276
   0.24623225  0.25075484  0.25872726
   0.25069591  0.74951678  0.25890895
   0.75376775  0.25075484  0.25872726
   0.74930409  0.74951678  0.25890895
   0.00000000  0.00276577  0.31421680
   0.00000000  0.49880822  0.31359704
   0.50000000 -0.00129750  0.31203084
   0.50000000  0.50267269  0.31297783
   0.24978854  0.25078518  0.36100808
   0.24668761  0.75094667  0.36066102
   0.75021146  0.25078518  0.36100808
   0.75331239  0.75094667  0.36066102
   0.50000000  0.74427532  0.43483184
   0.50000000  0.89435787  0.43351999
Direct configuration=    19
   0.00000000  0.00000000  0.00000000
   0.00000000  0.50000000  0.00000000
   0.50000000  0.00000000  0.00000000
   0.50000000  0.50000000  0.00000000
   0.25000000  0.25000000  0.05351109
   0.25000000  0.75000000  0.05351109
   0.75000000  0.25000000  0.05351109
   0.75000000  0.75000000  0.05351109
   0.00000000  0.00000000  0.10541371
   0.00000000  0.50000000  0.10541371
   0.50000000  0.00000000  0.10541371
   0.50000000  0.50000000  0.10541371
   0.24866031  0.25026410  0.15707319
   0.24898745  0.74963769  0.15731943
   0.75133969  0.25026410  0.15707319
   0.75101255  0.74963769  0.15731943
   0.00000000 -0.00133599  0.20900065
   0.00000000  0.50161089  0.20909779
   0.50000000 -0.00015164  0.20680011
   0.50000000  0.49957397  0.20788863
   0.24639087  0.25074173  0.25865454
   0.25068991  0.74958158  0.25882250
   0.75360913  0.25074173  0.25865454
   0.74931009  0.74958158  0.25882250
   0.00000000  0.00282312  0.31413920
   0.00000000  0.49893639  0.31350999
   0.50000000 -0.00137962  0.31200893
   0.50000000  0.50294691  0.31292568
   0.25016809  0.25073759  0.36090718
   0.24687602  0.75119945  0.36055490
   0.74983191  0.25073759  0.36090718
   0.75312398  0.75119945  0.36055490
   0.50000000  0.74413562  0.43596245
   0.50000000  0.89359534  0.43444806
Direct configuration=    20
   0.00000000  0.00000000  0.00000000
   0.00000000  0.50000000  0.00000000
   0.50000000  0.00000000  0.00000000
   0.50000000  0.50000000  0.00000000
   0.25000000  0.25000000  0.05351109
   0.25000000  0.75000000  0.05351109
   0.75000000  0.25000000  0.05351109
   0.75000000  0.75000000  0.05351109
   0.00000000  0.00000000  0.10541371
   0.00000000  0.50000000  0.10541371
   0.50000000  0.00000000  0.10541371
   0.50000000  0.50000000  0.10541371
   0.24799549  0.25039012  0.15685845
   0.24862765  0.74947829  0.15709669
   0.75200451  0.25039012  0.15685845
   0.75137235  0.74947829  0.15709669
   0.00000000 -0.00170966  0.20884260
   0.00000000  0.50205476  0.20876106
   0.50000000  0.00032792  0.20661983
   0.50000000  0.49902273  0.20781623
   0.24686676  0.25070242  0.25843640
   0.25067189  0.74977601  0.25856315
   0.75313324  0.25070242  0.25843640
   0.74932811  0.74977601  0.25856315
   0.00000000  0.00299519  0.31390640
   0.00000000  0.49932088  0.31324884
   0.50000000 -0.00162599  0.31194321
   0.50000000  0.50376958  0.31276924
   0.25130675  0.25059483  0.36060449
   0.24744125  0.75195782  0.36023655
   0.74869325  0.25059483  0.36060449
   0.75255875  0.75195782  0.36023655
   0.50000000  0.74371651  0.43935428
   0.50000000  0.89130777  0.43723226
Direct configuration=    21
   0.00000000  0.00000000  0.00000000
   0.00000000  0.50000000  0.00000000
   0.50000000  0.00000000  0.00000000
   0.50000000  0.50000000  0.00000000
   0.25000000  0.25000000  0.05351109
   0.25000000  0.75000000  0.05351109
   0.75000000  0.25000000  0.05351109
   0.75000000  0.75000000  0.05351109
   0.00000000  0.00000000  0.10541371
   0.00000000  0.50000000  0.10541371
   0.50000000  0.00000000  0.10541371
   0.50000000  0.50000000  0.10541371
   0.24666584  0.25064217  0.15642897
   0.24790805  0.74915950  0.15665121
   0.75333416  0.25064217  0.15642897
   0.75209195  0.74915950  0.15665121
   0.00000000 -0.00245702  0.20852650
   0.00000000  0.50294249  0.20808758
   0.50000000  0.00128703  0.20625927
   0.50000000  0.49792025  0.20767143
   0.24781854  0.25062379  0.25800011
   0.25063586  0.75016486  0.25804444
   0.75218146  0.25062379  0.25800011
   0.74936414  0.75016486  0.25804444
   0.00000000  0.00333931  0.31344081
   0.00000000  0.50008987  0.31272654
   0.50000000 -0.00211874  0.31181178
   0.50000000  0.50541491  0.31245636
   0.25358406  0.25030931  0.35999910
   0.24857171  0.75347456  0.35959985
   0.74641594  0.25030931  0.35999910
   0.75142829  0.75347456  0.35959985
   0.50000000  0.74287829  0.44613794
   0.50000000  0.88673262  0.44280067
Direct configuration=    22
   0.00000000  0.00000000  0.00000000
   0.00000000  0.50000000  0.00000000
   0.50000000  0.00000000  0.00000000
   0.50000000  0.50000000  0.00000000
   0.25000000  0.25000000  0.05351109
   0.25000000  0.75000000  0.05351109
   0.75000000  0.25000000  0.05351109
   0.75000000  0.75000000  0.05351109
   0.00000000  0.00000000  0.10541371
   0.00000000  0.50000000  0.10541371
   0.50000000  0.00000000  0.10541371
   0.50000000  0.50000000  0.10541371
   0.24664448  0.25060098  0.15634836
   0.24799514  0.74919609  0.15652858
   0.75335552  0.25060098  0.15634836
   0.75200486  0.74919609  0.15652858
   0.00000000 -0.00231574  0.20842221
   0.00000000  0.50282466  0.20795472
   0.50000000  0.00144767  0.20632385
   0.50000000  0.49778311  0.20763140
   0.24828386  0.25054380  0.25794277
   0.25066541  0.75033694  0.25796269
   0.75171614  0.25054380  0.25794277
   0.74933459  0.75033694  0.25796269
   0.00000000  0.00333768  0.31334232
   0.00000000  0.50032289  0.31268070
   0.50000000 -0.00165931  0.31173350
   0.50000000  0.50518045  0.31237427
   0.25395149  0.25048026  0.35985812
   0.24874808  0.75357303  0.35949175
   0.74604851  0.25048026  0.35985812
   0.75125192  0.75357303  0.35949175
   0.50000000  0.74119389  0.44778969
   0.50000000  0.88714503  0.44407952
Direct configuration=    23
   0.00000000  0.00000000  0.00000000
   0.00000000  0.50000000  0.00000000
   0.50000000  0.00000000  0.00000000
   0.50000000  0.50000000  0.00000000
   0.25000000  0.25000000  0.05351109
   0.25000000  0.75000000  0.05351109
   0.75000000  0.25000000  0.05351109
   0.75000000  0.75000000  0.05351109
   0.00000000  0.00000000  0.10541371
   0.00000000  0.50000000  0.10541371
   0.50000000  0.00000000  0.10541371
   0.50000000  0.50000000  0.10541371
   0.24662526  0.25056394  0.15627585
   0.24807348  0.74922901  0.15641828
   0.75337474  0.25056394  0.15627585
   0.75192652  0.74922901  0.15641828
   0.00000000 -0.00218865  0.20832839
   0.00000000  0.50271867  0.20783520
   0.50000000  0.00159215  0.20638194