<?xml version="1.0" encoding="ISO-8859-1"?>
<modeling>
 <generator>
  <i name="program" type="string">vasp </i>
  <i name="version" type="string">6.3.2  </i>
  <i name="subversion" type="string">27Jun22 (build Aug 17 2022 15:43:34) complex                          parallel </i>
  <i name="platform" type="string">tv2STDVTST </i>
  <i name="date" type="string">2025 01 21 </i>
  <i name="time" type="string">19:55:10 </i>
 </generator>
 <incar>
  <i type="int" name="ISTART">     0</i>
  <i type="string" name="PREC">Normal</i>
  <i type="int" name="ISPIN">     2</i>
  <i type="int" name="ICHARG">     2</i>
  <i type="int" name="IBRION">     2</i>
  <i name="EDIFF">      0.00020000</i>
  <i name="EDIFFG">     -0.03000000</i>
  <i type="int" name="NSW">   800</i>
  <i type="int" name="ISIF">     2</i>
  <i type="int" name="ISYM">     1</i>
  <i name="ENCUT">    400.00000000</i>
  <i name="POTIM">      0.50000000</i>
  <i type="logical" name="LREAL"> F  </i>
  <i type="int" name="ISMEAR">     1</i>
  <i name="SIGMA">      0.20000000</i>
  <i type="logical" name="LWAVE"> F  </i>
  <i type="logical" name="LCHARG"> F  </i>
  <i type="string" name="GGA">PE</i>
  <i type="int" name="IDIPOL">     3</i>
  <i type="int" name="IVDW">    11</i>
 </incar>
 <primitive_cell>
  <structure name="primitive_cell" >
   <crystal>
    <varray name="basis" >
     <v>      -1.28339887      -2.22291204       0.00000000 </v>
     <v>       2.56679773       0.00000000       0.00000000 </v>
     <v>       0.00000000       0.00000000      29.67047119 </v>
    </varray>
    <i name="volume">    169.29275364 </i>
    <varray name="rec_basis" >
     <v>       0.00000000      -0.44986035       0.00000000 </v>
     <v>       0.38959050      -0.22493018       0.00000000 </v>
     <v>       0.00000000       0.00000000       0.03370354 </v>
    </varray>
   </crystal>
   <varray name="positions" >
    <v>       0.00000000       0.00000000       0.00000000 </v>
    <v>       0.66666667       0.33333333       0.07063526 </v>
    <v>       0.33333333       0.66666667       0.14127053 </v>
    <v>       0.00000000       0.00000000       0.21190579 </v>
    <v>       0.66666667       0.33333333       0.28254106 </v>
    <v>       0.33333333       0.66666667       0.35317632 </v>
    <v>       0.00000000       0.00000000       0.42381158 </v>
    <v>       0.66666667       0.33333333       0.49444685 </v>
   </varray>
  </structure>
  <varray name="primitive_index" >
   <v type="int" >        1 </v>
   <v type="int" >       10 </v>
   <v type="int" >       27 </v>
   <v type="int" >       28 </v>
   <v type="int" >       37 </v>
   <v type="int" >       54 </v>
   <v type="int" >       55 </v>
   <v type="int" >       64 </v>
  </varray>
 </primitive_cell>
 <kpoints>
  <generation param="Monkhorst-Pack">
   <v type="int" name="divisions">       3        3        1 </v>
   <v name="usershift">      0.00000000       0.00000000       0.00000000 </v>
   <v name="genvec1">      0.33333333       0.00000000       0.00000000 </v>
   <v name="genvec2">      0.00000000       0.33333333       0.00000000 </v>
   <v name="genvec3">      0.00000000       0.00000000       1.00000000 </v>
   <v name="shift">      0.00000000       0.00000000       0.00000000 </v>
  </generation>
  <varray name="kpointlist" >
   <v>       0.00000000       0.00000000       0.00000000 </v>
   <v>       0.33333333      -0.00000000       0.00000000 </v>
   <v>      -0.33333333       0.33333333       0.00000000 </v>
  </varray>
  <varray name="weights" >
   <v>       0.11111111 </v>
   <v>       0.66666667 </v>
   <v>       0.22222222 </v>
  </varray>
 </kpoints>
 <parameters>
  <separator name="general" >
   <i type="string" name="SYSTEM">unknown system</i>
   <i type="logical" name="LCOMPAT"> F  </i>
  </separator>
  <separator name="electronic" >
   <i type="string" name="PREC">normal</i>
   <i name="ENMAX">    400.00000000</i>
   <i name="ENAUG">    586.98000000</i>
   <i name="EDIFF">      0.00020000</i>
   <i type="int" name="IALGO">    38</i>
   <i type="int" name="IWAVPR">    11</i>
   <i type="int" name="NBANDS">   512</i>
   <i type="int" name="NBANDSLOW">    -1</i>
   <i type="int" name="NBANDSHIGH">    -1</i>
   <i name="NELECT">    792.00000000</i>
   <i type="int" name="TURBO">     0</i>
   <i type="int" name="IRESTART">     0</i>
   <i type="int" name="NREBOOT">     0</i>
   <i type="int" name="NMIN">     0</i>
   <i name="EREF">      0.00000000</i>
   <separator name="electronic smearing" >
    <i type="int" name="ISMEAR">     1</i>
    <i name="SIGMA">      0.20000000</i>
    <i name="KSPACING">      0.50000000</i>
    <i type="logical" name="KGAMMA"> T  </i>
    <i type="logical" name="KBLOWUP"> T  </i>
   </separator>
   <separator name="electronic projectors" >
    <i type="logical" name="LREAL"> F  </i>
    <v name="ROPT">      0.00000000</v>
    <i type="int" name="LMAXPAW">  -100</i>
    <i type="int" name="LMAXMIX">     2</i>
    <i type="logical" name="NLSPLINE"> F  </i>
   </separator>
   <separator name="electronic startup" >
    <i type="int" name="ISTART">     0</i>
    <i type="int" name="ICHARG">     2</i>
    <i type="int" name="INIWAV">     1</i>
   </separator>
   <separator name="electronic spin" >
    <i type="int" name="ISPIN">     2</i>
    <i type="logical" name="LNONCOLLINEAR"> F  </i>
    <v name="MAGMOM">      1.00000000      1.00000000      1.00000000      1.00000000      1.00000000      1.00000000      1.00000000      1.00000000      1.00000000      1.00000000      1.00000000      1.00000000      1.00000000      1.00000000      1.00000000      1.00000000      1.00000000      1.00000000      1.00000000      1.00000000
      1.00000000      1.00000000      1.00000000      1.00000000      1.00000000      1.00000000      1.00000000      1.00000000      1.00000000      1.00000000      1.00000000      1.00000000      1.00000000      1.00000000      1.00000000      1.00000000      1.00000000      1.00000000      1.00000000      1.00000000
      1.00000000      1.00000000      1.00000000      1.00000000      1.00000000      1.00000000      1.00000000      1.00000000      1.00000000      1.00000000      1.00000000      1.00000000      1.00000000      1.00000000      1.00000000      1.00000000      1.00000000      1.00000000      1.00000000      1.00000000
      1.00000000      1.00000000      1.00000000      1.00000000      1.00000000      1.00000000      1.00000000      1.00000000      1.00000000      1.00000000      1.00000000      1.00000000</v>
    <i name="NUPDOWN">     -1.00000000</i>
    <i type="logical" name="LSORBIT"> F  </i>
    <v name="SAXIS">      0.00000000      0.00000000      1.00000000</v>
    <i type="logical" name="LSPIRAL"> F  </i>
    <v name="QSPIRAL">      0.00000000      0.00000000      0.00000000</v>
    <i type="logical" name="LZEROZ"> F  </i>
   </separator>
   <separator name="electronic exchange-correlation" >
    <i type="logical" name="LASPH"> F  </i>
    <i type="logical" name="LMETAGGA"> F  </i>
   </separator>
   <separator name="electronic convergence" >
    <i type="int" name="NELM">    60</i>
    <i type="int" name="NELMDL">    -5</i>
    <i type="int" name="NELMIN">     2</i>
    <i name="ENINI">    400.00000000</i>
    <separator name="electronic convergence detail" >
     <i type="logical" name="LDIAG"> T  </i>
     <i type="logical" name="LSUBROT"> F  </i>
     <i name="WEIMIN">      0.00100000</i>
     <i name="EBREAK">      0.00000010</i>
     <i name="DEPER">      0.30000000</i>
     <i type="int" name="NRMM">     4</i>
     <i name="TIME">      0.40000000</i>
    </separator>
   </separator>
   <separator name="electronic mixer" >
    <i name="AMIX">      0.40000000</i>
    <i name="BMIX">      1.00000000</i>
    <i name="AMIN">      0.10000000</i>
    <i name="AMIX_MAG">      1.60000000</i>
    <i name="BMIX_MAG">      1.00000000</i>
    <separator name="electronic mixer details" >
     <i type="int" name="IMIX">     4</i>
     <i type="logical" name="MIXFIRST"> F  </i>
     <i type="int" name="MAXMIX">   -45</i>
     <i name="WC">    100.00000000</i>
     <i type="int" name="INIMIX">     1</i>
     <i type="int" name="MIXPRE">     1</i>
     <i type="int" name="MREMOVE">     5</i>
    </separator>
   </separator>
   <separator name="electronic dipolcorrection" >
    <i type="logical" name="LDIPOL"> F  </i>
    <i type="logical" name="LMONO"> F  </i>
    <i type="int" name="IDIPOL">     3</i>
    <i name="EPSILON">      1.00000000</i>
    <v name="DIPOL">   -100.00000000   -100.00000000   -100.00000000</v>
    <i name="EFIELD">      0.00000000</i>
   </separator>
  </separator>
  <separator name="grids" >
   <i type="int" name="NGX">    40</i>
   <i type="int" name="NGY">    40</i>
   <i type="int" name="NGZ">   150</i>
   <i type="int" name="NGXF">    80</i>
   <i type="int" name="NGYF">    80</i>
   <i type="int" name="NGZF">   300</i>
   <i type="logical" name="ADDGRID"> F  </i>
  </separator>
  <separator name="ionic" >
   <i type="int" name="NSW">   800</i>
   <i type="int" name="IBRION">     2</i>
   <i type="int" name="MDALGO">     0</i>
   <i type="int" name="ISIF">     2</i>
   <i name="PSTRESS">      0.00000000</i>
   <i name="EDIFFG">     -0.03000000</i>
   <i type="int" name="NFREE">     1</i>
   <i name="POTIM">      0.50000000</i>
   <i name="SMASS">     -3.00000000</i>
   <i name="SCALEE">      1.00000000</i>
  </separator>
  <separator name="ionic md" >
   <i name="TEBEG">      0.00010000</i>
   <i name="TEEND">      0.00010000</i>
   <i type="int" name="NBLOCK">     1</i>
   <i type="int" name="KBLOCK">   800</i>
   <i type="int" name="NPACO">   256</i>
   <i name="APACO">     10.00000000</i>
  </separator>
  <separator name="symmetry" >
   <i type="int" name="ISYM">     1</i>
   <i name="SYMPREC">      0.00001000</i>
  </separator>
  <separator name="dos" >
   <i type="int" name="LORBIT">     0</i>
   <v name="RWIGS">     -1.00000000</v>
   <i type="int" name="NEDOS">   301</i>
   <i name="EMIN">     10.00000000</i>
   <i name="EMAX">    -10.00000000</i>
   <i name="EFERMI">      0.00000000</i>
  </separator>
  <separator name="writing" >
   <i type="int" name="NWRITE">     2</i>
   <i type="logical" name="LWAVE"> F  </i>
   <i type="logical" name="LDOWNSAMPLE"> F  </i>
   <i type="logical" name="LCHARG"> F  </i>
   <i type="logical" name="LPARD"> F  </i>
   <i type="logical" name="LVTOT"> F  </i>
   <i type="logical" name="LVHAR"> F  </i>
   <i type="logical" name="LELF"> F  </i>
   <i type="logical" name="LOPTICS"> F  </i>
   <v name="STM">      0.00000000      0.00000000      0.00000000      0.00000000      0.00000000      0.00000000      0.00000000</v>
  </separator>
  <separator name="performance" >
   <i type="int" name="NPAR">     4</i>
   <i type="int" name="NSIM">     4</i>
   <i type="int" name="NBLK">    -1</i>
   <i type="logical" name="LPLANE"> T  </i>
   <i type="logical" name="LSCALAPACK"> T  </i>
   <i type="logical" name="LSCAAWARE"> F  </i>
   <i type="logical" name="LSCALU"> F  </i>
   <i type="logical" name="LASYNC"> F  </i>
   <i type="logical" name="LORBITALREAL"> F  </i>
  </separator>
  <separator name="miscellaneous" >
   <i type="int" name="IDIOT">     3</i>
   <i type="int" name="PHON_NSTRUCT">    -1</i>
   <i type="logical" name="LMUSIC"> F  </i>
   <v name="POMASS">     63.54600000</v>
   <v name="DARWINR">      0.00000000</v>
   <v name="DARWINV">      1.00000000</v>
   <i type="logical" name="LCORR"> T  </i>
  </separator>
  <i type="logical" name="GGA_COMPAT"> T  </i>
  <i type="logical" name="LBERRY"> F  </i>
  <i type="int" name="ICORELEVEL">     0</i>
  <i type="logical" name="LDAU"> F  </i>
  <i type="int" name="I_CONSTRAINED_M">     0</i>
  <separator name="electronic exchange-correlation" >
   <i type="string" name="GGA">PE</i>
   <i type="int" name="VOSKOWN">     0</i>
   <i type="logical" name="LHFCALC"> F  </i>
   <i type="string" name="PRECFOCK"></i>
   <i type="logical" name="LSYMGRAD"> F  </i>
   <i type="logical" name="LHFONE"> F  </i>
   <i type="logical" name="LRHFCALC"> F  </i>
   <i type="logical" name="LTHOMAS"> F  </i>
   <i type="logical" name="LMODELHF"> F  </i>
   <i type="logical" name="LFOCKACE"> F  </i>
   <i name="ENCUT4O">     -1.00000000</i>
   <i type="int" name="EXXOEP">     0</i>
   <i type="int" name="FOURORBIT">     0</i>
   <i name="AEXX">      0.00000000</i>
   <i name="HFALPHA">      0.00000000</i>
   <i name="MCALPHA">      0.00000000</i>
   <i name="ALDAX">      1.00000000</i>
   <i name="AGGAX">      1.00000000</i>
   <i name="ALDAC">      1.00000000</i>
   <i name="AGGAC">      1.00000000</i>
   <i type="int" name="NKREDX">     1</i>
   <i type="int" name="NKREDY">     1</i>
   <i type="int" name="NKREDZ">     1</i>
   <i type="logical" name="SHIFTRED"> F  </i>
   <i type="logical" name="ODDONLY"> F  </i>
   <i type="logical" name="EVENONLY"> F  </i>
   <i type="int" name="LMAXFOCK">     0</i>
   <i type="int" name="NMAXFOCKAE">     0</i>
   <i type="logical" name="LFOCKAEDFT"> F  </i>
   <i name="HFSCREEN">      0.00000000</i>
   <i name="HFSCREENC">      0.00000000</i>
   <i type="int" name="NBANDSGWLOW">     0</i>
  </separator>
  <separator name="vdW DFT" >
   <i type="logical" name="LUSE_VDW"> F  </i>
   <i name="Zab_VDW">     -0.84910000</i>
   <i name="PARAM1">      0.12340000</i>
   <i name="PARAM2">      1.00000000</i>
   <i name="PARAM3">      0.00000000</i>
  </separator>
  <separator name="model GW" >
   <i type="int" name="MODEL_GW">     0</i>
   <i name="MODEL_EPS0">     12.69695653</i>
   <i name="MODEL_ALPHA">      1.00000000</i>
  </separator>
  <separator name="linear response parameters" >
   <i type="logical" name="LEPSILON"> F  </i>
   <i type="logical" name="LRPA"> F  </i>
   <i type="logical" name="LNABLA"> F  </i>
   <i type="logical" name="LVEL"> F  </i>
   <i name="CSHIFT">      0.10000000</i>
   <i name="OMEGAMAX">     -1.00000000</i>
   <i name="DEG_THRESHOLD">      0.00200000</i>
   <i name="RTIME">     -0.10000000</i>
   <i name="WPLASMAI">      0.00000000</i>
   <v name="DFIELD">      0.00000000      0.00000000      0.00000000</v>
   <v name="WPLASMA">      0.00000000      0.00000000      0.00000000      0.00000000      0.00000000      0.00000000      0.00000000      0.00000000      0.00000000</v>
  </separator>
  <separator name="orbital magnetization" >
   <i type="logical" name="NUCIND"> F  </i>
   <v name="MAGPOS">      0.00000000      0.00000000      0.00000000</v>
   <i type="logical" name="LNICSALL"> T  </i>
   <i type="logical" name="ORBITALMAG"> F  </i>
   <i type="logical" name="LMAGBLOCH"> F  </i>
   <i type="logical" name="LCHIMAG"> F  </i>
   <i type="logical" name="LGAUGE"> T  </i>
   <i type="int" name="MAGATOM">     0</i>
   <v name="MAGDIPOL">      0.00000000      0.00000000      0.00000000</v>
   <v name="AVECCONST">      0.00000000      0.00000000      0.00000000</v>
  </separator>
  <separator name="response functions" >
   <i type="logical" name="LFINITE_TEMPERATURE"> F  </i>
   <i type="logical" name="LADDER"> F  </i>
   <i type="logical" name="LRPAFORCE"> F  </i>
   <i type="logical" name="LFXC"> F  </i>
   <i type="logical" name="LHARTREE"> T  </i>
   <i type="int" name="IBSE">     0</i>
   <v type="int" name="KPOINT">    -1     0     0     0</v>
   <i type="logical" name="LTCTC"> F  </i>
   <i type="logical" name="LTCTE"> F  </i>
   <i type="logical" name="LTETE"> F  </i>
   <i type="logical" name="LTRIPLET"> F  </i>
   <i type="logical" name="LFXCEPS"> F  </i>
   <i type="logical" name="LFXHEG"> F  </i>
   <i type="int" name="NATURALO">     2</i>
   <i type="logical" name="LHOLEGF"> F  </i>
   <i type="logical" name="L2ORDER"> F  </i>
   <i type="logical" name="LDMP1"> F  </i>
   <i type="logical" name="LMP2LT"> F  </i>
   <i type="logical" name="LSMP2LT"> F  </i>
   <i type="logical" name="LGWLF"> F  </i>
   <i name="ENCUTGW">     -2.00000000</i>
   <i name="ENCUTGWSOFT">     -2.00000000</i>
   <i name="ENCUTLF">     -1.00000000</i>
   <i type="logical" name="LESF_SPLINES"> F  </i>
   <i type="int" name="LMAXMP2">    -1</i>
   <i name="SCISSOR">      0.00000000</i>
   <i type="int" name="NOMEGA">     0</i>
   <i type="int" name="NOMEGAR">     0</i>
   <i type="int" name="NBANDSGW">    -1</i>
   <i type="int" name="NBANDSO">    -1</i>
   <i type="int" name="NBANDSV">    -1</i>
   <i type="int" name="NELMGW">     1</i>
   <i type="int" name="NELMHF">     1</i>
   <i type="int" name="DIM">     3</i>
   <i type="int" name="IESPILON">     4</i>
   <i type="int" name="ANTIRES">     0</i>
   <i name="OMEGAMAX">    -30.00000000</i>
   <i name="OMEGAMIN">    -30.00000000</i>
   <i name="OMEGATL">   -200.00000000</i>
   <i type="int" name="OMEGAGRID">     0</i>
   <i name="CSHIFT">     -0.10000000</i>
   <i type="logical" name="LSELFENERGY"> F  </i>
   <i type="logical" name="LSPECTRAL"> F  </i>
   <i type="logical" name="LSPECTRALGW"> F  </i>
   <i type="logical" name="LSINGLES"> F  </i>
   <i type="logical" name="LFERMIGW"> F  </i>
   <i type="logical" name="ODDONLYGW"> F  </i>
   <i type="logical" name="EVENONLYGW"> F  </i>
   <i type="int" name="NKREDLFX">     1</i>
   <i type="int" name="NKREDLFY">     1</i>
   <i type="int" name="NKREDLFZ">     1</i>
   <i type="int" name="MAXMEM">  2800</i>
   <i type="int" name="TELESCOPE">     0</i>
   <i type="int" name="NTAUPAR">    -1</i>
   <i type="int" name="NOMEGAPAR">    -1</i>
   <i name="DAMP_NEWTON">      0.80000001</i>
   <i name="LAMBDA">      1.00000000</i>
  </separator>
  <separator name="External order field" >
   <i name="OFIELD_KAPPA">      0.00000000</i>
   <v name="OFIELD_K">      0.00000000      0.00000000      0.00000000</v>
   <i name="OFIELD_Q6_NEAR">      0.00000000</i>
   <i name="OFIELD_Q6_FAR">      0.00000000</i>
   <i name="OFIELD_A">      0.00000000</i>
  </separator>
  <separator name="optional k-points parameters" >
   <i type="int" name="KPOINTS_OPT_MODE">     1</i>
   <i type="logical" name="LKPOINTS_OPT"> F  </i>
  </separator>
 </parameters>
 <atominfo>
  <atoms>      72 </atoms>
  <types>       1 </types>
  <array name="atoms" >
   <dimension dim="1">ion</dimension>
   <field type="string">element</field>
   <field type="int">atomtype</field>
   <set>
    <rc><c>Cu</c><c>   1</c></rc>
    <rc><c>Cu</c><c>   1</c></rc>
    <rc><c>Cu</c><c>   1</c></rc>
    <rc><c>Cu</c><c>   1</c></rc>
    <rc><c>Cu</c><c>   1</c></rc>
    <rc><c>Cu</c><c>   1</c></rc>
    <rc><c>Cu</c><c>   1</c></rc>
    <rc><c>Cu</c><c>   1</c></rc>
    <rc><c>Cu</c><c>   1</c></rc>
    <rc><c>Cu</c><c>   1</c></rc>
    <rc><c>Cu</c><c>   1</c></rc>
    <rc><c>Cu</c><c>   1</c></rc>
    <rc><c>Cu</c><c>   1</c></rc>
    <rc><c>Cu</c><c>   1</c></rc>
    <rc><c>Cu</c><c>   1</c></rc>
    <rc><c>Cu</c><c>   1</c></rc>
    <rc><c>Cu</c><c>   1</c></rc>
    <rc><c>Cu</c><c>   1</c></rc>
    <rc><c>Cu</c><c>   1</c></rc>
    <rc><c>Cu</c><c>   1</c></rc>
    <rc><c>Cu</c><c>   1</c></rc>
    <rc><c>Cu</c><c>   1</c></rc>
    <rc><c>Cu</c><c>   1</c></rc>
    <rc><c>Cu</c><c>   1</c></rc>
    <rc><c>Cu</c><c>   1</c></rc>
    <rc><c>Cu</c><c>   1</c></rc>
    <rc><c>Cu</c><c>   1</c></rc>
    <rc><c>Cu</c><c>   1</c></rc>
    <rc><c>Cu</c><c>   1</c></rc>
    <rc><c>Cu</c><c>   1</c></rc>
    <rc><c>Cu</c><c>   1</c></rc>
    <rc><c>Cu</c><c>   1</c></rc>
    <rc><c>Cu</c><c>   1</c></rc>
    <rc><c>Cu</c><c>   1</c></rc>
    <rc><c>Cu</c><c>   1</c></rc>
    <rc><c>Cu</c><c>   1</c></rc>
    <rc><c>Cu</c><c>   1</c></rc>
    <rc><c>Cu</c><c>   1</c></rc>
    <rc><c>Cu</c><c>   1</c></rc>
    <rc><c>Cu</c><c>   1</c></rc>
    <rc><c>Cu</c><c>   1</c></rc>
    <rc><c>Cu</c><c>   1</c></rc>
    <rc><c>Cu</c><c>   1</c></rc>
    <rc><c>Cu</c><c>   1</c></rc>
    <rc><c>Cu</c><c>   1</c></rc>
    <rc><c>Cu</c><c>   1</c></rc>
    <rc><c>Cu</c><c>   1</c></rc>
    <rc><c>Cu</c><c>   1</c></rc>
    <rc><c>Cu</c><c>   1</c></rc>
    <rc><c>Cu</c><c>   1</c></rc>
    <rc><c>Cu</c><c>   1</c></rc>
    <rc><c>Cu</c><c>   1</c></rc>
    <rc><c>Cu</c><c>   1</c></rc>
    <rc><c>Cu</c><c>   1</c></rc>
    <rc><c>Cu</c><c>   1</c></rc>
    <rc><c>Cu</c><c>   1</c></rc>
    <rc><c>Cu</c><c>   1</c></rc>
    <rc><c>Cu</c><c>   1</c></rc>
    <rc><c>Cu</c><c>   1</c></rc>
    <rc><c>Cu</c><c>   1</c></rc>
    <rc><c>Cu</c><c>   1</c></rc>
    <rc><c>Cu</c><c>   1</c></rc>
    <rc><c>Cu</c><c>   1</c></rc>
    <rc><c>Cu</c><c>   1</c></rc>
    <rc><c>Cu</c><c>   1</c></rc>
    <rc><c>Cu</c><c>   1</c></rc>
    <rc><c>Cu</c><c>   1</c></rc>
    <rc><c>Cu</c><c>   1</c></rc>
    <rc><c>Cu</c><c>   1</c></rc>
    <rc><c>Cu</c><c>   1</c></rc>
    <rc><c>Cu</c><c>   1</c></rc>
    <rc><c>Cu</c><c>   1</c></rc>
   </set>
  </array>
  <array name="atomtypes" >
   <dimension dim="1">type</dimension>
   <field type="int">atomspertype</field>
   <field type="string">element</field>
   <field>mass</field>
   <field>valence</field>
   <field type="string">pseudopotential</field>
   <set>
    <rc><c>  72</c><c>Cu</c><c>     63.54600000</c><c>     11.00000000</c><c>  PAW_PBE Cu 22Jun2005                  </c></rc>
   </set>
  </array>
 </atominfo>
 <structure name="initialpos" >
  <crystal>
   <varray name="basis" >
    <v>       7.70039320       0.00000000       0.00000000 </v>
    <v>       3.85019660       6.66873613       0.00000000 </v>
    <v>       0.00000000       0.00000000      29.67047119 </v>
   </varray>
   <i name="volume">   1523.63478324 </i>
   <varray name="rec_basis" >
    <v>       0.12986350      -0.07497673       0.00000000 </v>
    <v>       0.00000000       0.14995345       0.00000000 </v>
    <v>       0.00000000       0.00000000       0.03370354 </v>
   </varray>
  </crystal>
  <varray name="positions" >
   <v>       0.00000000       0.00000000       0.00000000 </v>
   <v>       0.00000000       0.33333333       0.00000000 </v>
   <v>       1.00000000       0.66666667       0.00000000 </v>
   <v>       0.33333333       0.00000000       0.00000000 </v>
   <v>       0.33333333       0.33333333       0.00000000 </v>
   <v>       0.33333333       0.66666667       0.00000000 </v>
   <v>       0.66666667       0.00000000       0.00000000 </v>
   <v>       0.66666667       0.33333333       0.00000000 </v>
   <v>       0.66666667       0.66666667       0.00000000 </v>
   <v>       0.11111111       0.11111111       0.07063526 </v>
   <v>       0.11111111       0.44444444       0.07063526 </v>
   <v>       0.11111111       0.77777778       0.07063526 </v>
   <v>       0.44444444       0.11111111       0.07063526 </v>
   <v>       0.44444444       0.44444444       0.07063526 </v>
   <v>       0.44444444       0.77777778       0.07063526 </v>
   <v>       0.77777778       0.11111111       0.07063526 </v>
   <v>       0.77777778       0.44444444       0.07063526 </v>
   <v>       0.77777778       0.77777778       0.07063526 </v>
   <v>       0.22222222       0.22222222       0.14127053 </v>
   <v>       0.22222222       0.55555556       0.14127053 </v>
   <v>       0.22222222       0.88888889       0.14127053 </v>
   <v>       0.55555556       0.22222222       0.14127053 </v>
   <v>       0.55555556       0.55555556       0.14127053 </v>
   <v>       0.55555556       0.88888889       0.14127053 </v>
   <v>       0.88888889       0.22222222       0.14127053 </v>
   <v>       0.88888889       0.55555556       0.14127053 </v>
   <v>       0.88888889       0.88888889       0.14127053 </v>
   <v>       0.00000000       0.00000000       0.21190579 </v>
   <v>       0.00000000       0.33333333       0.21190579 </v>
   <v>       1.00000000       0.66666667       0.21190579 </v>
   <v>       0.33333333       0.00000000       0.21190579 </v>
   <v>       0.33333333       0.33333333       0.21190579 </v>
   <v>       0.33333333       0.66666667       0.21190579 </v>
   <v>       0.66666667       0.00000000       0.21190579 </v>
   <v>       0.66666667       0.33333333       0.21190579 </v>
   <v>       0.66666667       0.66666667       0.21190579 </v>
   <v>       0.11111111       0.11111111       0.28254106 </v>
   <v>       0.11111111       0.44444444       0.28254106 </v>
   <v>       0.11111111       0.77777778       0.28254106 </v>
   <v>       0.44444444       0.11111111       0.28254106 </v>
   <v>       0.44444444       0.44444444       0.28254106 </v>
   <v>       0.44444444       0.77777778       0.28254106 </v>
   <v>       0.77777778       0.11111111       0.28254106 </v>
   <v>       0.77777778       0.44444444       0.28254106 </v>
   <v>       0.77777778       0.77777778       0.28254106 </v>
   <v>       0.22222222       0.22222222       0.35317632 </v>
   <v>       0.22222222       0.55555556       0.35317632 </v>
   <v>       0.22222222       0.88888889       0.35317632 </v>
   <v>       0.55555556       0.22222222       0.35317632 </v>
   <v>       0.55555556       0.55555556       0.35317632 </v>
   <v>       0.55555556       0.88888889       0.35317632 </v>
   <v>       0.88888889       0.22222222       0.35317632 </v>
   <v>       0.88888889       0.55555556       0.35317632 </v>
   <v>       0.88888889       0.88888889       0.35317632 </v>
   <v>       0.00000000       0.00000000       0.42381158 </v>
   <v>       0.00000000       0.33333333       0.42381158 </v>
   <v>       1.00000000       0.66666667       0.42381158 </v>
   <v>       0.33333333       0.00000000       0.42381158 </v>
   <v>       0.33333333       0.33333333       0.42381158 </v>
   <v>       0.33333333       0.66666667       0.42381158 </v>
   <v>       0.66666667       0.00000000       0.42381158 </v>
   <v>       0.66666667       0.33333333       0.42381158 </v>
   <v>       0.66666667       0.66666667       0.42381158 </v>
   <v>       0.11111111       0.11111111       0.49444685 </v>
   <v>       0.11111111       0.44444444       0.49444685 </v>
   <v>       0.11111111       0.77777778       0.49444685 </v>
   <v>       0.44444444       0.11111111       0.49444685 </v>
   <v>       0.44444444       0.44444444       0.49444685 </v>
   <v>       0.44444444       0.77777778       0.49444685 </v>
   <v>       0.77777778       0.11111111       0.49444685 </v>
   <v>       0.77777778       0.44444444       0.49444685 </v>
   <v>       0.77777778       0.77777778       0.49444685 </v>
  </varray>
  <varray name="selective"  type="logical" >
   <v type="logical" >  F  F  F </v>
   <v type="logical" >  F  F  F </v>
   <v type="logical" >  F  F  F </v>
   <v type="logical" >  F  F  F </v>
   <v type="logical" >  F  F  F </v>
   <v type="logical" >  F  F  F </v>
   <v type="logical" >  F  F  F </v>
   <v type="logical" >  F  F  F </v>
   <v type="logical" >  F  F  F </v>
   <v type="logical" >  F  F  F </v>
   <v type="logical" >  F  F  F </v>
   <v type="logical" >  F  F  F </v>
   <v type="logical" >  F  F  F </v>
   <v type="logical" >  F  F  F </v>
   <v type="logical" >  F  F  F </v>
   <v type="logical" >  F  F  F </v>
   <v type="logical" >  F  F  F </v>
   <v type="logical" >  F  F  F </v>
   <v type="logical" >  T  T  T </v>
   <v type="logical" >  T  T  T </v>
   <v type="logical" >  T  T  T </v>
   <v type="logical" >  T  T  T </v>
   <v type="logical" >  T  T  T </v>
   <v type="logical" >  T  T  T </v>
   <v type="logical" >  T  T  T </v>
   <v type="logical" >  T  T  T </v>
   <v type="logical" >  T  T  T </v>
   <v type="logical" >  T  T  T </v>
   <v type="logical" >  T  T  T </v>
   <v type="logical" >  T  T  T </v>
   <v type="logical" >  T  T  T </v>
   <v type="logical" >  T  T  T </v>
   <v type="logical" >  T  T  T </v>
   <v type="logical" >  T  T  T </v>
   <v type="logical" >  T  T  T </v>
   <v type="logical" >  T  T  T </v>
   <v type="logical" >  T  T  T </v>
   <v type="logical" >  T  T  T </v>
   <v type="logical" >  T  T  T </v>
   <v type="logical" >  T  T  T </v>
   <v type="logical" >  T  T  T </v>
   <v type="logical" >  T  T  T </v>
   <v type="logical" >  T  T  T </v>
   <v type="logical" >  T  T  T </v>
   <v type="logical" >  T  T  T </v>
   <v type="logical" >  T  T  T </v>
   <v type="logical" >  T  T  T </v>
   <v type="logical" >  T  T  T </v>
   <v type="logical" >  T  T  T </v>
   <v type="logical" >  T  T  T </v>
   <v type="logical" >  T  T  T </v>
   <v type="logical" >  T  T  T </v>
   <v type="logical" >  T  T  T </v>
   <v type="logical" >  T  T  T </v>
   <v type="logical" >  T  T  T </v>
   <v type="logical" >  T  T  T </v>
   <v type="logical" >  T  T  T </v>
   <v type="logical" >  T  T  T </v>
   <v type="logical" >  T  T  T </v>
   <v type="logical" >  T  T  T </v>
   <v type="logical" >  T  T  T </v>
   <v type="logical" >  T  T  T </v>
   <v type="logical" >  T  T  T </v>
   <v type="logical" >  T  T  T </v>
   <v type="logical" >  T  T  T </v>
   <v type="logical" >  T  T  T </v>
   <v type="logical" >  T  T  T </v>
   <v type="logical" >  T  T  T </v>
   <v type="logical" >  T  T  T </v>
   <v type="logical" >  T  T  T </v>
   <v type="logical" >  T  T  T </v>
   <v type="logical" >  T  T  T </v>
  </varray>
  <nose>
   <v>      -3.00000000       0.00000000       0.00010000       0.00010000 </v>
  </nose>
 </structure>
 <calculation>
  <scstep>
   <time name="dav">   42.47   42.78</time>
   <time name="total">   42.63   42.94</time>
   <energy>
    <i name="alphaZ">   2488.26331973 </i>
    <i name="ewald"> 448194.12847948 </i>
    <i name="hartreedc">-547206.29718098 </i>
    <i name="XCdc">   3293.50267625 </i>
    <i name="pawpsdc">  88423.01971552 </i>
    <i name="pawaedc"> -96042.30706980 </i>
    <i name="eentropy">     -0.00141887 </i>
    <i name="bandstr">   8495.02582957 </i>
    <i name="atom"> 100148.95009438 </i>
    <i name="e_fr_energy">   7794.28444528 </i>
    <i name="e_wo_entrp">   7794.28586415 </i>
    <i name="e_0_energy">   7794.28491824 </i>
   </energy>
  </scstep>
  <scstep>
   <time name="dav">   42.43   42.74</time>
   <time name="total">   42.43   42.75</time>
   <energy>
    <i name="e_fr_energy">   1136.15372884 </i>
    <i name="e_wo_entrp">   1136.14927788 </i>
    <i name="e_0_energy">   1136.15224519 </i>
   </energy>
  </scstep>
  <scstep>
   <time name="dav">   42.28   42.58</time>
   <time name="total">   42.28   42.59</time>
   <energy>
    <i name="e_fr_energy">   -196.29822793 </i>
    <i name="e_wo_entrp">   -196.33897521 </i>
    <i name="e_0_energy">   -196.31181036 </i>
   </energy>
  </scstep>
  <scstep>
   <time name="dav">   45.26   46.01</time>
   <time name="total">   45.27   46.02</time>
   <energy>
    <i name="e_fr_energy">   -307.35381221 </i>
    <i name="e_wo_entrp">   -307.41801521 </i>
    <i name="e_0_energy">   -307.37521321 </i>
   </energy>
  </scstep>
  <scstep>
   <time name="dav">   45.73   46.14</time>
   <time name="total">   47.23   47.65</time>
   <energy>
    <i name="e_fr_energy">   -310.22991174 </i>
    <i name="e_wo_entrp">   -310.29566128 </i>
    <i name="e_0_energy">   -310.25182825 </i>
   </energy>
  </scstep>
  <scstep>
   <time name="dav">   45.89   46.48</time>
   <time name="total">   47.51   48.12</time>
   <energy>
    <i name="e_fr_energy">   -259.82405647 </i>
    <i name="e_wo_entrp">   -259.79556981 </i>
    <i name="e_0_energy">   -259.81456091 </i>
   </energy>
  </scstep>
  <scstep>
   <time name="dav">   48.81   49.47</time>
   <time name="total">   50.42   51.09</time>
   <energy>
    <i name="e_fr_energy">   -225.24035882 </i>
    <i name="e_wo_entrp">   -225.21194443 </i>
    <i name="e_0_energy">   -225.23088736 </i>
   </energy>
  </scstep>
  <scstep>
   <time name="dav">   51.75   52.07</time>
   <time name="total">   53.37   53.70</time>
   <energy>
    <i name="e_fr_energy">   -217.73670613 </i>
    <i name="e_wo_entrp">   -217.70607735 </i>
    <i name="e_0_energy">   -217.72649654 </i>
   </energy>
  </scstep>
  <scstep>
   <time name="dav">   47.34   47.67</time>
   <time name="total">   48.98   49.31</time>
   <energy>
    <i name="e_fr_energy">   -218.80379943 </i>
    <i name="e_wo_entrp">   -218.77338474 </i>
    <i name="e_0_energy">   -218.79366120 </i>
   </energy>
  </scstep>
  <scstep>
   <time name="dav">   54.17   54.53</time>
   <time name="total">   55.83   56.21</time>
   <energy>
    <i name="e_fr_energy">   -219.79254587 </i>
    <i name="e_wo_entrp">   -219.71096366 </i>
    <i name="e_0_energy">   -219.76535180 </i>
   </energy>
  </scstep>
  <scstep>
   <time name="dav">   63.73   64.16</time>
   <time name="total">   65.39   65.83</time>
   <energy>
    <i name="e_fr_energy">   -228.43837018 </i>
    <i name="e_wo_entrp">   -228.47839067 </i>
    <i name="e_0_energy">   -228.45171034 </i>
   </energy>
  </scstep>
  <scstep>
   <time name="dav">   65.38   65.82</time>
   <time name="total">   67.03   67.48</time>
   <energy>
    <i name="e_fr_energy">   -223.21882005 </i>
    <i name="e_wo_entrp">   -223.16253991 </i>
    <i name="e_0_energy">   -223.20006000 </i>
   </energy>
  </scstep>
  <scstep>
   <time name="dav">   62.97   63.38</time>
   <time name="total">   64.63   65.05</time>
   <energy>
    <i name="e_fr_energy">   -221.98630289 </i>
    <i name="e_wo_entrp">   -221.95355018 </i>
    <i name="e_0_energy">   -221.97538532 </i>
   </energy>
  </scstep>
  <scstep>
   <time name="dav">   58.49   58.89</time>
   <time name="total">   60.17   60.58</time>
   <energy>
    <i name="e_fr_energy">   -232.19697527 </i>
    <i name="e_wo_entrp">   -232.24210009 </i>
    <i name="e_0_energy">   -232.21201688 </i>
   </energy>
  </scstep>
  <scstep>
   <time name="dav">   54.95   55.33</time>
   <time name="total">   56.63   57.02</time>
   <energy>
    <i name="e_fr_energy">   -243.84518995 </i>
    <i name="e_wo_entrp">   -243.84587098 </i>
    <i name="e_0_energy">   -243.84541696 </i>
   </energy>
  </scstep>
  <scstep>
   <time name="dav">   46.68   46.97</time>
   <time name="total">   48.32   48.63</time>
   <energy>
    <i name="e_fr_energy">   -246.21823912 </i>
    <i name="e_wo_entrp">   -246.21434462 </i>
    <i name="e_0_energy">   -246.21694095 </i>
   </energy>
  </scstep>
  <scstep>
   <time name="dav">   45.27   45.56</time>
   <time name="total">   46.92   47.22</time>
   <energy>
    <i name="e_fr_energy">   -248.51401309 </i>
    <i name="e_wo_entrp">   -248.51537071 </i>
    <i name="e_0_energy">   -248.51446563 </i>
   </energy>
  </scstep>
  <scstep>
   <time name="dav">   52.98   53.37</time>
   <time name="total">   54.64   55.03</time>
   <energy>
    <i name="e_fr_energy">   -251.61594670 </i>
    <i name="e_wo_entrp">   -251.61560118 </i>
    <i name="e_0_energy">   -251.61583153 </i>
   </energy>
  </scstep>
  <scstep>
   <time name="dav">   51.92   52.25</time>
   <time name="total">   53.55   53.89</time>
   <energy>
    <i name="e_fr_energy">   -252.77208012 </i>
    <i name="e_wo_entrp">   -252.76972019 </i>
    <i name="e_0_energy">   -252.77129348 </i>
   </energy>
  </scstep>
  <scstep>
   <time name="dav">   50.32   50.64</time>
   <time name="total">   51.97   52.29</time>
   <energy>
    <i name="e_fr_energy">   -254.47006660 </i>
    <i name="e_wo_entrp">   -254.47301142 </i>
    <i name="e_0_energy">   -254.47104820 </i>
   </energy>
  </scstep>
  <scstep>
   <time name="dav">   51.20   51.55</time>
   <time name="total">   52.85   53.21</time>
   <energy>
    <i name="e_fr_energy">   -255.33913891 </i>
    <i name="e_wo_entrp">   -255.34698121 </i>
    <i name="e_0_energy">   -255.34175301 </i>
   </energy>
  </scstep>
  <scstep>
   <time name="dav">   46.65   46.94</time>
   <time name="total">   48.27   48.57</time>
   <energy>
    <i name="e_fr_energy">   -256.86273632 </i>
    <i name="e_wo_entrp">   -256.86871706 </i>
    <i name="e_0_energy">   -256.86472990 </i>
   </energy>
  </scstep>
  <scstep>
   <time name="dav">   55.05   55.42</time>
   <time name="total">   56.71   57.09</time>
   <energy>
    <i name="e_fr_energy">   -259.96554383 </i>
    <i name="e_wo_entrp">   -259.96563589 </i>
    <i name="e_0_energy">   -259.96557451 </i>
   </energy>
  </scstep>
  <scstep>
   <time name="dav">   55.54   55.92</time>
   <time name="total">   57.19   57.58</time>
   <energy>
    <i name="e_fr_energy">   -260.50240482 </i>
    <i name="e_wo_entrp">   -260.50028323 </i>
    <i name="e_0_energy">   -260.50169763 </i>
   </energy>
  </scstep>
  <scstep>
   <time name="dav">   44.28   44.56</time>
   <time name="total">   45.94   46.23</time>
   <energy>
    <i name="e_fr_energy">   -260.55084549 </i>
    <i name="e_wo_entrp">   -260.54803723 </i>
    <i name="e_0_energy">   -260.54990940 </i>
   </energy>
  </scstep>
  <scstep>
   <time name="dav">   46.74   47.04</time>
   <time name="total">   48.41   48.71</time>
   <energy>
    <i name="e_fr_energy">   -260.57037884 </i>
    <i name="e_wo_entrp">   -260.56778804 </i>
    <i name="e_0_energy">   -260.56951524 </i>
   </energy>
  </scstep>
  <scstep>
   <time name="dav">   43.29   43.82</time>
   <time name="total">   44.96   45.49</time>
   <energy>
    <i name="e_fr_energy">   -260.57178468 </i>
    <i name="e_wo_entrp">   -260.56923750 </i>
    <i name="e_0_energy">   -260.57093562 </i>
   </energy>
  </scstep>
  <scstep>
   <time name="dav">   33.10   33.31</time>
   <time name="total">   34.75   34.97</time>
   <energy>
    <i name="e_fr_energy">   -260.57152345 </i>
    <i name="e_wo_entrp">   -260.56878925 </i>
    <i name="e_0_energy">   -260.57061205 </i>
   </energy>
  </scstep>
  <scstep>
   <time name="dav">   32.40   32.60</time>
   <time name="total">   34.03   34.24</time>
   <energy>
    <i name="e_fr_energy">   -260.57175062 </i>
    <i name="e_wo_entrp">   -260.56907859 </i>
    <i name="e_0_energy">   -260.57085994 </i>
   </energy>
  </scstep>
  <scstep>
   <time name="dav">   31.84   32.04</time>
   <time name="total">   32.00   32.20</time>
   <energy>
    <i name="alphaZ">   2488.26331973 </i>
    <i name="ewald"> 448194.12847948 </i>
    <i name="hartreedc">-545977.17488820 </i>
    <i name="XCdc">   3209.87567590 </i>
    <i name="pawpsdc">  94093.68383929 </i>
    <i name="pawaedc">-101846.54947808 </i>
    <i name="eentropy">     -0.00267580 </i>
    <i name="bandstr">   -571.74622396 </i>
    <i name="atom"> 100148.95009438 </i>
    <i name="e_fr_energy">   -260.57185726 </i>
    <i name="e_wo_entrp">   -260.56918146 </i>
    <i name="e_0_energy">   -260.57096532 </i>
   </energy>
  </scstep>
  <dipole>
   <v name="dipole">      0.00000000       0.00000000      -0.08884345 </v>
   <i name="Tr[quadrupol]">  -7671.88845512 </i>
   <i name="Echarged">      0.00000000 </i>
   <i name="Edipol_quadrupol">      0.00000000 </i>
   <i name="Eion">      0.00000000 </i>
  </dipole>
  <structure>
   <crystal>
    <varray name="basis" >
     <v>       7.70039320       0.00000000       0.00000000 </v>
     <v>       3.85019660       6.66873613       0.00000000 </v>
     <v>       0.00000000       0.00000000      29.67047119 </v>
    </varray>
    <i name="volume">   1523.63478324 </i>
    <varray name="rec_basis" >
     <v>       0.12986350      -0.07497673       0.00000000 </v>
     <v>       0.00000000       0.14995345       0.00000000 </v>
     <v>       0.00000000       0.00000000       0.03370354 </v>
    </varray>
   </crystal>
   <varray name="positions" >
    <v>       0.00000000       0.00000000       0.00000000 </v>
    <v>       0.00000000       0.33333333       0.00000000 </v>
    <v>       1.00000000       0.66666667       0.00000000 </v>
    <v>       0.33333333       0.00000000       0.00000000 </v>
    <v>       0.33333333       0.33333333       0.00000000 </v>
    <v>       0.33333333       0.66666667       0.00000000 </v>
    <v>       0.66666667       0.00000000       0.00000000 </v>
    <v>       0.66666667       0.33333333       0.00000000 </v>
    <v>       0.66666667       0.66666667       0.00000000 </v>
    <v>       0.11111111       0.11111111       0.07063526 </v>
    <v>       0.11111111       0.44444444       0.07063526 </v>
    <v>       0.11111111       0.77777778       0.07063526 </v>
    <v>       0.44444444       0.11111111       0.07063526 </v>
    <v>       0.44444444       0.44444444       0.07063526 </v>
    <v>       0.44444444       0.77777778       0.07063526 </v>
    <v>       0.77777778       0.11111111       0.07063526 </v>
    <v>       0.77777778       0.44444444       0.07063526 </v>
    <v>       0.77777778       0.77777778       0.07063526 </v>
    <v>       0.22222222       0.22222222       0.14127053 </v>
    <v>       0.22222222       0.55555556       0.14127053 </v>
    <v>       0.22222222       0.88888889       0.14127053 </v>
    <v>       0.55555556       0.22222222       0.14127053 </v>
    <v>       0.55555556       0.55555556       0.14127053 </v>
    <v>       0.55555556       0.88888889       0.14127053 </v>
    <v>       0.88888889       0.22222222       0.14127053 </v>
    <v>       0.88888889       0.55555556       0.14127053 </v>
    <v>       0.88888889       0.88888889       0.14127053 </v>
    <v>       0.00000000       0.00000000       0.21190579 </v>
    <v>       0.00000000       0.33333333       0.21190579 </v>
    <v>       1.00000000       0.66666667       0.21190579 </v>
    <v>       0.33333333       0.00000000       0.21190579 </v>
    <v>       0.33333333       0.33333333       0.21190579 </v>
    <v>       0.33333333       0.66666667       0.21190579 </v>
    <v>       0.66666667       0.00000000       0.21190579 </v>
    <v>       0.66666667       0.33333333       0.21190579 </v>
    <v>       0.66666667       0.66666667       0.21190579 </v>
    <v>       0.11111111       0.11111111       0.28254106 </v>
    <v>       0.11111111       0.44444444       0.28254106 </v>
    <v>       0.11111111       0.77777778       0.28254106 </v>
    <v>       0.44444444       0.11111111       0.28254106 </v>
    <v>       0.44444444       0.44444444       0.28254106 </v>
    <v>       0.44444444       0.77777778       0.28254106 </v>
    <v>       0.77777778       0.11111111       0.28254106 </v>
    <v>       0.77777778       0.44444444       0.28254106 </v>
    <v>       0.77777778       0.77777778       0.28254106 </v>
    <v>       0.22222222       0.22222222       0.35317632 </v>
    <v>       0.22222222       0.55555556       0.35317632 </v>
    <v>       0.22222222       0.88888889       0.35317632 </v>
    <v>       0.55555556       0.22222222       0.35317632 </v>
    <v>       0.55555556       0.55555556       0.35317632 </v>
    <v>       0.55555556       0.88888889       0.35317632 </v>
    <v>       0.88888889       0.22222222       0.35317632 </v>
    <v>       0.88888889       0.55555556       0.35317632 </v>
    <v>       0.88888889       0.88888889       0.35317632 </v>
    <v>       0.00000000       0.00000000       0.42381158 </v>
    <v>       0.00000000       0.33333333       0.42381158 </v>
    <v>       1.00000000       0.66666667       0.42381158 </v>
    <v>       0.33333333       0.00000000       0.42381158 </v>
    <v>       0.33333333       0.33333333       0.42381158 </v>
    <v>       0.33333333       0.66666667       0.42381158 </v>
    <v>       0.66666667       0.00000000       0.42381158 </v>
    <v>       0.66666667       0.33333333       0.42381158 </v>
    <v>       0.66666667       0.66666667       0.42381158 </v>
    <v>       0.11111111       0.11111111       0.49444685 </v>
    <v>       0.11111111       0.44444444       0.49444685 </v>
    <v>       0.11111111       0.77777778       0.49444685 </v>
    <v>       0.44444444       0.11111111       0.49444685 </v>
    <v>       0.44444444       0.44444444       0.49444685 </v>
    <v>       0.44444444       0.77777778       0.49444685 </v>
    <v>       0.77777778       0.11111111       0.49444685 </v>
    <v>       0.77777778       0.44444444       0.49444685 </v>
    <v>       0.77777778       0.77777778       0.49444685 </v>
   </varray>
  </structure>
  <varray name="forces" >
   <v>      -0.00000000      -0.00000000       0.21220604 </v>
   <v>      -0.00000000       0.00000000       0.21220604 </v>
   <v>       0.00000000      -0.00000000       0.21220604 </v>
   <v>      -0.00000000       0.00000000       0.21220604 </v>
   <v>       0.00000000       0.00000000       0.21220604 </v>
   <v>      -0.00000000      -0.00000000       0.21220604 </v>
   <v>      -0.00000000       0.00000000       0.21220604 </v>
   <v>       0.00000000       0.00000000       0.21220604 </v>
   <v>      -0.00000000      -0.00000000       0.21220604 </v>
   <v>      -0.00000000       0.00000000       0.00017798 </v>
   <v>      -0.00000000       0.00000000       0.00017798 </v>
   <v>      -0.00000000       0.00000000       0.00017798 </v>
   <v>      -0.00000000      -0.00000000       0.00017798 </v>
   <v>      -0.00000000       0.00000000       0.00017798 </v>
   <v>      -0.00000000       0.00000000       0.00017798 </v>
   <v>      -0.00000000       0.00000000       0.00017798 </v>
   <v>      -0.00000000       0.00000000       0.00017798 </v>
   <v>       0.00000000       0.00000000       0.00017798 </v>
   <v>       0.00000000      -0.00000000       0.02926626 </v>
   <v>       0.00000000       0.00000000       0.02926626 </v>
   <v>       0.00000000      -0.00000000       0.02926626 </v>
   <v>      -0.00000000       0.00000000       0.02926626 </v>
   <v>      -0.00000000      -0.00000000       0.02926626 </v>
   <v>      -0.00000000      -0.00000000       0.02926626 </v>
   <v>      -0.00000000      -0.00000000       0.02926626 </v>
   <v>      -0.00000000      -0.00000000       0.02926626 </v>
   <v>      -0.00000000      -0.00000000       0.02926626 </v>
   <v>       0.00000000      -0.00000000      -0.06133877 </v>
   <v>       0.00000000      -0.00000000      -0.06133877 </v>
   <v>       0.00000000      -0.00000000      -0.06133877 </v>
   <v>       0.00000000      -0.00000000      -0.06133877 </v>
   <v>      -0.00000000      -0.00000000      -0.06133877 </v>
   <v>      -0.00000000      -0.00000000      -0.06133877 </v>
   <v>       0.00000000      -0.00000000      -0.06133877 </v>
   <v>       0.00000000      -0.00000000      -0.06133877 </v>
   <v>       0.00000000      -0.00000000      -0.06133877 </v>
   <v>       0.00000000       0.00000000       0.06520162 </v>
   <v>      -0.00000000       0.00000000       0.06520162 </v>
   <v>      -0.00000000       0.00000000       0.06520162 </v>
   <v>       0.00000000       0.00000000       0.06520162 </v>
   <v>      -0.00000000       0.00000000       0.06520162 </v>
   <v>      -0.00000000       0.00000000       0.06520162 </v>
   <v>       0.00000000      -0.00000000       0.06520162 </v>
   <v>      -0.00000000       0.00000000       0.06520162 </v>
   <v>      -0.00000000       0.00000000       0.06520162 </v>
   <v>       0.00000000       0.00000000      -0.02897023 </v>
   <v>      -0.00000000       0.00000000      -0.02897023 </v>
   <v>      -0.00000000       0.00000000      -0.02897023 </v>
   <v>       0.00000000       0.00000000      -0.02897023 </v>
   <v>      -0.00000000       0.00000000      -0.02897023 </v>
   <v>      -0.00000000       0.00000000      -0.02897023 </v>
   <v>      -0.00000000      -0.00000000      -0.02897023 </v>
   <v>      -0.00000000       0.00000000      -0.02897023 </v>
   <v>      -0.00000000      -0.00000000      -0.02897023 </v>
   <v>       0.00000000      -0.00000000      -0.00344786 </v>
   <v>       0.00000000       0.00000000      -0.00344786 </v>
   <v>       0.00000000      -0.00000000      -0.00344786 </v>
   <v>       0.00000000      -0.00000000      -0.00344786 </v>
   <v>       0.00000000       0.00000000      -0.00344786 </v>
   <v>       0.00000000      -0.00000000      -0.00344786 </v>
   <v>      -0.00000000      -0.00000000      -0.00344786 </v>
   <v>       0.00000000      -0.00000000      -0.00344786 </v>
   <v>       0.00000000      -0.00000000      -0.00344786 </v>
   <v>       0.00000000      -0.00000000      -0.21309504 </v>
   <v>       0.00000000      -0.00000000      -0.21309504 </v>
   <v>       0.00000000      -0.00000000      -0.21309504 </v>
   <v>       0.00000000       0.00000000      -0.21309504 </v>
   <v>       0.00000000       0.00000000      -0.21309504 </v>
   <v>       0.00000000      -0.00000000      -0.21309504 </v>
   <v>      -0.00000000      -0.00000000      -0.21309504 </v>
   <v>      -0.00000000      -0.00000000      -0.21309504 </v>
   <v>       0.00000000      -0.00000000      -0.21309504 </v>
  </varray>
  <varray name="stress" >
   <v>     -53.35523683      -0.00000000      -0.00000000 </v>
   <v>      -0.00000000     -53.35523683       0.00000000 </v>
   <v>      -0.00000000       0.00000000     -35.54915682 </v>
  </varray>
  <energy>
   <i name="e_fr_energy">   -290.67518981 </i>
   <i name="e_wo_entrp">   -290.67251401 </i>
   <i name="e_0_energy">   -290.67429788 </i>
  </energy>
  <time name="totalsc"> 1598.28 1610.42</time>
 </calculation>
 <calculation>
  <scstep>
   <time name="dav">   45.40   45.71</time>
   <time name="total">   47.07   47.39</time>
   <energy>
    <i name="alphaZ">   2488.26331973 </i>
    <i name="ewald"> 448757.38888310 </i>
    <i name="hartreedc">-546534.36141340 </i>
    <i name="XCdc">   3209.98354168 </i>
    <i name="pawpsdc">  94093.44194427 </i>
    <i name="pawaedc">-101846.35703689 </i>
    <i name="eentropy">     -0.00412361 </i>
    <i name="bandstr">   -577.87381461 </i>
    <i name="atom"> 100148.95009438 </i>
    <i name="e_fr_energy">   -260.56860535 </i>
    <i name="e_wo_entrp">   -260.56448174 </i>
    <i name="e_0_energy">   -260.56723082 </i>
   </energy>
  </scstep>
  <scstep>
   <time name="dav">   62.57   63.14</time>
   <time name="total">   64.23   64.80</time>
   <energy>
    <i name="e_fr_energy">   -260.58031218 </i>
    <i name="e_wo_entrp">   -260.57541596 </i>
    <i name="e_0_energy">   -260.57868011 </i>
   </energy>
  </scstep>
  <scstep>
   <time name="dav">   48.64   48.96</time>
   <time name="total">   50.31   50.64</time>
   <energy>
    <i name="e_fr_energy">   -260.58007080 </i>
    <i name="e_wo_entrp">   -260.57618725 </i>
    <i name="e_0_energy">   -260.57877629 </i>
   </energy>
  </scstep>
  <scstep>
   <time name="dav">   44.62   44.91</time>
   <time name="total">   46.27   46.56</time>
   <energy>
    <i name="e_fr_energy">   -260.57956500 </i>
    <i name="e_wo_entrp">   -260.57572678 </i>
    <i name="e_0_energy">   -260.57828559 </i>
   </energy>
  </scstep>
  <scstep>
   <time name="dav">   47.07   47.79</time>
   <time name="total">   48.73   49.46</time>
   <energy>
    <i name="e_fr_energy">   -260.57967369 </i>
    <i name="e_wo_entrp">   -260.57524004 </i>
    <i name="e_0_energy">   -260.57819581 </i>
   </energy>
  </scstep>
  <scstep>
   <time name="dav">   42.95   43.24</time>
   <time name="total">   43.10   43.40</time>
   <energy>
    <i name="alphaZ">   2488.26331973 </i>
    <i name="ewald"> 448757.38888310 </i>
    <i name="hartreedc">-546532.11871670 </i>
    <i name="XCdc">   3209.95259929 </i>
    <i name="pawpsdc">  94106.30642455 </i>
    <i name="pawaedc">-101859.45792696 </i>
    <i name="eentropy">     -0.00388828 </i>
    <i name="bandstr">   -579.86038766 </i>
    <i name="atom"> 100148.95009438 </i>
    <i name="e_fr_energy">   -260.57959855 </i>
    <i name="e_wo_entrp">   -260.57571027 </i>
    <i name="e_0_energy">   -260.57830246 </i>
   </energy>
  </scstep>
  <dipole>
   <v name="dipole">      0.00000000       0.00000000      -0.04778203 </v>
   <i name="Tr[quadrupol]">  -7671.54645772 </i>
   <i name="Echarged">      0.00000000 </i>
   <i name="Edipol_quadrupol">      0.00000000 </i>
   <i name="Eion">      0.00000000 </i>
  </dipole>
  <structure>
   <crystal>
    <varray name="basis" >
     <v>       7.70039320       0.00000000       0.00000000 </v>
     <v>       3.85019660       6.66873613       0.00000000 </v>
     <v>       0.00000000       0.00000000      29.67047119 </v>
    </varray>
    <i name="volume">   1523.63478324 </i>
    <varray name="rec_basis" >
     <v>       0.12986350      -0.07497673       0.00000000 </v>
     <v>       0.00000000       0.14995345       0.00000000 </v>
     <v>       0.00000000       0.00000000       0.03370354 </v>
    </varray>
   </crystal>
   <varray name="positions" >
    <v>       0.00000000       0.00000000       0.00000000 </v>
    <v>       0.00000000       0.33333333       0.00000000 </v>
    <v>       1.00000000       0.66666667       0.00000000 </v>
    <v>       0.33333333       0.00000000       0.00000000 </v>
    <v>       0.33333333       0.33333333       0.00000000 </v>
    <v>       0.33333333       0.66666667       0.00000000 </v>
    <v>       0.66666667       0.00000000       0.00000000 </v>
    <v>       0.66666667       0.33333333       0.00000000 </v>
    <v>       0.66666667       0.66666667       0.00000000 </v>
    <v>       0.11111111       0.11111111       0.07063526 </v>
    <v>       0.11111111       0.44444444       0.07063526 </v>
    <v>       0.11111111       0.77777778       0.07063526 </v>
    <v>       0.44444444       0.11111111       0.07063526 </v>
    <v>       0.44444444       0.44444444       0.07063526 </v>
    <v>       0.44444444       0.77777778       0.07063526 </v>
    <v>       0.77777778       0.11111111       0.07063526 </v>
    <v>       0.77777778       0.44444444       0.07063526 </v>
    <v>       0.77777778       0.77777778       0.07063526 </v>
    <v>       0.22222222       0.22222222       0.14131811 </v>
    <v>       0.22222222       0.55555556       0.14131811 </v>
    <v>       0.22222222       0.88888889       0.14131811 </v>
    <v>       0.55555556       0.22222222       0.14131811 </v>
    <v>       0.55555556       0.55555556       0.14131811 </v>
    <v>       0.55555556       0.88888889       0.14131811 </v>
    <v>       0.88888889       0.22222222       0.14131811 </v>
    <v>       0.88888889       0.55555556       0.14131811 </v>
    <v>       0.88888889       0.88888889       0.14131811 </v>
    <v>       0.00000000      -0.00000000       0.21180606 </v>
    <v>       0.00000000       0.33333333       0.21180606 </v>
    <v>       1.00000000       0.66666667       0.21180606 </v>
    <v>       0.33333333      -0.00000000       0.21180606 </v>
    <v>       0.33333333       0.33333333       0.21180606 </v>
    <v>       0.33333333       0.66666667       0.21180606 </v>
    <v>       0.66666667      -0.00000000       0.21180606 </v>
    <v>       0.66666667       0.33333333       0.21180606 </v>
    <v>       0.66666667       0.66666667       0.21180606 </v>
    <v>       0.11111111       0.11111111       0.28264707 </v>
    <v>       0.11111111       0.44444444       0.28264707 </v>
    <v>       0.11111111       0.77777778       0.28264707 </v>
    <v>       0.44444444       0.11111111       0.28264707 </v>
    <v>       0.44444444       0.44444444       0.28264707 </v>
    <v>       0.44444444       0.77777778       0.28264707 </v>
    <v>       0.77777778       0.11111111       0.28264707 </v>
    <v>       0.77777778       0.44444444       0.28264707 </v>
    <v>       0.77777778       0.77777778       0.28264707 </v>
    <v>       0.22222222       0.22222222       0.35312922 </v>
    <v>       0.22222222       0.55555556       0.35312922 </v>
    <v>       0.22222222       0.88888889       0.35312922 </v>
    <v>       0.55555556       0.22222222       0.35312922 </v>
    <v>       0.55555556       0.55555556       0.35312922 </v>
    <v>       0.55555556       0.88888889       0.35312922 </v>
    <v>       0.88888889       0.22222222       0.35312922 </v>
    <v>       0.88888889       0.55555556       0.35312922 </v>
    <v>       0.88888889       0.88888889       0.35312922 </v>
    <v>       0.00000000      -0.00000000       0.42380598 </v>
    <v>       0.00000000       0.33333333       0.42380598 </v>
    <v>       1.00000000       0.66666667       0.42380598 </v>
    <v>       0.33333333      -0.00000000       0.42380598 </v>
    <v>       0.33333333       0.33333333       0.42380598 </v>
    <v>       0.33333333       0.66666667       0.42380598 </v>
    <v>       0.66666667      -0.00000000       0.42380598 </v>
    <v>       0.66666667       0.33333333       0.42380598 </v>
    <v>       0.66666667       0.66666667       0.42380598 </v>
    <v>       0.11111111       0.11111111       0.49410037 </v>
    <v>       0.11111111       0.44444444       0.49410037 </v>
    <v>       0.11111111       0.77777778       0.49410037 </v>
    <v>       0.44444444       0.11111111       0.49410037 </v>
    <v>       0.44444444       0.44444444       0.49410037 </v>
    <v>       0.44444444       0.77777778       0.49410037 </v>
    <v>       0.77777778       0.11111111       0.49410037 </v>
    <v>       0.77777778       0.44444444       0.49410037 </v>
    <v>       0.77777778       0.77777778       0.49410037 </v>
   </varray>
  </structure>
  <varray name="forces" >
   <v>      -0.00000000       0.00000000       0.20638440 </v>
   <v>      -0.00000000       0.00000000       0.20638440 </v>
   <v>      -0.00000000       0.00000000       0.20638440 </v>
   <v>       0.00000000       0.00000000       0.20638440 </v>
   <v>       0.00000000       0.00000000       0.20638440 </v>
   <v>      -0.00000000       0.00000000       0.20638440 </v>
   <v>      -0.00000000       0.00000000       0.20638440 </v>
   <v>       0.00000000       0.00000000       0.20638440 </v>
   <v>      -0.00000000       0.00000000       0.20638440 </v>
   <v>      -0.00000000       0.00000000       0.00130362 </v>
   <v>      -0.00000000       0.00000000       0.00130362 </v>
   <v>      -0.00000000       0.00000000       0.00130362 </v>
   <v>      -0.00000000       0.00000000       0.00130362 </v>
   <v>      -0.00000000      -0.00000000       0.00130362 </v>
   <v>       0.00000000       0.00000000       0.00130362 </v>
   <v>      -0.00000000      -0.00000000       0.00130362 </v>
   <v>      -0.00000000       0.00000000       0.00130362 </v>
   <v>      -0.00000000       0.00000000       0.00130362 </v>
   <v>      -0.00000000      -0.00000000       0.00446234 </v>
   <v>      -0.00000000      -0.00000000       0.00446234 </v>
   <v>       0.00000000      -0.00000000       0.00446234 </v>
   <v>      -0.00000000       0.00000000       0.00446234 </v>
   <v>       0.00000000      -0.00000000       0.00446234 </v>
   <v>       0.00000000      -0.00000000       0.00446234 </v>
   <v>      -0.00000000      -0.00000000       0.00446234 </v>
   <v>      -0.00000000      -0.00000000       0.00446234 </v>
   <v>       0.00000000      -0.00000000       0.00446234 </v>
   <v>      -0.00000000       0.00000000      -0.01949157 </v>
   <v>       0.00000000       0.00000000      -0.01949157 </v>
   <v>       0.00000000       0.00000000      -0.01949157 </v>
   <v>       0.00000000       0.00000000      -0.01949157 </v>
   <v>       0.00000000      -0.00000000      -0.01949157 </v>
   <v>       0.00000000      -0.00000000      -0.01949157 </v>
   <v>      -0.00000000       0.00000000      -0.01949157 </v>
   <v>       0.00000000      -0.00000000      -0.01949157 </v>
   <v>      -0.00000000       0.00000000      -0.01949157 </v>
   <v>      -0.00000000       0.00000000       0.02444213 </v>
   <v>      -0.00000000       0.00000000       0.02444213 </v>
   <v>       0.00000000       0.00000000       0.02444213 </v>
   <v>      -0.00000000      -0.00000000       0.02444213 </v>
   <v>      -0.00000000       0.00000000       0.02444213 </v>
   <v>      -0.00000000      -0.00000000       0.02444213 </v>
   <v>      -0.00000000      -0.00000000       0.02444213 </v>
   <v>      -0.00000000       0.00000000       0.02444213 </v>
   <v>      -0.00000000      -0.00000000       0.02444213 </v>
   <v>       0.00000000      -0.00000000      -0.00537645 </v>
   <v>       0.00000000      -0.00000000      -0.00537645 </v>
   <v>       0.00000000      -0.00000000      -0.00537645 </v>
   <v>       0.00000000       0.00000000      -0.00537645 </v>
   <v>       0.00000000      -0.00000000      -0.00537645 </v>
   <v>       0.00000000       0.00000000      -0.00537645 </v>
   <v>       0.00000000      -0.00000000      -0.00537645 </v>
   <v>      -0.00000000       0.00000000      -0.00537645 </v>
   <v>       0.00000000       0.00000000      -0.00537645 </v>
   <v>       0.00000000      -0.00000000      -0.04360470 </v>
   <v>       0.00000000      -0.00000000      -0.04360470 </v>
   <v>       0.00000000      -0.00000000      -0.04360470 </v>
   <v>       0.00000000      -0.00000000      -0.04360470 </v>
   <v>       0.00000000      -0.00000000      -0.04360470 </v>
   <v>       0.00000000       0.00000000      -0.04360470 </v>
   <v>       0.00000000      -0.00000000      -0.04360470 </v>
   <v>       0.00000000      -0.00000000      -0.04360470 </v>
   <v>      -0.00000000      -0.00000000      -0.04360470 </v>
   <v>       0.00000000      -0.00000000      -0.16811976 </v>
   <v>       0.00000000      -0.00000000      -0.16811976 </v>
   <v>       0.00000000      -0.00000000      -0.16811976 </v>
   <v>      -0.00000000      -0.00000000      -0.16811976 </v>
   <v>      -0.00000000      -0.00000000      -0.16811976 </v>
   <v>       0.00000000      -0.00000000      -0.16811976 </v>
   <v>      -0.00000000      -0.00000000      -0.16811976 </v>
   <v>      -0.00000000      -0.00000000      -0.16811976 </v>
   <v>      -0.00000000      -0.00000000      -0.16811976 </v>
  </varray>
  <varray name="stress" >
   <v>     -51.91020676      -0.00000000      -0.00000000 </v>
   <v>      -0.00000000     -51.91020676      -0.00000000 </v>
   <v>      -0.00000000       0.00000000     -33.41452697 </v>
  </varray>
  <energy>
   <i name="e_fr_energy">   -290.69616589 </i>
   <i name="e_wo_entrp">   -290.69227761 </i>
   <i name="e_0_energy">   -290.69486979 </i>
  </energy>
  <time name="totalsc">  397.01  400.15</time>
 </calculation>
 <calculation>
  <scstep>
   <time name="dav">   45.29   45.60</time>
   <time name="total">   46.94   47.26</time>
   <energy>
    <i name="alphaZ">   2488.26331973 </i>
    <i name="ewald"> 450129.52858525 </i>
    <i name="hartreedc">-547901.46716541 </i>
    <i name="XCdc">   3210.29339116 </i>
    <i name="pawpsdc">  94109.28001787 </i>
    <i name="pawaedc">-101862.66909295 </i>
    <i name="eentropy">     -0.00752447 </i>
    <i name="bandstr">   -582.67552712 </i>
    <i name="atom"> 100148.95009438 </i>
    <i name="e_fr_energy">   -260.50390155 </i>
    <i name="e_wo_entrp">   -260.49637708 </i>
    <i name="e_0_energy">   -260.50139339 </i>
   </energy>
  </scstep>
  <scstep>
   <time name="dav">   66.62   67.06</time>
   <time name="total">   68.28   68.72</time>
   <energy>
    <i name="e_fr_energy">   -260.58647033 </i>
    <i name="e_wo_entrp">   -260.57549944 </i>
    <i name="e_0_energy">   -260.58281336 </i>
   </energy>
  </scstep>
  <scstep>
   <time name="dav">   63.39   64.08</time>
   <time name="total">   65.03   65.73</time>
   <energy>
    <i name="e_fr_energy">   -260.58048910 </i>
    <i name="e_wo_entrp">   -260.57252015 </i>
    <i name="e_0_energy">   -260.57783278 </i>
   </energy>
  </scstep>
  <scstep>
   <time name="dav">   53.39   53.72</time>
   <time name="total">   55.03   55.38</time>
   <energy>
    <i name="e_fr_energy">   -260.57337663 </i>
    <i name="e_wo_entrp">   -260.56686154 </i>
    <i name="e_0_energy">   -260.57120493 </i>
   </energy>
  </scstep>
  <scstep>
   <time name="dav">   46.44   46.73</time>
   <time name="total">   48.08   48.38</time>
   <energy>
    <i name="e_fr_energy">   -260.57451325 </i>
    <i name="e_wo_entrp">   -260.56631648 </i>
    <i name="e_0_energy">   -260.57178099 </i>
   </energy>
  </scstep>
  <scstep>
   <time name="dav">   45.60   45.93</time>
   <time name="total">   47.27   47.62</time>
   <energy>
    <i name="e_fr_energy">   -260.57426831 </i>
    <i name="e_wo_entrp">   -260.56711351 </i>
    <i name="e_0_energy">   -260.57188338 </i>
   </energy>
  </scstep>
  <scstep>
   <time name="dav">   50.89   51.25</time>
   <time name="total">   52.54   52.91</time>
   <energy>
    <i name="e_fr_energy">   -260.57397387 </i>
    <i name="e_wo_entrp">   -260.56654242 </i>
    <i name="e_0_energy">   -260.57149672 </i>
   </energy>
  </scstep>
  <scstep>
   <time name="dav">   51.78   52.20</time>
   <time name="total">   54.20   54.67</time>
   <energy>
    <i name="e_fr_energy">   -260.57379741 </i>
    <i name="e_wo_entrp">   -260.56709208 </i>
    <i name="e_0_energy">   -260.57156230 </i>
   </energy>
  </scstep>
  <scstep>
   <time name="dav">   36.05   36.32</time>
   <time name="total">   37.69   37.97</time>
   <energy>
    <i name="e_fr_energy">   -260.57358931 </i>
    <i name="e_wo_entrp">   -260.56620922 </i>
    <i name="e_0_energy">   -260.57112928 </i>
   </energy>
  </scstep>
  <scstep>
   <time name="dav">   38.69   38.95</time>
   <time name="total">   38.84   39.10</time>
   <energy>
    <i name="alphaZ">   2488.26331973 </i>
    <i name="ewald"> 450129.52858525 </i>
    <i name="hartreedc">-547899.59808021 </i>
    <i name="XCdc">   3210.16525232 </i>
    <i name="pawpsdc">  94148.77804390 </i>
    <i name="pawaedc">-101902.74555997 </i>
    <i name="eentropy">     -0.00730449 </i>
    <i name="bandstr">   -583.90798383 </i>
    <i name="atom"> 100148.95009438 </i>
    <i name="e_fr_energy">   -260.57363292 </i>
    <i name="e_wo_entrp">   -260.56632842 </i>
    <i name="e_0_energy">   -260.57119808 </i>
   </energy>
  </scstep>
  <dipole>
   <v name="dipole">      0.00000000       0.00000000      -0.02902695 </v>
   <i name="Tr[quadrupol]">  -7671.42689671 </i>
   <i name="Echarged">      0.00000000 </i>
   <i name="Edipol_quadrupol">      0.00000000 </i>
   <i name="Eion">      0.00000000 </i>
  </dipole>
  <structure>
   <crystal>
    <varray name="basis" >
     <v>       7.70039320       0.00000000       0.00000000 </v>
     <v>       3.85019660       6.66873613       0.00000000 </v>
     <v>       0.00000000       0.00000000      29.67047119 </v>
    </varray>
    <i name="volume">   1523.63478324 </i>
    <varray name="rec_basis" >
     <v>       0.12986350      -0.07497673       0.00000000 </v>
     <v>       0.00000000       0.14995345       0.00000000 </v>
     <v>       0.00000000       0.00000000       0.03370354 </v>
    </varray>
   </crystal>
   <varray name="positions" >
    <v>       0.00000000       0.00000000       0.00000000 </v>
    <v>       0.00000000       0.33333333       0.00000000 </v>
    <v>       1.00000000       0.66666667       0.00000000 </v>
    <v>       0.33333333       0.00000000       0.00000000 </v>
    <v>       0.33333333       0.33333333       0.00000000 </v>
    <v>       0.33333333       0.66666667       0.00000000 </v>
    <v>       0.66666667       0.00000000       0.00000000 </v>
    <v>       0.66666667       0.33333333       0.00000000 </v>
    <v>       0.66666667       0.66666667       0.00000000 </v>
    <v>       0.11111111       0.11111111       0.07063526 </v>
    <v>       0.11111111       0.44444444       0.07063526 </v>
    <v>       0.11111111       0.77777778       0.07063526 </v>
    <v>       0.44444444       0.11111111       0.07063526 </v>
    <v>       0.44444444       0.44444444       0.07063526 </v>
    <v>       0.44444444       0.77777778       0.07063526 </v>
    <v>       0.77777778       0.11111111       0.07063526 </v>
    <v>       0.77777778       0.44444444       0.07063526 </v>
    <v>       0.77777778       0.77777778       0.07063526 </v>
    <v>       0.22222222       0.22222222       0.14143368 </v>
    <v>       0.22222222       0.55555556       0.14143368 </v>
    <v>       0.22222222       0.88888889       0.14143368 </v>
    <v>       0.55555556       0.22222222       0.14143368 </v>
    <v>       0.55555556       0.55555556       0.14143368 </v>
    <v>       0.55555556       0.88888889       0.14143368 </v>
    <v>       0.88888889       0.22222222       0.14143368 </v>
    <v>       0.88888889       0.55555556       0.14143368 </v>
    <v>       0.88888889       0.88888889       0.14143368 </v>
    <v>       0.00000000      -0.00000000       0.21156384 </v>
    <v>       0.00000000       0.33333333       0.21156384 </v>
    <v>       1.00000000       0.66666667       0.21156384 </v>
    <v>       0.33333333      -0.00000000       0.21156384 </v>
    <v>       0.33333333       0.33333333       0.21156384 </v>
    <v>       0.33333333       0.66666667       0.21156384 </v>
    <v>       0.66666667      -0.00000000       0.21156384 </v>
    <v>       0.66666667       0.33333333       0.21156384 </v>
    <v>       0.66666667       0.66666667       0.21156384 </v>
    <v>       0.11111111       0.11111111       0.28290454 </v>
    <v>       0.11111111       0.44444444       0.28290454 </v>
    <v>       0.11111111       0.77777778       0.28290454 </v>
    <v>       0.44444444       0.11111111       0.28290454 </v>
    <v>       0.44444444       0.44444444       0.28290454 </v>
    <v>       0.44444444       0.77777778       0.28290454 </v>
    <v>       0.77777778       0.11111111       0.28290454 </v>
    <v>       0.77777778       0.44444444       0.28290454 </v>
    <v>       0.77777778       0.77777778       0.28290454 </v>
    <v>       0.22222222       0.22222222       0.35301482 </v>
    <v>       0.22222222       0.55555556       0.35301482 </v>
    <v>       0.22222222       0.88888889       0.35301482 </v>
    <v>       0.55555556       0.22222222       0.35301482 </v>
    <v>       0.55555556       0.55555556       0.35301482 </v>
    <v>       0.55555556       0.88888889       0.35301482 </v>
    <v>       0.88888889       0.22222222       0.35301482 </v>
    <v>       0.88888889       0.55555556       0.35301482 </v>
    <v>       0.88888889       0.88888889       0.35301482 </v>
    <v>       0.00000000      -0.00000000       0.42379236 </v>
    <v>       0.00000000       0.33333333       0.42379236 </v>
    <v>       1.00000000       0.66666667       0.42379236 </v>
    <v>       0.33333333      -0.00000000       0.42379236 </v>
    <v>       0.33333333       0.33333333       0.42379236 </v>
    <v>       0.33333333       0.66666667       0.42379236 </v>
    <v>       0.66666667      -0.00000000       0.42379236 </v>
    <v>       0.66666667       0.33333333       0.42379236 </v>
    <v>       0.66666667       0.66666667       0.42379236 </v>
    <v>       0.11111111       0.11111111       0.49325888 </v>
    <v>       0.11111111       0.44444444       0.49325888 </v>
    <v>       0.11111111       0.77777778       0.49325888 </v>
    <v>       0.44444444       0.11111111       0.49325888 </v>
    <v>       0.44444444       0.44444444       0.49325888 </v>
    <v>       0.44444444       0.77777778       0.49325888 </v>
    <v>       0.77777778       0.11111111       0.49325888 </v>
    <v>       0.77777778       0.44444444       0.49325888 </v>
    <v>       0.77777778       0.77777778       0.49325888 </v>
   </varray>
  </structure>
  <varray name="forces" >
   <v>      -0.00000000       0.00000000       0.21108400 </v>
   <v>      -0.00000000       0.00000000       0.21108400 </v>
   <v>       0.00000000      -0.00000000       0.21108400 </v>
   <v>      -0.00000000      -0.00000000       0.21108400 </v>
   <v>      -0.00000000      -0.00000000       0.21108400 </v>
   <v>      -0.00000000      -0.00000000       0.21108400 </v>
   <v>      -0.00000000       0.00000000       0.21108400 </v>
   <v>      -0.00000000       0.00000000       0.21108400 </v>
   <v>      -0.00000000      -0.00000000       0.21108400 </v>
   <v>       0.00000000       0.00000000       0.01489838 </v>
   <v>       0.00000000       0.00000000       0.01489838 </v>
   <v>       0.00000000       0.00000000       0.01489838 </v>
   <v>      -0.00000000      -0.00000000       0.01489838 </v>
   <v>      -0.00000000       0.00000000       0.01489838 </v>
   <v>       0.00000000       0.00000000       0.01489838 </v>
   <v>      -0.00000000      -0.00000000       0.01489838 </v>
   <v>       0.00000000       0.00000000       0.01489838 </v>
   <v>      -0.00000000       0.00000000       0.01489838 </v>
   <v>      -0.00000000       0.00000000      -0.04076228 </v>
   <v>      -0.00000000       0.00000000      -0.04076228 </v>
   <v>      -0.00000000       0.00000000      -0.04076228 </v>
   <v>       0.00000000       0.00000000      -0.04076228 </v>
   <v>      -0.00000000       0.00000000      -0.04076228 </v>
   <v>      -0.00000000       0.00000000      -0.04076228 </v>
   <v>      -0.00000000      -0.00000000      -0.04076228 </v>
   <v>       0.00000000       0.00000000      -0.04076228 </v>
   <v>      -0.00000000       0.00000000      -0.04076228 </v>
   <v>       0.00000000      -0.00000000       0.06254119 </v>
   <v>       0.00000000       0.00000000       0.06254119 </v>
   <v>       0.00000000       0.00000000       0.06254119 </v>
   <v>       0.00000000      -0.00000000       0.06254119 </v>
   <v>       0.00000000      -0.00000000       0.06254119 </v>
   <v>       0.00000000      -0.00000000       0.06254119 </v>
   <v>       0.00000000       0.00000000       0.06254119 </v>
   <v>       0.00000000       0.00000000       0.06254119 </v>
   <v>       0.00000000       0.00000000       0.06254119 </v>
   <v>      -0.00000000       0.00000000      -0.06455976 </v>
   <v>       0.00000000       0.00000000      -0.06455976 </v>
   <v>       0.00000000       0.00000000      -0.06455976 </v>
   <v>       0.00000000       0.00000000      -0.06455976 </v>
   <v>      -0.00000000      -0.00000000      -0.06455976 </v>
   <v>      -0.00000000      -0.00000000      -0.06455976 </v>
   <v>       0.00000000       0.00000000      -0.06455976 </v>
   <v>       0.00000000       0.00000000      -0.06455976 </v>
   <v>       0.00000000       0.00000000      -0.06455976 </v>
   <v>       0.00000000      -0.00000000       0.03526424 </v>
   <v>      -0.00000000      -0.00000000       0.03526424 </v>
   <v>      -0.00000000      -0.00000000       0.03526424 </v>
   <v>      -0.00000000      -0.00000000       0.03526424 </v>
   <v>      -0.00000000      -0.00000000       0.03526424 </v>
   <v>      -0.00000000      -0.00000000       0.03526424 </v>
   <v>      -0.00000000      -0.00000000       0.03526424 </v>
   <v>      -0.00000000      -0.00000000       0.03526424 </v>
   <v>       0.00000000      -0.00000000       0.03526424 </v>
   <v>       0.00000000      -0.00000000      -0.13973645 </v>
   <v>      -0.00000000      -0.00000000      -0.13973645 </v>
   <v>      -0.00000000      -0.00000000      -0.13973645 </v>
   <v>       0.00000000      -0.00000000      -0.13973645 </v>
   <v>       0.00000000      -0.00000000      -0.13973645 </v>
   <v>       0.00000000       0.00000000      -0.13973645 </v>
   <v>      -0.00000000      -0.00000000      -0.13973645 </v>
   <v>       0.00000000      -0.00000000      -0.13973645 </v>
   <v>      -0.00000000      -0.00000000      -0.13973645 </v>
   <v>       0.00000000      -0.00000000      -0.07872932 </v>
   <v>       0.00000000      -0.00000000      -0.07872932 </v>
   <v>       0.00000000      -0.00000000      -0.07872932 </v>
   <v>       0.00000000      -0.00000000      -0.07872932 </v>
   <v>      -0.00000000       0.00000000      -0.07872932 </v>
   <v>      -0.00000000      -0.00000000      -0.07872932 </v>
   <v>       0.00000000      -0.00000000      -0.07872932 </v>
   <v>       0.00000000      -0.00000000      -0.07872932 </v>
   <v>       0.00000000      -0.00000000      -0.07872932 </v>
  </varray>
  <varray name="stress" >
   <v>     -51.89083028      -0.00000000      -0.00000000 </v>
   <v>      -0.00000000     -51.89083028       0.00000000 </v>
   <v>      -0.00000000      -0.00000000     -32.29812649 </v>
  </varray>
  <energy>
   <i name="e_fr_energy">   -290.72165487 </i>
   <i name="e_wo_entrp">   -290.71435038 </i>
   <i name="e_0_energy">   -290.71922004 </i>
  </energy>
  <time name="totalsc">  610.72  615.08</time>
 </calculation>
 <calculation>
  <scstep>
   <time name="dav">   46.16   46.49</time>
   <time name="total">   47.81   48.15</time>
   <energy>
    <i name="alphaZ">   2488.26331973 </i>
    <i name="ewald"> 451110.49732850 </i>
    <i name="hartreedc">-548879.26563742 </i>
    <i name="XCdc">   3210.32956171 </i>
    <i name="pawpsdc">  94148.74582536 </i>
    <i name="pawaedc">-101902.69978137 </i>
    <i name="eentropy">     -0.00808127 </i>
    <i name="bandstr">   -585.36058834 </i>
    <i name="atom"> 100148.95009438 </i>
    <i name="e_fr_energy">   -260.54795873 </i>
    <i name="e_wo_entrp">   -260.53987746 </i>
    <i name="e_0_energy">   -260.54526497 </i>
   </energy>
  </scstep>
  <scstep>
   <time name="dav">   61.68   62.05</time>
   <time name="total">   63.33   63.71</time>
   <energy>
    <i name="e_fr_energy">   -260.57195272 </i>
    <i name="e_wo_entrp">   -260.56220523 </i>
    <i name="e_0_energy">   -260.56870356 </i>
   </energy>
  </scstep>
  <scstep>
   <time name="dav">   53.12   53.74</time>
   <time name="total">   54.76   55.40</time>
   <energy>
    <i name="e_fr_energy">   -260.57086335 </i>
    <i name="e_wo_entrp">   -260.56305185 </i>
    <i name="e_0_energy">   -260.56825951 </i>
   </energy>
  </scstep>
  <scstep>
   <time name="dav">   46.86   47.25</time>
   <time name="total">   48.49   48.89</time>
   <energy>
    <i name="e_fr_energy">   -260.57014185 </i>
    <i name="e_wo_entrp">   -260.56237483 </i>
    <i name="e_0_energy">   -260.56755284 </i>
   </energy>
  </scstep>
  <scstep>
   <time name="dav">   45.65   45.98</time>
   <time name="total">   47.31   47.67</time>
   <energy>
    <i name="e_fr_energy">   -260.57034736 </i>
    <i name="e_wo_entrp">   -260.56175941 </i>
    <i name="e_0_energy">   -260.56748471 </i>
   </energy>
  </scstep>
  <scstep>
   <time name="dav">   44.86   45.23</time>
   <time name="total">   47.04   47.57</time>
   <energy>
    <i name="e_fr_energy">   -260.57006579 </i>
    <i name="e_wo_entrp">   -260.56203646 </i>
    <i name="e_0_energy">   -260.56738935 </i>
   </energy>
  </scstep>
  <scstep>
   <time name="dav">   45.44   45.75</time>
   <time name="total">   47.10   47.42</time>
   <energy>
    <i name="e_fr_energy">   -260.57004065 </i>
    <i name="e_wo_entrp">   -260.56203528 </i>
    <i name="e_0_energy">   -260.56737220 </i>
   </energy>
  </scstep>
  <scstep>
   <time name="dav">   33.88   34.10</time>
   <time name="total">   34.04   34.27</time>
   <energy>
    <i name="alphaZ">   2488.26331973 </i>
    <i name="ewald"> 451110.49732850 </i>
    <i name="hartreedc">-548876.93627753 </i>
    <i name="XCdc">   3210.26776225 </i>
    <i name="pawpsdc">  94166.00466991 </i>
    <i name="pawaedc">-101920.32686693 </i>
    <i name="eentropy">     -0.00769193 </i>
    <i name="bandstr">   -587.28226023 </i>
    <i name="atom"> 100148.95009438 </i>
    <i name="e_fr_energy">   -260.56992184 </i>
    <i name="e_wo_entrp">   -260.56222990 </i>
    <i name="e_0_energy">   -260.56735786 </i>
   </energy>
  </scstep>
  <dipole>
   <v name="dipole">      0.00000000       0.00000000      -0.02317254 </v>
   <i name="Tr[quadrupol]">  -7671.35755272 </i>
   <i name="Echarged">      0.00000000 </i>
   <i name="Edipol_quadrupol">      0.00000000 </i>
   <i name="Eion">      0.00000000 </i>
  </dipole>
  <structure>
   <crystal>
    <varray name="basis" >
     <v>       7.70039320       0.00000000       0.00000000 </v>
     <v>       3.85019660       6.66873613       0.00000000 </v>
     <v>       0.00000000       0.00000000      29.67047119 </v>
    </varray>
    <i name="volume">   1523.63478324 </i>
    <varray name="rec_basis" >
     <v>       0.12986350      -0.07497673       0.00000000 </v>
     <v>       0.00000000       0.14995345       0.00000000 </v>
     <v>       0.00000000       0.00000000       0.03370354 </v>
    </varray>
   </crystal>
   <varray name="positions" >
    <v>       0.00000000       0.00000000       0.00000000 </v>
    <v>       0.00000000       0.33333333       0.00000000 </v>
[...]
       <r>    -4.7274     5.6927     6.7367 </r>
       <r>    -4.6510     7.4296     7.3046 </r>
       <r>    -4.5745     7.5514     7.8819 </r>
       <r>    -4.4981     5.2365     8.2822 </r>
       <r>    -4.4216     3.2933     8.5339 </r>
       <r>    -4.3452     4.3199     8.8641 </r>
       <r>    -4.2688     7.0375     9.4021 </r>
       <r>    -4.1923     8.4331    10.0468 </r>
       <r>    -4.1159     7.9041    10.6510 </r>
       <r>    -4.0394     7.1857    11.2003 </r>
       <r>    -3.9630     7.4499    11.7698 </r>
       <r>    -3.8865     8.5315    12.4220 </r>
       <r>    -3.8101     9.5850    13.1547 </r>
       <r>    -3.7336     9.1119    13.8512 </r>
       <r>    -3.6572     6.3012    14.3329 </r>
       <r>    -3.5808     2.8677    14.5521 </r>
       <r>    -3.5043     1.5549    14.6710 </r>
       <r>    -3.4279     3.2810    14.9218 </r>
       <r>    -3.3514     7.4020    15.4876 </r>
       <r>    -3.2750    13.2579    16.5011 </r>
       <r>    -3.1985    19.2574    17.9732 </r>
       <r>    -3.1221    22.4136    19.6866 </r>
       <r>    -3.0457    21.3879    21.3216 </r>
       <r>    -2.9692    18.3842    22.7269 </r>
       <r>    -2.8928    17.4183    24.0585 </r>
       <r>    -2.8163    21.4948    25.7016 </r>
       <r>    -2.7399    29.5242    27.9585 </r>
       <r>    -2.6634    36.2373    30.7286 </r>
       <r>    -2.5870    37.2455    33.5758 </r>
       <r>    -2.5106    33.8548    36.1638 </r>
       <r>    -2.4341    32.3916    38.6399 </r>
       <r>    -2.3577    38.2980    41.5676 </r>
       <r>    -2.2812    50.0654    45.3948 </r>
       <r>    -2.2048    60.3184    50.0057 </r>
       <r>    -2.1283    64.7075    54.9522 </r>
       <r>    -2.0519    66.9652    60.0713 </r>
       <r>    -1.9754    71.9517    65.5715 </r>
       <r>    -1.8990    77.5954    71.5032 </r>
       <r>    -1.8226    77.8559    77.4548 </r>
       <r>    -1.7461    71.3705    82.9106 </r>
       <r>    -1.6697    63.9392    87.7983 </r>
       <r>    -1.5932    62.5586    92.5805 </r>
       <r>    -1.5168    68.9716    97.8530 </r>
       <r>    -1.4403    78.6954   103.8687 </r>
       <r>    -1.3639    85.4255   110.3990 </r>
       <r>    -1.2875    87.6747   117.1012 </r>
       <r>    -1.2110    89.8627   123.9706 </r>
       <r>    -1.1346    96.0175   131.3105 </r>
       <r>    -1.0581   105.4418   139.3709 </r>
       <r>    -0.9817   114.7573   148.1433 </r>
       <r>    -0.9052   122.4703   157.5054 </r>
       <r>    -0.8288   130.3967   167.4734 </r>
       <r>    -0.7523   137.9627   178.0198 </r>
       <r>    -0.6759   139.0679   188.6506 </r>
       <r>    -0.5995   131.6518   198.7146 </r>
       <r>    -0.5230   123.2374   208.1353 </r>
       <r>    -0.4466   119.8999   217.3009 </r>
       <r>    -0.3701   120.2519   226.4934 </r>
       <r>    -0.2937   122.5401   235.8608 </r>
       <r>    -0.2172   125.5437   245.4578 </r>
       <r>    -0.1408   125.8096   255.0752 </r>
       <r>    -0.0644   122.4848   264.4383 </r>
       <r>     0.0121   119.6322   273.5835 </r>
       <r>     0.0885   121.7160   282.8879 </r>
       <r>     0.1650   129.3871   292.7787 </r>
       <r>     0.2414   138.8239   303.3909 </r>
       <r>     0.3179   146.8947   314.6201 </r>
       <r>     0.3943   155.9410   326.5408 </r>
       <r>     0.4708   167.4695   339.3427 </r>
       <r>     0.5472   172.3085   352.5146 </r>
       <r>     0.6236   155.2515   364.3826 </r>
       <r>     0.7001   112.8936   373.0126 </r>
       <r>     0.7765    61.6620   377.7263 </r>
       <r>     0.8530    23.3880   379.5142 </r>
       <r>     0.9294     6.5016   380.0112 </r>
       <r>     1.0059     4.7716   380.3759 </r>
       <r>     1.0823     9.0306   381.0663 </r>
       <r>     1.1587    14.6607   382.1870 </r>
       <r>     1.2352    20.0661   383.7209 </r>
       <r>     1.3116    23.6678   385.5301 </r>
       <r>     1.3881    24.2875   387.3868 </r>
       <r>     1.4645    21.4735   389.0283 </r>
       <r>     1.5410    15.2145   390.1913 </r>
       <r>     1.6174     7.9091   390.7959 </r>
       <r>     1.6938     4.2273   391.1191 </r>
       <r>     1.7703     5.9937   391.5773 </r>
       <r>     1.8467     9.3467   392.2918 </r>
       <r>     1.9232     9.5205   393.0196 </r>
       <r>     1.9996     7.1737   393.5679 </r>
       <r>     2.0761     6.8857   394.0943 </r>
       <r>     2.1525     9.9042   394.8514 </r>
       <r>     2.2290    12.4490   395.8031 </r>
       <r>     2.3054    11.6436   396.6931 </r>
       <r>     2.3818     9.2867   397.4031 </r>
       <r>     2.4583     8.8924   398.0828 </r>
       <r>     2.5347    11.5476   398.9656 </r>
       <r>     2.6112    15.2923   400.1346 </r>
       <r>     2.6876    17.3848   401.4635 </r>
       <r>     2.7641    16.6313   402.7349 </r>
       <r>     2.8405    13.9308   403.7998 </r>
       <r>     2.9169    11.0792   404.6467 </r>
       <r>     2.9934     8.8038   405.3197 </r>
       <r>     3.0698     6.3632   405.8062 </r>
       <r>     3.1463     3.9721   406.1098 </r>
       <r>     3.2227     4.2610   406.4355 </r>
       <r>     3.2992     8.8478   407.1119 </r>
       <r>     3.3756    14.1761   408.1956 </r>
       <r>     3.4521    14.9240   409.3364 </r>
       <r>     3.5285    11.9317   410.2485 </r>
       <r>     3.6049    11.0559   411.0937 </r>
       <r>     3.6814    13.7320   412.1434 </r>
       <r>     3.7578    15.6794   413.3420 </r>
       <r>     3.8343    14.9070   414.4815 </r>
       <r>     3.9107    13.5377   415.5164 </r>
       <r>     3.9872    12.2638   416.4539 </r>
       <r>     4.0636     9.7295   417.1976 </r>
       <r>     4.1400     6.4446   417.6903 </r>
       <r>     4.2165     4.5330   418.0368 </r>
       <r>     4.2929     4.6357   418.3912 </r>
       <r>     4.3694     5.4882   418.8107 </r>
       <r>     4.4458     5.7933   419.2536 </r>
       <r>     4.5223     5.6600   419.6862 </r>
       <r>     4.5987     6.3015   420.1679 </r>
       <r>     4.6752     8.3119   420.8033 </r>
       <r>     4.7516    10.7594   421.6258 </r>
       <r>     4.8280    12.4146   422.5748 </r>
       <r>     4.9045    12.9337   423.5635 </r>
       <r>     4.9809    12.0693   424.4862 </r>
       <r>     5.0574     9.1931   425.1889 </r>
       <r>     5.1338     4.9794   425.5696 </r>
       <r>     5.2103     2.0793   425.7285 </r>
       <r>     5.2867     2.7124   425.9358 </r>
       <r>     5.3631     6.3666   426.4225 </r>
       <r>     5.4396    10.0544   427.1911 </r>
       <r>     5.5160    10.5481   427.9975 </r>
       <r>     5.5925     7.2471   428.5515 </r>
       <r>     5.6689     2.8976   428.7730 </r>
       <r>     5.7454     0.9553   428.8460 </r>
       <r>     5.8218     2.9156   429.0689 </r>
       <r>     5.8982     7.5808   429.6484 </r>
       <r>     5.9747    11.5687   430.5327 </r>
       <r>     6.0511    12.2780   431.4713 </r>
       <r>     6.1276    11.2398   432.3305 </r>
       <r>     6.2040    11.7061   433.2254 </r>
       <r>     6.2805    13.2436   434.2378 </r>
       <r>     6.3569    12.6628   435.2057 </r>
       <r>     6.4334     9.6849   435.9461 </r>
       <r>     6.5098     7.7364   436.5375 </r>
       <r>     6.5862     9.5362   437.2665 </r>
       <r>     6.6627    14.1580   438.3488 </r>
       <r>     6.7391    17.5380   439.6894 </r>
       <r>     6.8156    15.8207   440.8988 </r>
       <r>     6.8920     9.4904   441.6243 </r>
       <r>     6.9685     3.2202   441.8705 </r>
       <r>     7.0449     1.4006   441.9775 </r>
       <r>     7.1213     4.8021   442.3446 </r>
       <r>     7.1978    10.6590   443.1594 </r>
       <r>     7.2742    15.2771   444.3273 </r>
       <r>     7.3507    17.0784   445.6328 </r>
       <r>     7.4271    16.9310   446.9271 </r>
       <r>     7.5036    15.8549   448.1391 </r>
       <r>     7.5800    13.7165   449.1876 </r>
       <r>     7.6565    10.5875   449.9970 </r>
       <r>     7.7329     8.3027   450.6317 </r>
       <r>     7.8093     9.2855   451.3415 </r>
       <r>     7.8858    13.6199   452.3826 </r>
       <r>     7.9622    18.0825   453.7649 </r>
       <r>     8.0387    18.9381   455.2126 </r>
       <r>     8.1151    15.6443   456.4085 </r>
       <r>     8.1916    11.2459   457.2682 </r>
       <r>     8.2680     8.9668   457.9537 </r>
       <r>     8.3444     8.9427   458.6373 </r>
       <r>     8.4209     9.6685   459.3764 </r>
       <r>     8.4973    11.6103   460.2639 </r>
       <r>     8.5738    15.7819   461.4703 </r>
       <r>     8.6502    19.5242   462.9628 </r>
       <r>     8.7267    18.9002   464.4076 </r>
       <r>     8.8031    15.2925   465.5766 </r>
       <r>     8.8796    13.8249   466.6335 </r>
       <r>     8.9560    15.1470   467.7913 </r>
       <r>     9.0324    15.1424   468.9489 </r>
       <r>     9.1089    12.5360   469.9072 </r>
       <r>     9.1853    10.4047   470.7026 </r>
       <r>     9.2618    10.7265   471.5225 </r>
       <r>     9.3382    12.4807   472.4766 </r>
       <r>     9.4147    14.5264   473.5870 </r>
       <r>     9.4911    16.7534   474.8677 </r>
       <r>     9.5675    18.3964   476.2740 </r>
       <r>     9.6440    18.1998   477.6653 </r>
       <r>     9.7204    16.4097   478.9197 </r>
       <r>     9.7969    14.4860   480.0271 </r>
       <r>     9.8733    13.8022   481.0822 </r>
       <r>     9.9498    15.0532   482.2329 </r>
       <r>    10.0262    17.3120   483.5563 </r>
       <r>    10.1027    18.8825   484.9997 </r>
       <r>    10.1791    19.4025   486.4829 </r>
       <r>    10.2555    19.0355   487.9381 </r>
       <r>    10.3320    17.4252   489.2701 </r>
       <r>    10.4084    15.4138   490.4484 </r>
       <r>    10.4849    14.9785   491.5934 </r>
       <r>    10.5613    16.3830   492.8458 </r>
       <r>    10.6378    17.7115   494.1997 </r>
       <r>    10.7142    17.4657   495.5349 </r>
       <r>    10.7906    15.8553   496.7469 </r>
       <r>    10.8671    13.8517   497.8058 </r>
       <r>    10.9435    12.7850   498.7831 </r>
       <r>    11.0200    13.8261   499.8400 </r>
       <r>    11.0964    16.2977   501.0859 </r>
       <r>    11.1729    17.8357   502.4493 </r>
       <r>    11.2493    16.9907   503.7481 </r>
       <r>    11.3257    14.6949   504.8715 </r>
       <r>    11.4022    12.8069   505.8505 </r>
       <r>    11.4786    12.2332   506.7856 </r>
       <r>    11.5551    13.0632   507.7842 </r>
       <r>    11.6315    14.9335   508.9258 </r>
       <r>    11.7080    16.0694   510.1542 </r>
       <r>    11.7844    13.9549   511.2210 </r>
       <r>    11.8609     8.5560   511.8750 </r>
       <r>    11.9373     2.9933   512.1038 </r>
       <r>    12.0137    -0.0517   512.0999 </r>
       <r>    12.0902    -0.6990   512.0465 </r>
       <r>    12.1666    -0.4223   512.0142 </r>
       <r>    12.2431    -0.1456   512.0030 </r>
       <r>    12.3195    -0.0337   512.0005 </r>
       <r>    12.3960    -0.0055   512.0001 </r>
       <r>    12.4724    -0.0006   512.0000 </r>
       <r>    12.5488    -0.0001   512.0000 </r>
       <r>    12.6253    -0.0000   512.0000 </r>
       <r>    12.7017    -0.0000   512.0000 </r>
       <r>    12.7782    -0.0000   512.0000 </r>
       <r>    12.8546    -0.0000   512.0000 </r>
       <r>    12.9311    -0.0000   512.0000 </r>
       <r>    13.0075    -0.0000   512.0000 </r>
       <r>    13.0840     0.0000   512.0000 </r>
       <r>    13.1604     0.0000   512.0000 </r>
       <r>    13.2368     0.0000   512.0000 </r>
       <r>    13.3133     0.0000   512.0000 </r>
       <r>    13.3897     0.0000   512.0000 </r>
       <r>    13.4662     0.0000   512.0000 </r>
       <r>    13.5426     0.0000   512.0000 </r>
       <r>    13.6191     0.0000   512.0000 </r>
       <r>    13.6955     0.0000   512.0000 </r>
       <r>    13.7719     0.0000   512.0000 </r>
      </set>
     </set>
    </array>
   </total>
  </dos>
 </calculation>
 <structure name="finalpos" >
  <crystal>
   <varray name="basis" >
    <v>       7.70039320       0.00000000       0.00000000 </v>
    <v>       3.85019660       6.66873613       0.00000000 </v>
    <v>       0.00000000       0.00000000      29.67047119 </v>
   </varray>
   <i name="volume">   1523.63478324 </i>
   <varray name="rec_basis" >
    <v>       0.12986350      -0.07497673       0.00000000 </v>
    <v>       0.00000000       0.14995345       0.00000000 </v>
    <v>       0.00000000       0.00000000       0.03370354 </v>
   </varray>
  </crystal>
  <varray name="positions" >
   <v>       0.00000000       0.00000000       0.00000000 </v>
   <v>       0.00000000       0.33333333       0.00000000 </v>
   <v>       1.00000000       0.66666667       0.00000000 </v>
   <v>       0.33333333       0.00000000       0.00000000 </v>
   <v>       0.33333333       0.33333333       0.00000000 </v>
   <v>       0.33333333       0.66666667       0.00000000 </v>
   <v>       0.66666667       0.00000000       0.00000000 </v>
   <v>       0.66666667       0.33333333       0.00000000 </v>
   <v>       0.66666667       0.66666667       0.00000000 </v>
   <v>       0.11111111       0.11111111       0.07063526 </v>
   <v>       0.11111111       0.44444444       0.07063526 </v>
   <v>       0.11111111       0.77777778       0.07063526 </v>
   <v>       0.44444444       0.11111111       0.07063526 </v>
   <v>       0.44444444       0.44444444       0.07063526 </v>
   <v>       0.44444444       0.77777778       0.07063526 </v>
   <v>       0.77777778       0.11111111       0.07063526 </v>
   <v>       0.77777778       0.44444444       0.07063526 </v>
   <v>       0.77777778       0.77777778       0.07063526 </v>
   <v>       0.22222222       0.22222222       0.13950349 </v>
   <v>       0.22222222       0.55555556       0.13950349 </v>
   <v>       0.22222222       0.88888889       0.13950349 </v>
   <v>       0.55555556       0.22222222       0.13950349 </v>
   <v>       0.55555556       0.55555556       0.13950349 </v>
   <v>       0.55555556       0.88888889       0.13950349 </v>
   <v>       0.88888889       0.22222222       0.13950349 </v>
   <v>       0.88888889       0.55555556       0.13950349 </v>
   <v>       0.88888889       0.88888889       0.13950349 </v>
   <v>       0.00000000      -0.00000000       0.20821054 </v>
   <v>       0.00000000       0.33333333       0.20821054 </v>
   <v>       1.00000000       0.66666667       0.20821054 </v>
   <v>       0.33333333      -0.00000000       0.20821054 </v>
   <v>       0.33333333       0.33333333       0.20821054 </v>
   <v>       0.33333333       0.66666667       0.20821054 </v>
   <v>       0.66666667      -0.00000000       0.20821054 </v>
   <v>       0.66666667       0.33333333       0.20821054 </v>
   <v>       0.66666667       0.66666667       0.20821054 </v>
   <v>       0.11111111       0.11111111       0.27739870 </v>
   <v>       0.11111111       0.44444444       0.27739870 </v>
   <v>       0.11111111       0.77777778       0.27739870 </v>
   <v>       0.44444444       0.11111111       0.27739870 </v>
   <v>       0.44444444       0.44444444       0.27739870 </v>
   <v>       0.44444444       0.77777778       0.27739870 </v>
   <v>       0.77777778       0.11111111       0.27739870 </v>
   <v>       0.77777778       0.44444444       0.27739870 </v>
   <v>       0.77777778       0.77777778       0.27739870 </v>
   <v>       0.22222222       0.22222222       0.34602544 </v>
   <v>       0.22222222       0.55555556       0.34602544 </v>
   <v>       0.22222222       0.88888889       0.34602544 </v>
   <v>       0.55555556       0.22222222       0.34602544 </v>
   <v>       0.55555556       0.55555556       0.34602544 </v>
   <v>       0.55555556       0.88888889       0.34602544 </v>
   <v>       0.88888889       0.22222222       0.34602544 </v>
   <v>       0.88888889       0.55555556       0.34602544 </v>
   <v>       0.88888889       0.88888889       0.34602544 </v>
   <v>       0.00000000       0.00000000       0.41489446 </v>
   <v>       0.00000000       0.33333333       0.41489446 </v>
   <v>       1.00000000       0.66666667       0.41489446 </v>
   <v>       0.33333333      -0.00000000       0.41489446 </v>
   <v>       0.33333333       0.33333333       0.41489446 </v>
   <v>       0.33333333       0.66666667       0.41489446 </v>
   <v>       0.66666667      -0.00000000       0.41489446 </v>
   <v>       0.66666667       0.33333333       0.41489446 </v>
   <v>       0.66666667       0.66666667       0.41489446 </v>
   <v>       0.11111111       0.11111111       0.48370399 </v>
   <v>       0.11111111       0.44444444       0.48370399 </v>
   <v>       0.11111111       0.77777778       0.48370399 </v>
   <v>       0.44444444       0.11111111       0.48370399 </v>
   <v>       0.44444444       0.44444444       0.48370399 </v>
   <v>       0.44444444       0.77777778       0.48370399 </v>
   <v>       0.77777778       0.11111111       0.48370399 </v>
   <v>       0.77777778       0.44444444       0.48370399 </v>
   <v>       0.77777778       0.77777778       0.48370399 </v>
  </varray>
  <varray name="selective"  type="logical" >
   <v type="logical" >  F  F  F </v>
   <v type="logical" >  F  F  F </v>
   <v type="logical" >  F  F  F </v>
   <v type="logical" >  F  F  F </v>
   <v type="logical" >  F  F  F </v>
   <v type="logical" >  F  F  F </v>
   <v type="logical" >  F  F  F </v>
   <v type="logical" >  F  F  F </v>
   <v type="logical" >  F  F  F </v>
   <v type="logical" >  F  F  F </v>
   <v type="logical" >  F  F  F </v>
   <v type="logical" >  F  F  F </v>
   <v type="logical" >  F  F  F </v>
   <v type="logical" >  F  F  F </v>
   <v type="logical" >  F  F  F </v>
   <v type="logical" >  F  F  F </v>
   <v type="logical" >  F  F  F </v>
   <v type="logical" >  F  F  F </v>
   <v type="logical" >  T  T  T </v>
   <v type="logical" >  T  T  T </v>
   <v type="logical" >  T  T  T </v>
   <v type="logical" >  T  T  T </v>
   <v type="logical" >  T  T  T </v>
   <v type="logical" >  T  T  T </v>
   <v type="logical" >  T  T  T </v>
   <v type="logical" >  T  T  T </v>
   <v type="logical" >  T  T  T </v>
   <v type="logical" >  T  T  T </v>
   <v type="logical" >  T  T  T </v>
   <v type="logical" >  T  T  T </v>
   <v type="logical" >  T  T  T </v>
   <v type="logical" >  T  T  T </v>
   <v type="logical" >  T  T  T </v>
   <v type="logical" >  T  T  T </v>
   <v type="logical" >  T  T  T </v>
   <v type="logical" >  T  T  T </v>
   <v type="logical" >  T  T  T </v>
   <v type="logical" >  T  T  T </v>
   <v type="logical" >  T  T  T </v>
   <v type="logical" >  T  T  T </v>
   <v type="logical" >  T  T  T </v>
   <v type="logical" >  T  T  T </v>
   <v type="logical" >  T  T  T </v>
   <v type="logical" >  T  T  T </v>
   <v type="logical" >  T  T  T </v>
   <v type="logical" >  T  T  T </v>
   <v type="logical" >  T  T  T </v>
   <v type="logical" >  T  T  T </v>
   <v type="logical" >  T  T  T </v>
   <v type="logical" >  T  T  T </v>
   <v type="logical" >  T  T  T </v>
   <v type="logical" >  T  T  T </v>
   <v type="logical" >  T  T  T </v>
   <v type="logical" >  T  T  T </v>
   <v type="logical" >  T  T  T </v>
   <v type="logical" >  T  T  T </v>
   <v type="logical" >  T  T  T </v>
   <v type="logical" >  T  T  T </v>
   <v type="logical" >  T  T  T </v>
   <v type="logical" >  T  T  T </v>
   <v type="logical" >  T  T  T </v>
   <v type="logical" >  T  T  T </v>
   <v type="logical" >  T  T  T </v>
   <v type="logical" >  T  T  T </v>
   <v type="logical" >  T  T  T </v>
   <v type="logical" >  T  T  T </v>
   <v type="logical" >  T  T  T </v>
   <v type="logical" >  T  T  T </v>
   <v type="logical" >  T  T  T </v>
   <v type="logical" >  T  T  T </v>
   <v type="logical" >  T  T  T </v>
   <v type="logical" >  T  T  T </v>
  </varray>
  <nose>
   <v>      -3.00000000       0.00000000       0.00010000       0.00010000 </v>
  </nose>
 </structure>
</modeling>
