unknown system                          
           1
     7.700393    0.000000    0.000000
     3.850197    6.668736    0.000000
     0.000000    0.000000   29.670471
   Cu
    72
Direct configuration=     1
   0.00000000  0.00000000  0.00000000
   0.00000000  0.33333333  0.00000000
   1.00000000  0.66666667  0.00000000
   0.33333333  0.00000000  0.00000000
   0.33333333  0.33333333  0.00000000
   0.33333333  0.66666667  0.00000000
   0.66666667  0.00000000  0.00000000
   0.66666667  0.33333333  0.00000000
   0.66666667  0.66666667  0.00000000
   0.11111111  0.11111111  0.07063526
   0.11111111  0.44444444  0.07063526
   0.11111111  0.77777778  0.07063526
   0.44444444  0.11111111  0.07063526
   0.44444444  0.44444444  0.07063526
   0.44444444  0.77777778  0.07063526
   0.77777778  0.11111111  0.07063526
   0.77777778  0.44444444  0.07063526
   0.77777778  0.77777778  0.07063526
   0.22222222  0.22222222  0.14127053
   0.22222222  0.55555556  0.14127053
   0.22222222  0.88888889  0.14127053
   0.55555556  0.22222222  0.14127053
   0.55555556  0.55555556  0.14127053
   0.55555556  0.88888889  0.14127053
   0.88888889  0.22222222  0.14127053
   0.88888889  0.55555556  0.14127053
   0.88888889  0.88888889  0.14127053
   0.00000000  0.00000000  0.21190579
   0.00000000  0.33333333  0.21190579
   1.00000000  0.66666667  0.21190579
   0.33333333  0.00000000  0.21190579
   0.33333333  0.33333333  0.21190579
   0.33333333  0.66666667  0.21190579
   0.66666667  0.00000000  0.21190579
   0.66666667  0.33333333  0.21190579
   0.66666667  0.66666667  0.21190579
   0.11111111  0.11111111  0.28254106
   0.11111111  0.44444444  0.28254106
   0.11111111  0.77777778  0.28254106
   0.44444444  0.11111111  0.28254106
   0.44444444  0.44444444  0.28254106
   0.44444444  0.77777778  0.28254106
   0.77777778  0.11111111  0.28254106
   0.77777778  0.44444444  0.28254106
   0.77777778  0.77777778  0.28254106
   0.22222222  0.22222222  0.35317632
   0.22222222  0.55555556  0.35317632
   0.22222222  0.88888889  0.35317632
   0.55555556  0.22222222  0.35317632
   0.55555556  0.55555556  0.35317632
   0.55555556  0.88888889  0.35317632
   0.88888889  0.22222222  0.35317632
   0.88888889  0.55555556  0.35317632
   0.88888889  0.88888889  0.35317632
   0.00000000  0.00000000  0.42381158
   0.00000000  0.33333333  0.42381158
   1.00000000  0.66666667  0.42381158
   0.33333333  0.00000000  0.42381158
   0.33333333  0.33333333  0.42381158
   0.33333333  0.66666667  0.42381158
   0.66666667  0.00000000  0.42381158
   0.66666667  0.33333333  0.42381158
   0.66666667  0.66666667  0.42381158
   0.11111111  0.11111111  0.49444685
   0.11111111  0.44444444  0.49444685
   0.11111111  0.77777778  0.49444685
   0.44444444  0.11111111  0.49444685
   0.44444444  0.44444444  0.49444685
   0.44444444  0.77777778  0.49444685
   0.77777778  0.11111111  0.49444685
   0.77777778  0.44444444  0.49444685
   0.77777778  0.77777778  0.49444685
Direct configuration=     2
   0.00000000  0.00000000  0.00000000
   0.00000000  0.33333333  0.00000000
   1.00000000  0.66666667  0.00000000
   0.33333333  0.00000000  0.00000000
   0.33333333  0.33333333  0.00000000
   0.33333333  0.66666667  0.00000000
   0.66666667  0.00000000  0.00000000
   0.66666667  0.33333333  0.00000000
   0.66666667  0.66666667  0.00000000
   0.11111111  0.11111111  0.07063526
   0.11111111  0.44444444  0.07063526
   0.11111111  0.77777778  0.07063526
   0.44444444  0.11111111  0.07063526
   0.44444444  0.44444444  0.07063526
   0.44444444  0.77777778  0.07063526
   0.77777778  0.11111111  0.07063526
   0.77777778  0.44444444  0.07063526
   0.77777778  0.77777778  0.07063526
   0.22222222  0.22222222  0.14131811
   0.22222222  0.55555556  0.14131811
   0.22222222  0.88888889  0.14131811
   0.55555556  0.22222222  0.14131811
   0.55555556  0.55555556  0.14131811
   0.55555556  0.88888889  0.14131811
   0.88888889  0.22222222  0.14131811
   0.88888889  0.55555556  0.14131811
   0.88888889  0.88888889  0.14131811
   0.00000000 -0.00000000  0.21180606
   0.00000000  0.33333333  0.21180606
   1.00000000  0.66666667  0.21180606
   0.33333333 -0.00000000  0.21180606
   0.33333333  0.33333333  0.21180606
   0.33333333  0.66666667  0.21180606
   0.66666667 -0.00000000  0.21180606
   0.66666667  0.33333333  0.21180606
   0.66666667  0.66666667  0.21180606
   0.11111111  0.11111111  0.28264707
   0.11111111  0.44444444  0.28264707
   0.11111111  0.77777778  0.28264707
   0.44444444  0.11111111  0.28264707
   0.44444444  0.44444444  0.28264707
   0.44444444  0.77777778  0.28264707
   0.77777778  0.11111111  0.28264707
   0.77777778  0.44444444  0.28264707
   0.77777778  0.77777778  0.28264707
   0.22222222  0.22222222  0.35312922
   0.22222222  0.55555556  0.35312922
   0.22222222  0.88888889  0.35312922
   0.55555556  0.22222222  0.35312922
   0.55555556  0.55555556  0.35312922
   0.55555556  0.88888889  0.35312922
   0.88888889  0.22222222  0.35312922
   0.88888889  0.55555556  0.35312922
   0.88888889  0.88888889  0.35312922
   0.00000000 -0.00000000  0.42380598
   0.00000000  0.33333333  0.42380598
   1.00000000  0.66666667  0.42380598
   0.33333333 -0.00000000  0.42380598
   0.33333333  0.33333333  0.42380598
   0.33333333  0.66666667  0.42380598
   0.66666667 -0.00000000  0.42380598
   0.66666667  0.33333333  0.42380598
   0.66666667  0.66666667  0.42380598
   0.11111111  0.11111111  0.49410037
   0.11111111  0.44444444  0.49410037
   0.11111111  0.77777778  0.49410037
   0.44444444  0.11111111  0.49410037
   0.44444444  0.44444444  0.49410037
   0.44444444  0.77777778  0.49410037
   0.77777778  0.11111111  0.49410037
   0.77777778  0.44444444  0.49410037
   0.77777778  0.77777778  0.49410037
Direct configuration=     3
   0.00000000  0.00000000  0.00000000
   0.00000000  0.33333333  0.00000000
   1.00000000  0.66666667  0.00000000
   0.33333333  0.00000000  0.00000000
   0.33333333  0.33333333  0.00000000
   0.33333333  0.66666667  0.00000000
   0.66666667  0.00000000  0.00000000
   0.66666667  0.33333333  0.00000000
   0.66666667  0.66666667  0.00000000
   0.11111111  0.11111111  0.07063526
   0.11111111  0.44444444  0.07063526
   0.11111111  0.77777778  0.07063526
   0.44444444  0.11111111  0.07063526
   0.44444444  0.44444444  0.07063526
   0.44444444  0.77777778  0.07063526
   0.77777778  0.11111111  0.07063526
   0.77777778  0.44444444  0.07063526
   0.77777778  0.77777778  0.07063526
   0.22222222  0.22222222  0.14143368
   0.22222222  0.55555556  0.14143368
   0.22222222  0.88888889  0.14143368
   0.55555556  0.22222222  0.14143368
   0.55555556  0.55555556  0.14143368
   0.55555556  0.88888889  0.14143368
   0.88888889  0.22222222  0.14143368
   0.88888889  0.55555556  0.14143368
   0.88888889  0.88888889  0.14143368
   0.00000000 -0.00000000  0.21156384
   0.00000000  0.33333333  0.21156384
   1.00000000  0.66666667  0.21156384
   0.33333333 -0.00000000  0.21156384
   0.33333333  0.33333333  0.21156384
   0.33333333  0.66666667  0.21156384
   0.66666667 -0.00000000  0.21156384
   0.66666667  0.33333333  0.21156384
   0.66666667  0.66666667  0.21156384
   0.11111111  0.11111111  0.28290454
   0.11111111  0.44444444  0.28290454
   0.11111111  0.77777778  0.28290454
   0.44444444  0.11111111  0.28290454
   0.44444444  0.44444444  0.28290454
   0.44444444  0.77777778  0.28290454
   0.77777778  0.11111111  0.28290454
   0.77777778  0.44444444  0.28290454
   0.77777778  0.77777778  0.28290454
   0.22222222  0.22222222  0.35301482
   0.22222222  0.55555556  0.35301482
   0.22222222  0.88888889  0.35301482
   0.55555556  0.22222222  0.35301482
   0.55555556  0.55555556  0.35301482
   0.55555556  0.88888889  0.35301482
   0.88888889  0.22222222  0.35301482
   0.88888889  0.55555556  0.35301482
   0.88888889  0.88888889  0.35301482
   0.00000000 -0.00000000  0.42379236
   0.00000000  0.33333333  0.42379236
   1.00000000  0.66666667  0.42379236
   0.33333333 -0.00000000  0.42379236
   0.33333333  0.33333333  0.42379236
   0.33333333  0.66666667  0.42379236
   0.66666667 -0.00000000  0.42379236
   0.66666667  0.33333333  0.42379236
   0.66666667  0.66666667  0.42379236
   0.11111111  0.11111111  0.49325888
   0.11111111  0.44444444  0.49325888
   0.11111111  0.77777778  0.49325888
   0.44444444  0.11111111  0.49325888
   0.44444444  0.44444444  0.49325888
   0.44444444  0.77777778  0.49325888
   0.77777778  0.11111111  0.49325888
   0.77777778  0.44444444  0.49325888
   0.77777778  0.77777778  0.49325888
Direct configuration=     4
   0.00000000  0.00000000  0.00000000
   0.00000000  0.33333333  0.00000000
   1.00000000  0.66666667  0.00000000
   0.33333333  0.00000000  0.00000000
   0.33333333  0.33333333  0.00000000
   0.33333333  0.66666667  0.00000000
   0.66666667  0.00000000  0.00000000
   0.66666667  0.33333333  0.00000000
   0.66666667  0.66666667  0.00000000
   0.11111111  0.11111111  0.07063526
   0.11111111  0.44444444  0.07063526
   0.11111111  0.77777778  0.07063526
   0.44444444  0.11111111  0.07063526
   0.44444444  0.44444444  0.07063526
   0.44444444  0.77777778  0.07063526
   0.77777778  0.11111111  0.07063526
   0.77777778  0.44444444  0.07063526
   0.77777778  0.77777778  0.07063526
   0.22222222  0.22222222  0.14137845
   0.22222222  0.55555556  0.14137845
   0.22222222  0.88888889  0.14137845
   0.55555556  0.22222222  0.14137845
   0.55555556  0.55555556  0.14137845
   0.55555556  0.88888889  0.14137845
   0.88888889  0.22222222  0.14137845
   0.88888889  0.55555556  0.14137845
   0.88888889  0.88888889  0.14137845
   0.00000000 -0.00000000  0.21162900
   0.00000000  0.33333333  0.21162900
   1.00000000  0.66666667  0.21162900
   0.33333333 -0.00000000  0.21162900
   0.33333333  0.33333333  0.21162900
   0.33333333  0.66666667  0.21162900
   0.66666667 -0.00000000  0.21162900
   0.66666667  0.33333333  0.21162900
   0.66666667  0.66666667  0.21162900
   0.11111111  0.11111111  0.28283952
   0.11111111  0.44444444  0.28283952
   0.11111111  0.77777778  0.28283952
   0.44444444  0.11111111  0.28283952
   0.44444444  0.44444444  0.28283952
   0.44444444  0.77777778  0.28283952
   0.77777778  0.11111111  0.28283952
   0.77777778  0.44444444  0.28283952
   0.77777778  0.77777778  0.28283952
   0.22222222  0.22222222  0.35305825
   0.22222222  0.55555556  0.35305825
   0.22222222  0.88888889  0.35305825
   0.55555556  0.22222222  0.35305825
   0.55555556  0.55555556  0.35305825
   0.55555556  0.88888889  0.35305825
   0.88888889  0.22222222  0.35305825
   0.88888889  0.55555556  0.35305825
   0.88888889  0.88888889  0.35305825
   0.00000000 -0.00000000  0.42347944
   0.00000000  0.33333333  0.42347944
   1.00000000  0.66666667  0.42347944
   0.33333333 -0.00000000  0.42347944
   0.33333333  0.33333333  0.42347944
   0.33333333  0.66666667  0.42347944
   0.66666667 -0.00000000  0.42347944
   0.66666667  0.33333333  0.42347944
   0.66666667  0.66666667  0.42347944
   0.11111111  0.11111111  0.49283110
   0.11111111  0.44444444  0.49283110
   0.11111111  0.77777778  0.49283110
   0.44444444  0.11111111  0.49283110
   0.44444444  0.44444444  0.49283110
   0.44444444  0.77777778  0.49283110
   0.77777778  0.11111111  0.49283110
   0.77777778  0.44444444  0.49283110
   0.77777778  0.77777778  0.49283110
Direct configuration=     5
   0.00000000  0.00000000  0.00000000
   0.00000000  0.33333333  0.00000000
   1.00000000  0.66666667  0.00000000
   0.33333333  0.00000000  0.00000000
   0.33333333  0.33333333  0.00000000
   0.33333333  0.66666667  0.00000000
   0.66666667  0.00000000  0.00000000
   0.66666667  0.33333333  0.00000000
   0.66666667  0.66666667  0.00000000
   0.11111111  0.11111111  0.07063526
   0.11111111  0.44444444  0.07063526
   0.11111111  0.77777778  0.07063526
   0.44444444  0.11111111  0.07063526
   0.44444444  0.44444444  0.07063526
   0.44444444  0.77777778  0.07063526
   0.77777778  0.11111111  0.07063526
   0.77777778  0.44444444  0.07063526
   0.77777778  0.77777778  0.07063526
   0.22222222  0.22222222  0.14122886
   0.22222222  0.55555556  0.14122886
   0.22222222  0.88888889  0.14122886
   0.55555556  0.22222222  0.14122886
   0.55555556  0.55555556  0.14122886
   0.55555556  0.88888889  0.14122886
   0.88888889  0.22222222  0.14122886
   0.88888889  0.55555556  0.14122886
   0.88888889  0.88888889  0.14122886
   0.00000000 -0.00000000  0.21180550
   0.00000000  0.33333333  0.21180550
   1.00000000  0.66666667  0.21180550
   0.33333333 -0.00000000  0.21180550
   0.33333333  0.33333333  0.21180550
   0.33333333  0.66666667  0.21180550
   0.66666667 -0.00000000  0.21180550
   0.66666667  0.33333333  0.21180550
   0.66666667  0.66666667  0.21180550
   0.11111111  0.11111111  0.28266340
   0.11111111  0.44444444  0.28266340
   0.11111111  0.77777778  0.28266340
   0.44444444  0.11111111  0.28266340
   0.44444444  0.44444444  0.28266340
   0.44444444  0.77777778  0.28266340
   0.77777778  0.11111111  0.28266340
   0.77777778  0.44444444  0.28266340
   0.77777778  0.77777778  0.28266340
   0.22222222  0.22222222  0.35317589
   0.22222222  0.55555556  0.35317589
   0.22222222  0.88888889  0.35317589
   0.55555556  0.22222222  0.35317589
   0.55555556  0.55555556  0.35317589
   0.55555556  0.88888889  0.35317589
   0.88888889  0.22222222  0.35317589
   0.88888889  0.55555556  0.35317589
   0.88888889  0.88888889  0.35317589
   0.00000000 -0.00000000  0.42263183
   0.00000000  0.33333333  0.42263183
   1.00000000  0.66666667  0.42263183
   0.33333333 -0.00000000  0.42263183
   0.33333333  0.33333333  0.42263183
   0.33333333  0.66666667  0.42263183
   0.66666667 -0.00000000  0.42263183
   0.66666667  0.33333333  0.42263183
   0.66666667  0.66666667  0.42263183
   0.11111111  0.11111111  0.49167236
   0.11111111  0.44444444  0.49167236
   0.11111111  0.77777778  0.49167236
   0.44444444  0.11111111  0.49167236
   0.44444444  0.44444444  0.49167236
   0.44444444  0.77777778  0.49167236
   0.77777778  0.11111111  0.49167236
   0.77777778  0.44444444  0.49167236
   0.77777778  0.77777778  0.49167236
Direct configuration=     6
   0.00000000  0.00000000  0.00000000
   0.00000000  0.33333333  0.00000000
   1.00000000  0.66666667  0.00000000
   0.33333333  0.00000000  0.00000000
   0.33333333  0.33333333  0.00000000
   0.33333333  0.66666667  0.00000000
   0.66666667  0.00000000  0.00000000
   0.66666667  0.33333333  0.00000000
   0.66666667  0.66666667  0.00000000
   0.11111111  0.11111111  0.07063526
   0.11111111  0.44444444  0.07063526
   0.11111111  0.77777778  0.07063526
   0.44444444  0.11111111  0.07063526
   0.44444444  0.44444444  0.07063526
   0.44444444  0.77777778  0.07063526
   0.77777778  0.11111111  0.07063526
   0.77777778  0.44444444  0.07063526
   0.77777778  0.77777778  0.07063526
   0.22222222  0.22222222  0.14124100
   0.22222222  0.55555556  0.14124100
   0.22222222  0.88888889  0.14124100
   0.55555556  0.22222222  0.14124100
   0.55555556  0.55555556  0.14124100
   0.55555556  0.88888889  0.14124100
   0.88888889  0.22222222  0.14124100
   0.88888889  0.55555556  0.14124100
   0.88888889  0.88888889  0.14124100
   0.00000000 -0.00000000  0.21179104
   0.00000000  0.33333333  0.21179104
   1.00000000  0.66666667  0.21179104
   0.33333333 -0.00000000  0.21179104
   0.33333333  0.33333333  0.21179104
   0.33333333  0.66666667  0.21179104
   0.66666667 -0.00000000  0.21179104
   0.66666667  0.33333333  0.21179104
   0.66666667  0.66666667  0.21179104
   0.11111111  0.11111111  0.28265240
   0.11111111  0.44444444  0.28265240
   0.11111111  0.77777778  0.28265240
   0.44444444  0.11111111  0.28265240
   0.44444444  0.44444444  0.28265240
   0.44444444  0.77777778  0.28265240
   0.77777778  0.11111111  0.28265240
   0.77777778  0.44444444  0.28265240
   0.77777778  0.77777778  0.28265240
   0.22222222  0.22222222  0.35286381
   0.22222222  0.55555556  0.35286381
   0.22222222  0.88888889  0.35286381
   0.55555556  0.22222222  0.35286381
   0.55555556  0.55555556  0.35286381
   0.55555556  0.88888889  0.35286381
   0.88888889  0.22222222  0.35286381
   0.88888889  0.55555556  0.35286381
   0.88888889  0.88888889  0.35286381
   0.00000000 -0.00000000  0.42225542
   0.00000000  0.33333333  0.42225542
   1.00000000  0.66666667  0.42225542
   0.33333333 -0.00000000  0.42225542
   0.33333333  0.33333333  0.42225542
   0.33333333  0.66666667  0.42225542
   0.66666667 -0.00000000  0.42225542
   0.66666667  0.33333333  0.42225542
   0.66666667  0.66666667  0.42225542
   0.11111111  0.11111111  0.49122674
   0.11111111  0.44444444  0.49122674
   0.11111111  0.77777778  0.49122674
   0.44444444  0.11111111  0.49122674
   0.44444444  0.44444444  0.49122674
   0.44444444  0.77777778  0.49122674
   0.77777778  0.11111111  0.49122674
   0.77777778  0.44444444  0.49122674
   0.77777778  0.77777778  0.49122674
Direct configuration=     7
   0.00000000  0.00000000  0.00000000
   0.00000000  0.33333333  0.00000000
   1.00000000  0.66666667  0.00000000
   0.33333333  0.00000000  0.00000000
   0.33333333  0.33333333  0.00000000
   0.33333333  0.66666667  0.00000000
   0.66666667  0.00000000  0.00000000
   0.66666667  0.33333333  0.00000000
   0.66666667  0.66666667  0.00000000
   0.11111111  0.11111111  0.07063526
   0.11111111  0.44444444  0.07063526
   0.11111111  0.77777778  0.07063526
   0.44444444  0.11111111  0.07063526
   0.44444444  0.44444444  0.07063526
   0.44444444  0.77777778  0.07063526
   0.77777778  0.11111111  0.07063526
   0.77777778  0.44444444  0.07063526
   0.77777778  0.77777778  0.07063526
   0.22222222  0.22222222  0.14127744
   0.22222222  0.55555556  0.14127744
   0.22222222  0.88888889  0.14127744
   0.55555556  0.22222222  0.14127744
   0.55555556  0.55555556  0.14127744
   0.55555556  0.88888889  0.14127744
   0.88888889  0.22222222  0.14127744
   0.88888889  0.55555556  0.14127744
   0.88888889  0.88888889  0.14127744
   0.00000000 -0.00000000  0.21174763
   0.00000000  0.33333333  0.21174763
   1.00000000  0.66666667  0.21174763
   0.33333333 -0.00000000  0.21174763
   0.33333333  0.33333333  0.21174763
   0.33333333  0.66666667  0.21174763
   0.66666667 -0.00000000  0.21174763
   0.66666667  0.33333333  0.21174763
   0.66666667  0.66666667  0.21174763
   0.11111111  0.11111111  0.28261941
   0.11111111  0.44444444  0.28261941
   0.11111111  0.77777778  0.28261941
   0.44444444  0.11111111  0.28261941
   0.44444444  0.44444444  0.28261941
   0.44444444  0.77777778  0.28261941
   0.77777778  0.11111111  0.28261941
   0.77777778  0.44444444  0.28261941
   0.77777778  0.77777778  0.28261941
   0.22222222  0.22222222  0.35192757
   0.22222222  0.55555556  0.35192757
   0.22222222  0.88888889  0.35192757
   0.55555556  0.22222222  0.35192757
   0.55555556  0.55555556  0.35192757
   0.55555556  0.88888889  0.35192757
   0.88888889  0.22222222  0.35192757
   0.88888889  0.55555556  0.35192757
   0.88888889  0.88888889  0.35192757
   0.00000000 -0.00000000  0.42112618
   0.00000000  0.33333333  0.42112618
   1.00000000  0.66666667  0.42112618
   0.33333333 -0.00000000  0.42112618
   0.33333333  0.33333333  0.42112618
   0.33333333  0.66666667  0.42112618
   0.66666667 -0.00000000  0.42112618
   0.66666667  0.33333333  0.42112618
   0.66666667  0.66666667  0.42112618
   0.11111111  0.11111111  0.48988987
   0.11111111  0.44444444  0.48988987
   0.11111111  0.77777778  0.48988987
   0.44444444  0.11111111  0.48988987
   0.44444444  0.44444444  0.48988987
   0.44444444  0.77777778  0.48988987
   0.77777778  0.11111111  0.48988987
   0.77777778  0.44444444  0.48988987
   0.77777778  0.77777778  0.48988987
Direct configuration=     8
   0.00000000  0.00000000  0.00000000
   0.00000000  0.33333333  0.00000000
   1.00000000  0.66666667  0.00000000
   0.33333333  0.00000000  0.00000000
   0.33333333  0.33333333  0.00000000
   0.33333333  0.66666667  0.00000000
   0.66666667  0.00000000  0.00000000
   0.66666667  0.33333333  0.00000000
   0.66666667  0.66666667  0.00000000
   0.11111111  0.11111111  0.07063526
   0.11111111  0.44444444  0.07063526
   0.11111111  0.77777778  0.07063526
   0.44444444  0.11111111  0.07063526
   0.44444444  0.44444444  0.07063526
   0.44444444  0.77777778  0.07063526
   0.77777778  0.11111111  0.07063526
   0.77777778  0.44444444  0.07063526
   0.77777778  0.77777778  0.07063526
   0.22222222  0.22222222  0.14135033
   0.22222222  0.55555556  0.14135033
   0.22222222  0.88888889  0.14135033
   0.55555556  0.22222222  0.14135033
   0.55555556  0.55555556  0.14135033
   0.55555556  0.88888889  0.14135033
   0.88888889  0.22222222  0.14135033
   0.88888889  0.55555556  0.14135033
   0.88888889  0.88888889  0.14135033
   0.00000000 -0.00000000  0.21166082
   0.00000000  0.33333333  0.21166082
   1.00000000  0.66666667  0.21166082
   0.33333333 -0.00000000  0.21166082
   0.33333333  0.33333333  0.21166082
   0.33333333  0.66666667  0.21166082
   0.66666667 -0.00000000  0.21166082
   0.66666667  0.33333333  0.21166082
   0.66666667  0.66666667  0.21166082
   0.11111111  0.11111111  0.28255342
   0.11111111  0.44444444  0.28255342
   0.11111111  0.77777778  0.28255342
   0.44444444  0.11111111  0.28255342
   0.44444444  0.44444444  0.28255342
   0.44444444  0.77777778  0.28255342
   0.77777778  0.11111111  0.28255342
   0.77777778  0.44444444  0.28255342
   0.77777778  0.77777778  0.28255342
   0.22222222  0.22222222  0.35005509
   0.22222222  0.55555556  0.35005509
   0.22222222  0.88888889  0.35005509
   0.55555556  0.22222222  0.35005509
   0.55555556  0.55555556  0.35005509
   0.55555556  0.88888889  0.35005509
   0.88888889  0.22222222  0.35005509
   0.88888889  0.55555556  0.35005509
   0.88888889  0.88888889  0.35005509
   0.00000000 -0.00000000  0.41886769
   0.00000000  0.33333333  0.41886769
   1.00000000  0.66666667  0.41886769
   0.33333333 -0.00000000  0.41886769
   0.33333333  0.33333333  0.41886769
   0.33333333  0.66666667  0.41886769
   0.66666667 -0.00000000  0.41886769
   0.66666667  0.33333333  0.41886769
   0.66666667  0.66666667  0.41886769
   0.11111111  0.11111111  0.48721613
   0.11111111  0.44444444  0.48721613
   0.11111111  0.77777778  0.48721613
   0.44444444  0.11111111  0.48721613
   0.44444444  0.44444444  0.48721613
   0.44444444  0.77777778  0.48721613
   0.77777778  0.11111111  0.48721613
   0.77777778  0.44444444  0.48721613
   0.77777778  0.77777778  0.48721613
Direct configuration=     9
   0.00000000  0.00000000  0.00000000
   0.00000000  0.33333333  0.00000000
   1.00000000  0.66666667  0.00000000
   0.33333333  0.00000000  0.00000000
   0.33333333  0.33333333  0.00000000
   0.33333333  0.66666667  0.00000000
   0.66666667  0.00000000  0.00000000
   0.66666667  0.33333333  0.00000000
   0.66666667  0.66666667  0.00000000
   0.11111111  0.11111111  0.07063526
   0.11111111  0.44444444  0.07063526
   0.11111111  0.77777778  0.07063526
   0.44444444  0.11111111  0.07063526
   0.44444444  0.44444444  0.07063526
   0.44444444  0.77777778  0.07063526
   0.77777778  0.11111111  0.07063526
   0.77777778  0.44444444  0.07063526
   0.77777778  0.77777778  0.07063526
   0.22222222  0.22222222  0.14130004
   0.22222222  0.55555556  0.14130004
   0.22222222  0.88888889  0.14130004
   0.55555556  0.22222222  0.14130004
   0.55555556  0.55555556  0.14130004
   0.55555556  0.88888889  0.14130004
   0.88888889  0.22222222  0.14130004
   0.88888889  0.55555556  0.14130004
   0.88888889  0.88888889  0.14130004
   0.00000000 -0.00000000  0.21172071
   0.00000000  0.33333333  0.21172071
   1.00000000  0.66666667  0.21172071
   0.33333333 -0.00000000  0.21172071
   0.33333333  0.33333333  0.21172071
   0.33333333  0.66666667  0.21172071
   0.66666667 -0.00000000  0.21172071
   0.66666667  0.33333333  0.21172071
   0.66666667  0.66666667  0.21172071
   0.11111111  0.11111111  0.28259895
   0.11111111  0.44444444  0.28259895
   0.11111111  0.77777778  0.28259895
   0.44444444  0.11111111  0.28259895
   0.44444444  0.44444444  0.28259895
   0.44444444  0.77777778  0.28259895
   0.77777778  0.11111111  0.28259895
   0.77777778  0.44444444  0.28259895
   0.77777778  0.77777778  0.28259895
   0.22222222  0.22222222  0.35134699
   0.22222222  0.55555556  0.35134699
   0.22222222  0.88888889  0.35134699
   0.55555556  0.22222222  0.35134699
   0.55555556  0.55555556  0.35134699
   0.55555556  0.88888889  0.35134699
   0.88888889  0.22222222  0.35134699
   0.88888889  0.55555556  0.35134699
   0.88888889  0.88888889  0.35134699
   0.00000000 -0.00000000  0.42042591
   0.00000000  0.33333333  0.42042591
   1.00000000  0.66666667  0.42042591
   0.33333333 -0.00000000  0.42042591
   0.33333333  0.33333333  0.42042591
   0.33333333  0.66666667  0.42042591
   0.66666667 -0.00000000  0.42042591
   0.66666667  0.33333333  0.42042591
   0.66666667  0.66666667  0.42042591
   0.11111111  0.11111111  0.48906085
   0.11111111  0.44444444  0.48906085
   0.11111111  0.77777778  0.48906085
   0.44444444  0.11111111  0.48906085
   0.44444444  0.44444444  0.48906085
   0.44444444  0.77777778  0.48906085
   0.77777778  0.11111111  0.48906085
   0.77777778  0.44444444  0.48906085
   0.77777778  0.77777778  0.48906085
Direct configuration=    10
   0.00000000  0.00000000  0.00000000
   0.00000000  0.33333333  0.00000000
   1.00000000  0.66666667  0.00000000
   0.33333333  0.00000000  0.00000000
   0.33333333  0.33333333  0.00000000
   0.33333333  0.66666667  0.00000000
   0.66666667  0.00000000  0.00000000
   0.66666667  0.33333333  0.00000000
   0.66666667  0.66666667  0.00000000
   0.11111111  0.11111111  0.07063526
   0.11111111  0.44444444  0.07063526
   0.11111111  0.77777778  0.07063526
   0.44444444  0.11111111  0.07063526
   0.44444444  0.44444444  0.07063526
   0.44444444  0.77777778  0.07063526
   0.77777778  0.11111111  0.07063526
   0.77777778  0.44444444  0.07063526
   0.77777778  0.77777778  0.07063526
   0.22222222  0.22222222  0.14133124
   0.22222222  0.55555556  0.14133124
   0.22222222  0.88888889  0.14133124
   0.55555556  0.22222222  0.14133124
   0.55555556  0.55555556  0.14133124
   0.55555556  0.88888889  0.14133124
   0.88888889  0.22222222  0.14133124
   0.88888889  0.55555556  0.14133124
   0.88888889  0.88888889  0.14133124
   0.00000000 -0.00000000  0.21166286
   0.00000000  0.33333333  0.21166286
   1.00000000  0.66666667  0.21166286
   0.33333333 -0.00000000  0.21166286
   0.33333333  0.33333333  0.21166286
   0.33333333  0.66666667  0.21166286
   0.66666667 -0.00000000  0.21166286
   0.66666667  0.33333333  0.21166286
   0.66666667  0.66666667  0.21166286
   0.11111111  0.11111111  0.28223557
   0.11111111  0.44444444  0.28223557
   0.11111111  0.77777778  0.28223557
   0.44444444  0.11111111  0.28223557
   0.44444444  0.44444444  0.28223557
   0.44444444  0.77777778  0.28223557
   0.77777778  0.11111111  0.28223557
   0.77777778  0.44444444  0.28223557
   0.77777778  0.77777778  0.28223557
   0.22222222  0.22222222  0.35098421
   0.22222222  0.55555556  0.35098421
   0.22222222  0.88888889  0.35098421
   0.55555556  0.22222222  0.35098421
   0.55555556  0.55555556  0.35098421
   0.55555556  0.88888889  0.35098421
   0.88888889  0.22222222  0.35098421
   0.88888889  0.55555556  0.35098421
   0.88888889  0.88888889  0.35098421
   0.00000000 -0.00000000  0.41992247
   0.00000000  0.33333333  0.41992247
   1.00000000  0.66666667  0.41992247
   0.33333333 -0.00000000  0.41992247
   0.33333333  0.33333333  0.41992247
   0.33333333  0.66666667  0.41992247
   0.66666667 -0.00000000  0.41992247
   0.66666667  0.33333333  0.41992247
   0.66666667  0.66666667  0.41992247
   0.11111111  0.11111111  0.48860614
   0.11111111  0.44444444  0.48860614
   0.11111111  0.77777778  0.48860614
   0.44444444  0.11111111  0.48860614
   0.44444444  0.44444444  0.48860614
   0.44444444  0.77777778  0.48860614
   0.77777778  0.11111111  0.48860614
   0.77777778  0.44444444  0.48860614
   0.77777778  0.77777778  0.48860614
Direct configuration=    11
   0.00000000  0.00000000  0.00000000
   0.00000000  0.33333333  0.00000000
   1.00000000  0.66666667  0.00000000
   0.33333333  0.00000000  0.00000000
   0.33333333  0.33333333  0.00000000
   0.33333333  0.66666667  0.00000000
   0.66666667  0.00000000  0.00000000
   0.66666667  0.33333333  0.00000000
   0.66666667  0.66666667  0.00000000
   0.11111111  0.11111111  0.07063526
   0.11111111  0.44444444  0.07063526
   0.11111111  0.77777778  0.07063526
   0.44444444  0.11111111  0.07063526
   0.44444444  0.44444444  0.07063526
   0.44444444  0.77777778  0.07063526
   0.77777778  0.11111111  0.07063526
   0.77777778  0.44444444  0.07063526
   0.77777778  0.77777778  0.07063526
   0.22222222  0.22222222  0.14141902
   0.22222222  0.55555556  0.14141902
   0.22222222  0.88888889  0.14141902
   0.55555556  0.22222222  0.14141902
   0.55555556  0.55555556  0.14141902
   0.55555556  0.88888889  0.14141902
   0.88888889  0.22222222  0.14141902
   0.88888889  0.55555556  0.14141902
   0.88888889  0.88888889  0.14141902
   0.00000000 -0.00000000  0.21150004
   0.00000000  0.33333333  0.21150004
   1.00000000  0.66666667  0.21150004
   0.33333333 -0.00000000  0.21150004
   0.33333333  0.33333333  0.21150004
   0.33333333  0.66666667  0.21150004
   0.66666667 -0.00000000  0.21150004
   0.66666667  0.33333333  0.21150004
   0.66666667  0.66666667  0.21150004
   0.11111111  0.11111111  0.28121302
   0.11111111  0.44444444  0.28121302
   0.11111111  0.77777778  0.28121302
   0.44444444  0.11111111  0.28121302
   0.44444444  0.44444444  0.28121302
   0.44444444  0.77777778  0.28121302
   0.77777778  0.11111111  0.28121302
   0.77777778  0.44444444  0.28121302
   0.77777778  0.77777778  0.28121302
   0.22222222  0.22222222  0.34996332
   0.22222222  0.55555556  0.34996332
   0.22222222  0.88888889  0.34996332
   0.55555556  0.22222222  0.34996332
   0.55555556  0.55555556  0.34996332
   0.55555556  0.88888889  0.34996332
   0.88888889  0.22222222  0.34996332
   0.88888889  0.55555556  0.34996332
   0.88888889  0.88888889  0.34996332
   0.00000000 -0.00000000  0.41850577
   0.00000000  0.33333333  0.41850577