       N       E                     dE             d eps       ncg     rms          rms(c)
DAV:   1     0.155450430420E+05    0.15545E+05   -0.56115E+05 16392   0.190E+03
