  24  24   0   0
  0.2422945E+02  0.5133596E-09  0.5133596E-09  0.2547891E-08  0.5000000E-15
  1.000000000000000E-004
  CAR 
 unknown system                          
     13.37267712     -9.85732601  301      1.35381781      1.00000000
     -9.857  0.0000E+00  0.0000E+00  0.0000E+00  0.0000E+00
     -9.780  0.0000E+00  0.0000E+00  0.0000E+00  0.0000E+00
     -9.702  0.0000E+00  0.0000E+00  0.0000E+00  0.0000E+00
     -9.625  0.0000E+00  0.0000E+00  0.0000E+00  0.0000E+00
     -9.548  0.0000E+00  0.0000E+00  0.0000E+00  0.0000E+00
     -9.470 -0.2334E-30 -0.2334E-30 -0.1808E-31 -0.1808E-31
     -9.393 -0.9830E-28 -0.9830E-28 -0.7630E-29 -0.7630E-29
     -9.315 -0.3064E-25 -0.3064E-25 -0.2380E-26 -0.2380E-26
     -9.238 -0.7055E-23 -0.7055E-23 -0.5487E-24 -0.5487E-24
     -9.160 -0.1199E-20 -0.1199E-20 -0.9342E-22 -0.9342E-22
     -9.083 -0.1505E-18 -0.1505E-18 -0.1174E-19 -0.1174E-19
     -9.006 -0.1352E-16 -0.1352E-16 -0.1059E-17 -0.1059E-17
     -8.928 -0.9163E-15 -0.9163E-15 -0.7201E-16 -0.7201E-16
     -8.851 -0.4571E-13 -0.4571E-13 -0.3612E-14 -0.3612E-14
     -8.773 -0.1674E-11 -0.1674E-11 -0.1332E-12 -0.1332E-12
     -8.696 -0.4486E-10 -0.4486E-10 -0.3607E-11 -0.3607E-11
     -8.618 -0.8773E-09 -0.8773E-09 -0.7154E-10 -0.7154E-10
     -8.541 -0.1245E-07 -0.1245E-07 -0.1036E-08 -0.1036E-08
     -8.464 -0.1273E-06 -0.1273E-06 -0.1090E-07 -0.1090E-07
     -8.386 -0.9259E-06 -0.9259E-06 -0.8259E-07 -0.8259E-07
     -8.309 -0.4677E-05 -0.4677E-05 -0.4448E-06 -0.4448E-06
     -8.231 -0.1561E-04 -0.1561E-04 -0.1654E-05 -0.1654E-05
     -8.154 -0.2964E-04 -0.2964E-04 -0.3949E-05 -0.3949E-05
     -8.076 -0.7105E-05 -0.7105E-05 -0.4499E-05 -0.4499E-05
     -7.999  0.1251E-03  0.1251E-03  0.5190E-05  0.5190E-05
     -7.921  0.3695E-03  0.3695E-03  0.3380E-04  0.3380E-04
     -7.844  0.5607E-03  0.5607E-03  0.7722E-04  0.7722E-04
     -7.767  0.5155E-03  0.5155E-03  0.1171E-03  0.1171E-03
     -7.689  0.2789E-03  0.2789E-03  0.1387E-03  0.1387E-03
     -7.612  0.5761E-04  0.5761E-04  0.1432E-03  0.1432E-03
     -7.534 -0.4568E-04 -0.4568E-04  0.1397E-03  0.1397E-03
     -7.457 -0.7722E-04 -0.7722E-04  0.1337E-03  0.1337E-03
     -7.379 -0.8141E-04 -0.8141E-04  0.1274E-03  0.1274E-03
     -7.302 -0.7282E-05 -0.7282E-05  0.1268E-03  0.1268E-03
     -7.225  0.3058E-03  0.3058E-03  0.1505E-03  0.1505E-03
     -7.147  0.1102E-02  0.1102E-02  0.2358E-03  0.2358E-03
     -7.070  0.2395E-02  0.2395E-02  0.4213E-03  0.4213E-03
     -6.992  0.3466E-02  0.3466E-02  0.6897E-03  0.6897E-03
     -6.915  0.3307E-02  0.3307E-02  0.9457E-03  0.9457E-03
     -6.837  0.1950E-02  0.1950E-02  0.1097E-02  0.1097E-02
     -6.760  0.5152E-03  0.5152E-03  0.1137E-02  0.1137E-02
     -6.683 -0.2260E-03 -0.2260E-03  0.1119E-02  0.1119E-02
     -6.605 -0.3549E-03 -0.3549E-03  0.1092E-02  0.1092E-02
     -6.528  0.1918E-04  0.1918E-04  0.1093E-02  0.1093E-02
     -6.450  0.1106E-02  0.1106E-02  0.1179E-02  0.1179E-02
     -6.373  0.2651E-02  0.2651E-02  0.1384E-02  0.1384E-02
     -6.295  0.3553E-02  0.3553E-02  0.1659E-02  0.1659E-02
     -6.218  0.3062E-02  0.3062E-02  0.1896E-02  0.1896E-02
     -6.141  0.1763E-02  0.1763E-02  0.2033E-02  0.2033E-02
     -6.063  0.6764E-03  0.6764E-03  0.2085E-02  0.2085E-02
     -5.986  0.1353E-03  0.1353E-03  0.2096E-02  0.2096E-02
     -5.908 -0.5521E-04 -0.5521E-04  0.2091E-02  0.2091E-02
     -5.831 -0.1272E-03 -0.1272E-03  0.2082E-02  0.2082E-02
     -5.753 -0.2312E-03 -0.2312E-03  0.2064E-02  0.2064E-02
     -5.676 -0.3384E-03 -0.3384E-03  0.2037E-02  0.2037E-02
     -5.598  0.2311E-04  0.2311E-04  0.2039E-02  0.2039E-02
     -5.521  0.1629E-02  0.1629E-02  0.2165E-02  0.2165E-02
     -5.444  0.4391E-02  0.4391E-02  0.2505E-02  0.2505E-02
     -5.366  0.6466E-02  0.6466E-02  0.3006E-02  0.3006E-02
     -5.289  0.5913E-02  0.5913E-02  0.3464E-02  0.3464E-02
     -5.211  0.3201E-02  0.3201E-02  0.3712E-02  0.3712E-02
     -5.134  0.6572E-03  0.6572E-03  0.3763E-02  0.3763E-02
     -5.056 -0.4114E-04 -0.4114E-04  0.3759E-02  0.3759E-02
     -4.979  0.1382E-02  0.1382E-02  0.3867E-02  0.3867E-02
     -4.902  0.4195E-02  0.4195E-02  0.4191E-02  0.4191E-02
     -4.824  0.6532E-02  0.6532E-02  0.4697E-02  0.4697E-02
     -4.747  0.6375E-02  0.6375E-02  0.5191E-02  0.5191E-02
     -4.669  0.3789E-02  0.3789E-02  0.5484E-02  0.5484E-02
     -4.592  0.1004E-02  0.1004E-02  0.5562E-02  0.5562E-02
     -4.514  0.6080E-04  0.6080E-04  0.5567E-02  0.5567E-02
     -4.437  0.1389E-02  0.1389E-02  0.5674E-02  0.5674E-02
     -4.360  0.3971E-02  0.3971E-02  0.5982E-02  0.5982E-02
     -4.282  0.6041E-02  0.6041E-02  0.6449E-02  0.6449E-02
     -4.205  0.6507E-02  0.6507E-02  0.6953E-02  0.6953E-02
     -4.127  0.5806E-02  0.5806E-02  0.7403E-02  0.7403E-02
     -4.050  0.4746E-02  0.4746E-02  0.7770E-02  0.7770E-02
     -3.972  0.3647E-02  0.3647E-02  0.8053E-02  0.8053E-02
     -3.895  0.3081E-02  0.3081E-02  0.8291E-02  0.8291E-02
     -3.818  0.3482E-02  0.3482E-02  0.8561E-02  0.8561E-02
     -3.740  0.4130E-02  0.4130E-02  0.8881E-02  0.8881E-02
     -3.663  0.4600E-02  0.4600E-02  0.9237E-02  0.9237E-02
     -3.585  0.6209E-02  0.6209E-02  0.9718E-02  0.9718E-02
     -3.508  0.1017E-01  0.1017E-01  0.1051E-01  0.1051E-01
     -3.430  0.1602E-01  0.1602E-01  0.1175E-01  0.1175E-01
     -3.353  0.2243E-01  0.2243E-01  0.1348E-01  0.1348E-01
     -3.275  0.2666E-01  0.2666E-01  0.1555E-01  0.1555E-01
     -3.198  0.2526E-01  0.2526E-01  0.1750E-01  0.1750E-01
     -3.121  0.1921E-01  0.1921E-01  0.1899E-01  0.1899E-01
     -3.043  0.1455E-01  0.1455E-01  0.2012E-01  0.2012E-01
     -2.966  0.1548E-01  0.1548E-01  0.2132E-01  0.2132E-01
     -2.888  0.2124E-01  0.2124E-01  0.2296E-01  0.2296E-01
     -2.811  0.2842E-01  0.2842E-01  0.2516E-01  0.2516E-01
     -2.733  0.3319E-01  0.3319E-01  0.2773E-01  0.2773E-01
     -2.656  0.3425E-01  0.3425E-01  0.3038E-01  0.3038E-01
     -2.579  0.3330E-01  0.3330E-01  0.3296E-01  0.3296E-01
     -2.501  0.3140E-01  0.3140E-01  0.3539E-01  0.3539E-01
     -2.424  0.2879E-01  0.2879E-01  0.3762E-01  0.3762E-01
     -2.346  0.2714E-01  0.2714E-01  0.3972E-01  0.3972E-01
     -2.269  0.2785E-01  0.2785E-01  0.4188E-01  0.4188E-01
     -2.191  0.3034E-01  0.3034E-01  0.4423E-01  0.4423E-01
     -2.114  0.3367E-01  0.3367E-01  0.4684E-01  0.4684E-01
     -2.037  0.3758E-01  0.3758E-01  0.4975E-01  0.4975E-01
     -1.959  0.4177E-01  0.4177E-01  0.5298E-01  0.5298E-01
     -1.882  0.4556E-01  0.4556E-01  0.5651E-01  0.5651E-01
     -1.804  0.4846E-01  0.4846E-01  0.6026E-01  0.6026E-01
     -1.727  0.5109E-01  0.5109E-01  0.6422E-01  0.6422E-01
     -1.649  0.5462E-01  0.5462E-01  0.6845E-01  0.6845E-01
     -1.572  0.5852E-01  0.5852E-01  0.7298E-01  0.7298E-01
     -1.495  0.6052E-01  0.6052E-01  0.7767E-01  0.7767E-01
     -1.417  0.5925E-01  0.5925E-01  0.8225E-01  0.8225E-01
     -1.340  0.5564E-01  0.5564E-01  0.8656E-01  0.8656E-01
     -1.262  0.5255E-01  0.5255E-01  0.9063E-01  0.9063E-01
     -1.185  0.5296E-01  0.5296E-01  0.9473E-01  0.9473E-01
     -1.107  0.5577E-01  0.5577E-01  0.9905E-01  0.9905E-01
     -1.030  0.5559E-01  0.5559E-01  0.1034E+00  0.1034E+00
     -0.952  0.5037E-01  0.5037E-01  0.1073E+00  0.1073E+00
     -0.875  0.4523E-01  0.4523E-01  0.1108E+00  0.1108E+00
     -0.798  0.4525E-01  0.4525E-01  0.1143E+00  0.1143E+00
     -0.720  0.5010E-01  0.5010E-01  0.1181E+00  0.1181E+00
     -0.643  0.5722E-01  0.5722E-01  0.1226E+00  0.1226E+00
     -0.565  0.6398E-01  0.6398E-01  0.1275E+00  0.1275E+00
     -0.488  0.6794E-01  0.6794E-01  0.1328E+00  0.1328E+00
     -0.410  0.6975E-01  0.6975E-01  0.1382E+00  0.1382E+00
     -0.333  0.7234E-01  0.7234E-01  0.1438E+00  0.1438E+00
     -0.256  0.7313E-01  0.7313E-01  0.1495E+00  0.1495E+00
     -0.178  0.6388E-01  0.6388E-01  0.1544E+00  0.1544E+00
     -0.101  0.4266E-01  0.4266E-01  0.1577E+00  0.1577E+00
     -0.023  0.1899E-01  0.1899E-01  0.1592E+00  0.1592E+00
      0.054  0.3429E-02  0.3429E-02  0.1594E+00  0.1594E+00
      0.132 -0.2154E-02 -0.2154E-02  0.1593E+00  0.1593E+00
      0.209 -0.2364E-02 -0.2364E-02  0.1591E+00  0.1591E+00
      0.286 -0.1278E-02 -0.1278E-02  0.1590E+00  0.1590E+00
      0.364  0.3318E-03  0.3318E-03  0.1590E+00  0.1590E+00
      0.441  0.3106E-02  0.3106E-02  0.1593E+00  0.1593E+00
      0.519  0.6308E-02  0.6308E-02  0.1597E+00  0.1597E+00
      0.596  0.7951E-02  0.7951E-02  0.1604E+00  0.1604E+00
      0.674  0.7479E-02  0.7479E-02  0.1609E+00  0.1609E+00
      0.751  0.6090E-02  0.6090E-02  0.1614E+00  0.1614E+00
      0.828  0.4681E-02  0.4681E-02  0.1618E+00  0.1618E+00
      0.906  0.3969E-02  0.3969E-02  0.1621E+00  0.1621E+00
      0.983  0.4877E-02  0.4877E-02  0.1625E+00  0.1625E+00
      1.061  0.6615E-02  0.6615E-02  0.1630E+00  0.1630E+00
      1.138  0.7233E-02  0.7233E-02  0.1635E+00  0.1635E+00
      1.216  0.6871E-02  0.6871E-02  0.1641E+00  0.1641E+00
      1.293  0.6871E-02  0.6871E-02  0.1646E+00  0.1646E+00
      1.371  0.6553E-02  0.6553E-02  0.1651E+00  0.1651E+00
      1.448  0.4713E-02  0.4713E-02  0.1655E+00  0.1655E+00
      1.525  0.2323E-02  0.2323E-02  0.1656E+00  0.1656E+00
      1.603  0.1245E-02  0.1245E-02  0.1657E+00  0.1657E+00
      1.680  0.2686E-02  0.2686E-02  0.1660E+00  0.1660E+00
      1.758  0.6964E-02  0.6964E-02  0.1665E+00  0.1665E+00
      1.835  0.1183E-01  0.1183E-01  0.1674E+00  0.1674E+00
      1.913  0.1292E-01  0.1292E-01  0.1684E+00  0.1684E+00
      1.990  0.9002E-02  0.9002E-02  0.1691E+00  0.1691E+00
      2.067  0.4143E-02  0.4143E-02  0.1694E+00  0.1694E+00
      2.145  0.2367E-02  0.2367E-02  0.1696E+00  0.1696E+00
      2.222  0.3300E-02  0.3300E-02  0.1699E+00  0.1699E+00
      2.300  0.4174E-02  0.4174E-02  0.1702E+00  0.1702E+00
      2.377  0.3630E-02  0.3630E-02  0.1705E+00  0.1705E+00
      2.455  0.2387E-02  0.2387E-02  0.1707E+00  0.1707E+00
      2.532  0.1404E-02  0.1404E-02  0.1708E+00  0.1708E+00
      2.609  0.1176E-02  0.1176E-02  0.1709E+00  0.1709E+00
      2.687  0.2702E-02  0.2702E-02  0.1711E+00  0.1711E+00
      2.764  0.6754E-02  0.6755E-02  0.1716E+00  0.1716E+00
      2.842  0.1136E-01  0.1136E-01  0.1725E+00  0.1725E+00
      2.919  0.1249E-01  0.1249E-01  0.1734E+00  0.1734E+00
      2.997  0.8789E-02  0.8789E-02  0.1741E+00  0.1741E+00
      3.074  0.3479E-02  0.3479E-02  0.1744E+00  0.1744E+00
      3.151  0.1393E-03  0.1393E-03  0.1744E+00  0.1744E+00
      3.229 -0.7753E-03 -0.7753E-03  0.1743E+00  0.1743E+00
      3.306 -0.5481E-03 -0.5481E-03  0.1743E+00  0.1743E+00
      3.384  0.2130E-03  0.2130E-03  0.1743E+00  0.1743E+00
      3.461  0.1592E-02  0.1592E-02  0.1744E+00  0.1744E+00
      3.539  0.3049E-02  0.3049E-02  0.1747E+00  0.1747E+00
      3.616  0.3381E-02  0.3381E-02  0.1749E+00  0.1749E+00
      3.694  0.2258E-02  0.2258E-02  0.1751E+00  0.1751E+00
      3.771  0.7167E-03  0.7167E-03  0.1752E+00  0.1752E+00
      3.848 -0.2726E-03 -0.2726E-03  0.1751E+00  0.1751E+00
      3.926 -0.6091E-03 -0.6091E-03  0.1751E+00  0.1751E+00
      4.003 -0.1561E-03 -0.1561E-03  0.1751E+00  0.1751E+00
      4.081  0.1872E-02  0.1872E-02  0.1752E+00  0.1752E+00
      4.158  0.5629E-02  0.5629E-02  0.1757E+00  0.1757E+00
      4.236  0.9016E-02  0.9016E-02  0.1764E+00  0.1764E+00
      4.313  0.9111E-02  0.9111E-02  0.1771E+00  0.1771E+00
      4.390  0.5898E-02  0.5898E-02  0.1775E+00  0.1775E+00
      4.468  0.2665E-02  0.2665E-02  0.1777E+00  0.1777E+00
      4.545  0.1916E-02  0.1916E-02  0.1779E+00  0.1779E+00
      4.623  0.2699E-02  0.2699E-02  0.1781E+00  0.1781E+00
      4.700  0.2713E-02  0.2713E-02  0.1783E+00  0.1783E+00
      4.778  0.1616E-02  0.1616E-02  0.1784E+00  0.1784E+00
      4.855  0.1164E-02  0.1164E-02  0.1785E+00  0.1785E+00
      4.932  0.2576E-02  0.2576E-02  0.1787E+00  0.1787E+00
      5.010  0.4656E-02  0.4656E-02  0.1791E+00  0.1791E+00
      5.087  0.5025E-02  0.5025E-02  0.1795E+00  0.1795E+00
      5.165  0.3336E-02  0.3336E-02  0.1797E+00  0.1797E+00
      5.242  0.2216E-02  0.2216E-02  0.1799E+00  0.1799E+00
      5.320  0.4082E-02  0.4082E-02  0.1802E+00  0.1802E+00
      5.397  0.7726E-02  0.7726E-02  0.1808E+00  0.1808E+00
      5.474  0.9483E-02  0.9483E-02  0.1815E+00  0.1815E+00
      5.552  0.7758E-02  0.7758E-02  0.1821E+00  0.1821E+00
      5.629  0.4536E-02  0.4536E-02  0.1825E+00  0.1825E+00
      5.707  0.2424E-02  0.2423E-02  0.1827E+00  0.1827E+00
      5.784  0.2308E-02  0.2307E-02  0.1829E+00  0.1829E+00
      5.862  0.3444E-02  0.3444E-02  0.1831E+00  0.1831E+00
      5.939  0.4230E-02  0.4230E-02  0.1834E+00  0.1834E+00
      6.017  0.3953E-02  0.3953E-02  0.1838E+00  0.1838E+00
      6.094  0.4232E-02  0.4232E-02  0.1841E+00  0.1841E+00
      6.171  0.6750E-02  0.6751E-02  0.1846E+00  0.1846E+00
      6.249  0.9862E-02  0.9864E-02  0.1854E+00  0.1854E+00
      6.326  0.1046E-01  0.1046E-01  0.1862E+00  0.1862E+00
      6.404  0.8462E-02  0.8463E-02  0.1868E+00  0.1868E+00
      6.481  0.6170E-02  0.6169E-02  0.1873E+00  0.1873E+00
      6.559  0.4639E-02  0.4638E-02  0.1877E+00  0.1877E+00
      6.636  0.3754E-02  0.3753E-02  0.1880E+00  0.1880E+00
      6.713  0.4079E-02  0.4079E-02  0.1883E+00  0.1883E+00
      6.791  0.6129E-02  0.6129E-02  0.1888E+00  0.1888E+00
      6.868  0.8357E-02  0.8357E-02  0.1894E+00  0.1894E+00
      6.946  0.8138E-02  0.8138E-02  0.1900E+00  0.1900E+00
      7.023  0.5177E-02  0.5177E-02  0.1904E+00  0.1904E+00
      7.101  0.1793E-02  0.1793E-02  0.1906E+00  0.1906E+00
      7.178 -0.2585E-03 -0.2587E-03  0.1905E+00  0.1905E+00
      7.255 -0.9242E-03 -0.9245E-03  0.1905E+00  0.1905E+00
      7.333 -0.3060E-04 -0.3064E-04  0.1905E+00  0.1905E+00
      7.410  0.3551E-02  0.3552E-02  0.1907E+00  0.1907E+00
      7.488  0.9896E-02  0.9899E-02  0.1915E+00  0.1915E+00
      7.565  0.1596E-01  0.1597E-01  0.1928E+00  0.1928E+00
      7.643  0.1768E-01  0.1768E-01  0.1941E+00  0.1941E+00
      7.720  0.1441E-01  0.1441E-01  0.1952E+00  0.1952E+00
      7.797  0.9238E-02  0.9235E-02  0.1960E+00  0.1960E+00
      7.875  0.5019E-02  0.5017E-02  0.1963E+00  0.1963E+00
      7.952  0.2662E-02  0.2662E-02  0.1965E+00  0.1965E+00
      8.030  0.2086E-02  0.2087E-02  0.1967E+00  0.1967E+00
      8.107  0.2601E-02  0.2602E-02  0.1969E+00  0.1969E+00
      8.185  0.3589E-02  0.3588E-02  0.1972E+00  0.1972E+00
      8.262  0.5537E-02  0.5536E-02  0.1976E+00  0.1976E+00
      8.340  0.8388E-02  0.8387E-02  0.1983E+00  0.1983E+00
      8.417  0.9696E-02  0.9695E-02  0.1990E+00  0.1990E+00
      8.494  0.7525E-02  0.7525E-02  0.1996E+00  0.1996E+00
      8.572  0.3789E-02  0.3789E-02  0.1999E+00  0.1999E+00
      8.649  0.1870E-02  0.1870E-02  0.2000E+00  0.2000E+00
      8.727  0.2522E-02  0.2523E-02  0.2002E+00  0.2002E+00
      8.804  0.3853E-02  0.3854E-02  0.2005E+00  0.2005E+00
      8.882  0.4062E-02  0.4062E-02  0.2008E+00  0.2008E+00
      8.959  0.3491E-02  0.3490E-02  0.2011E+00  0.2011E+00
      9.036  0.4344E-02  0.4346E-02  0.2015E+00  0.2015E+00
      9.114  0.7971E-02  0.7975E-02  0.2021E+00  0.2021E+00
      9.191  0.1266E-01  0.1267E-01  0.2030E+00  0.2031E+00
      9.269  0.1515E-01  0.1514E-01  0.2042E+00  0.2042E+00
      9.346  0.1390E-01  0.1390E-01  0.2053E+00  0.2053E+00
      9.424  0.1025E-01  0.1025E-01  0.2061E+00  0.2061E+00
      9.501  0.6616E-02  0.6616E-02  0.2066E+00  0.2066E+00
      9.578  0.4283E-02  0.4284E-02  0.2069E+00  0.2069E+00
      9.656  0.3148E-02  0.3148E-02  0.2072E+00  0.2072E+00
      9.733  0.3239E-02  0.3239E-02  0.2074E+00  0.2074E+00
      9.811  0.4722E-02  0.4723E-02  0.2078E+00  0.2078E+00
      9.888  0.6658E-02  0.6659E-02  0.2083E+00  0.2083E+00
      9.966  0.8189E-02  0.8189E-02  0.2089E+00  0.2089E+00
     10.043  0.9624E-02  0.9623E-02  0.2097E+00  0.2097E+00
     10.120  0.1026E-01  0.1026E-01  0.2105E+00  0.2105E+00
     10.198  0.8620E-02  0.8618E-02  0.2112E+00  0.2112E+00
     10.275  0.6082E-02  0.6081E-02  0.2116E+00  0.2116E+00
     10.353  0.5763E-02  0.5763E-02  0.2121E+00  0.2121E+00
     10.430  0.7474E-02  0.7474E-02  0.2126E+00  0.2126E+00
     10.508  0.7968E-02  0.7968E-02  0.2133E+00  0.2133E+00
     10.585  0.5756E-02  0.5756E-02  0.2137E+00  0.2137E+00
     10.663  0.2548E-02  0.2551E-02  0.2139E+00  0.2139E+00
     10.740  0.3767E-03  0.3899E-03  0.2139E+00  0.2139E+00
     10.817 -0.4175E-03 -0.3847E-03  0.2139E+00  0.2139E+00
     10.895 -0.4510E-03 -0.4233E-03  0.2139E+00  0.2139E+00
     10.972  0.1865E-04 -0.7865E-04  0.2139E+00  0.2139E+00
     11.050  0.1201E-02  0.8095E-03  0.2140E+00  0.2139E+00
     11.127  0.2838E-02  0.2182E-02  0.2142E+00  0.2141E+00
     11.205  0.3860E-02  0.3302E-02  0.2145E+00  0.2144E+00
     11.282  0.3511E-02  0.3441E-02  0.2148E+00  0.2146E+00
     11.359  0.2235E-02  0.2676E-02  0.2149E+00  0.2148E+00
     11.437  0.9668E-03  0.1597E-02  0.2150E+00  0.2150E+00
     11.514  0.1996E-03  0.6725E-03  0.2150E+00  0.2150E+00
     11.592 -0.8229E-04  0.1135E-03  0.2150E+00  0.2150E+00
     11.669 -0.9963E-04 -0.8403E-04  0.2150E+00  0.2150E+00
     11.747 -0.4927E-04 -0.8069E-04  0.2150E+00  0.2150E+00
     11.824 -0.1532E-04 -0.3569E-04  0.2150E+00  0.2150E+00
     11.901 -0.3251E-05 -0.1001E-04  0.2150E+00  0.2150E+00
     11.979 -0.4857E-06 -0.1922E-05  0.2150E+00  0.2150E+00
     12.056 -0.5190E-07 -0.2601E-06  0.2150E+00  0.2150E+00
     12.134 -0.4003E-08 -0.2521E-07  0.2150E+00  0.2150E+00
     12.211 -0.2243E-09 -0.1767E-08  0.2150E+00  0.2150E+00
     12.289 -0.9169E-11 -0.9011E-10  0.2150E+00  0.2150E+00
     12.366 -0.2743E-12 -0.3356E-11  0.2150E+00  0.2150E+00
     12.443 -0.6023E-14 -0.9157E-13  0.2150E+00  0.2150E+00
     12.521 -0.9638E-16 -0.1834E-14  0.2150E+00  0.2150E+00
     12.598 -0.1593E-17 -0.2708E-16  0.2150E+00  0.2150E+00
     12.676  0.0000E+00  0.0000E+00  0.2150E+00  0.2150E+00
     12.753  0.0000E+00  0.0000E+00  0.2150E+00  0.2150E+00
     12.831  0.0000E+00  0.0000E+00  0.2150E+00  0.2150E+00
     12.908  0.0000E+00  0.0000E+00  0.2150E+00  0.2150E+00
     12.986  0.0000E+00  0.0000E+00  0.2150E+00  0.2150E+00
     13.063  0.0000E+00  0.0000E+00  0.2150E+00  0.2150E+00
     13.140  0.0000E+00  0.0000E+00  0.2150E+00  0.2150E+00
     13.218  0.0000E+00  0.0000E+00  0.2150E+00  0.2150E+00
     13.295  0.0000E+00  0.0000E+00  0.2150E+00  0.2150E+00
     13.373  0.0000E+00  0.0000E+00  0.2150E+00  0.2150E+00
