       N       E                     dE             d eps       ncg     rms          rms(c)
DAV:   1     0.246890672892E+04    0.24689E+04   -0.94858E+04  2064   0.183E+03
DAV:   2     0.298475099327E+03   -0.21704E+04   -0.20798E+04  2064   0.423E+02
DAV:   3    -0.760258665562E+02   -0.37450E+03   -0.33920E+03  2064   0.215E+02
DAV:   4    -0.101311329369E+03   -0.25285E+02   -0.24577E+02  2288   0.791E+01
DAV:   5    -0.101873079117E+03   -0.56175E+00   -0.56057E+00  2288   0.112E+01    0.454E+01
DAV:   6    -0.838223446514E+02    0.18051E+02   -0.23730E+02  2204   0.123E+02    0.240E+01
DAV:   7    -0.717991187866E+02    0.12023E+02   -0.59596E+01  2216   0.705E+01    0.109E+01
DAV:   8    -0.725436924635E+02   -0.74457E+00   -0.19162E+01  2392   0.872E+01    0.137E+01
DAV:   9    -0.698061790242E+02    0.27375E+01   -0.52723E+00  2824   0.397E+01    0.891E+00
DAV:  10    -0.710331957915E+02   -0.12270E+01   -0.18983E+00  3136   0.312E+01    0.892E+00
DAV:  11    -0.733114747994E+02   -0.22783E+01   -0.12392E+01  2820   0.504E+01    0.863E+00
DAV:  12    -0.722618687340E+02    0.10496E+01   -0.10735E+01  2872   0.436E+01    0.727E+00
DAV:  13    -0.732519454166E+02   -0.99008E+00   -0.30163E+00  3064   0.173E+01    0.492E+00
DAV:  14    -0.779168005257E+02   -0.46649E+01   -0.42348E+00  2464   0.245E+01    0.328E+00
DAV:  15    -0.804901829183E+02   -0.25734E+01   -0.22874E+00  2536   0.189E+01    0.281E+00
DAV:  16    -0.814055319257E+02   -0.91535E+00   -0.12787E+00  2692   0.105E+01    0.197E+00
DAV:  17    -0.823192817481E+02   -0.91375E+00   -0.12351E+00  2560   0.926E+00    0.107E+00
DAV:  18    -0.825495269392E+02   -0.23025E+00   -0.28390E-01  2528   0.445E+00    0.842E-01
DAV:  19    -0.827507329552E+02   -0.20121E+00   -0.15371E-01  2320   0.273E+00    0.691E-01
DAV:  20    -0.831688670210E+02   -0.41813E+00   -0.21049E-01  2888   0.285E+00    0.542E-01
DAV:  21    -0.836913737070E+02   -0.52251E+00   -0.10281E-01  2460   0.345E+00    0.484E-01
DAV:  22    -0.840697609368E+02   -0.37839E+00   -0.51678E-02  2448   0.114E+00    0.320E-01
DAV:  23    -0.846659652156E+02   -0.59620E+00   -0.23371E-02  2584   0.100E+00    0.236E-01
DAV:  24    -0.850603348433E+02   -0.39437E+00   -0.22352E-02  2344   0.772E-01    0.195E-01
DAV:  25    -0.851459437282E+02   -0.85609E-01   -0.38517E-03  2464   0.498E-01    0.128E-01
DAV:  26    -0.851771690861E+02   -0.31225E-01   -0.21904E-03  2324   0.584E-01    0.660E-02
DAV:  27    -0.851950429018E+02   -0.17874E-01   -0.87045E-04  1632   0.357E-01    0.577E-02
DAV:  28    -0.851978725410E+02   -0.28296E-02   -0.39915E-04  1496   0.264E-01    0.192E-02
DAV:  29    -0.851985749128E+02   -0.70237E-03   -0.17424E-04  1436   0.869E-02    0.160E-02
DAV:  30    -0.851986902931E+02   -0.11538E-03   -0.69857E-05  1360   0.599E-02
   1 F= -.94631318E+02 E0= -.94631660E+02  d E =-.946313E+02  mag=    -0.0014
       N       E                     dE             d eps       ncg     rms          rms(c)
DAV:   1    -0.851987620141E+02   -0.18710E-03   -0.62512E+00  2276   0.617E+00    0.167E-01
DAV:   2    -0.852097149581E+02   -0.10953E-01   -0.11414E-01  3032   0.188E+00    0.224E-01
DAV:   3    -0.852095722985E+02    0.14266E-03   -0.60785E-03  2204   0.121E+00    0.146E-01
DAV:   4    -0.852095555367E+02    0.16762E-04   -0.27939E-03  1960   0.765E-01    0.151E-01
DAV:   5    -0.852095082811E+02    0.47256E-04   -0.35924E-03  1440   0.835E-01    0.134E-01
DAV:   6    -0.852092494561E+02    0.25883E-03   -0.14536E-03  1336   0.626E-01    0.968E-02
DAV:   7    -0.852091407328E+02    0.10872E-03   -0.15541E-03  1752   0.695E-01
   2 F= -.94651884E+02 E0= -.94651475E+02  d E =-.205664E-01  mag=    -0.0008
       N       E                     dE             d eps       ncg     rms          rms(c)
DAV:   1    -0.851207651050E+02    0.88484E-01   -0.51291E+01  2288   0.179E+01    0.549E-01
DAV:   2    -0.852211382892E+02   -0.10037E+00   -0.10540E+00  3120   0.633E+00    0.753E-01
DAV:   3    -0.852183287061E+02    0.28096E-02   -0.74428E-02  2256   0.466E+00    0.462E-01
DAV:   4    -0.852174979656E+02    0.83074E-03   -0.65839E-02  2480   0.338E+00    0.484E-01
DAV:   5    -0.852157268464E+02    0.17711E-02   -0.22214E-02  3016   0.214E+00    0.362E-01
DAV:   6    -0.852143781651E+02    0.13487E-02   -0.96521E-03  3536   0.160E+00    0.260E-01
DAV:   7    -0.852135743426E+02    0.80382E-03   -0.10094E-02  2876   0.188E+00    0.133E-01
DAV:   8    -0.852134295957E+02    0.14475E-03   -0.37881E-03  2456   0.104E+00    0.803E-02
DAV:   9    -0.852133812741E+02    0.48322E-04   -0.82107E-04  1832   0.487E-01
   3 F= -.94685092E+02 E0= -.94682565E+02  d E =-.537740E-01  mag=    -0.0005
       N       E                     dE             d eps       ncg     rms          rms(c)
DAV:   1    -0.851934810205E+02    0.19949E-01   -0.67290E+00  2284   0.641E+00    0.177E-01
DAV:   2    -0.852054702550E+02   -0.11989E-01   -0.12472E-01  2996   0.201E+00    0.243E-01
DAV:   3    -0.852055723548E+02   -0.10210E-03   -0.13009E-02  2256   0.168E+00    0.209E-01
DAV:   4    -0.852054058004E+02    0.16655E-03   -0.92280E-03  2160   0.135E+00    0.149E-01
DAV:   5    -0.852051535457E+02    0.25225E-03   -0.26917E-03  1416   0.728E-01    0.127E-01
DAV:   6    -0.852050884074E+02    0.65138E-04   -0.18650E-03  1964   0.713E-01
   4 F= -.94687406E+02 E0= -.94684121E+02  d E =-.560884E-01  mag=    -0.0003
       N       E                     dE             d eps       ncg     rms          rms(c)
DAV:   1    -0.852011388764E+02    0.40147E-02   -0.52585E+00  2256   0.562E+00    0.173E-01
DAV:   2    -0.852129440912E+02   -0.11805E-01   -0.12072E-01  3524   0.322E+00    0.419E-01
DAV:   3    -0.852100250446E+02    0.29190E-02   -0.58755E-02  2976   0.316E+00    0.181E-01
DAV:   4    -0.852096905118E+02    0.33453E-03   -0.56626E-03  2160   0.885E-01    0.125E-01
DAV:   5    -0.852097795147E+02   -0.89003E-04   -0.22692E-03  2168   0.703E-01    0.133E-01
DAV:   6    -0.852097179786E+02    0.61536E-04   -0.25061E-03  2184   0.669E-01    0.101E-01
DAV:   7    -0.852096854231E+02    0.32556E-04   -0.72425E-04  1696   0.413E-01
   5 F= -.94702327E+02 E0= -.94698665E+02  d E =-.149205E-01  mag=    -0.0002
       N       E                     dE             d eps       ncg     rms          rms(c)
DAV:   1    -0.851325796369E+02    0.77138E-01   -0.47732E+01  2256   0.171E+01    0.590E-01
DAV:   2    -0.852345025174E+02   -0.10192E+00   -0.10526E+00  3332   0.866E+00    0.104E+00
DAV:   3    -0.852325268478E+02    0.19757E-02   -0.37910E-01  3316   0.835E+00    0.729E-01
DAV:   4    -0.852191199043E+02    0.13407E-01   -0.12035E-01  2688   0.435E+00    0.428E-01
DAV:   5    -0.852183719171E+02    0.74799E-03   -0.11845E-02  2536   0.155E+00    0.380E-01
DAV:   6    -0.852170862164E+02    0.12857E-02   -0.96099E-03  2296   0.139E+00    0.285E-01
DAV:   7    -0.852162248573E+02    0.86136E-03   -0.95192E-03  2508   0.172E+00    0.130E-01
DAV:   8    -0.852161237178E+02    0.10114E-03   -0.57543E-03  2968   0.104E+00    0.678E-02
DAV:   9    -0.852160596868E+02    0.64031E-04   -0.51932E-04  1408   0.473E-01
   6 F= -.94739890E+02 E0= -.94734940E+02  d E =-.524840E-01  mag=    -0.0001
       N       E                     dE             d eps       ncg     rms          rms(c)
DAV:   1    -0.848382982290E+02    0.37783E+00   -0.19821E+02  2372   0.366E+01    0.126E+00
DAV:   2    -0.852840485361E+02   -0.44575E+00   -0.45969E+00  3424   0.194E+01    0.226E+00
DAV:   3    -0.852650731046E+02    0.18975E-01   -0.15421E+00  3156   0.171E+01    0.148E+00
DAV:   4    -0.852100393003E+02    0.55034E-01   -0.47343E-01  2736   0.860E+00    0.877E-01
DAV:   5    -0.852076857813E+02    0.23535E-02   -0.57311E-02  2456   0.325E+00    0.786E-01
DAV:   6    -0.852041523521E+02    0.35334E-02   -0.36910E-02  2256   0.247E+00    0.628E-01
DAV:   7    -0.851987321934E+02    0.54202E-02   -0.40801E-02  2568   0.332E+00    0.262E-01
DAV:   8    -0.851981100906E+02    0.62210E-03   -0.21315E-02  3292   0.204E+00    0.133E-01
DAV:   9    -0.851979648970E+02    0.14519E-03   -0.27207E-03  2500   0.102E+00    0.900E-02
DAV:  10    -0.851979878631E+02   -0.22966E-04   -0.13122E-03  2088   0.450E-01
   7 F= -.94785207E+02 E0= -.94778600E+02  d E =-.978004E-01  mag=    -0.0001
       N       E                     dE             d eps       ncg     rms          rms(c)
DAV:   1    -0.851049312662E+02    0.93034E-01   -0.39430E+01  2272   0.154E+01    0.520E-01
DAV:   2    -0.851841401908E+02   -0.79209E-01   -0.81990E-01  3252   0.721E+00    0.846E-01
DAV:   3    -0.851825074569E+02    0.16327E-02   -0.19861E-01  2912   0.652E+00    0.596E-01
DAV:   4    -0.851751621089E+02    0.73453E-02   -0.82604E-02  2640   0.369E+00    0.393E-01
DAV:   5    -0.851745148221E+02    0.64729E-03   -0.95792E-03  2552   0.141E+00    0.342E-01
DAV:   6    -0.851733977503E+02    0.11171E-02   -0.77422E-03  2360   0.139E+00    0.266E-01
DAV:   7    -0.851727209508E+02    0.67680E-03   -0.89264E-03  2652   0.163E+00    0.123E-01
DAV:   8    -0.851726092033E+02    0.11175E-03   -0.43845E-03  2756   0.953E-01    0.642E-02
DAV:   9    -0.851725608231E+02    0.48380E-04   -0.41204E-04  1356   0.392E-01
   8 F= -.94789088E+02 E0= -.94781972E+02  d E =-.101682E+00  mag=    -0.0000
       N       E                     dE             d eps       ncg     rms          rms(c)
DAV:   1    -0.851115148102E+02    0.61094E-01   -0.43998E+01  2236   0.165E+01    0.485E-01
DAV:   2    -0.852250394492E+02   -0.11352E+00   -0.11659E+00  3632   0.103E+01    0.130E+00
DAV:   3    -0.851927435540E+02    0.32296E-01   -0.45732E-01  3460   0.868E+00    0.486E-01
DAV:   4    -0.851907877280E+02    0.19558E-02   -0.48749E-02  2504   0.274E+00    0.427E-01
DAV:   5    -0.851907654318E+02    0.22296E-04   -0.16139E-02  2328   0.187E+00    0.377E-01
DAV:   6    -0.851886284644E+02    0.21370E-02   -0.12828E-02  2740   0.141E+00    0.228E-01
DAV:   7    -0.851881974378E+02    0.43103E-03   -0.48880E-03  2384   0.141E+00    0.161E-01
DAV:   8    -0.851878677424E+02    0.32970E-03   -0.41252E-03  2512   0.107E+00    0.379E-02
DAV:   9    -0.851878657682E+02    0.19741E-05   -0.69415E-04  1560   0.405E-01
   9 F= -.94828262E+02 E0= -.94820926E+02  d E =-.391742E-01  mag=    -0.0000
       N       E                     dE             d eps       ncg     rms          rms(c)
DAV:   1    -0.847812400275E+02    0.40663E+00   -0.20827E+02  2280   0.381E+01    0.113E+00
DAV:   2    -0.853339307602E+02   -0.55269E+00   -0.56789E+00  3744   0.241E+01    0.279E+00
DAV:   3    -0.851835237935E+02    0.15041E+00   -0.19994E+00  3212   0.191E+01    0.107E+00
DAV:   4    -0.851719707987E+02    0.11553E-01   -0.26085E-01  2544   0.612E+00    0.923E-01
DAV:   5    -0.851732949868E+02   -0.13242E-02   -0.89179E-02  2280   0.395E+00    0.823E-01
DAV:   6    -0.851655973117E+02    0.76977E-02   -0.48946E-02  2376   0.294E+00    0.524E-01
DAV:   7    -0.851628884298E+02    0.27089E-02   -0.36099E-02  3712   0.297E+00    0.305E-01
DAV:   8    -0.851605427554E+02    0.23457E-02   -0.28979E-02  3096   0.257E+00    0.951E-02
DAV:   9    -0.851605141736E+02    0.28582E-04   -0.30536E-03  2592   0.828E-01    0.726E-02
DAV:  10    -0.851605800153E+02   -0.65842E-04   -0.11674E-03  2016   0.385E-01
  10 F= -.94853825E+02 E0= -.94845746E+02  d E =-.647366E-01  mag=    -0.0000
       N       E                     dE             d eps       ncg     rms          rms(c)
DAV:   1    -0.851545417795E+02    0.59724E-02   -0.14037E+01  2236   0.929E+00    0.235E-01
DAV:   2    -0.851826816990E+02   -0.28140E-01   -0.29129E-01  3472   0.393E+00    0.485E-01
DAV:   3    -0.851795395595E+02    0.31421E-02   -0.72190E-02  2592   0.373E+00    0.328E-01
DAV:   4    -0.851787699328E+02    0.76963E-03   -0.14443E-02  2408   0.170E+00    0.221E-01
DAV:   5    -0.851787659103E+02    0.40224E-05   -0.46377E-03  2224   0.820E-01    0.217E-01
DAV:   6    -0.851780386679E+02    0.72724E-03   -0.32612E-03  2612   0.731E-01    0.111E-01
DAV:   7    -0.851778201922E+02    0.21848E-03   -0.18804E-03  2120   0.850E-01    0.824E-02
DAV:   8    -0.851777546498E+02    0.65542E-04   -0.50079E-04  1360   0.404E-01
  11 F= -.94856820E+02 E0= -.94849030E+02  d E =-.677320E-01  mag=    -0.0000
       N       E                     dE             d eps       ncg     rms          rms(c)
DAV:   1    -0.851215329648E+02    0.56287E-01   -0.36627E+01  2216   0.151E+01    0.432E-01
DAV:   2    -0.852143273953E+02   -0.92794E-01   -0.95863E-01  3720   0.921E+00    0.114E+00
DAV:   3    -0.851860249293E+02    0.28302E-01   -0.36408E-01  3200   0.796E+00    0.442E-01
DAV:   4    -0.851856461732E+02    0.37876E-03   -0.30944E-02  2256   0.195E+00    0.369E-01
DAV:   5    -0.851857834845E+02   -0.13731E-03   -0.13322E-02  2304   0.121E+00    0.336E-01
DAV:   6    -0.851841436595E+02    0.16398E-02   -0.17366E-02  2752   0.213E+00    0.253E-01
DAV:   7    -0.851837590793E+02    0.38458E-03   -0.45543E-03  3064   0.973E-01    0.167E-01
DAV:   8    -0.851834874577E+02    0.27162E-03   -0.13590E-03  2156   0.435E-01    0.972E-02
DAV:   9    -0.851833519789E+02    0.13548E-03   -0.14480E-03  1816   0.641E-01
  12 F= -.94876566E+02 E0= -.94868453E+02  d E =-.197456E-01  mag=    -0.0000
       N       E                     dE             d eps       ncg     rms          rms(c)
DAV:   1    -0.851642981843E+02    0.19189E-01   -0.83139E+00  2216   0.712E+00    0.192E-01
DAV:   2    -0.851836773688E+02   -0.19379E-01   -0.19894E-01  3664   0.400E+00    0.503E-01
DAV:   3    -0.851783624172E+02    0.53150E-02   -0.72356E-02  2844   0.364E+00    0.195E-01
DAV:   4    -0.851785243150E+02   -0.16190E-03   -0.78094E-03  2140   0.890E-01    0.164E-01
DAV:   5    -0.851785399943E+02   -0.15679E-04   -0.23450E-03  2208   0.481E-01    0.144E-01
DAV:   6    -0.851782723301E+02    0.26766E-03   -0.25269E-03  2584   0.686E-01    0.726E-02
DAV:   7    -0.851781558443E+02    0.11649E-03   -0.70613E-04  1400   0.395E-01
  13 F= -.94878201E+02 E0= -.94869988E+02  d E =-.213806E-01  mag=    -0.0000
       N       E                     dE             d eps       ncg     rms          rms(c)
DAV:   1    -0.851560496544E+02    0.22223E-01   -0.10503E+01  2220   0.801E+00    0.257E-01
DAV:   2    -0.851819848435E+02   -0.25935E-01   -0.26757E-01  3736   0.511E+00    0.638E-01
DAV:   3    -0.851751442428E+02    0.68406E-02   -0.12182E-01  3112   0.474E+00    0.245E-01
DAV:   4    -0.851746791090E+02    0.46513E-03   -0.12518E-02  2264   0.136E+00    0.193E-01
DAV:   5    -0.851748333374E+02   -0.15423E-03   -0.45700E-03  2272   0.872E-01    0.177E-01
DAV:   6    -0.851745684732E+02    0.26486E-03   -0.40062E-03  2584   0.876E-01    0.113E-01
DAV:   7    -0.851745394872E+02    0.28986E-04   -0.14107E-03  2088   0.661E-01
  14 F= -.94880997E+02 E0= -.94872768E+02  d E =-.279614E-02  mag=    -0.0000
       N       E                     dE             d eps       ncg     rms          rms(c)
DAV:   1    -0.851752606041E+02   -0.69213E-03   -0.61638E-01  2256   0.203E+00    0.532E-02
DAV:   2    -0.851764100835E+02   -0.11495E-02   -0.12051E-02  3120   0.783E-01    0.950E-02
DAV:   3    -0.851763814741E+02    0.28609E-04   -0.19619E-03  1960   0.650E-01
  15 F= -.94881284E+02 E0= -.94873001E+02  d E =-.308324E-02  mag=    -0.0000
       N       E                     dE             d eps       ncg     rms          rms(c)
DAV:   1    -0.851751920851E+02    0.12180E-02   -0.14421E-01  2248   0.991E-01    0.529E-02
DAV:   2    -0.851754705640E+02   -0.27848E-03   -0.30482E-03  2848   0.364E-01    0.322E-02
DAV:   3    -0.851756223621E+02   -0.15180E-03   -0.23199E-03  1376   0.719E-01    0.794E-02
DAV:   4    -0.851754653040E+02    0.15706E-03   -0.15044E-03  1336   0.556E-01
  16 F= -.94881125E+02 E0= -.94872810E+02  d E =-.292397E-02  mag=    -0.0000
       N       E                     dE             d eps       ncg     rms          rms(c)
DAV:   1    -0.851758065334E+02   -0.18417E-03   -0.29044E-02  2296   0.456E-01    0.124E-02
DAV:   2    -0.851758511850E+02   -0.44652E-04   -0.47815E-04  1344   0.269E-01
  17 F= -.94881171E+02 E0= -.94872855E+02  d E =-.297011E-02  mag=    -0.0000
       N       E                     dE             d eps       ncg     rms          rms(c)
DAV:   1    -0.851756880547E+02    0.11848E-03   -0.57667E-03  3064   0.331E-01    0.959E-03
DAV:   2    -0.851756934990E+02   -0.54443E-05   -0.63241E-05  1072   0.113E-01
  18 F= -.94881159E+02 E0= -.94872876E+02  d E =-.295787E-02  mag=    -0.0000
