<?xml version="1.0" encoding="ISO-8859-1"?>
<modeling>
 <generator>
  <i name="program" type="string">vasp </i>
  <i name="version" type="string">6.3.2  </i>
  <i name="subversion" type="string">27Jun22 (build Aug 17 2022 15:43:34) complex                          parallel </i>
  <i name="platform" type="string">tv2STDVTST </i>
  <i name="date" type="string">2025 01 17 </i>
  <i name="time" type="string">13:59:31 </i>
 </generator>
 <incar>
  <i type="int" name="ISTART">     0</i>
  <i type="string" name="PREC">Normal</i>
  <i type="int" name="ISPIN">     2</i>
  <i type="int" name="ICHARG">     2</i>
  <i type="int" name="IBRION">     2</i>
  <i name="EDIFF">      0.00020000</i>
  <i name="EDIFFG">     -0.03000000</i>
  <i type="int" name="NSW">   800</i>
  <i type="int" name="ISIF">     2</i>
  <i type="int" name="ISYM">     1</i>
  <i name="ENCUT">    400.00000000</i>
  <i name="POTIM">      0.50000000</i>
  <i type="logical" name="LREAL"> F  </i>
  <i type="int" name="ISMEAR">     1</i>
  <i name="SIGMA">      0.20000000</i>
  <i type="logical" name="LWAVE"> F  </i>
  <i type="logical" name="LCHARG"> F  </i>
  <i type="string" name="GGA">PE</i>
  <i type="int" name="IDIPOL">     3</i>
  <i type="int" name="IVDW">    11</i>
 </incar>
 <primitive_cell>
  <structure name="primitive_cell" >
   <crystal>
    <varray name="basis" >
     <v>      -1.28339887      -2.22291204       0.00000000 </v>
     <v>       2.56679773       0.00000000       0.00000000 </v>
     <v>       0.00000000       0.00000000      25.47890854 </v>
    </varray>
    <i name="volume">    145.37667968 </i>
    <varray name="rec_basis" >
     <v>       0.00000000      -0.44986035       0.00000000 </v>
     <v>       0.38959050      -0.22493018       0.00000000 </v>
     <v>       0.00000000       0.00000000       0.03924815 </v>
    </varray>
   </crystal>
   <varray name="positions" >
    <v>       0.00000000       0.00000000       0.00000000 </v>
    <v>       0.66666667       0.33333333       0.08225555 </v>
    <v>       0.33333333       0.66666667       0.16451110 </v>
    <v>       0.00000000       0.00000000       0.24676665 </v>
    <v>       0.66666667       0.33333333       0.32902220 </v>
    <v>       0.33333333       0.66666667       0.41127774 </v>
   </varray>
  </structure>
  <varray name="primitive_index" >
   <v type="int" >        1 </v>
   <v type="int" >        5 </v>
   <v type="int" >       12 </v>
   <v type="int" >       13 </v>
   <v type="int" >       17 </v>
   <v type="int" >       24 </v>
  </varray>
 </primitive_cell>
 <kpoints>
  <generation param="Monkhorst-Pack">
   <v type="int" name="divisions">       3        3        1 </v>
   <v name="usershift">      0.00000000       0.00000000       0.00000000 </v>
   <v name="genvec1">      0.33333333       0.00000000       0.00000000 </v>
   <v name="genvec2">      0.00000000       0.33333333       0.00000000 </v>
   <v name="genvec3">      0.00000000       0.00000000       1.00000000 </v>
   <v name="shift">      0.00000000       0.00000000       0.00000000 </v>
  </generation>
  <varray name="kpointlist" >
   <v>       0.00000000       0.00000000       0.00000000 </v>
   <v>       0.33333333      -0.00000000       0.00000000 </v>
   <v>      -0.33333333       0.33333333       0.00000000 </v>
  </varray>
  <varray name="weights" >
   <v>       0.11111111 </v>
   <v>       0.66666667 </v>
   <v>       0.22222222 </v>
  </varray>
 </kpoints>
 <parameters>
  <separator name="general" >
   <i type="string" name="SYSTEM">unknown system</i>
   <i type="logical" name="LCOMPAT"> F  </i>
  </separator>
  <separator name="electronic" >
   <i type="string" name="PREC">normal</i>
   <i name="ENMAX">    400.00000000</i>
   <i name="ENAUG">    586.98000000</i>
   <i name="EDIFF">      0.00020000</i>
   <i type="int" name="IALGO">    38</i>
   <i type="int" name="IWAVPR">    11</i>
   <i type="int" name="NBANDS">   172</i>
   <i type="int" name="NBANDSLOW">    -1</i>
   <i type="int" name="NBANDSHIGH">    -1</i>
   <i name="NELECT">    264.00000000</i>
   <i type="int" name="TURBO">     0</i>
   <i type="int" name="IRESTART">     0</i>
   <i type="int" name="NREBOOT">     0</i>
   <i type="int" name="NMIN">     0</i>
   <i name="EREF">      0.00000000</i>
   <separator name="electronic smearing" >
    <i type="int" name="ISMEAR">     1</i>
    <i name="SIGMA">      0.20000000</i>
    <i name="KSPACING">      0.50000000</i>
    <i type="logical" name="KGAMMA"> T  </i>
    <i type="logical" name="KBLOWUP"> T  </i>
   </separator>
   <separator name="electronic projectors" >
    <i type="logical" name="LREAL"> F  </i>
    <v name="ROPT">      0.00000000</v>
    <i type="int" name="LMAXPAW">  -100</i>
    <i type="int" name="LMAXMIX">     2</i>
    <i type="logical" name="NLSPLINE"> F  </i>
   </separator>
   <separator name="electronic startup" >
    <i type="int" name="ISTART">     0</i>
    <i type="int" name="ICHARG">     2</i>
    <i type="int" name="INIWAV">     1</i>
   </separator>
   <separator name="electronic spin" >
    <i type="int" name="ISPIN">     2</i>
    <i type="logical" name="LNONCOLLINEAR"> F  </i>
    <v name="MAGMOM">      1.00000000      1.00000000      1.00000000      1.00000000      1.00000000      1.00000000      1.00000000      1.00000000      1.00000000      1.00000000      1.00000000      1.00000000      1.00000000      1.00000000      1.00000000      1.00000000      1.00000000      1.00000000      1.00000000      1.00000000
      1.00000000      1.00000000      1.00000000      1.00000000</v>
    <i name="NUPDOWN">     -1.00000000</i>
    <i type="logical" name="LSORBIT"> F  </i>
    <v name="SAXIS">      0.00000000      0.00000000      1.00000000</v>
    <i type="logical" name="LSPIRAL"> F  </i>
    <v name="QSPIRAL">      0.00000000      0.00000000      0.00000000</v>
    <i type="logical" name="LZEROZ"> F  </i>
   </separator>
   <separator name="electronic exchange-correlation" >
    <i type="logical" name="LASPH"> F  </i>
    <i type="logical" name="LMETAGGA"> F  </i>
   </separator>
   <separator name="electronic convergence" >
    <i type="int" name="NELM">    60</i>
    <i type="int" name="NELMDL">    -5</i>
    <i type="int" name="NELMIN">     2</i>
    <i name="ENINI">    400.00000000</i>
    <separator name="electronic convergence detail" >
     <i type="logical" name="LDIAG"> T  </i>
     <i type="logical" name="LSUBROT"> F  </i>
     <i name="WEIMIN">      0.00100000</i>
     <i name="EBREAK">      0.00000029</i>
     <i name="DEPER">      0.30000000</i>
     <i type="int" name="NRMM">     4</i>
     <i name="TIME">      0.40000000</i>
    </separator>
   </separator>
   <separator name="electronic mixer" >
    <i name="AMIX">      0.40000000</i>
    <i name="BMIX">      1.00000000</i>
    <i name="AMIN">      0.10000000</i>
    <i name="AMIX_MAG">      1.60000000</i>
    <i name="BMIX_MAG">      1.00000000</i>
    <separator name="electronic mixer details" >
     <i type="int" name="IMIX">     4</i>
     <i type="logical" name="MIXFIRST"> F  </i>
     <i type="int" name="MAXMIX">   -45</i>
     <i name="WC">    100.00000000</i>
     <i type="int" name="INIMIX">     1</i>
     <i type="int" name="MIXPRE">     1</i>
     <i type="int" name="MREMOVE">     5</i>
    </separator>
   </separator>
   <separator name="electronic dipolcorrection" >
    <i type="logical" name="LDIPOL"> F  </i>
    <i type="logical" name="LMONO"> F  </i>
    <i type="int" name="IDIPOL">     3</i>
    <i name="EPSILON">      1.00000000</i>
    <v name="DIPOL">   -100.00000000   -100.00000000   -100.00000000</v>
    <i name="EFIELD">      0.00000000</i>
   </separator>
  </separator>
  <separator name="grids" >
   <i type="int" name="NGX">    28</i>
   <i type="int" name="NGY">    28</i>
   <i type="int" name="NGZ">   126</i>
   <i type="int" name="NGXF">    56</i>
   <i type="int" name="NGYF">    56</i>
   <i type="int" name="NGZF">   252</i>
   <i type="logical" name="ADDGRID"> F  </i>
  </separator>
  <separator name="ionic" >
   <i type="int" name="NSW">   800</i>
   <i type="int" name="IBRION">     2</i>
   <i type="int" name="MDALGO">     0</i>
   <i type="int" name="ISIF">     2</i>
   <i name="PSTRESS">      0.00000000</i>
   <i name="EDIFFG">     -0.03000000</i>
   <i type="int" name="NFREE">     1</i>
   <i name="POTIM">      0.50000000</i>
   <i name="SMASS">     -3.00000000</i>
   <i name="SCALEE">      1.00000000</i>
  </separator>
  <separator name="ionic md" >
   <i name="TEBEG">      0.00010000</i>
   <i name="TEEND">      0.00010000</i>
   <i type="int" name="NBLOCK">     1</i>
   <i type="int" name="KBLOCK">   800</i>
   <i type="int" name="NPACO">   256</i>
   <i name="APACO">     10.00000000</i>
  </separator>
  <separator name="symmetry" >
   <i type="int" name="ISYM">     1</i>
   <i name="SYMPREC">      0.00001000</i>
  </separator>
  <separator name="dos" >
   <i type="int" name="LORBIT">     0</i>
   <v name="RWIGS">     -1.00000000</v>
   <i type="int" name="NEDOS">   301</i>
   <i name="EMIN">     10.00000000</i>
   <i name="EMAX">    -10.00000000</i>
   <i name="EFERMI">      0.00000000</i>
  </separator>
  <separator name="writing" >
   <i type="int" name="NWRITE">     2</i>
   <i type="logical" name="LWAVE"> F  </i>
   <i type="logical" name="LDOWNSAMPLE"> F  </i>
   <i type="logical" name="LCHARG"> F  </i>
   <i type="logical" name="LPARD"> F  </i>
   <i type="logical" name="LVTOT"> F  </i>
   <i type="logical" name="LVHAR"> F  </i>
   <i type="logical" name="LELF"> F  </i>
   <i type="logical" name="LOPTICS"> F  </i>
   <v name="STM">      0.00000000      0.00000000      0.00000000      0.00000000      0.00000000      0.00000000      0.00000000</v>
  </separator>
  <separator name="performance" >
   <i type="int" name="NPAR">     4</i>
   <i type="int" name="NSIM">     4</i>
   <i type="int" name="NBLK">    -1</i>
   <i type="logical" name="LPLANE"> T  </i>
   <i type="logical" name="LSCALAPACK"> T  </i>
   <i type="logical" name="LSCAAWARE"> F  </i>
   <i type="logical" name="LSCALU"> F  </i>
   <i type="logical" name="LASYNC"> F  </i>
   <i type="logical" name="LORBITALREAL"> F  </i>
  </separator>
  <separator name="miscellaneous" >
   <i type="int" name="IDIOT">     3</i>
   <i type="int" name="PHON_NSTRUCT">    -1</i>
   <i type="logical" name="LMUSIC"> F  </i>
   <v name="POMASS">     63.54600000</v>
   <v name="DARWINR">      0.00000000</v>
   <v name="DARWINV">      1.00000000</v>
   <i type="logical" name="LCORR"> T  </i>
  </separator>
  <i type="logical" name="GGA_COMPAT"> T  </i>
  <i type="logical" name="LBERRY"> F  </i>
  <i type="int" name="ICORELEVEL">     0</i>
  <i type="logical" name="LDAU"> F  </i>
  <i type="int" name="I_CONSTRAINED_M">     0</i>
  <separator name="electronic exchange-correlation" >
   <i type="string" name="GGA">PE</i>
   <i type="int" name="VOSKOWN">     0</i>
   <i type="logical" name="LHFCALC"> F  </i>
   <i type="string" name="PRECFOCK"></i>
   <i type="logical" name="LSYMGRAD"> F  </i>
   <i type="logical" name="LHFONE"> F  </i>
   <i type="logical" name="LRHFCALC"> F  </i>
   <i type="logical" name="LTHOMAS"> F  </i>
   <i type="logical" name="LMODELHF"> F  </i>
   <i type="logical" name="LFOCKACE"> F  </i>
   <i name="ENCUT4O">     -1.00000000</i>
   <i type="int" name="EXXOEP">     0</i>
   <i type="int" name="FOURORBIT">     0</i>
   <i name="AEXX">      0.00000000</i>
   <i name="HFALPHA">      0.00000000</i>
   <i name="MCALPHA">      0.00000000</i>
   <i name="ALDAX">      1.00000000</i>
   <i name="AGGAX">      1.00000000</i>
   <i name="ALDAC">      1.00000000</i>
   <i name="AGGAC">      1.00000000</i>
   <i type="int" name="NKREDX">     1</i>
   <i type="int" name="NKREDY">     1</i>
   <i type="int" name="NKREDZ">     1</i>
   <i type="logical" name="SHIFTRED"> F  </i>
   <i type="logical" name="ODDONLY"> F  </i>
   <i type="logical" name="EVENONLY"> F  </i>
   <i type="int" name="LMAXFOCK">     0</i>
   <i type="int" name="NMAXFOCKAE">     0</i>
   <i type="logical" name="LFOCKAEDFT"> F  </i>
   <i name="HFSCREEN">      0.00000000</i>
   <i name="HFSCREENC">      0.00000000</i>
   <i type="int" name="NBANDSGWLOW">     0</i>
  </separator>
  <separator name="vdW DFT" >
   <i type="logical" name="LUSE_VDW"> F  </i>
   <i name="Zab_VDW">     -0.84910000</i>
   <i name="PARAM1">      0.12340000</i>
   <i name="PARAM2">      1.00000000</i>
   <i name="PARAM3">      0.00000000</i>
  </separator>
  <separator name="model GW" >
   <i type="int" name="MODEL_GW">     0</i>
   <i name="MODEL_EPS0">     14.53766797</i>
   <i name="MODEL_ALPHA">      1.00000000</i>
  </separator>
  <separator name="linear response parameters" >
   <i type="logical" name="LEPSILON"> F  </i>
   <i type="logical" name="LRPA"> F  </i>
   <i type="logical" name="LNABLA"> F  </i>
   <i type="logical" name="LVEL"> F  </i>
   <i name="CSHIFT">      0.10000000</i>
   <i name="OMEGAMAX">     -1.00000000</i>
   <i name="DEG_THRESHOLD">      0.00200000</i>
   <i name="RTIME">     -0.10000000</i>
   <i name="WPLASMAI">      0.00000000</i>
   <v name="DFIELD">      0.00000000      0.00000000      0.00000000</v>
   <v name="WPLASMA">      0.00000000      0.00000000      0.00000000      0.00000000      0.00000000      0.00000000      0.00000000      0.00000000      0.00000000</v>
  </separator>
  <separator name="orbital magnetization" >
   <i type="logical" name="NUCIND"> F  </i>
   <v name="MAGPOS">      0.00000000      0.00000000      0.00000000</v>
   <i type="logical" name="LNICSALL"> T  </i>
   <i type="logical" name="ORBITALMAG"> F  </i>
   <i type="logical" name="LMAGBLOCH"> F  </i>
   <i type="logical" name="LCHIMAG"> F  </i>
   <i type="logical" name="LGAUGE"> T  </i>
   <i type="int" name="MAGATOM">     0</i>
   <v name="MAGDIPOL">      0.00000000      0.00000000      0.00000000</v>
   <v name="AVECCONST">      0.00000000      0.00000000      0.00000000</v>
  </separator>
  <separator name="response functions" >
   <i type="logical" name="LFINITE_TEMPERATURE"> F  </i>
   <i type="logical" name="LADDER"> F  </i>
   <i type="logical" name="LRPAFORCE"> F  </i>
   <i type="logical" name="LFXC"> F  </i>
   <i type="logical" name="LHARTREE"> T  </i>
   <i type="int" name="IBSE">     0</i>
   <v type="int" name="KPOINT">    -1     0     0     0</v>
   <i type="logical" name="LTCTC"> F  </i>
   <i type="logical" name="LTCTE"> F  </i>
   <i type="logical" name="LTETE"> F  </i>
   <i type="logical" name="LTRIPLET"> F  </i>
   <i type="logical" name="LFXCEPS"> F  </i>
   <i type="logical" name="LFXHEG"> F  </i>
   <i type="int" name="NATURALO">     2</i>
   <i type="logical" name="LHOLEGF"> F  </i>
   <i type="logical" name="L2ORDER"> F  </i>
   <i type="logical" name="LDMP1"> F  </i>
   <i type="logical" name="LMP2LT"> F  </i>
   <i type="logical" name="LSMP2LT"> F  </i>
   <i type="logical" name="LGWLF"> F  </i>
   <i name="ENCUTGW">     -2.00000000</i>
   <i name="ENCUTGWSOFT">     -2.00000000</i>
   <i name="ENCUTLF">     -1.00000000</i>
   <i type="logical" name="LESF_SPLINES"> F  </i>
   <i type="int" name="LMAXMP2">    -1</i>
   <i name="SCISSOR">      0.00000000</i>
   <i type="int" name="NOMEGA">     0</i>
   <i type="int" name="NOMEGAR">     0</i>
   <i type="int" name="NBANDSGW">    -1</i>
   <i type="int" name="NBANDSO">    -1</i>
   <i type="int" name="NBANDSV">    -1</i>
   <i type="int" name="NELMGW">     1</i>
   <i type="int" name="NELMHF">     1</i>
   <i type="int" name="DIM">     3</i>
   <i type="int" name="IESPILON">     4</i>
   <i type="int" name="ANTIRES">     0</i>
   <i name="OMEGAMAX">    -30.00000000</i>
   <i name="OMEGAMIN">    -30.00000000</i>
   <i name="OMEGATL">   -200.00000000</i>
   <i type="int" name="OMEGAGRID">     0</i>
   <i name="CSHIFT">     -0.10000000</i>
   <i type="logical" name="LSELFENERGY"> F  </i>
   <i type="logical" name="LSPECTRAL"> F  </i>
   <i type="logical" name="LSPECTRALGW"> F  </i>
   <i type="logical" name="LSINGLES"> F  </i>
   <i type="logical" name="LFERMIGW"> F  </i>
   <i type="logical" name="ODDONLYGW"> F  </i>
   <i type="logical" name="EVENONLYGW"> F  </i>
   <i type="int" name="NKREDLFX">     1</i>
   <i type="int" name="NKREDLFY">     1</i>
   <i type="int" name="NKREDLFZ">     1</i>
   <i type="int" name="MAXMEM">  2800</i>
   <i type="int" name="TELESCOPE">     0</i>
   <i type="int" name="NTAUPAR">    -1</i>
   <i type="int" name="NOMEGAPAR">    -1</i>
   <i name="DAMP_NEWTON">      0.80000001</i>
   <i name="LAMBDA">      1.00000000</i>
  </separator>
  <separator name="External order field" >
   <i name="OFIELD_KAPPA">      0.00000000</i>
   <v name="OFIELD_K">      0.00000000      0.00000000      0.00000000</v>
   <i name="OFIELD_Q6_NEAR">      0.00000000</i>
   <i name="OFIELD_Q6_FAR">      0.00000000</i>
   <i name="OFIELD_A">      0.00000000</i>
  </separator>
  <separator name="optional k-points parameters" >
   <i type="int" name="KPOINTS_OPT_MODE">     1</i>
   <i type="logical" name="LKPOINTS_OPT"> F  </i>
  </separator>
 </parameters>
 <atominfo>
  <atoms>      24 </atoms>
  <types>       1 </types>
  <array name="atoms" >
   <dimension dim="1">ion</dimension>
   <field type="string">element</field>
   <field type="int">atomtype</field>
   <set>
    <rc><c>Cu</c><c>   1</c></rc>
    <rc><c>Cu</c><c>   1</c></rc>
    <rc><c>Cu</c><c>   1</c></rc>
    <rc><c>Cu</c><c>   1</c></rc>
    <rc><c>Cu</c><c>   1</c></rc>
    <rc><c>Cu</c><c>   1</c></rc>
    <rc><c>Cu</c><c>   1</c></rc>
    <rc><c>Cu</c><c>   1</c></rc>
    <rc><c>Cu</c><c>   1</c></rc>
    <rc><c>Cu</c><c>   1</c></rc>
    <rc><c>Cu</c><c>   1</c></rc>
    <rc><c>Cu</c><c>   1</c></rc>
    <rc><c>Cu</c><c>   1</c></rc>
    <rc><c>Cu</c><c>   1</c></rc>
    <rc><c>Cu</c><c>   1</c></rc>
    <rc><c>Cu</c><c>   1</c></rc>
    <rc><c>Cu</c><c>   1</c></rc>
    <rc><c>Cu</c><c>   1</c></rc>
    <rc><c>Cu</c><c>   1</c></rc>
    <rc><c>Cu</c><c>   1</c></rc>
    <rc><c>Cu</c><c>   1</c></rc>
    <rc><c>Cu</c><c>   1</c></rc>
    <rc><c>Cu</c><c>   1</c></rc>
    <rc><c>Cu</c><c>   1</c></rc>
   </set>
  </array>
  <array name="atomtypes" >
   <dimension dim="1">type</dimension>
   <field type="int">atomspertype</field>
   <field type="string">element</field>
   <field>mass</field>
   <field>valence</field>
   <field type="string">pseudopotential</field>
   <set>
    <rc><c>  24</c><c>Cu</c><c>     63.54600000</c><c>     11.00000000</c><c>  PAW_PBE Cu 22Jun2005                  </c></rc>
   </set>
  </array>
 </atominfo>
 <structure name="initialpos" >
  <crystal>
   <varray name="basis" >
    <v>       5.13359547       0.00000000       0.00000000 </v>
    <v>       2.56679773       4.44582409       0.00000000 </v>
    <v>       0.00000000       0.00000000      25.47890854 </v>
   </varray>
   <i name="volume">    581.50671889 </i>
   <varray name="rec_basis" >
    <v>       0.19479525      -0.11246509       0.00000000 </v>
    <v>       0.00000000       0.22493018       0.00000000 </v>
    <v>       0.00000000       0.00000000       0.03924815 </v>
   </varray>
  </crystal>
  <varray name="positions" >
   <v>       0.00000000       0.00000000       0.00000000 </v>
   <v>       0.00000000       0.50000000       0.00000000 </v>
   <v>       0.50000000       0.00000000       0.00000000 </v>
   <v>       0.50000000       0.50000000       0.00000000 </v>
   <v>       0.16666667       0.16666667       0.08225555 </v>
   <v>       0.16666667       0.66666667       0.08225555 </v>
   <v>       0.66666667       0.16666667       0.08225555 </v>
   <v>       0.66666667       0.66666667       0.08225555 </v>
   <v>       0.33333333       0.33333333       0.16451110 </v>
   <v>       0.33333333       0.83333333       0.16451110 </v>
   <v>       0.83333333       0.33333333       0.16451110 </v>
   <v>       0.83333333       0.83333333       0.16451110 </v>
   <v>       0.00000000       0.00000000       0.24676665 </v>
   <v>       0.00000000       0.50000000       0.24676665 </v>
   <v>       0.50000000       0.00000000       0.24676665 </v>
   <v>       0.50000000       0.50000000       0.24676665 </v>
   <v>       0.16666667       0.16666667       0.32902220 </v>
   <v>       0.16666667       0.66666667       0.32902220 </v>
   <v>       0.66666667       0.16666667       0.32902220 </v>
   <v>       0.66666667       0.66666667       0.32902220 </v>
   <v>       0.33333333       0.33333333       0.41127774 </v>
   <v>       0.33333333       0.83333333       0.41127774 </v>
   <v>       0.83333333       0.33333333       0.41127774 </v>
   <v>       0.83333333       0.83333333       0.41127774 </v>
  </varray>
  <varray name="selective"  type="logical" >
   <v type="logical" >  F  F  F </v>
   <v type="logical" >  F  F  F </v>
   <v type="logical" >  F  F  F </v>
   <v type="logical" >  F  F  F </v>
   <v type="logical" >  F  F  F </v>
   <v type="logical" >  F  F  F </v>
   <v type="logical" >  F  F  F </v>
   <v type="logical" >  F  F  F </v>
   <v type="logical" >  T  T  T </v>
   <v type="logical" >  T  T  T </v>
   <v type="logical" >  T  T  T </v>
   <v type="logical" >  T  T  T </v>
   <v type="logical" >  T  T  T </v>
   <v type="logical" >  T  T  T </v>
   <v type="logical" >  T  T  T </v>
   <v type="logical" >  T  T  T </v>
   <v type="logical" >  T  T  T </v>
   <v type="logical" >  T  T  T </v>
   <v type="logical" >  T  T  T </v>
   <v type="logical" >  T  T  T </v>
   <v type="logical" >  T  T  T </v>
   <v type="logical" >  T  T  T </v>
   <v type="logical" >  T  T  T </v>
   <v type="logical" >  T  T  T </v>
  </varray>
  <nose>
   <v>      -3.00000000       0.00000000       0.00010000       0.00010000 </v>
  </nose>
 </structure>
 <calculation>
  <scstep>
   <time name="dav">    2.50    2.52</time>
   <time name="total">    2.57    2.59</time>
   <energy>
    <i name="alphaZ">    724.40254881 </i>
    <i name="ewald"> 128163.76815443 </i>
    <i name="hartreedc">-160819.17098515 </i>
    <i name="XCdc">   1096.87142340 </i>
    <i name="pawpsdc">  29474.33990517 </i>
    <i name="pawaedc"> -32014.10235660 </i>
    <i name="eentropy">     -0.01601091 </i>
    <i name="bandstr">   2459.83068496 </i>
    <i name="atom">  33382.98336479 </i>
    <i name="e_fr_energy">   2468.90672892 </i>
    <i name="e_wo_entrp">   2468.92273983 </i>
    <i name="e_0_energy">   2468.91206589 </i>
   </energy>
  </scstep>
  <scstep>
   <time name="dav">    2.45    2.47</time>
   <time name="total">    2.45    2.47</time>
   <energy>
    <i name="e_fr_energy">    298.47509933 </i>
    <i name="e_wo_entrp">    298.47407592 </i>
    <i name="e_0_energy">    298.47475819 </i>
   </energy>
  </scstep>
  <scstep>
   <time name="dav">    2.45    2.48</time>
   <time name="total">    2.46    2.48</time>
   <energy>
    <i name="e_fr_energy">    -76.02586656 </i>
    <i name="e_wo_entrp">    -76.05446615 </i>
    <i name="e_0_energy">    -76.03539975 </i>
   </energy>
  </scstep>
  <scstep>
   <time name="dav">    2.66    2.68</time>
   <time name="total">    2.66    2.68</time>
   <energy>
    <i name="e_fr_energy">   -101.31132937 </i>
    <i name="e_wo_entrp">   -101.32643567 </i>
    <i name="e_0_energy">   -101.31636480 </i>
   </energy>
  </scstep>
  <scstep>
   <time name="dav">    2.63    2.66</time>
   <time name="total">    2.99    3.01</time>
   <energy>
    <i name="e_fr_energy">   -101.87307912 </i>
    <i name="e_wo_entrp">   -101.88705478 </i>
    <i name="e_0_energy">   -101.87773767 </i>
   </energy>
  </scstep>
  <scstep>
   <time name="dav">    2.57    2.59</time>
   <time name="total">    2.98    3.00</time>
   <energy>
    <i name="e_fr_energy">    -83.82234465 </i>
    <i name="e_wo_entrp">    -83.77366322 </i>
    <i name="e_0_energy">    -83.80611751 </i>
   </energy>
  </scstep>
  <scstep>
   <time name="dav">    2.57    2.59</time>
   <time name="total">    2.98    3.00</time>
   <energy>
    <i name="e_fr_energy">    -71.79911879 </i>
    <i name="e_wo_entrp">    -71.79477773 </i>
    <i name="e_0_energy">    -71.79767177 </i>
   </energy>
  </scstep>
  <scstep>
   <time name="dav">    2.74    2.77</time>
   <time name="total">    3.13    3.16</time>
   <energy>
    <i name="e_fr_energy">    -72.54369246 </i>
    <i name="e_wo_entrp">    -72.59619979 </i>
    <i name="e_0_energy">    -72.56119490 </i>
   </energy>
  </scstep>
  <scstep>
   <time name="dav">    3.11    3.13</time>
   <time name="total">    3.52    3.54</time>
   <energy>
    <i name="e_fr_energy">    -69.80617902 </i>
    <i name="e_wo_entrp">    -69.78392885 </i>
    <i name="e_0_energy">    -69.79876230 </i>
   </energy>
  </scstep>
  <scstep>
   <time name="dav">    3.38    3.41</time>
   <time name="total">    3.78    3.81</time>
   <energy>
    <i name="e_fr_energy">    -71.03319579 </i>
    <i name="e_wo_entrp">    -71.03515808 </i>
    <i name="e_0_energy">    -71.03384989 </i>
   </energy>
  </scstep>
  <scstep>
   <time name="dav">    3.10    3.12</time>
   <time name="total">    3.50    3.53</time>
   <energy>
    <i name="e_fr_energy">    -73.31147480 </i>
    <i name="e_wo_entrp">    -73.29141226 </i>
    <i name="e_0_energy">    -73.30478729 </i>
   </energy>
  </scstep>
  <scstep>
   <time name="dav">    3.13    3.16</time>
   <time name="total">    3.52    3.55</time>
   <energy>
    <i name="e_fr_energy">    -72.26186873 </i>
    <i name="e_wo_entrp">    -72.25917126 </i>
    <i name="e_0_energy">    -72.26096958 </i>
   </energy>
  </scstep>
  <scstep>
   <time name="dav">    3.31    3.33</time>
   <time name="total">    3.71    3.74</time>
   <energy>
    <i name="e_fr_energy">    -73.25194542 </i>
    <i name="e_wo_entrp">    -73.22800677 </i>
    <i name="e_0_energy">    -73.24396587 </i>
   </energy>
  </scstep>
  <scstep>
   <time name="dav">    2.77    2.80</time>
   <time name="total">    3.17    3.20</time>
   <energy>
    <i name="e_fr_energy">    -77.91680053 </i>
    <i name="e_wo_entrp">    -77.87271705 </i>
    <i name="e_0_energy">    -77.90210603 </i>
   </energy>
  </scstep>
  <scstep>
   <time name="dav">    2.84    2.86</time>
   <time name="total">    3.24    3.27</time>
   <energy>
    <i name="e_fr_energy">    -80.49018292 </i>
    <i name="e_wo_entrp">    -80.43349592 </i>
    <i name="e_0_energy">    -80.47128725 </i>
   </energy>
  </scstep>
  <scstep>
   <time name="dav">    2.99    3.02</time>
   <time name="total">    3.39    3.42</time>
   <energy>
    <i name="e_fr_energy">    -81.40553193 </i>
    <i name="e_wo_entrp">    -81.36821125 </i>
    <i name="e_0_energy">    -81.39309170 </i>
   </energy>
  </scstep>
  <scstep>
   <time name="dav">    2.86    2.88</time>
   <time name="total">    3.27    3.30</time>
   <energy>
    <i name="e_fr_energy">    -82.31928175 </i>
    <i name="e_wo_entrp">    -82.30398682 </i>
    <i name="e_0_energy">    -82.31418344 </i>
   </energy>
  </scstep>
  <scstep>
   <time name="dav">    2.83    2.85</time>
   <time name="total">    3.24    3.27</time>
   <energy>
    <i name="e_fr_energy">    -82.54952694 </i>
    <i name="e_wo_entrp">    -82.54294908 </i>
    <i name="e_0_energy">    -82.54733432 </i>
   </energy>
  </scstep>
  <scstep>
   <time name="dav">    2.65    2.67</time>
   <time name="total">    3.06    3.08</time>
   <energy>
    <i name="e_fr_energy">    -82.75073296 </i>
    <i name="e_wo_entrp">    -82.74987713 </i>
    <i name="e_0_energy">    -82.75044768 </i>
   </energy>
  </scstep>
  <scstep>
   <time name="dav">    3.17    3.19</time>
   <time name="total">    3.58    3.61</time>
   <energy>
    <i name="e_fr_energy">    -83.16886702 </i>
    <i name="e_wo_entrp">    -83.16888995 </i>
    <i name="e_0_energy">    -83.16887466 </i>
   </energy>
  </scstep>
  <scstep>
   <time name="dav">    2.76    2.79</time>
   <time name="total">    3.18    3.20</time>
   <energy>
    <i name="e_fr_energy">    -83.69137371 </i>
    <i name="e_wo_entrp">    -83.69293594 </i>
    <i name="e_0_energy">    -83.69189445 </i>
   </energy>
  </scstep>
  <scstep>
   <time name="dav">    2.75    2.78</time>
   <time name="total">    3.17    3.19</time>
   <energy>
    <i name="e_fr_energy">    -84.06976094 </i>
    <i name="e_wo_entrp">    -84.07008616 </i>
    <i name="e_0_energy">    -84.06986934 </i>
   </energy>
  </scstep>
  <scstep>
   <time name="dav">    2.87    2.90</time>
   <time name="total">    3.29    3.32</time>
   <energy>
    <i name="e_fr_energy">    -84.66596522 </i>
    <i name="e_wo_entrp">    -84.66758030 </i>
    <i name="e_0_energy">    -84.66650358 </i>
   </energy>
  </scstep>
  <scstep>
   <time name="dav">    2.66    2.68</time>
   <time name="total">    3.08    3.10</time>
   <energy>
    <i name="e_fr_energy">    -85.06033484 </i>
    <i name="e_wo_entrp">    -85.05921947 </i>
    <i name="e_0_energy">    -85.05996305 </i>
   </energy>
  </scstep>
  <scstep>
   <time name="dav">    2.77    2.80</time>
   <time name="total">    3.19    3.22</time>
   <energy>
    <i name="e_fr_energy">    -85.14594373 </i>
    <i name="e_wo_entrp">    -85.14672410 </i>
    <i name="e_0_energy">    -85.14620385 </i>
   </energy>
  </scstep>
  <scstep>
   <time name="dav">    2.65    2.67</time>
   <time name="total">    3.06    3.09</time>
   <energy>
    <i name="e_fr_energy">    -85.17716909 </i>
    <i name="e_wo_entrp">    -85.17747658 </i>
    <i name="e_0_energy">    -85.17727159 </i>
   </energy>
  </scstep>
  <scstep>
   <time name="dav">    2.07    2.08</time>
   <time name="total">    2.48    2.50</time>
   <energy>
    <i name="e_fr_energy">    -85.19504290 </i>
    <i name="e_wo_entrp">    -85.19594124 </i>
    <i name="e_0_energy">    -85.19534235 </i>
   </energy>
  </scstep>
  <scstep>
   <time name="dav">    1.96    1.97</time>
   <time name="total">    2.37    2.39</time>
   <energy>
    <i name="e_fr_energy">    -85.19787254 </i>
    <i name="e_wo_entrp">    -85.19884599 </i>
    <i name="e_0_energy">    -85.19819703 </i>
   </energy>
  </scstep>
  <scstep>
   <time name="dav">    1.90    1.92</time>
   <time name="total">    2.32    2.34</time>
   <energy>
    <i name="e_fr_energy">    -85.19857491 </i>
    <i name="e_wo_entrp">    -85.19955212 </i>
    <i name="e_0_energy">    -85.19890065 </i>
   </energy>
  </scstep>
  <scstep>
   <time name="dav">    1.83    1.85</time>
   <time name="total">    1.90    1.91</time>
   <energy>
    <i name="alphaZ">    724.40254881 </i>
    <i name="ewald"> 128163.76815443 </i>
    <i name="hartreedc">-160447.90551863 </i>
    <i name="XCdc">   1069.15749952 </i>
    <i name="pawpsdc">  31300.82455854 </i>
    <i name="pawaedc"> -33884.68906855 </i>
    <i name="eentropy">      0.00102492 </i>
    <i name="bandstr">   -393.74125413 </i>
    <i name="atom">  33382.98336479 </i>
    <i name="e_fr_energy">    -85.19869029 </i>
    <i name="e_wo_entrp">    -85.19971521 </i>
    <i name="e_0_energy">    -85.19903193 </i>
   </energy>
  </scstep>
  <dipole>
   <v name="dipole">      0.00000000       0.00000000       0.01763208 </v>
   <i name="Tr[quadrupol]">  -1220.90868611 </i>
   <i name="Echarged">      0.00000000 </i>
   <i name="Edipol_quadrupol">      0.00000000 </i>
   <i name="Eion">      0.00000000 </i>
  </dipole>
  <structure>
   <crystal>
    <varray name="basis" >
     <v>       5.13359547       0.00000000       0.00000000 </v>
     <v>       2.56679773       4.44582409       0.00000000 </v>
     <v>       0.00000000       0.00000000      25.47890854 </v>
    </varray>
    <i name="volume">    581.50671889 </i>
    <varray name="rec_basis" >
     <v>       0.19479525      -0.11246509       0.00000000 </v>
     <v>       0.00000000       0.22493018       0.00000000 </v>
     <v>       0.00000000       0.00000000       0.03924815 </v>
    </varray>
   </crystal>
   <varray name="positions" >
    <v>       0.00000000       0.00000000       0.00000000 </v>
    <v>       0.00000000       0.50000000       0.00000000 </v>
    <v>       0.50000000       0.00000000       0.00000000 </v>
    <v>       0.50000000       0.50000000       0.00000000 </v>
    <v>       0.16666667       0.16666667       0.08225555 </v>
    <v>       0.16666667       0.66666667       0.08225555 </v>
    <v>       0.66666667       0.16666667       0.08225555 </v>
    <v>       0.66666667       0.66666667       0.08225555 </v>
    <v>       0.33333333       0.33333333       0.16451110 </v>
    <v>       0.33333333       0.83333333       0.16451110 </v>
    <v>       0.83333333       0.33333333       0.16451110 </v>
    <v>       0.83333333       0.83333333       0.16451110 </v>
    <v>       0.00000000       0.00000000       0.24676665 </v>
    <v>       0.00000000       0.50000000       0.24676665 </v>
    <v>       0.50000000       0.00000000       0.24676665 </v>
    <v>       0.50000000       0.50000000       0.24676665 </v>
    <v>       0.16666667       0.16666667       0.32902220 </v>
    <v>       0.16666667       0.66666667       0.32902220 </v>
    <v>       0.66666667       0.16666667       0.32902220 </v>
    <v>       0.66666667       0.66666667       0.32902220 </v>
    <v>       0.33333333       0.33333333       0.41127774 </v>
    <v>       0.33333333       0.83333333       0.41127774 </v>
    <v>       0.83333333       0.33333333       0.41127774 </v>
    <v>       0.83333333       0.83333333       0.41127774 </v>
   </varray>
  </structure>
  <varray name="forces" >
   <v>       0.00000000      -0.00000000       0.24828392 </v>
   <v>       0.00000000      -0.00000000       0.24828392 </v>
   <v>       0.00000000      -0.00000000       0.24828392 </v>
   <v>       0.00000000      -0.00000000       0.24828392 </v>
   <v>       0.00000000       0.00000000       0.20973132 </v>
   <v>      -0.00000000       0.00000000       0.20973132 </v>
   <v>       0.00000000       0.00000000       0.20973132 </v>
   <v>       0.00000000       0.00000000       0.20973132 </v>
   <v>      -0.00000000       0.00000000      -0.10466209 </v>
   <v>       0.00000000       0.00000000      -0.10466209 </v>
   <v>       0.00000000      -0.00000000      -0.10466209 </v>
   <v>       0.00000000      -0.00000000      -0.10466209 </v>
   <v>       0.00000000      -0.00000000       0.09029204 </v>
   <v>       0.00000000      -0.00000000       0.09029204 </v>
   <v>       0.00000000      -0.00000000       0.09029204 </v>
   <v>       0.00000000      -0.00000000       0.09029204 </v>
   <v>      -0.00000000       0.00000000      -0.19960589 </v>
   <v>      -0.00000000       0.00000000      -0.19960589 </v>
   <v>      -0.00000000       0.00000000      -0.19960589 </v>
   <v>      -0.00000000       0.00000000      -0.19960589 </v>
   <v>       0.00000000      -0.00000000      -0.24403931 </v>
   <v>       0.00000000       0.00000000      -0.24403931 </v>
   <v>       0.00000000      -0.00000000      -0.24403931 </v>
   <v>      -0.00000000       0.00000000      -0.24403931 </v>
  </varray>
  <varray name="stress" >
   <v>     -38.99994747       0.00000000      -0.00000000 </v>
   <v>       0.00000000     -38.99994747       0.00000000 </v>
   <v>       0.00000000       0.00000000     -44.77024690 </v>
  </varray>
  <energy>
   <i name="e_fr_energy">    -94.63131800 </i>
   <i name="e_wo_entrp">    -94.63234292 </i>
   <i name="e_0_energy">    -94.63165964 </i>
  </energy>
  <time name="totalsc">   95.76   96.57</time>
 </calculation>
 <calculation>
  <scstep>
   <time name="dav">    2.60    2.63</time>
   <time name="total">    3.02    3.04</time>
   <energy>
    <i name="alphaZ">    724.40254881 </i>
    <i name="ewald"> 128467.92648460 </i>
    <i name="hartreedc">-160751.54041099 </i>
    <i name="XCdc">   1069.22893420 </i>
    <i name="pawpsdc">  31300.61939951 </i>
    <i name="pawaedc"> -33884.49632339 </i>
    <i name="eentropy">     -0.00120448 </i>
    <i name="bandstr">   -394.32155507 </i>
    <i name="atom">  33382.98336479 </i>
    <i name="e_fr_energy">    -85.19876201 </i>
    <i name="e_wo_entrp">    -85.19755754 </i>
    <i name="e_0_energy">    -85.19836052 </i>
   </energy>
  </scstep>
  <scstep>
   <time name="dav">    3.25    3.28</time>
   <time name="total">    3.67    3.70</time>
   <energy>
    <i name="e_fr_energy">    -85.20971496 </i>
    <i name="e_wo_entrp">    -85.20900623 </i>
    <i name="e_0_energy">    -85.20947872 </i>
   </energy>
  </scstep>
  <scstep>
   <time name="dav">    2.54    2.56</time>
   <time name="total">    2.95    2.98</time>
   <energy>
    <i name="e_fr_energy">    -85.20957230 </i>
    <i name="e_wo_entrp">    -85.20837141 </i>
    <i name="e_0_energy">    -85.20917200 </i>
   </energy>
  </scstep>
  <scstep>
   <time name="dav">    2.34    2.36</time>
   <time name="total">    2.75    2.78</time>
   <energy>
    <i name="e_fr_energy">    -85.20955554 </i>
    <i name="e_wo_entrp">    -85.20857212 </i>
    <i name="e_0_energy">    -85.20922773 </i>
   </energy>
  </scstep>
  <scstep>
   <time name="dav">    1.94    1.96</time>
   <time name="total">    2.35    2.37</time>
   <energy>
    <i name="e_fr_energy">    -85.20950828 </i>
    <i name="e_wo_entrp">    -85.20855144 </i>
    <i name="e_0_energy">    -85.20918933 </i>
   </energy>
  </scstep>
  <scstep>
   <time name="dav">    1.82    1.83</time>
   <time name="total">    2.23    2.25</time>
   <energy>
    <i name="e_fr_energy">    -85.20924946 </i>
    <i name="e_wo_entrp">    -85.20776726 </i>
    <i name="e_0_energy">    -85.20875539 </i>
   </energy>
  </scstep>
  <scstep>
   <time name="dav">    2.17    2.19</time>
   <time name="total">    2.23    2.25</time>
   <energy>
    <i name="alphaZ">    724.40254881 </i>
    <i name="ewald"> 128467.92648460 </i>
    <i name="hartreedc">-160750.64907045 </i>
    <i name="XCdc">   1069.21026131 </i>
    <i name="pawpsdc">  31307.94594586 </i>
    <i name="pawaedc"> -33892.00278126 </i>
    <i name="eentropy">     -0.00122918 </i>
    <i name="bandstr">   -395.02466521 </i>
    <i name="atom">  33382.98336479 </i>
    <i name="e_fr_energy">    -85.20914073 </i>
    <i name="e_wo_entrp">    -85.20791155 </i>
    <i name="e_0_energy">    -85.20873101 </i>
   </energy>
  </scstep>
  <dipole>
   <v name="dipole">      0.00000000       0.00000000       0.00753983 </v>
   <i name="Tr[quadrupol]">  -1220.86585099 </i>
   <i name="Echarged">      0.00000000 </i>
   <i name="Edipol_quadrupol">      0.00000000 </i>
   <i name="Eion">      0.00000000 </i>
  </dipole>
  <structure>
   <crystal>
    <varray name="basis" >
     <v>       5.13359547       0.00000000       0.00000000 </v>
     <v>       2.56679773       4.44582409       0.00000000 </v>
     <v>       0.00000000       0.00000000      25.47890854 </v>
    </varray>
    <i name="volume">    581.50671889 </i>
    <varray name="rec_basis" >
     <v>       0.19479525      -0.11246509       0.00000000 </v>
     <v>       0.00000000       0.22493018       0.00000000 </v>
     <v>       0.00000000       0.00000000       0.03924815 </v>
    </varray>
   </crystal>
   <varray name="positions" >
    <v>       0.00000000       0.00000000       0.00000000 </v>
    <v>       0.00000000       0.50000000       0.00000000 </v>
    <v>       0.50000000       0.00000000       0.00000000 </v>
    <v>       0.50000000       0.50000000       0.00000000 </v>
    <v>       0.16666667       0.16666667       0.08225555 </v>
    <v>       0.16666667       0.66666667       0.08225555 </v>
    <v>       0.66666667       0.16666667       0.08225555 </v>
    <v>       0.66666667       0.66666667       0.08225555 </v>
    <v>       0.33333333       0.33333333       0.16431293 </v>
    <v>       0.33333333       0.83333333       0.16431293 </v>
    <v>       0.83333333       0.33333333       0.16431293 </v>
    <v>       0.83333333       0.83333333       0.16431293 </v>
    <v>       0.00000000      -0.00000000       0.24693761 </v>
    <v>       0.00000000       0.50000000       0.24693761 </v>
    <v>       0.50000000      -0.00000000       0.24693761 </v>
    <v>       0.50000000       0.50000000       0.24693761 </v>
    <v>       0.16666667       0.16666667       0.32864425 </v>
    <v>       0.16666667       0.66666667       0.32864425 </v>
    <v>       0.66666667       0.16666667       0.32864425 </v>
    <v>       0.66666667       0.66666667       0.32864425 </v>
    <v>       0.33333333       0.33333333       0.41081567 </v>
    <v>       0.33333333       0.83333333       0.41081567 </v>
    <v>       0.83333333       0.33333333       0.41081567 </v>
    <v>       0.83333333       0.83333333       0.41081567 </v>
   </varray>
  </structure>
  <varray name="forces" >
   <v>       0.00000000       0.00000000       0.24296828 </v>
   <v>       0.00000000      -0.00000000       0.24296828 </v>
   <v>      -0.00000000      -0.00000000       0.24296828 </v>
   <v>      -0.00000000       0.00000000       0.24296828 </v>
   <v>       0.00000000      -0.00000000       0.19031675 </v>
   <v>       0.00000000      -0.00000000       0.19031675 </v>
   <v>       0.00000000       0.00000000       0.19031675 </v>
   <v>      -0.00000000       0.00000000       0.19031675 </v>
   <v>       0.00000000       0.00000000      -0.05384035 </v>
   <v>       0.00000000       0.00000000      -0.05384035 </v>
   <v>       0.00000000       0.00000000      -0.05384035 </v>
   <v>       0.00000000       0.00000000      -0.05384035 </v>
   <v>       0.00000000       0.00000000      -0.01258482 </v>
   <v>       0.00000000       0.00000000      -0.01258482 </v>
   <v>       0.00000000       0.00000000      -0.01258482 </v>
   <v>      -0.00000000       0.00000000      -0.01258482 </v>
   <v>      -0.00000000      -0.00000000      -0.14102599 </v>
   <v>      -0.00000000      -0.00000000      -0.14102599 </v>
   <v>      -0.00000000      -0.00000000      -0.14102599 </v>
   <v>      -0.00000000      -0.00000000      -0.14102599 </v>
   <v>       0.00000000       0.00000000      -0.22583386 </v>
   <v>       0.00000000       0.00000000      -0.22583386 </v>
   <v>       0.00000000       0.00000000      -0.22583386 </v>
   <v>       0.00000000       0.00000000      -0.22583386 </v>
  </varray>
  <varray name="stress" >
   <v>     -38.31579264      -0.00000000       0.00000000 </v>
   <v>       0.00000000     -38.31579264       0.00000000 </v>
   <v>       0.00000000       0.00000000     -43.04165478 </v>
  </varray>
  <energy>
   <i name="e_fr_energy">    -94.65188440 </i>
   <i name="e_wo_entrp">    -94.65065522 </i>
   <i name="e_0_energy">    -94.65147467 </i>
  </energy>
  <time name="totalsc">   23.73   23.95</time>
 </calculation>
 <calculation>
  <scstep>
   <time name="dav">    2.62    2.64</time>
   <time name="total">    3.02    3.05</time>
   <energy>
    <i name="alphaZ">    724.40254881 </i>
    <i name="ewald"> 129339.73894050 </i>
    <i name="hartreedc">-161621.32766187 </i>
    <i name="XCdc">   1069.43295769 </i>
    <i name="pawpsdc">  31308.30987271 </i>
    <i name="pawaedc"> -33892.38654648 </i>
    <i name="eentropy">     -0.00753514 </i>
    <i name="bandstr">   -396.26670612 </i>
    <i name="atom">  33382.98336479 </i>
    <i name="e_fr_energy">    -85.12076511 </i>
    <i name="e_wo_entrp">    -85.11322996 </i>
    <i name="e_0_energy">    -85.11825339 </i>
   </energy>
  </scstep>
  <scstep>
   <time name="dav">    3.33    3.36</time>
   <time name="total">    3.74    3.77</time>
   <energy>
    <i name="e_fr_energy">    -85.22113829 </i>
    <i name="e_wo_entrp">    -85.21517082 </i>
    <i name="e_0_energy">    -85.21914913 </i>
   </energy>
  </scstep>
  <scstep>
   <time name="dav">    2.60    2.62</time>
   <time name="total">    3.00    3.02</time>
   <energy>
    <i name="e_fr_energy">    -85.21832871 </i>
    <i name="e_wo_entrp">    -85.21083083 </i>
    <i name="e_0_energy">    -85.21582941 </i>
   </energy>
  </scstep>
  <scstep>
   <time name="dav">    2.78    2.80</time>
   <time name="total">    3.18    3.21</time>
   <energy>
    <i name="e_fr_energy">    -85.21749797 </i>
    <i name="e_wo_entrp">    -85.21021954 </i>
    <i name="e_0_energy">    -85.21507182 </i>
   </energy>
  </scstep>
  <scstep>
   <time name="dav">    3.26    3.29</time>
   <time name="total">    3.67    3.70</time>
   <energy>
    <i name="e_fr_energy">    -85.21572685 </i>
    <i name="e_wo_entrp">    -85.20893788 </i>
    <i name="e_0_energy">    -85.21346386 </i>
   </energy>
  </scstep>
  <scstep>
   <time name="dav">    3.71    3.74</time>
   <time name="total">    4.12    4.15</time>
   <energy>
    <i name="e_fr_energy">    -85.21437817 </i>
    <i name="e_wo_entrp">    -85.20647349 </i>
    <i name="e_0_energy">    -85.21174328 </i>
   </energy>
  </scstep>
  <scstep>
   <time name="dav">    3.15    3.17</time>
   <time name="total">    3.55    3.58</time>
   <energy>
    <i name="e_fr_energy">    -85.21357434 </i>
    <i name="e_wo_entrp">    -85.20614562 </i>
    <i name="e_0_energy">    -85.21109810 </i>
   </energy>
  </scstep>
  <scstep>
   <time name="dav">    2.76    2.79</time>
   <time name="total">    3.17    3.19</time>
   <energy>
    <i name="e_fr_energy">    -85.21342960 </i>
    <i name="e_wo_entrp">    -85.20561510 </i>
    <i name="e_0_energy">    -85.21082476 </i>
   </energy>
  </scstep>
  <scstep>
   <time name="dav">    2.23    2.25</time>
   <time name="total">    2.30    2.32</time>
   <energy>
    <i name="alphaZ">    724.40254881 </i>
    <i name="ewald"> 129339.73894050 </i>
    <i name="hartreedc">-161619.00442523 </i>
    <i name="XCdc">   1069.36445574 </i>
    <i name="pawpsdc">  31334.25825171 </i>
    <i name="pawaedc"> -33918.84674725 </i>
    <i name="eentropy">     -0.00758236 </i>
    <i name="bandstr">   -398.10218799 </i>
    <i name="atom">  33382.98336479 </i>
    <i name="e_fr_energy">    -85.21338127 </i>
    <i name="e_wo_entrp">    -85.20579892 </i>
    <i name="e_0_energy">    -85.21085382 </i>
   </energy>
  </scstep>
  <dipole>
   <v name="dipole">      0.00000000       0.00000000       0.00004907 </v>
   <i name="Tr[quadrupol]">  -1220.83281862 </i>
   <i name="Echarged">      0.00000000 </i>
   <i name="Edipol_quadrupol">      0.00000000 </i>
   <i name="Eion">      0.00000000 </i>
  </dipole>
  <structure>
   <crystal>
    <varray name="basis" >
     <v>       5.13359547       0.00000000       0.00000000 </v>
     <v>       2.56679773       4.44582409       0.00000000 </v>
     <v>       0.00000000       0.00000000      25.47890854 </v>
    </varray>
    <i name="volume">    581.50671889 </i>
    <varray name="rec_basis" >
     <v>       0.19479525      -0.11246509       0.00000000 </v>
     <v>       0.00000000       0.22493018       0.00000000 </v>
     <v>       0.00000000       0.00000000       0.03924815 </v>
    </varray>
   </crystal>
   <varray name="positions" >
    <v>       0.00000000       0.00000000       0.00000000 </v>
    <v>       0.00000000       0.50000000       0.00000000 </v>
    <v>       0.50000000       0.00000000       0.00000000 </v>
    <v>       0.50000000       0.50000000       0.00000000 </v>
    <v>       0.16666667       0.16666667       0.08225555 </v>
    <v>       0.16666667       0.66666667       0.08225555 </v>
    <v>       0.66666667       0.16666667       0.08225555 </v>
    <v>       0.66666667       0.66666667       0.08225555 </v>
    <v>       0.33333333       0.33333333       0.16374723 </v>
    <v>       0.33333333       0.83333333       0.16374723 </v>
    <v>       0.83333333       0.33333333       0.16374723 </v>
    <v>       0.83333333       0.83333333       0.16374723 </v>
    <v>       0.00000000      -0.00000000       0.24742563 </v>
    <v>       0.00000000       0.50000000       0.24742563 </v>
    <v>       0.50000000      -0.00000000       0.24742563 </v>
    <v>       0.50000000       0.50000000       0.24742563 </v>
    <v>       0.16666667       0.16666667       0.32756539 </v>
    <v>       0.16666667       0.66666667       0.32756539 </v>
    <v>       0.66666667       0.16666667       0.32756539 </v>
    <v>       0.66666667       0.66666667       0.32756539 </v>
    <v>       0.33333333       0.33333333       0.40949665 </v>
    <v>       0.33333333       0.83333333       0.40949665 </v>
    <v>       0.83333333       0.33333333       0.40949665 </v>
    <v>       0.83333333       0.83333333       0.40949665 </v>
   </varray>
  </structure>
  <varray name="forces" >
   <v>      -0.00000000      -0.00000000       0.24162307 </v>
   <v>      -0.00000000      -0.00000000       0.24162307 </v>
   <v>      -0.00000000       0.00000000       0.24162307 </v>
   <v>      -0.00000000      -0.00000000       0.24162307 </v>
   <v>      -0.00000000      -0.00000000       0.14123326 </v>
   <v>      -0.00000000       0.00000000       0.14123326 </v>
   <v>       0.00000000       0.00000000       0.14123326 </v>
   <v>      -0.00000000      -0.00000000       0.14123326 </v>
   <v>       0.00000000      -0.00000000       0.08322210 </v>
   <v>       0.00000000       0.00000000       0.08322210 </v>
   <v>      -0.00000000       0.00000000       0.08322210 </v>
   <v>       0.00000000       0.00000000       0.08322210 </v>
   <v>       0.00000000      -0.00000000      -0.24292813 </v>
   <v>       0.00000000      -0.00000000      -0.24292813 </v>
   <v>       0.00000000      -0.00000000      -0.24292813 </v>
   <v>       0.00000000      -0.00000000      -0.24292813 </v>
   <v>      -0.00000000      -0.00000000      -0.00925557 </v>
   <v>      -0.00000000      -0.00000000      -0.00925557 </v>
   <v>      -0.00000000      -0.00000000      -0.00925557 </v>
   <v>      -0.00000000      -0.00000000      -0.00925557 </v>
   <v>       0.00000000       0.00000000      -0.21389474 </v>
   <v>      -0.00000000       0.00000000      -0.21389474 </v>
   <v>       0.00000000       0.00000000      -0.21389474 </v>
   <v>       0.00000000       0.00000000      -0.21389474 </v>
  </varray>
  <varray name="stress" >
   <v>     -40.54603754       0.00000000       0.00000000 </v>
   <v>       0.00000000     -40.54603754       0.00000000 </v>
   <v>       0.00000000       0.00000000     -41.94166705 </v>
  </varray>
  <energy>
   <i name="e_fr_energy">    -94.68509195 </i>
   <i name="e_wo_entrp">    -94.67750960 </i>
   <i name="e_0_energy">    -94.68256450 </i>
  </energy>
  <time name="totalsc">   34.27   34.61</time>
 </calculation>
 <calculation>
  <scstep>
   <time name="dav">    2.61    2.63</time>
   <time name="total">    3.01    3.04</time>
   <energy>
    <i name="alphaZ">    724.40254881 </i>
    <i name="ewald"> 129658.04349874 </i>
    <i name="hartreedc">-161936.56107599 </i>
    <i name="XCdc">   1069.43784363 </i>
    <i name="pawpsdc">  31334.10447669 </i>
    <i name="pawaedc"> -33918.59440621 </i>
    <i name="eentropy">     -0.00966620 </i>
    <i name="bandstr">   -399.00006528 </i>
    <i name="atom">  33382.98336479 </i>
    <i name="e_fr_energy">    -85.19348102 </i>
    <i name="e_wo_entrp">    -85.18381482 </i>
    <i name="e_0_energy">    -85.19025895 </i>
   </energy>
  </scstep>
  <scstep>
   <time name="dav">    3.22    3.25</time>
   <time name="total">    3.62    3.65</time>
   <energy>
    <i name="e_fr_energy">    -85.20547025 </i>
    <i name="e_wo_entrp">    -85.19634730 </i>
    <i name="e_0_energy">    -85.20242927 </i>
   </energy>
  </scstep>
  <scstep>
   <time name="dav">    2.58    2.61</time>
   <time name="total">    2.99    3.01</time>
   <energy>
    <i name="e_fr_energy">    -85.20557235 </i>
    <i name="e_wo_entrp">    -85.19597978 </i>
    <i name="e_0_energy">    -85.20237483 </i>
   </energy>
  </scstep>
  <scstep>
   <time name="dav">    2.51    2.53</time>
   <time name="total">    2.91    2.94</time>
   <energy>
    <i name="e_fr_energy">    -85.20540580 </i>
    <i name="e_wo_entrp">    -85.19588007 </i>
    <i name="e_0_energy">    -85.20223056 </i>
   </energy>
  </scstep>
  <scstep>
   <time name="dav">    1.88    1.90</time>
   <time name="total">    2.28    2.30</time>
   <energy>
    <i name="e_fr_energy">    -85.20515355 </i>
    <i name="e_wo_entrp">    -85.19574662 </i>
    <i name="e_0_energy">    -85.20201790 </i>
   </energy>
  </scstep>
  <scstep>
   <time name="dav">    2.34    2.36</time>
   <time name="total">    2.40    2.43</time>
   <energy>
    <i name="alphaZ">    724.40254881 </i>
    <i name="ewald"> 129658.04349874 </i>
    <i name="hartreedc">-161935.17911900 </i>
    <i name="XCdc">   1069.41590279 </i>
    <i name="pawpsdc">  31342.23480666 </i>
    <i name="pawaedc"> -33926.78691482 </i>
    <i name="eentropy">     -0.00985773 </i>
    <i name="bandstr">   -400.30931865 </i>
    <i name="atom">  33382.98336479 </i>
    <i name="e_fr_energy">    -85.20508841 </i>
    <i name="e_wo_entrp">    -85.19523068 </i>
    <i name="e_0_energy">    -85.20180250 </i>
   </energy>
  </scstep>
  <dipole>
   <v name="dipole">      0.00000000       0.00000000       0.00071450 </v>
   <i name="Tr[quadrupol]">  -1220.80105347 </i>
   <i name="Echarged">      0.00000000 </i>
   <i name="Edipol_quadrupol">      0.00000000 </i>
   <i name="Eion">      0.00000000 </i>
  </dipole>
  <structure>
   <crystal>
    <varray name="basis" >
     <v>       5.13359547       0.00000000       0.00000000 </v>
     <v>       2.56679773       4.44582409       0.00000000 </v>
     <v>       0.00000000       0.00000000      25.47890854 </v>
    </varray>
    <i name="volume">    581.50671889 </i>
    <varray name="rec_basis" >
     <v>       0.19479525      -0.11246509       0.00000000 </v>
     <v>       0.00000000       0.22493018       0.00000000 </v>
     <v>       0.00000000       0.00000000       0.03924815 </v>
    </varray>
   </crystal>
   <varray name="positions" >
    <v>       0.00000000       0.00000000       0.00000000 </v>
    <v>       0.00000000       0.50000000       0.00000000 </v>
    <v>       0.50000000       0.00000000       0.00000000 </v>
    <v>       0.50000000       0.50000000       0.00000000 </v>
    <v>       0.16666667       0.16666667       0.08225555 </v>
    <v>       0.16666667       0.66666667       0.08225555 </v>
    <v>       0.66666667       0.16666667       0.08225555 </v>
    <v>       0.66666667       0.66666667       0.08225555 </v>
    <v>       0.33333333       0.33333333       0.16354154 </v>
    <v>       0.33333333       0.83333333       0.16354154 </v>
    <v>       0.83333333       0.33333333       0.16354154 </v>
    <v>       0.83333333       0.83333333       0.16354154 </v>
    <v>       0.00000000      -0.00000000       0.24760308 </v>
    <v>       0.00000000       0.50000000       0.24760308 </v>
    <v>       0.50000000      -0.00000000       0.24760308 </v>
    <v>       0.50000000       0.50000000       0.24760308 </v>
    <v>       0.16666667       0.16666667       0.32717311 </v>
    <v>       0.16666667       0.66666667       0.32717311 </v>
    <v>       0.66666667       0.16666667       0.32717311 </v>
    <v>       0.66666667       0.66666667       0.32717311 </v>
    <v>       0.33333333       0.33333333       0.40901704 </v>
    <v>       0.33333333       0.83333333       0.40901704 </v>
    <v>       0.83333333       0.33333333       0.40901704 </v>
    <v>       0.83333333       0.83333333       0.40901704 </v>
   </varray>
  </structure>
  <varray name="forces" >
   <v>      -0.00000000      -0.00000000       0.23510180 </v>
   <v>      -0.00000000       0.00000000       0.23510180 </v>
   <v>      -0.00000000       0.00000000       0.23510180 </v>
   <v>       0.00000000       0.00000000       0.23510180 </v>
   <v>       0.00000000      -0.00000000       0.11591148 </v>
   <v>      -0.00000000      -0.00000000       0.11591148 </v>
   <v>       0.00000000      -0.00000000       0.11591148 </v>
   <v>       0.00000000      -0.00000000       0.11591148 </v>
   <v>       0.00000000       0.00000000       0.13553098 </v>
   <v>       0.00000000       0.00000000       0.13553098 </v>
   <v>       0.00000000       0.00000000       0.13553098 </v>
   <v>       0.00000000       0.00000000       0.13553098 </v>
   <v>      -0.00000000      -0.00000000      -0.35053701 </v>
   <v>       0.00000000      -0.00000000      -0.35053701 </v>
   <v>       0.00000000      -0.00000000      -0.35053701 </v>
   <v>       0.00000000      -0.00000000      -0.35053701 </v>
   <v>       0.00000000      -0.00000000       0.04941697 </v>
   <v>       0.00000000       0.00000000       0.04941697 </v>
   <v>       0.00000000      -0.00000000       0.04941697 </v>
   <v>      -0.00000000      -0.00000000       0.04941697 </v>
   <v>      -0.00000000      -0.00000000      -0.18542422 </v>
   <v>      -0.00000000      -0.00000000      -0.18542422 </v>
   <v>      -0.00000000       0.00000000      -0.18542422 </v>
   <v>      -0.00000000       0.00000000      -0.18542422 </v>
  </varray>
  <varray name="stress" >
   <v>     -34.38068165      -0.00000000      -0.00000000 </v>
   <v>       0.00000000     -34.38068165       0.00000000 </v>
   <v>       0.00000000      -0.00000000     -34.37074102 </v>
  </varray>
  <energy>
   <i name="e_fr_energy">    -94.68740643 </i>
   <i name="e_wo_entrp">    -94.67754870 </i>
   <i name="e_0_energy">    -94.68412052 </i>
  </energy>
  <time name="totalsc">   21.73   21.92</time>
 </calculation>
 <calculation>
  <scstep>
   <time name="dav">    2.59    2.61</time>
   <time name="total">    3.00    3.02</time>
   <energy>
    <i name="alphaZ">    724.40254881 </i>
    <i name="ewald"> 130001.35836712 </i>
    <i name="hartreedc">-162278.41004888 </i>
    <i name="XCdc">   1069.49377351 </i>
    <i name="pawpsdc">  31344.23560951 </i>
    <i name="pawaedc"> -33928.89176475 </i>
    <i name="eentropy">     -0.01100896 </i>
    <i name="bandstr">   -400.36198003 </i>
    <i name="atom">  33382.98336479 </i>
    <i name="e_fr_energy">    -85.20113888 </i>
    <i name="e_wo_entrp">    -85.19012992 </i>
    <i name="e_0_energy">    -85.19746922 </i>
   </energy>
  </scstep>
  <scstep>
   <time name="dav">    3.70    3.73</time>
   <time name="total">    4.10    4.14</time>
   <energy>
    <i name="e_fr_energy">    -85.21294409 </i>
    <i name="e_wo_entrp">    -85.20216811 </i>
    <i name="e_0_energy">    -85.20935210 </i>
   </energy>
  </scstep>
  <scstep>
   <time name="dav">    3.22    3.24</time>
   <time name="total">    3.62    3.65</time>
   <energy>
    <i name="e_fr_energy">    -85.21002504 </i>
    <i name="e_wo_entrp">    -85.19915329 </i>
    <i name="e_0_energy">    -85.20640113 </i>
   </energy>
  </scstep>
  <scstep>
   <time name="dav">    2.50    2.52</time>
   <time name="total">    2.90    2.93</time>
   <energy>
    <i name="e_fr_energy">    -85.20969051 </i>
    <i name="e_wo_entrp">    -85.19859929 </i>
    <i name="e_0_energy">    -85.20599344 </i>
   </energy>
  </scstep>
  <scstep>
   <time name="dav">    2.52    2.54</time>
   <time name="total">    2.92    2.94</time>
   <energy>
    <i name="e_fr_energy">    -85.20977951 </i>
    <i name="e_wo_entrp">    -85.19899282 </i>
    <i name="e_0_energy">    -85.20618395 </i>
   </energy>
  </scstep>
  <scstep>
   <time name="dav">    2.52    2.54</time>
   <time name="total">    2.92    2.95</time>
   <energy>
    <i name="e_fr_energy">    -85.20971798 </i>
    <i name="e_wo_entrp">    -85.19877675 </i>
    <i name="e_0_energy">    -85.20607090 </i>
   </energy>
  </scstep>
  <scstep>
   <time name="dav">    2.12    2.14</time>
   <time name="total">    2.18    2.20</time>
   <energy>
    <i name="alphaZ">    724.40254881 </i>
    <i name="ewald"> 130001.35836712 </i>
    <i name="hartreedc">-162278.09843550 </i>
    <i name="XCdc">   1069.47925806 </i>
    <i name="pawpsdc">  31353.28850152 </i>
    <i name="pawaedc"> -33938.21140686 </i>
    <i name="eentropy">     -0.01098658 </i>
    <i name="bandstr">   -400.40089677 </i>
    <i name="atom">  33382.98336479 </i>
    <i name="e_fr_energy">    -85.20968542 </i>
    <i name="e_wo_entrp">    -85.19869884 </i>
    <i name="e_0_energy">    -85.20602323 </i>
   </energy>
  </scstep>
  <dipole>
   <v name="dipole">      0.00000000       0.00000000       0.00106895 </v>
   <i name="Tr[quadrupol]">  -1220.80342483 </i>
   <i name="Echarged">      0.00000000 </i>
   <i name="Edipol_quadrupol">      0.00000000 </i>
   <i name="Eion">      0.00000000 </i>
  </dipole>
  <structure>
   <crystal>
    <varray name="basis" >
     <v>       5.13359547       0.00000000       0.00000000 </v>
     <v>       2.56679773       4.44582409       0.00000000 </v>
     <v>       0.00000000       0.00000000      25.47890854 </v>
    </varray>
    <i name="volume">    581.50671889 </i>
    <varray name="rec_basis" >
     <v>       0.19479525      -0.11246509       0.00000000 </v>
     <v>       0.00000000       0.22493018       0.00000000 </v>
     <v>       0.00000000       0.00000000       0.03924815 </v>
    </varray>
   </crystal>
   <varray name="positions" >
    <v>       0.00000000       0.00000000       0.00000000 </v>
    <v>       0.00000000       0.50000000       0.00000000 </v>
    <v>       0.50000000       0.00000000       0.00000000 </v>
    <v>       0.50000000       0.50000000       0.00000000 </v>
    <v>       0.16666667       0.16666667       0.08225555 </v>
    <v>       0.16666667       0.66666667       0.08225555 </v>
    <v>       0.66666667       0.16666667       0.08225555 </v>
    <v>       0.66666667       0.66666667       0.08225555 </v>
    <v>       0.33333333       0.33333333       0.16351375 </v>
    <v>       0.33333333       0.83333333       0.16351375 </v>
    <v>       0.83333333       0.33333333       0.16351375 </v>
    <v>       0.83333333       0.83333333       0.16351375 </v>
    <v>       0.00000000      -0.00000000       0.24741743 </v>
    <v>       0.00000000       0.50000000       0.24741743 </v>
    <v>       0.50000000      -0.00000000       0.24741743 </v>
    <v>       0.50000000       0.50000000       0.24741743 </v>
    <v>       0.16666667       0.16666667       0.32693252 </v>
    <v>       0.16666667       0.66666667       0.32693252 </v>
    <v>       0.66666667       0.16666667       0.32693252 </v>
    <v>       0.66666667       0.66666667       0.32693252 </v>
    <v>       0.33333333       0.33333333       0.40850229 </v>
    <v>       0.33333333       0.83333333       0.40850229 </v>
    <v>       0.83333333       0.33333333       0.40850229 </v>
    <v>       0.83333333       0.83333333       0.40850229 </v>
   </varray>
  </structure>
  <varray name="forces" >
   <v>      -0.00000000       0.00000000       0.23611247 </v>
   <v>      -0.00000000      -0.00000000       0.23611247 </v>
   <v>      -0.00000000      -0.00000000       0.23611247 </v>
   <v>      -0.00000000       0.00000000       0.23611247 </v>
   <v>       0.00000000      -0.00000000       0.12130181 </v>
   <v>       0.00000000       0.00000000       0.12130181 </v>
   <v>      -0.00000000      -0.00000000       0.12130181 </v>
   <v>      -0.00000000      -0.00000000       0.12130181 </v>
   <v>       0.00000000       0.00000000       0.12364737 </v>
   <v>      -0.00000000       0.00000000       0.12364737 </v>
   <v>       0.00000000      -0.00000000       0.12364737 </v>
   <v>       0.00000000      -0.00000000       0.12364737 </v>
   <v>       0.00000000       0.00000000      -0.33352644 </v>
   <v>       0.00000000      -0.00000000      -0.33352644 </v>
   <v>       0.00000000       0.00000000      -0.33352644 </v>
   <v>       0.00000000       0.00000000      -0.33352644 </v>
   <v>       0.00000000      -0.00000000       0.02100225 </v>
   <v>      -0.00000000      -0.00000000       0.02100225 </v>
   <v>      -0.00000000      -0.00000000       0.02100225 </v>
   <v>      -0.00000000       0.00000000       0.02100225 </v>
   <v>      -0.00000000       0.00000000      -0.16853745 </v>
   <v>      -0.00000000       0.00000000      -0.16853745 </v>
   <v>      -0.00000000       0.00000000      -0.16853745 </v>
   <v>       0.00000000      -0.00000000      -0.16853745 </v>
  </varray>
  <varray name="stress" >
   <v>     -42.13900816       0.00000000       0.00000000 </v>
   <v>      -0.00000000     -42.13900816       0.00000000 </v>
   <v>       0.00000000       0.00000000     -41.28293272 </v>
  </varray>
  <energy>
   <i name="e_fr_energy">    -94.70232695 </i>
   <i name="e_wo_entrp">    -94.69134037 </i>
   <i name="e_0_energy">    -94.69866476 </i>
  </energy>
  <time name="totalsc">   26.16   26.42</time>
 </calculation>
 <calculation>
  <scstep>
   <time name="dav">    2.58    2.60</time>
   <time name="total">    2.99    3.01</time>
   <energy>
    <i name="alphaZ">    724.40254881 </i>
    <i name="ewald"> 131034.07243391 </i>
    <i name="hartreedc">-163309.12142399 </i>
    <i name="XCdc">   1069.71064044 </i>
    <i name="pawpsdc">  31353.22458277 </i>
    <i name="pawaedc"> -33938.08400649 </i>
    <i name="eentropy">     -0.01474090 </i>
    <i name="bandstr">   -402.30597898 </i>
    <i name="atom">  33382.98336479 </i>
    <i name="e_fr_energy">    -85.13257964 </i>
    <i name="e_wo_entrp">    -85.11783874 </i>
    <i name="e_0_energy">    -85.12766600 </i>
   </energy>
  </scstep>
  <scstep>
   <time name="dav">    3.52    3.55</time>
   <time name="total">    3.92    3.96</time>
   <energy>
    <i name="e_fr_energy">    -85.23450252 </i>
    <i name="e_wo_entrp">    -85.22145931 </i>
    <i name="e_0_energy">    -85.23015478 </i>
   </energy>
  </scstep>
  <scstep>
   <time name="dav">    3.51    3.54</time>
   <time name="total">    3.91    3.95</time>
   <energy>
    <i name="e_fr_energy">    -85.23252685 </i>
    <i name="e_wo_entrp">    -85.21807168 </i>
    <i name="e_0_energy">    -85.22770846 </i>
   </energy>
  </scstep>
  <scstep>
   <time name="dav">    2.96    2.99</time>
   <time name="total">    3.37    3.40</time>
   <energy>
    <i name="e_fr_energy">    -85.21911990 </i>
    <i name="e_wo_entrp">    -85.20395892 </i>
    <i name="e_0_energy">    -85.21406624 </i>
   </energy>
  </scstep>
  <scstep>
   <time name="dav">    2.83    2.85</time>
   <time name="total">    3.23    3.26</time>
   <energy>
    <i name="e_fr_energy">    -85.21837192 </i>
    <i name="e_wo_entrp">    -85.20413935 </i>
    <i name="e_0_energy">    -85.21362773 </i>
   </energy>
  </scstep>
  <scstep>
   <time name="dav">    2.62    2.64</time>
   <time name="total">    3.03    3.05</time>
   <energy>
    <i name="e_fr_energy">    -85.21708622 </i>
    <i name="e_wo_entrp">    -85.20253990 </i>
    <i name="e_0_energy">    -85.21223745 </i>
   </energy>
  </scstep>
  <scstep>
   <time name="dav">    2.81    2.83</time>
   <time name="total">    3.21    3.23</time>
   <energy>
    <i name="e_fr_energy">    -85.21622486 </i>
    <i name="e_wo_entrp">    -85.20150268 </i>
    <i name="e_0_energy">    -85.21131747 </i>
   </energy>
  </scstep>
  <scstep>
   <time name="dav">    3.21    3.24</time>
   <time name="total">    3.61    3.64</time>
   <energy>
    <i name="e_fr_energy">    -85.21612372 </i>
    <i name="e_wo_entrp">    -85.20106182 </i>
    <i name="e_0_energy">    -85.21110308 </i>
   </energy>
  </scstep>
  <scstep>
   <time name="dav">    1.87    1.89</time>
   <time name="total">    1.94    1.95</time>
   <energy>
    <i name="alphaZ">    724.40254881 </i>
    <i name="ewald"> 131034.07243391 </i>
    <i name="hartreedc">-163306.53625693 </i>
    <i name="XCdc">   1069.62481896 </i>
    <i name="pawpsdc">  31379.11858377 </i>
    <i name="pawaedc"> -33964.40825330 </i>
    <i name="eentropy">     -0.01485091 </i>
    <i name="bandstr">   -404.45844878 </i>
    <i name="atom">  33382.98336479 </i>
    <i name="e_fr_energy">    -85.21605969 </i>
    <i name="e_wo_entrp">    -85.20120878 </i>
    <i name="e_0_energy">    -85.21110938 </i>
   </energy>
  </scstep>
  <dipole>
   <v name="dipole">      0.00000000       0.00000000       0.00026840 </v>
   <i name="Tr[quadrupol]">  -1220.76673766 </i>
   <i name="Echarged">      0.00000000 </i>
   <i name="Edipol_quadrupol">      0.00000000 </i>
   <i name="Eion">      0.00000000 </i>
  </dipole>
  <structure>
   <crystal>
    <varray name="basis" >
     <v>       5.13359547       0.00000000       0.00000000 </v>
     <v>       2.56679773       4.44582409       0.00000000 </v>
     <v>       0.00000000       0.00000000      25.47890854 </v>
    </varray>
    <i name="volume">    581.50671889 </i>
    <varray name="rec_basis" >
     <v>       0.19479525      -0.11246509       0.00000000 </v>
     <v>       0.00000000       0.22493018       0.00000000 </v>
     <v>       0.00000000       0.00000000       0.03924815 </v>
    </varray>
   </crystal>
   <varray name="positions" >
    <v>       0.00000000       0.00000000       0.00000000 </v>
    <v>       0.00000000       0.50000000       0.00000000 </v>
    <v>       0.50000000       0.00000000       0.00000000 </v>
    <v>       0.50000000       0.50000000       0.00000000 </v>
    <v>       0.16666667       0.16666667       0.08225555 </v>
    <v>       0.16666667       0.66666667       0.08225555 </v>
    <v>       0.66666667       0.16666667       0.08225555 </v>
    <v>       0.66666667       0.66666667       0.08225555 </v>
    <v>       0.33333333       0.33333333       0.16343039 </v>
    <v>       0.33333333       0.83333333       0.16343039 </v>
    <v>       0.83333333       0.33333333       0.16343039 </v>
    <v>       0.83333333       0.83333333       0.16343039 </v>
    <v>       0.00000000      -0.00000000       0.24686045 </v>
    <v>       0.00000000       0.50000000       0.24686045 </v>
    <v>       0.50000000      -0.00000000       0.24686045 </v>
    <v>       0.50000000       0.50000000       0.24686045 </v>
    <v>       0.16666667       0.16666667       0.32621075 </v>
    <v>       0.16666667       0.66666667       0.32621075 </v>
    <v>       0.66666667       0.16666667       0.32621075 </v>
    <v>       0.66666667       0.66666667       0.32621075 </v>
    <v>       0.33333333       0.33333333       0.40695804 </v>
    <v>       0.33333333       0.83333333       0.40695804 </v>
    <v>       0.83333333       0.33333333       0.40695804 </v>
    <v>       0.83333333       0.83333333       0.40695804 </v>
   </varray>
  </structure>
  <varray name="forces" >
   <v>       0.00000000       0.00000000       0.22619628 </v>
   <v>       0.00000000       0.00000000       0.22619628 </v>
   <v>       0.00000000       0.00000000       0.22619628 </v>
   <v>       0.00000000       0.00000000       0.22619628 </v>
   <v>       0.00000000      -0.00000000       0.11272668 </v>
   <v>       0.00000000      -0.00000000       0.11272668 </v>
   <v>       0.00000000      -0.00000000       0.11272668 </v>
   <v>       0.00000000      -0.00000000       0.11272668 </v>
   <v>      -0.00000000      -0.00000000       0.09328397 </v>
   <v>      -0.00000000      -0.00000000       0.09328397 </v>
   <v>      -0.00000000      -0.00000000       0.09328397 </v>
   <v>      -0.00000000      -0.00000000       0.09328397 </v>
   <v>       0.00000000      -0.00000000      -0.32144954 </v>
   <v>       0.00000000      -0.00000000      -0.32144954 </v>
   <v>       0.00000000      -0.00000000      -0.32144954 </v>
   <v>       0.00000000       0.00000000      -0.32144954 </v>
   <v>      -0.00000000       0.00000000      -0.03253376 </v>
   <v>       0.00000000       0.00000000      -0.03253376 </v>
   <v>       0.00000000       0.00000000      -0.03253376 </v>
   <v>      -0.00000000       0.00000000      -0.03253376 </v>
   <v>       0.00000000       0.00000000      -0.07822364 </v>
   <v>       0.00000000       0.00000000      -0.07822364 </v>
   <v>       0.00000000       0.00000000      -0.07822364 </v>
   <v>       0.00000000       0.00000000      -0.07822364 </v>
  </varray>
  <varray name="stress" >
   <v>     -36.73212307       0.00000000      -0.00000000 </v>
   <v>       0.00000000     -36.73212307       0.00000000 </v>
   <v>       0.00000000       0.00000000     -32.59208250 </v>
  </varray>
  <energy>
   <i name="e_fr_energy">    -94.73989043 </i>
   <i name="e_wo_entrp">    -94.72503952 </i>
   <i name="e_0_energy">    -94.73494012 </i>
  </energy>
  <time name="totalsc">   33.72   33.99</time>
 </calculation>
 <calculation>
  <scstep>
   <time name="dav">    2.68    2.71</time>
   <time name="total">    3.09    3.11</time>
   <energy>
    <i name="alphaZ">    724.40254881 </i>
    <i name="ewald"> 133111.94465771 </i>
    <i name="hartreedc">-165382.47738289 </i>
    <i name="XCdc">   1070.14997436 </i>
    <i name="pawpsdc">  31379.15064192 </i>
    <i name="pawaedc"> -33964.42787155 </i>
    <i name="eentropy">     -0.02035527 </i>
    <i name="bandstr">   -406.54387612 </i>
    <i name="atom">  33382.98336479 </i>
    <i name="e_fr_energy">    -84.83829823 </i>
    <i name="e_wo_entrp">    -84.81794296 </i>
    <i name="e_0_energy">    -84.83151314 </i>
   </energy>
  </scstep>
  <scstep>
   <time name="dav">    3.60    3.63</time>
   <time name="total">    4.00    4.03</time>
   <energy>
    <i name="e_fr_energy">    -85.28404854 </i>
    <i name="e_wo_entrp">    -85.26694067 </i>
    <i name="e_0_energy">    -85.27834591 </i>
   </energy>
  </scstep>
  <scstep>
   <time name="dav">    3.37    3.40</time>
   <time name="total">    3.77    3.80</time>
   <energy>
    <i name="e_fr_energy">    -85.26507310 </i>
    <i name="e_wo_entrp">    -85.24289927 </i>
    <i name="e_0_energy">    -85.25768183 </i>
   </energy>
  </scstep>
  <scstep>
   <time name="dav">    3.00    3.03</time>
   <time name="total">    3.41    3.44</time>
   <energy>
    <i name="e_fr_energy">    -85.21003930 </i>
    <i name="e_wo_entrp">    -85.18878566 </i>
    <i name="e_0_energy">    -85.20295475 </i>
   </energy>
  </scstep>
  <scstep>
   <time name="dav">    2.76    2.78</time>
   <time name="total">    3.16    3.19</time>
   <energy>
    <i name="e_fr_energy">    -85.20768578 </i>
    <i name="e_wo_entrp">    -85.18869419 </i>
    <i name="e_0_energy">    -85.20135525 </i>
   </energy>
  </scstep>
  <scstep>
   <time name="dav">    2.59    2.61</time>
   <time name="total">    2.99    3.02</time>
   <energy>
    <i name="e_fr_energy">    -85.20415235 </i>
    <i name="e_wo_entrp">    -85.18455938 </i>
    <i name="e_0_energy">    -85.19762136 </i>
   </energy>
  </scstep>
  <scstep>
   <time name="dav">    2.85    2.88</time>
   <time name="total">    3.25    3.28</time>
   <energy>
    <i name="e_fr_energy">    -85.19873219 </i>
    <i name="e_wo_entrp">    -85.17914227 </i>
    <i name="e_0_energy">    -85.19220222 </i>
   </energy>
  </scstep>
  <scstep>
   <time name="dav">    3.51    3.54</time>
   <time name="total">    3.92    3.95</time>
   <energy>
    <i name="e_fr_energy">    -85.19811009 </i>
    <i name="e_wo_entrp">    -85.17793282 </i>
    <i name="e_0_energy">    -85.19138433 </i>
   </energy>
  </scstep>
  <scstep>
   <time name="dav">    2.80    2.82</time>
   <time name="total">    3.20    3.23</time>
   <energy>
    <i name="e_fr_energy">    -85.19796490 </i>
    <i name="e_wo_entrp">    -85.17803687 </i>
    <i name="e_0_energy">    -85.19132222 </i>
   </energy>
  </scstep>
  <scstep>
   <time name="dav">    2.44    2.46</time>
   <time name="total">    2.50    2.52</time>
   <energy>
    <i name="alphaZ">    724.40254881 </i>
    <i name="ewald"> 133111.94465771 </i>
    <i name="hartreedc">-165377.46037659 </i>
    <i name="XCdc">   1069.95005428 </i>
    <i name="pawpsdc">  31435.00832561 </i>
    <i name="pawaedc"> -34021.18301657 </i>
    <i name="eentropy">     -0.01982035 </i>
    <i name="bandstr">   -410.82372555 </i>
    <i name="atom">  33382.98336479 </i>
    <i name="e_fr_energy">    -85.19798786 </i>
    <i name="e_wo_entrp">    -85.17816751 </i>
    <i name="e_0_energy">    -85.19138108 </i>
   </energy>
  </scstep>
  <dipole>
   <v name="dipole">      0.00000000       0.00000000      -0.00142043 </v>
   <i name="Tr[quadrupol]">  -1220.73009322 </i>
   <i name="Echarged">      0.00000000 </i>
   <i name="Edipol_quadrupol">      0.00000000 </i>
   <i name="Eion">      0.00000000 </i>
  </dipole>
  <structure>
   <crystal>
    <varray name="basis" >
     <v>       5.13359547       0.00000000       0.00000000 </v>
     <v>       2.56679773       4.44582409       0.00000000 </v>
     <v>       0.00000000       0.00000000      25.47890854 </v>
    </varray>
    <i name="volume">    581.50671889 </i>
    <varray name="rec_basis" >
     <v>       0.19479525      -0.11246509       0.00000000 </v>
     <v>       0.00000000       0.22493018       0.00000000 </v>
     <v>       0.00000000       0.00000000       0.03924815 </v>
    </varray>
   </crystal>
   <varray name="positions" >
    <v>       0.00000000       0.00000000       0.00000000 </v>
    <v>       0.00000000       0.50000000       0.00000000 </v>
    <v>       0.50000000       0.00000000       0.00000000 </v>
    <v>       0.50000000       0.50000000       0.00000000 </v>
    <v>       0.16666667       0.16666667       0.08225555 </v>
    <v>       0.16666667       0.66666667       0.08225555 </v>
    <v>       0.66666667       0.16666667       0.08225555 </v>
    <v>       0.66666667       0.66666667       0.08225555 </v>
    <v>       0.33333333       0.33333333       0.16326367 </v>
    <v>       0.33333333       0.83333333       0.16326367 </v>
    <v>       0.83333333       0.33333333       0.16326367 </v>
    <v>       0.83333333       0.83333333       0.16326367 </v>
    <v>       0.00000000      -0.00000000       0.24574650 </v>
    <v>       0.00000000       0.50000000       0.24574650 </v>
    <v>       0.50000000      -0.00000000       0.24574650 </v>
    <v>       0.50000000       0.50000000       0.24574650 </v>
    <v>       0.16666667       0.16666667       0.32476720 </v>
    <v>       0.16666667       0.66666667       0.32476720 </v>
    <v>       0.66666667       0.16666667       0.32476720 </v>
    <v>       0.66666667       0.66666667       0.32476720 </v>
    <v>       0.33333333       0.33333333       0.40386955 </v>
    <v>       0.33333333       0.83333333       0.40386955 </v>
    <v>       0.83333333       0.33333333       0.40386955 </v>
    <v>       0.83333333       0.83333333       0.40386955 </v>
   </varray>
  </structure>
  <varray name="forces" >
   <v>      -0.00000000      -0.00000000       0.20537563 </v>
   <v>      -0.00000000      -0.00000000       0.20537563 </v>
   <v>      -0.00000000      -0.00000000       0.20537563 </v>
   <v>      -0.00000000      -0.00000000       0.20537563 </v>
   <v>      -0.00000000      -0.00000000       0.09296227 </v>
   <v>      -0.00000000       0.00000000       0.09296227 </v>
   <v>      -0.00000000      -0.00000000       0.09296227 </v>
   <v>       0.00000000       0.00000000       0.09296227 </v>
   <v>       0.00000000       0.00000000       0.02994064 </v>
   <v>       0.00000000       0.00000000       0.02994064 </v>
   <v>      -0.00000000      -0.00000000       0.02994064 </v>
   <v>       0.00000000       0.00000000       0.02994064 </v>
   <v>      -0.00000000       0.00000000      -0.27852228 </v>
   <v>       0.00000000       0.00000000      -0.27852228 </v>
   <v>      -0.00000000       0.00000000      -0.27852228 </v>
   <v>      -0.00000000       0.00000000      -0.27852228 </v>
   <v>       0.00000000       0.00000000      -0.15901100 </v>
   <v>       0.00000000       0.00000000      -0.15901100 </v>
   <v>       0.00000000      -0.00000000      -0.15901100 </v>
   <v>       0.00000000       0.00000000      -0.15901100 </v>
   <v>      -0.00000000      -0.00000000       0.10925474 </v>
   <v>      -0.00000000      -0.00000000       0.10925474 </v>
   <v>      -0.00000000      -0.00000000       0.10925474 </v>
   <v>      -0.00000000      -0.00000000       0.10925474 </v>
  </varray>
  <varray name="stress" >
   <v>     -33.23906495      -0.00000000       0.00000000 </v>
   <v>       0.00000000     -33.23906495      -0.00000000 </v>
   <v>       0.00000000       0.00000000     -22.71608140 </v>
  </varray>
  <energy>
   <i name="e_fr_energy">    -94.78520678 </i>
[...]
       <r>    10.4302     5.9789   170.1194 </r>
       <r>    10.5076     6.3741   170.6129 </r>
       <r>    10.5851     4.6045   170.9695 </r>
       <r>    10.6625     2.0383   171.1273 </r>
       <r>    10.7399     0.3013   171.1506 </r>
       <r>    10.8174    -0.3340   171.1248 </r>
       <r>    10.8948    -0.3608   171.0968 </r>
       <r>    10.9722     0.0149   171.0980 </r>
       <r>    11.0497     0.9606   171.1724 </r>
       <r>    11.1271     2.2704   171.3482 </r>
       <r>    11.2045     3.0879   171.5873 </r>
       <r>    11.2820     2.8089   171.8048 </r>
       <r>    11.3594     1.7881   171.9433 </r>
       <r>    11.4368     0.7734   172.0031 </r>
       <r>    11.5143     0.1597   172.0155 </r>
       <r>    11.5917    -0.0658   172.0104 </r>
       <r>    11.6691    -0.0797   172.0042 </r>
       <r>    11.7466    -0.0394   172.0012 </r>
       <r>    11.8240    -0.0123   172.0002 </r>
       <r>    11.9014    -0.0026   172.0000 </r>
       <r>    11.9789    -0.0004   172.0000 </r>
       <r>    12.0563    -0.0000   172.0000 </r>
       <r>    12.1337    -0.0000   172.0000 </r>
       <r>    12.2112    -0.0000   172.0000 </r>
       <r>    12.2886    -0.0000   172.0000 </r>
       <r>    12.3660    -0.0000   172.0000 </r>
       <r>    12.4435    -0.0000   172.0000 </r>
       <r>    12.5209    -0.0000   172.0000 </r>
       <r>    12.5983    -0.0000   172.0000 </r>
       <r>    12.6758     0.0000   172.0000 </r>
       <r>    12.7532     0.0000   172.0000 </r>
       <r>    12.8306     0.0000   172.0000 </r>
       <r>    12.9081     0.0000   172.0000 </r>
       <r>    12.9855     0.0000   172.0000 </r>
       <r>    13.0629     0.0000   172.0000 </r>
       <r>    13.1404     0.0000   172.0000 </r>
       <r>    13.2178     0.0000   172.0000 </r>
       <r>    13.2952     0.0000   172.0000 </r>
       <r>    13.3727     0.0000   172.0000 </r>
      </set>
      <set comment="spin 2">
       <r>    -9.8573     0.0000     0.0000 </r>
       <r>    -9.7799     0.0000     0.0000 </r>
       <r>    -9.7025     0.0000     0.0000 </r>
       <r>    -9.6250     0.0000     0.0000 </r>
       <r>    -9.5476     0.0000     0.0000 </r>
       <r>    -9.4702    -0.0000    -0.0000 </r>
       <r>    -9.3927    -0.0000    -0.0000 </r>
       <r>    -9.3153    -0.0000    -0.0000 </r>
       <r>    -9.2379    -0.0000    -0.0000 </r>
       <r>    -9.1604    -0.0000    -0.0000 </r>
       <r>    -9.0830    -0.0000    -0.0000 </r>
       <r>    -9.0056    -0.0000    -0.0000 </r>
       <r>    -8.9281    -0.0000    -0.0000 </r>
       <r>    -8.8507    -0.0000    -0.0000 </r>
       <r>    -8.7733    -0.0000    -0.0000 </r>
       <r>    -8.6958    -0.0000    -0.0000 </r>
       <r>    -8.6184    -0.0000    -0.0000 </r>
       <r>    -8.5410    -0.0000    -0.0000 </r>
       <r>    -8.4635    -0.0001    -0.0000 </r>
       <r>    -8.3861    -0.0007    -0.0001 </r>
       <r>    -8.3087    -0.0037    -0.0004 </r>
       <r>    -8.2312    -0.0125    -0.0013 </r>
       <r>    -8.1538    -0.0237    -0.0032 </r>
       <r>    -8.0764    -0.0057    -0.0036 </r>
       <r>    -7.9989     0.1001     0.0042 </r>
       <r>    -7.9215     0.2956     0.0270 </r>
       <r>    -7.8441     0.4486     0.0618 </r>
       <r>    -7.7666     0.4124     0.0937 </r>
       <r>    -7.6892     0.2231     0.1110 </r>
       <r>    -7.6118     0.0461     0.1146 </r>
       <r>    -7.5343    -0.0365     0.1117 </r>
       <r>    -7.4569    -0.0618     0.1069 </r>
       <r>    -7.3795    -0.0651     0.1019 </r>
       <r>    -7.3020    -0.0058     0.1014 </r>
       <r>    -7.2246     0.2446     0.1204 </r>
       <r>    -7.1472     0.8818     0.1887 </r>
       <r>    -7.0697     1.9159     0.3370 </r>
       <r>    -6.9923     2.7728     0.5517 </r>
       <r>    -6.9149     2.6453     0.7566 </r>
       <r>    -6.8374     1.5602     0.8774 </r>
       <r>    -6.7600     0.4122     0.9093 </r>
       <r>    -6.6826    -0.1808     0.8953 </r>
       <r>    -6.6051    -0.2839     0.8733 </r>
       <r>    -6.5277     0.0153     0.8745 </r>
       <r>    -6.4503     0.8850     0.9430 </r>
       <r>    -6.3728     2.1209     1.1073 </r>
       <r>    -6.2954     2.8424     1.3273 </r>
       <r>    -6.2180     2.4493     1.5170 </r>
       <r>    -6.1405     1.4106     1.6262 </r>
       <r>    -6.0631     0.5411     1.6681 </r>
       <r>    -5.9857     0.1083     1.6765 </r>
       <r>    -5.9082    -0.0442     1.6731 </r>
       <r>    -5.8308    -0.1018     1.6652 </r>
       <r>    -5.7534    -0.1849     1.6509 </r>
       <r>    -5.6759    -0.2707     1.6299 </r>
       <r>    -5.5985     0.0185     1.6314 </r>
       <r>    -5.5211     1.3032     1.7323 </r>
       <r>    -5.4436     3.5125     2.0043 </r>
       <r>    -5.3662     5.1730     2.4048 </r>
       <r>    -5.2888     4.7305     2.7711 </r>
       <r>    -5.2113     2.5610     2.9694 </r>
       <r>    -5.1339     0.5258     3.0101 </r>
       <r>    -5.0565    -0.0329     3.0076 </r>
       <r>    -4.9790     1.1058     3.0932 </r>
       <r>    -4.9016     3.3559     3.3531 </r>
       <r>    -4.8242     5.2255     3.7577 </r>
       <r>    -4.7467     5.1000     4.1526 </r>
       <r>    -4.6693     3.0308     4.3873 </r>
       <r>    -4.5919     0.8029     4.4495 </r>
       <r>    -4.5144     0.0486     4.4532 </r>
       <r>    -4.4370     1.1109     4.5393 </r>
       <r>    -4.3596     3.1769     4.7853 </r>
       <r>    -4.2821     4.8332     5.1595 </r>
       <r>    -4.2047     5.2057     5.5626 </r>
       <r>    -4.1273     4.6451     5.9223 </r>
       <r>    -4.0498     3.7968     6.2163 </r>
       <r>    -3.9724     2.9179     6.4422 </r>
       <r>    -3.8950     2.4652     6.6331 </r>
       <r>    -3.8175     2.7854     6.8488 </r>
       <r>    -3.7401     3.3040     7.1046 </r>
       <r>    -3.6627     3.6803     7.3896 </r>
       <r>    -3.5852     4.9671     7.7742 </r>
       <r>    -3.5078     8.1371     8.4043 </r>
       <r>    -3.4304    12.8185     9.3969 </r>
       <r>    -3.3529    17.9424    10.7862 </r>
       <r>    -3.2755    21.3290    12.4378 </r>
       <r>    -3.1981    20.2078    14.0026 </r>
       <r>    -3.1206    15.3681    15.1926 </r>
       <r>    -3.0432    11.6383    16.0938 </r>
       <r>    -2.9658    12.3823    17.0526 </r>
       <r>    -2.8883    16.9949    18.3685 </r>
       <r>    -2.8109    22.7379    20.1292 </r>
       <r>    -2.7335    26.5530    22.1853 </r>
       <r>    -2.6560    27.4023    24.3072 </r>
       <r>    -2.5786    26.6386    26.3699 </r>
       <r>    -2.5012    25.1203    28.3150 </r>
       <r>    -2.4237    23.0347    30.0987 </r>
       <r>    -2.3463    21.7090    31.7797 </r>
       <r>    -2.2689    22.2798    33.5049 </r>
       <r>    -2.1914    24.2727    35.3844 </r>
       <r>    -2.1140    26.9323    37.4699 </r>
       <r>    -2.0366    30.0654    39.7979 </r>
       <r>    -1.9591    33.4190    42.3857 </r>
       <r>    -1.8817    36.4505    45.2082 </r>
       <r>    -1.8043    38.7698    48.2102 </r>
       <r>    -1.7268    40.8690    51.3749 </r>
       <r>    -1.6494    43.6960    54.7584 </r>
       <r>    -1.5720    46.8183    58.3837 </r>
       <r>    -1.4945    48.4179    62.1328 </r>
       <r>    -1.4171    47.4030    65.8034 </r>
       <r>    -1.3397    44.5083    69.2498 </r>
       <r>    -1.2622    42.0377    72.5050 </r>
       <r>    -1.1848    42.3672    75.7856 </r>
       <r>    -1.1074    44.6183    79.2405 </r>
       <r>    -1.0299    44.4711    82.6841 </r>
       <r>    -0.9525    40.2970    85.8044 </r>
       <r>    -0.8751    36.1845    88.6063 </r>
       <r>    -0.7976    36.1964    91.4091 </r>
       <r>    -0.7202    40.0839    94.5130 </r>
       <r>    -0.6428    45.7724    98.0573 </r>
       <r>    -0.5653    51.1873   102.0209 </r>
       <r>    -0.4879    54.3554   106.2298 </r>
       <r>    -0.4105    55.8028   110.5508 </r>
       <r>    -0.3330    57.8731   115.0321 </r>
       <r>    -0.2556    58.5045   119.5623 </r>
       <r>    -0.1782    51.1016   123.5193 </r>
       <r>    -0.1007    34.1263   126.1618 </r>
       <r>    -0.0233    15.1898   127.3380 </r>
       <r>     0.0541     2.7434   127.5504 </r>
       <r>     0.1316    -1.7233   127.4170 </r>
       <r>     0.2090    -1.8915   127.2705 </r>
       <r>     0.2864    -1.0224   127.1913 </r>
       <r>     0.3639     0.2654   127.2119 </r>
       <r>     0.4413     2.4847   127.4043 </r>
       <r>     0.5187     5.0466   127.7951 </r>
       <r>     0.5962     6.3604   128.2876 </r>
       <r>     0.6736     5.9829   128.7508 </r>
       <r>     0.7510     4.8722   129.1281 </r>
       <r>     0.8285     3.7451   129.4181 </r>
       <r>     0.9059     3.1755   129.6640 </r>
       <r>     0.9833     3.9018   129.9661 </r>
       <r>     1.0608     5.2922   130.3759 </r>
       <r>     1.1382     5.7861   130.8240 </r>
       <r>     1.2156     5.4969   131.2496 </r>
       <r>     1.2931     5.4965   131.6752 </r>
       <r>     1.3705     5.2427   132.0812 </r>
       <r>     1.4479     3.7708   132.3732 </r>
       <r>     1.5254     1.8583   132.5171 </r>
       <r>     1.6028     0.9961   132.5942 </r>
       <r>     1.6802     2.1490   132.7606 </r>
       <r>     1.7577     5.5711   133.1920 </r>
       <r>     1.8351     9.4659   133.9250 </r>
       <r>     1.9125    10.3348   134.7252 </r>
       <r>     1.9900     7.2020   135.2829 </r>
       <r>     2.0674     3.3146   135.5395 </r>
       <r>     2.1448     1.8936   135.6862 </r>
       <r>     2.2223     2.6398   135.8906 </r>
       <r>     2.2997     3.3391   136.1491 </r>
       <r>     2.3771     2.9037   136.3740 </r>
       <r>     2.4546     1.9093   136.5218 </r>
       <r>     2.5320     1.1233   136.6088 </r>
       <r>     2.6094     0.9411   136.6817 </r>
       <r>     2.6869     2.1615   136.8491 </r>
       <r>     2.7643     5.4036   137.2675 </r>
       <r>     2.8417     9.0903   137.9714 </r>
       <r>     2.9192     9.9899   138.7449 </r>
       <r>     2.9966     7.0312   139.2894 </r>
       <r>     3.0740     2.7833   139.5049 </r>
       <r>     3.1515     0.1114   139.5135 </r>
       <r>     3.2289    -0.6203   139.4655 </r>
       <r>     3.3063    -0.4385   139.4315 </r>
       <r>     3.3838     0.1704   139.4447 </r>
       <r>     3.4612     1.2733   139.5433 </r>
       <r>     3.5386     2.4393   139.7322 </r>
       <r>     3.6161     2.7046   139.9416 </r>
       <r>     3.6935     1.8061   140.0815 </r>
       <r>     3.7709     0.5734   140.1259 </r>
       <r>     3.8484    -0.2181   140.1090 </r>
       <r>     3.9258    -0.4873   140.0713 </r>
       <r>     4.0032    -0.1249   140.0616 </r>
       <r>     4.0807     1.4975   140.1775 </r>
       <r>     4.1581     4.5029   140.5262 </r>
       <r>     4.2355     7.2125   141.0847 </r>
       <r>     4.3130     7.2888   141.6491 </r>
       <r>     4.3904     4.7185   142.0145 </r>
       <r>     4.4678     2.1323   142.1796 </r>
       <r>     4.5453     1.5328   142.2983 </r>
       <r>     4.6227     2.1589   142.4654 </r>
       <r>     4.7001     2.1704   142.6335 </r>
       <r>     4.7776     1.2929   142.7336 </r>
       <r>     4.8550     0.9309   142.8057 </r>
       <r>     4.9324     2.0612   142.9653 </r>
       <r>     5.0099     3.7245   143.2537 </r>
       <r>     5.0873     4.0198   143.5650 </r>
       <r>     5.1647     2.6686   143.7716 </r>
       <r>     5.2422     1.7725   143.9089 </r>
       <r>     5.3196     3.2655   144.1617 </r>
       <r>     5.3970     6.1807   144.6403 </r>
       <r>     5.4745     7.5867   145.2278 </r>
       <r>     5.5519     6.2065   145.7084 </r>
       <r>     5.6293     3.6289   145.9894 </r>
       <r>     5.7068     1.9388   146.1395 </r>
       <r>     5.7842     1.8458   146.2824 </r>
       <r>     5.8616     2.7550   146.4957 </r>
       <r>     5.9391     3.3843   146.7578 </r>
       <r>     6.0165     3.1624   147.0027 </r>
       <r>     6.0939     3.3854   147.2648 </r>
       <r>     6.1714     5.4006   147.6830 </r>
       <r>     6.2488     7.8909   148.2940 </r>
       <r>     6.3262     8.3671   148.9419 </r>
       <r>     6.4037     6.7707   149.4662 </r>
       <r>     6.4811     4.9356   149.8484 </r>
       <r>     6.5585     3.7103   150.1357 </r>
       <r>     6.6360     3.0020   150.3681 </r>
       <r>     6.7134     3.2634   150.6208 </r>
       <r>     6.7908     4.9032   151.0005 </r>
       <r>     6.8683     6.6857   151.5182 </r>
       <r>     6.9457     6.5104   152.0223 </r>
       <r>     7.0231     4.1415   152.3430 </r>
       <r>     7.1006     1.4344   152.4541 </r>
       <r>     7.1780    -0.2070   152.4380 </r>
       <r>     7.2554    -0.7396   152.3808 </r>
       <r>     7.3329    -0.0245   152.3789 </r>
       <r>     7.4103     2.8416   152.5989 </r>
       <r>     7.4877     7.9189   153.2121 </r>
       <r>     7.5652    12.7735   154.2012 </r>
       <r>     7.6426    14.1427   155.2963 </r>
       <r>     7.7200    11.5275   156.1889 </r>
       <r>     7.7975     7.3880   156.7610 </r>
       <r>     7.8749     4.0138   157.0718 </r>
       <r>     7.9523     2.1297   157.2367 </r>
       <r>     8.0298     1.6697   157.3660 </r>
       <r>     8.1072     2.0819   157.5272 </r>
       <r>     8.1846     2.8705   157.7495 </r>
       <r>     8.2621     4.4287   158.0924 </r>
       <r>     8.3395     6.7097   158.6120 </r>
       <r>     8.4169     7.7563   159.2126 </r>
       <r>     8.4944     6.0203   159.6787 </r>
       <r>     8.5718     3.0309   159.9134 </r>
       <r>     8.6492     1.4964   160.0293 </r>
       <r>     8.7267     2.0184   160.1856 </r>
       <r>     8.8041     3.0831   160.4243 </r>
       <r>     8.8815     3.2493   160.6759 </r>
       <r>     8.9590     2.7923   160.8921 </r>
       <r>     9.0364     3.4765   161.1613 </r>
       <r>     9.1138     6.3798   161.6553 </r>
       <r>     9.1913    10.1339   162.4400 </r>
       <r>     9.2687    12.1157   163.3782 </r>
       <r>     9.3461    11.1169   164.2390 </r>
       <r>     9.4236     8.1991   164.8739 </r>
       <r>     9.5010     5.2927   165.2837 </r>
       <r>     9.5784     3.4269   165.5491 </r>
       <r>     9.6559     2.5187   165.7441 </r>
       <r>     9.7333     2.5910   165.9448 </r>
       <r>     9.8107     3.7784   166.2373 </r>
       <r>     9.8882     5.3272   166.6498 </r>
       <r>     9.9656     6.5513   167.1571 </r>
       <r>    10.0430     7.6984   167.7532 </r>
       <r>    10.1205     8.2088   168.3889 </r>
       <r>    10.1979     6.8943   168.9227 </r>
       <r>    10.2753     4.8651   169.2995 </r>
       <r>    10.3528     4.6105   169.6565 </r>
       <r>    10.4302     5.9794   170.1195 </r>
       <r>    10.5076     6.3741   170.6130 </r>
       <r>    10.5851     4.6044   170.9696 </r>
       <r>    10.6625     2.0405   171.1276 </r>
       <r>    10.7399     0.3119   171.1517 </r>
       <r>    10.8174    -0.3078   171.1279 </r>
       <r>    10.8948    -0.3387   171.1017 </r>
       <r>    10.9722    -0.0629   171.0968 </r>
       <r>    11.0497     0.6476   171.1469 </r>
       <r>    11.1271     1.7454   171.2821 </r>
       <r>    11.2045     2.6418   171.4866 </r>
       <r>    11.2820     2.7531   171.6998 </r>
       <r>    11.3594     2.1406   171.8656 </r>
       <r>    11.4368     1.2774   171.9645 </r>
       <r>    11.5143     0.5380   172.0061 </r>
       <r>    11.5917     0.0908   172.0132 </r>
       <r>    11.6691    -0.0672   172.0080 </r>
       <r>    11.7466    -0.0646   172.0030 </r>
       <r>    11.8240    -0.0285   172.0008 </r>
       <r>    11.9014    -0.0080   172.0001 </r>
       <r>    11.9789    -0.0015   172.0000 </r>
       <r>    12.0563    -0.0002   172.0000 </r>
       <r>    12.1337    -0.0000   172.0000 </r>
       <r>    12.2112    -0.0000   172.0000 </r>
       <r>    12.2886    -0.0000   172.0000 </r>
       <r>    12.3660    -0.0000   172.0000 </r>
       <r>    12.4435    -0.0000   172.0000 </r>
       <r>    12.5209    -0.0000   172.0000 </r>
       <r>    12.5983    -0.0000   172.0000 </r>
       <r>    12.6758     0.0000   172.0000 </r>
       <r>    12.7532     0.0000   172.0000 </r>
       <r>    12.8306     0.0000   172.0000 </r>
       <r>    12.9081     0.0000   172.0000 </r>
       <r>    12.9855     0.0000   172.0000 </r>
       <r>    13.0629     0.0000   172.0000 </r>
       <r>    13.1404     0.0000   172.0000 </r>
       <r>    13.2178     0.0000   172.0000 </r>
       <r>    13.2952     0.0000   172.0000 </r>
       <r>    13.3727     0.0000   172.0000 </r>
      </set>
     </set>
    </array>
   </total>
  </dos>
 </calculation>
 <structure name="finalpos" >
  <crystal>
   <varray name="basis" >
    <v>       5.13359547       0.00000000       0.00000000 </v>
    <v>       2.56679773       4.44582409       0.00000000 </v>
    <v>       0.00000000       0.00000000      25.47890854 </v>
   </varray>
   <i name="volume">    581.50671889 </i>
   <varray name="rec_basis" >
    <v>       0.19479525      -0.11246509       0.00000000 </v>
    <v>       0.00000000       0.22493018       0.00000000 </v>
    <v>       0.00000000       0.00000000       0.03924815 </v>
   </varray>
  </crystal>
  <varray name="positions" >
   <v>       0.00000000       0.00000000       0.00000000 </v>
   <v>       0.00000000       0.50000000       0.00000000 </v>
   <v>       0.50000000       0.00000000       0.00000000 </v>
   <v>       0.50000000       0.50000000       0.00000000 </v>
   <v>       0.16666667       0.16666667       0.08225555 </v>
   <v>       0.16666667       0.66666667       0.08225555 </v>
   <v>       0.66666667       0.16666667       0.08225555 </v>
   <v>       0.66666667       0.66666667       0.08225555 </v>
   <v>       0.33333333       0.33333333       0.16103325 </v>
   <v>       0.33333333       0.83333333       0.16103325 </v>
   <v>       0.83333333       0.33333333       0.16103325 </v>
   <v>       0.83333333       0.83333333       0.16103325 </v>
   <v>       0.00000000      -0.00000000       0.24079327 </v>
   <v>       0.00000000       0.50000000       0.24079327 </v>
   <v>       0.50000000      -0.00000000       0.24079327 </v>
   <v>       0.50000000       0.50000000       0.24079327 </v>
   <v>       0.16666667       0.16666667       0.31982656 </v>
   <v>       0.16666667       0.66666667       0.31982656 </v>
   <v>       0.66666667       0.16666667       0.31982656 </v>
   <v>       0.66666667       0.66666667       0.31982656 </v>
   <v>       0.33333333       0.33333333       0.40026427 </v>
   <v>       0.33333333       0.83333333       0.40026427 </v>
   <v>       0.83333333       0.33333333       0.40026427 </v>
   <v>       0.83333333       0.83333333       0.40026427 </v>
  </varray>
  <varray name="selective"  type="logical" >
   <v type="logical" >  F  F  F </v>
   <v type="logical" >  F  F  F </v>
   <v type="logical" >  F  F  F </v>
   <v type="logical" >  F  F  F </v>
   <v type="logical" >  F  F  F </v>
   <v type="logical" >  F  F  F </v>
   <v type="logical" >  F  F  F </v>
   <v type="logical" >  F  F  F </v>
   <v type="logical" >  T  T  T </v>
   <v type="logical" >  T  T  T </v>
   <v type="logical" >  T  T  T </v>
   <v type="logical" >  T  T  T </v>
   <v type="logical" >  T  T  T </v>
   <v type="logical" >  T  T  T </v>
   <v type="logical" >  T  T  T </v>
   <v type="logical" >  T  T  T </v>
   <v type="logical" >  T  T  T </v>
   <v type="logical" >  T  T  T </v>
   <v type="logical" >  T  T  T </v>
   <v type="logical" >  T  T  T </v>
   <v type="logical" >  T  T  T </v>
   <v type="logical" >  T  T  T </v>
   <v type="logical" >  T  T  T </v>
   <v type="logical" >  T  T  T </v>
  </varray>
  <nose>
   <v>      -3.00000000       0.00000000       0.00010000       0.00010000 </v>
  </nose>
 </structure>
</modeling>
