unknown system                          
           1
     5.133595    0.000000    0.000000
     2.566798    4.445824    0.000000
     0.000000    0.000000   25.478909
   Cu
    24
Direct configuration=     1
   0.00000000  0.00000000  0.00000000
   0.00000000  0.50000000  0.00000000
   0.50000000  0.00000000  0.00000000
   0.50000000  0.50000000  0.00000000
   0.16666667  0.16666667  0.08225555
   0.16666667  0.66666667  0.08225555
   0.66666667  0.16666667  0.08225555
   0.66666667  0.66666667  0.08225555
   0.33333333  0.33333333  0.16451110
   0.33333333  0.83333333  0.16451110
   0.83333333  0.33333333  0.16451110
   0.83333333  0.83333333  0.16451110
   0.00000000  0.00000000  0.24676665
   0.00000000  0.50000000  0.24676665
   0.50000000  0.00000000  0.24676665
   0.50000000  0.50000000  0.24676665
   0.16666667  0.16666667  0.32902220
   0.16666667  0.66666667  0.32902220
   0.66666667  0.16666667  0.32902220
   0.66666667  0.66666667  0.32902220
   0.33333333  0.33333333  0.41127774
   0.33333333  0.83333333  0.41127774
   0.83333333  0.33333333  0.41127774
   0.83333333  0.83333333  0.41127774
Direct configuration=     2
   0.00000000  0.00000000  0.00000000
   0.00000000  0.50000000  0.00000000
   0.50000000  0.00000000  0.00000000
   0.50000000  0.50000000  0.00000000
   0.16666667  0.16666667  0.08225555
   0.16666667  0.66666667  0.08225555
   0.66666667  0.16666667  0.08225555
   0.66666667  0.66666667  0.08225555
   0.33333333  0.33333333  0.16431293
   0.33333333  0.83333333  0.16431293
   0.83333333  0.33333333  0.16431293
   0.83333333  0.83333333  0.16431293
   0.00000000 -0.00000000  0.24693761
   0.00000000  0.50000000  0.24693761
   0.50000000 -0.00000000  0.24693761
   0.50000000  0.50000000  0.24693761
   0.16666667  0.16666667  0.32864425
   0.16666667  0.66666667  0.32864425
   0.66666667  0.16666667  0.32864425
   0.66666667  0.66666667  0.32864425
   0.33333333  0.33333333  0.41081567
   0.33333333  0.83333333  0.41081567
   0.83333333  0.33333333  0.41081567
   0.83333333  0.83333333  0.41081567
Direct configuration=     3
   0.00000000  0.00000000  0.00000000
   0.00000000  0.50000000  0.00000000
   0.50000000  0.00000000  0.00000000
   0.50000000  0.50000000  0.00000000
   0.16666667  0.16666667  0.08225555
   0.16666667  0.66666667  0.08225555
   0.66666667  0.16666667  0.08225555
   0.66666667  0.66666667  0.08225555
   0.33333333  0.33333333  0.16374723
   0.33333333  0.83333333  0.16374723
   0.83333333  0.33333333  0.16374723
   0.83333333  0.83333333  0.16374723
   0.00000000 -0.00000000  0.24742563
   0.00000000  0.50000000  0.24742563
   0.50000000 -0.00000000  0.24742563
   0.50000000  0.50000000  0.24742563
   0.16666667  0.16666667  0.32756539
   0.16666667  0.66666667  0.32756539
   0.66666667  0.16666667  0.32756539
   0.66666667  0.66666667  0.32756539
   0.33333333  0.33333333  0.40949665
   0.33333333  0.83333333  0.40949665
   0.83333333  0.33333333  0.40949665
   0.83333333  0.83333333  0.40949665
Direct configuration=     4
   0.00000000  0.00000000  0.00000000
   0.00000000  0.50000000  0.00000000
   0.50000000  0.00000000  0.00000000
   0.50000000  0.50000000  0.00000000
   0.16666667  0.16666667  0.08225555
   0.16666667  0.66666667  0.08225555
   0.66666667  0.16666667  0.08225555
   0.66666667  0.66666667  0.08225555
   0.33333333  0.33333333  0.16354154
   0.33333333  0.83333333  0.16354154
   0.83333333  0.33333333  0.16354154
   0.83333333  0.83333333  0.16354154
   0.00000000 -0.00000000  0.24760308
   0.00000000  0.50000000  0.24760308
   0.50000000 -0.00000000  0.24760308
   0.50000000  0.50000000  0.24760308
   0.16666667  0.16666667  0.32717311
   0.16666667  0.66666667  0.32717311
   0.66666667  0.16666667  0.32717311
   0.66666667  0.66666667  0.32717311
   0.33333333  0.33333333  0.40901704
   0.33333333  0.83333333  0.40901704
   0.83333333  0.33333333  0.40901704
   0.83333333  0.83333333  0.40901704
Direct configuration=     5
   0.00000000  0.00000000  0.00000000
   0.00000000  0.50000000  0.00000000
   0.50000000  0.00000000  0.00000000
   0.50000000  0.50000000  0.00000000
   0.16666667  0.16666667  0.08225555
   0.16666667  0.66666667  0.08225555
   0.66666667  0.16666667  0.08225555
   0.66666667  0.66666667  0.08225555
   0.33333333  0.33333333  0.16351375
   0.33333333  0.83333333  0.16351375
   0.83333333  0.33333333  0.16351375
   0.83333333  0.83333333  0.16351375
   0.00000000 -0.00000000  0.24741743
   0.00000000  0.50000000  0.24741743
   0.50000000 -0.00000000  0.24741743
   0.50000000  0.50000000  0.24741743
   0.16666667  0.16666667  0.32693252
   0.16666667  0.66666667  0.32693252
   0.66666667  0.16666667  0.32693252
   0.66666667  0.66666667  0.32693252
   0.33333333  0.33333333  0.40850229
   0.33333333  0.83333333  0.40850229
   0.83333333  0.33333333  0.40850229
   0.83333333  0.83333333  0.40850229
Direct configuration=     6
   0.00000000  0.00000000  0.00000000
   0.00000000  0.50000000  0.00000000
   0.50000000  0.00000000  0.00000000
   0.50000000  0.50000000  0.00000000
   0.16666667  0.16666667  0.08225555
   0.16666667  0.66666667  0.08225555
   0.66666667  0.16666667  0.08225555
   0.66666667  0.66666667  0.08225555
   0.33333333  0.33333333  0.16343039
   0.33333333  0.83333333  0.16343039
   0.83333333  0.33333333  0.16343039
   0.83333333  0.83333333  0.16343039
   0.00000000 -0.00000000  0.24686045
   0.00000000  0.50000000  0.24686045
   0.50000000 -0.00000000  0.24686045
   0.50000000  0.50000000  0.24686045
   0.16666667  0.16666667  0.32621075
   0.16666667  0.66666667  0.32621075
   0.66666667  0.16666667  0.32621075
   0.66666667  0.66666667  0.32621075
   0.33333333  0.33333333  0.40695804
   0.33333333  0.83333333  0.40695804
   0.83333333  0.33333333  0.40695804
   0.83333333  0.83333333  0.40695804
Direct configuration=     7
   0.00000000  0.00000000  0.00000000
   0.00000000  0.50000000  0.00000000
   0.50000000  0.00000000  0.00000000
   0.50000000  0.50000000  0.00000000
   0.16666667  0.16666667  0.08225555
   0.16666667  0.66666667  0.08225555
   0.66666667  0.16666667  0.08225555
   0.66666667  0.66666667  0.08225555
   0.33333333  0.33333333  0.16326367
   0.33333333  0.83333333  0.16326367
   0.83333333  0.33333333  0.16326367
   0.83333333  0.83333333  0.16326367
   0.00000000 -0.00000000  0.24574650
   0.00000000  0.50000000  0.24574650
   0.50000000 -0.00000000  0.24574650
   0.50000000  0.50000000  0.24574650
   0.16666667  0.16666667  0.32476720
   0.16666667  0.66666667  0.32476720
   0.66666667  0.16666667  0.32476720
   0.66666667  0.66666667  0.32476720
   0.33333333  0.33333333  0.40386955
   0.33333333  0.83333333  0.40386955
   0.83333333  0.33333333  0.40386955
   0.83333333  0.83333333  0.40386955
Direct configuration=     8
   0.00000000  0.00000000  0.00000000
   0.00000000  0.50000000  0.00000000
   0.50000000  0.00000000  0.00000000
   0.50000000  0.50000000  0.00000000
   0.16666667  0.16666667  0.08225555
   0.16666667  0.66666667  0.08225555
   0.66666667  0.16666667  0.08225555
   0.66666667  0.66666667  0.08225555
   0.33333333  0.33333333  0.16318780
   0.33333333  0.83333333  0.16318780
   0.83333333  0.33333333  0.16318780
   0.83333333  0.83333333  0.16318780
   0.00000000 -0.00000000  0.24523956
   0.00000000  0.50000000  0.24523956
   0.50000000 -0.00000000  0.24523956
   0.50000000  0.50000000  0.24523956
   0.16666667  0.16666667  0.32411027
   0.16666667  0.66666667  0.32411027
   0.66666667  0.16666667  0.32411027
   0.66666667  0.66666667  0.32411027
   0.33333333  0.33333333  0.40246402
   0.33333333  0.83333333  0.40246402
   0.83333333  0.33333333  0.40246402
   0.83333333  0.83333333  0.40246402
Direct configuration=     9
   0.00000000  0.00000000  0.00000000
   0.00000000  0.50000000  0.00000000
   0.50000000  0.00000000  0.00000000
   0.50000000  0.50000000  0.00000000
   0.16666667  0.16666667  0.08225555
   0.16666667  0.66666667  0.08225555
   0.66666667  0.16666667  0.08225555
   0.66666667  0.66666667  0.08225555
   0.33333333  0.33333333  0.16311920
   0.33333333  0.83333333  0.16311920
   0.83333333  0.33333333  0.16311920
   0.83333333  0.83333333  0.16311920
   0.00000000 -0.00000000  0.24408568
   0.00000000  0.50000000  0.24408568
   0.50000000 -0.00000000  0.24408568
   0.50000000  0.50000000  0.24408568
   0.16666667  0.16666667  0.32291556
   0.16666667  0.66666667  0.32291556
   0.66666667  0.16666667  0.32291556
   0.66666667  0.66666667  0.32291556
   0.33333333  0.33333333  0.40195630
   0.33333333  0.83333333  0.40195630
   0.83333333  0.33333333  0.40195630
   0.83333333  0.83333333  0.40195630
Direct configuration=    10
   0.00000000  0.00000000  0.00000000
   0.00000000  0.50000000  0.00000000
   0.50000000  0.00000000  0.00000000
   0.50000000  0.50000000  0.00000000
   0.16666667  0.16666667  0.08225555
   0.16666667  0.66666667  0.08225555
   0.66666667  0.16666667  0.08225555
   0.66666667  0.66666667  0.08225555
   0.33333333  0.33333333  0.16297214
   0.33333333  0.83333333  0.16297214
   0.83333333  0.33333333  0.16297214
   0.83333333  0.83333333  0.16297214
   0.00000000 -0.00000000  0.24161198
   0.00000000  0.50000000  0.24161198
   0.50000000 -0.00000000  0.24161198
   0.50000000  0.50000000  0.24161198
   0.16666667  0.16666667  0.32035433
   0.16666667  0.66666667  0.32035433
   0.66666667  0.16666667  0.32035433
   0.66666667  0.66666667  0.32035433
   0.33333333  0.33333333  0.40086782
   0.33333333  0.83333333  0.40086782
   0.83333333  0.33333333  0.40086782
   0.83333333  0.83333333  0.40086782
Direct configuration=    11
   0.00000000  0.00000000  0.00000000
   0.00000000  0.50000000  0.00000000
   0.50000000  0.00000000  0.00000000
   0.50000000  0.50000000  0.00000000
   0.16666667  0.16666667  0.08225555
   0.16666667  0.66666667  0.08225555
   0.66666667  0.16666667  0.08225555
   0.66666667  0.66666667  0.08225555
   0.33333333  0.33333333  0.16301097
   0.33333333  0.83333333  0.16301097
   0.83333333  0.33333333  0.16301097
   0.83333333  0.83333333  0.16301097
   0.00000000 -0.00000000  0.24226510
   0.00000000  0.50000000  0.24226510
   0.50000000 -0.00000000  0.24226510
   0.50000000  0.50000000  0.24226510
   0.16666667  0.16666667  0.32103055
   0.16666667  0.66666667  0.32103055
   0.66666667  0.16666667  0.32103055
   0.66666667  0.66666667  0.32103055
   0.33333333  0.33333333  0.40115521
   0.33333333  0.83333333  0.40115521
   0.83333333  0.33333333  0.40115521
   0.83333333  0.83333333  0.40115521
Direct configuration=    12
   0.00000000  0.00000000  0.00000000
   0.00000000  0.50000000  0.00000000
   0.50000000  0.00000000  0.00000000
   0.50000000  0.50000000  0.00000000
   0.16666667  0.16666667  0.08225555
   0.16666667  0.66666667  0.08225555
   0.66666667  0.16666667  0.08225555
   0.66666667  0.66666667  0.08225555
   0.33333333  0.33333333  0.16189196
   0.33333333  0.83333333  0.16189196
   0.83333333  0.33333333  0.16189196
   0.83333333  0.83333333  0.16189196
   0.00000000 -0.00000000  0.24160647
   0.00000000  0.50000000  0.24160647
   0.50000000 -0.00000000  0.24160647
   0.50000000  0.50000000  0.24160647
   0.16666667  0.16666667  0.32018248
   0.16666667  0.66666667  0.32018248
   0.66666667  0.16666667  0.32018248
   0.66666667  0.66666667  0.32018248
   0.33333333  0.33333333  0.40081989
   0.33333333  0.83333333  0.40081989
   0.83333333  0.33333333  0.40081989
   0.83333333  0.83333333  0.40081989
Direct configuration=    13
   0.00000000  0.00000000  0.00000000
   0.00000000  0.50000000  0.00000000
   0.50000000  0.00000000  0.00000000
   0.50000000  0.50000000  0.00000000
   0.16666667  0.16666667  0.08225555
   0.16666667  0.66666667  0.08225555
   0.66666667  0.16666667  0.08225555
   0.66666667  0.66666667  0.08225555
   0.33333333  0.33333333  0.16135753
   0.33333333  0.83333333  0.16135753
   0.83333333  0.33333333  0.16135753
   0.83333333  0.83333333  0.16135753
   0.00000000 -0.00000000  0.24129191
   0.00000000  0.50000000  0.24129191
   0.50000000 -0.00000000  0.24129191
   0.50000000  0.50000000  0.24129191
   0.16666667  0.16666667  0.31977745
   0.16666667  0.66666667  0.31977745
   0.66666667  0.16666667  0.31977745
   0.66666667  0.66666667  0.31977745
   0.33333333  0.33333333  0.40065974
   0.33333333  0.83333333  0.40065974
   0.83333333  0.33333333  0.40065974
   0.83333333  0.83333333  0.40065974
Direct configuration=    14
   0.00000000  0.00000000  0.00000000
   0.00000000  0.50000000  0.00000000
   0.50000000  0.00000000  0.00000000
   0.50000000  0.50000000  0.00000000
   0.16666667  0.16666667  0.08225555
   0.16666667  0.66666667  0.08225555
   0.66666667  0.16666667  0.08225555
   0.66666667  0.66666667  0.08225555
   0.33333333  0.33333333  0.16097411
   0.33333333  0.83333333  0.16097411
   0.83333333  0.33333333  0.16097411
   0.83333333  0.83333333  0.16097411
   0.00000000 -0.00000000  0.24070234
   0.00000000  0.50000000  0.24070234
   0.50000000 -0.00000000  0.24070234
   0.50000000  0.50000000  0.24070234
   0.16666667  0.16666667  0.31983552
   0.16666667  0.66666667  0.31983552
   0.66666667  0.16666667  0.31983552
   0.66666667  0.66666667  0.31983552
   0.33333333  0.33333333  0.40019215
   0.33333333  0.83333333  0.40019215
   0.83333333  0.33333333  0.40019215
   0.83333333  0.83333333  0.40019215
Direct configuration=    15
   0.00000000  0.00000000  0.00000000
   0.00000000  0.50000000  0.00000000
   0.50000000  0.00000000  0.00000000
   0.50000000  0.50000000  0.00000000
   0.16666667  0.16666667  0.08225555
   0.16666667  0.66666667  0.08225555
   0.66666667  0.16666667  0.08225555
   0.66666667  0.66666667  0.08225555
   0.33333333  0.33333333  0.16106686
   0.33333333  0.83333333  0.16106686
   0.83333333  0.33333333  0.16106686
   0.83333333  0.83333333  0.16106686
   0.00000000 -0.00000000  0.24084496
   0.00000000  0.50000000  0.24084496
   0.50000000 -0.00000000  0.24084496
   0.50000000  0.50000000  0.24084496
   0.16666667  0.16666667  0.31982147
   0.16666667  0.66666667  0.31982147
   0.66666667  0.16666667  0.31982147
   0.66666667  0.66666667  0.31982147
   0.33333333  0.33333333  0.40030527
   0.33333333  0.83333333  0.40030527
   0.83333333  0.33333333  0.40030527
   0.83333333  0.83333333  0.40030527
Direct configuration=    16
   0.00000000  0.00000000  0.00000000
   0.00000000  0.50000000  0.00000000
   0.50000000  0.00000000  0.00000000
   0.50000000  0.50000000  0.00000000
   0.16666667  0.16666667  0.08225555
   0.16666667  0.66666667  0.08225555
   0.66666667  0.16666667  0.08225555
   0.66666667  0.66666667  0.08225555
   0.33333333  0.33333333  0.16102167
   0.33333333  0.83333333  0.16102167
   0.83333333  0.33333333  0.16102167
   0.83333333  0.83333333  0.16102167
   0.00000000 -0.00000000  0.24077546
   0.00000000  0.50000000  0.24077546
   0.50000000 -0.00000000  0.24077546
   0.50000000  0.50000000  0.24077546
   0.16666667  0.16666667  0.31982832
   0.16666667  0.66666667  0.31982832
   0.66666667  0.16666667  0.31982832
   0.66666667  0.66666667  0.31982832
   0.33333333  0.33333333  0.40025014
   0.33333333  0.83333333  0.40025014
   0.83333333  0.33333333  0.40025014
   0.83333333  0.83333333  0.40025014
Direct configuration=    17
   0.00000000  0.00000000  0.00000000
   0.00000000  0.50000000  0.00000000
   0.50000000  0.00000000  0.00000000
   0.50000000  0.50000000  0.00000000
   0.16666667  0.16666667  0.08225555
   0.16666667  0.66666667  0.08225555
   0.66666667  0.16666667  0.08225555
   0.66666667  0.66666667  0.08225555
   0.33333333  0.33333333  0.16104197
   0.33333333  0.83333333  0.16104197
   0.83333333  0.33333333  0.16104197
   0.83333333  0.83333333  0.16104197
   0.00000000 -0.00000000  0.24080668
   0.00000000  0.50000000  0.24080668
   0.50000000 -0.00000000  0.24080668
   0.50000000  0.50000000  0.24080668
   0.16666667  0.16666667  0.31982524
   0.16666667  0.66666667  0.31982524
   0.66666667  0.16666667  0.31982524
   0.66666667  0.66666667  0.31982524
   0.33333333  0.33333333  0.40027490
   0.33333333  0.83333333  0.40027490
   0.83333333  0.33333333  0.40027490
   0.83333333  0.83333333  0.40027490
Direct configuration=    18
   0.00000000  0.00000000  0.00000000
   0.00000000  0.50000000  0.00000000
   0.50000000  0.00000000  0.00000000
   0.50000000  0.50000000  0.00000000
   0.16666667  0.16666667  0.08225555
   0.16666667  0.66666667  0.08225555
   0.66666667  0.16666667  0.08225555
   0.66666667  0.66666667  0.08225555
   0.33333333  0.33333333  0.16103325
   0.33333333  0.83333333  0.16103325
   0.83333333  0.33333333  0.16103325
   0.83333333  0.83333333  0.16103325
   0.00000000 -0.00000000  0.24079327
   0.00000000  0.50000000  0.24079327
   0.50000000 -0.00000000  0.24079327
   0.50000000  0.50000000  0.24079327
   0.16666667  0.16666667  0.31982656
   0.16666667  0.66666667  0.31982656
   0.66666667  0.16666667  0.31982656
   0.66666667  0.66666667  0.31982656
   0.33333333  0.33333333  0.40026427
   0.33333333  0.83333333  0.40026427
   0.83333333  0.33333333  0.40026427
   0.83333333  0.83333333  0.40026427
