  48  48   0   0
  0.2643616E+02  0.7260000E-09  0.7260000E-09  0.2407500E-08  0.5000000E-15
  1.000000000000000E-004
  CAR 
 unknown system                          
     11.70113497    -10.24686658  301      1.07945623      1.00000000
    -10.247  0.0000E+00  0.0000E+00  0.0000E+00  0.0000E+00
    -10.174  0.0000E+00  0.0000E+00  0.0000E+00  0.0000E+00
    -10.101  0.0000E+00  0.0000E+00  0.0000E+00  0.0000E+00
    -10.027  0.0000E+00  0.0000E+00  0.0000E+00  0.0000E+00
     -9.954  0.0000E+00  0.0000E+00  0.0000E+00  0.0000E+00
     -9.881 -0.4419E-31 -0.4418E-31 -0.3233E-32 -0.3232E-32
     -9.808 -0.1453E-28 -0.1452E-28 -0.1066E-29 -0.1066E-29
     -9.735 -0.3654E-26 -0.3653E-26 -0.2684E-27 -0.2683E-27
     -9.662 -0.7013E-24 -0.7012E-24 -0.5157E-25 -0.5157E-25
     -9.588 -0.1027E-21 -0.1027E-21 -0.7564E-23 -0.7563E-23
     -9.515 -0.1147E-19 -0.1146E-19 -0.8463E-21 -0.8463E-21
     -9.442 -0.9756E-18 -0.9756E-18 -0.7222E-19 -0.7222E-19
     -9.369 -0.6123E-16 -0.6123E-16 -0.4552E-17 -0.4552E-17
     -9.296 -0.3007E-14 -0.3007E-14 -0.2246E-15 -0.2246E-15
     -9.223 -0.1121E-12 -0.1121E-12 -0.8428E-14 -0.8428E-14
     -9.149 -0.3170E-11 -0.3170E-11 -0.2403E-12 -0.2403E-12
     -9.076 -0.6779E-10 -0.6779E-10 -0.5200E-11 -0.5200E-11
     -9.003 -0.1093E-08 -0.1093E-08 -0.8517E-10 -0.8517E-10
     -8.930 -0.1323E-07 -0.1323E-07 -0.1053E-08 -0.1053E-08
     -8.857 -0.1195E-06 -0.1195E-06 -0.9792E-08 -0.9792E-08
     -8.784 -0.7955E-06 -0.7955E-06 -0.6799E-07 -0.6799E-07
     -8.711 -0.3836E-05 -0.3836E-05 -0.3486E-06 -0.3486E-06
     -8.637 -0.1290E-04 -0.1290E-04 -0.1292E-05 -0.1292E-05
     -8.564 -0.2748E-04 -0.2748E-04 -0.3303E-05 -0.3303E-05
     -8.491 -0.2361E-04 -0.2361E-04 -0.5030E-05 -0.5030E-05
     -8.418  0.5475E-04  0.5475E-04 -0.1025E-05 -0.1025E-05
     -8.345  0.2340E-03  0.2340E-03  0.1609E-04  0.1609E-04
     -8.272  0.4145E-03  0.4145E-03  0.4642E-04  0.4642E-04
     -8.198  0.4515E-03  0.4515E-03  0.7945E-04  0.7945E-04
     -8.125  0.4446E-03  0.4446E-03  0.1120E-03  0.1120E-03
     -8.052  0.7642E-03  0.7641E-03  0.1679E-03  0.1679E-03
     -7.979  0.1506E-02  0.1506E-02  0.2781E-03  0.2781E-03
     -7.906  0.2107E-02  0.2107E-02  0.4322E-03  0.4322E-03
     -7.833  0.1999E-02  0.1999E-02  0.5785E-03  0.5785E-03
     -7.759  0.1516E-02  0.1516E-02  0.6894E-03  0.6894E-03
     -7.686  0.1479E-02  0.1479E-02  0.7976E-03  0.7976E-03
     -7.613  0.1949E-02  0.1949E-02  0.9402E-03  0.9402E-03
     -7.540  0.2139E-02  0.2139E-02  0.1097E-02  0.1097E-02
     -7.467  0.1631E-02  0.1631E-02  0.1216E-02  0.1216E-02
     -7.394  0.8768E-03  0.8768E-03  0.1280E-02  0.1280E-02
     -7.320  0.3882E-03  0.3882E-03  0.1309E-02  0.1309E-02
     -7.247  0.2110E-03  0.2110E-03  0.1324E-02  0.1324E-02
     -7.174  0.4416E-03  0.4416E-03  0.1356E-02  0.1356E-02
     -7.101  0.1462E-02  0.1462E-02  0.1463E-02  0.1463E-02
     -7.028  0.3083E-02  0.3083E-02  0.1689E-02  0.1689E-02
     -6.955  0.4149E-02  0.4149E-02  0.1992E-02  0.1992E-02
     -6.882  0.4033E-02  0.4033E-02  0.2287E-02  0.2287E-02
     -6.808  0.3917E-02  0.3917E-02  0.2574E-02  0.2574E-02
     -6.735  0.5091E-02  0.5091E-02  0.2946E-02  0.2946E-02
     -6.662  0.6537E-02  0.6537E-02  0.3425E-02  0.3425E-02
     -6.589  0.6112E-02  0.6112E-02  0.3872E-02  0.3872E-02
     -6.516  0.3653E-02  0.3653E-02  0.4139E-02  0.4139E-02
     -6.443  0.1045E-02  0.1045E-02  0.4216E-02  0.4216E-02
     -6.369 -0.2980E-03 -0.2980E-03  0.4194E-02  0.4194E-02
     -6.296 -0.4190E-03 -0.4190E-03  0.4163E-02  0.4163E-02
     -6.223  0.1700E-03  0.1700E-03  0.4176E-02  0.4176E-02
     -6.150  0.1100E-02  0.1100E-02  0.4256E-02  0.4256E-02
     -6.077  0.2037E-02  0.2037E-02  0.4405E-02  0.4405E-02
     -6.004  0.2989E-02  0.2989E-02  0.4624E-02  0.4624E-02
     -5.930  0.4488E-02  0.4488E-02  0.4952E-02  0.4952E-02
     -5.857  0.6511E-02  0.6511E-02  0.5428E-02  0.5428E-02
     -5.784  0.7788E-02  0.7788E-02  0.5998E-02  0.5998E-02
     -5.711  0.7304E-02  0.7304E-02  0.6532E-02  0.6532E-02
     -5.638  0.5726E-02  0.5726E-02  0.6951E-02  0.6951E-02
     -5.565  0.4461E-02  0.4461E-02  0.7278E-02  0.7278E-02
     -5.491  0.4261E-02  0.4261E-02  0.7589E-02  0.7589E-02
     -5.418  0.5080E-02  0.5080E-02  0.7961E-02  0.7961E-02
     -5.345  0.6218E-02  0.6218E-02  0.8416E-02  0.8416E-02
     -5.272  0.6584E-02  0.6584E-02  0.8898E-02  0.8898E-02
     -5.199  0.5630E-02  0.5630E-02  0.9310E-02  0.9310E-02
     -5.126  0.3827E-02  0.3827E-02  0.9590E-02  0.9590E-02
     -5.053  0.2083E-02  0.2083E-02  0.9742E-02  0.9742E-02
     -4.979  0.1295E-02  0.1295E-02  0.9837E-02  0.9837E-02
     -4.906  0.2332E-02  0.2332E-02  0.1001E-01  0.1001E-01
     -4.833  0.5691E-02  0.5691E-02  0.1042E-01  0.1042E-01
     -4.760  0.1060E-01  0.1060E-01  0.1120E-01  0.1120E-01
     -4.687  0.1444E-01  0.1444E-01  0.1226E-01  0.1226E-01
     -4.614  0.1426E-01  0.1426E-01  0.1330E-01  0.1330E-01
     -4.540  0.1029E-01  0.1029E-01  0.1405E-01  0.1405E-01
     -4.467  0.6694E-02  0.6694E-02  0.1454E-01  0.1454E-01
     -4.394  0.6994E-02  0.6994E-02  0.1505E-01  0.1505E-01
     -4.321  0.1007E-01  0.1007E-01  0.1579E-01  0.1579E-01
     -4.248  0.1239E-01  0.1239E-01  0.1670E-01  0.1670E-01
     -4.175  0.1280E-01  0.1280E-01  0.1763E-01  0.1763E-01
     -4.101  0.1287E-01  0.1287E-01  0.1857E-01  0.1857E-01
     -4.028  0.1421E-01  0.1421E-01  0.1961E-01  0.1961E-01
     -3.955  0.1757E-01  0.1757E-01  0.2090E-01  0.2090E-01
     -3.882  0.2341E-01  0.2341E-01  0.2261E-01  0.2261E-01
     -3.809  0.3122E-01  0.3122E-01  0.2490E-01  0.2490E-01
     -3.736  0.3774E-01  0.3774E-01  0.2766E-01  0.2766E-01
     -3.662  0.3836E-01  0.3836E-01  0.3046E-01  0.3046E-01
     -3.589  0.3314E-01  0.3314E-01  0.3289E-01  0.3289E-01
     -3.516  0.2928E-01  0.2928E-01  0.3503E-01  0.3503E-01
     -3.443  0.3338E-01  0.3338E-01  0.3747E-01  0.3747E-01
     -3.370  0.4394E-01  0.4394E-01  0.4069E-01  0.4069E-01
     -3.297  0.5573E-01  0.5573E-01  0.4476E-01  0.4476E-01
     -3.224  0.6637E-01  0.6637E-01  0.4962E-01  0.4962E-01
     -3.150  0.7384E-01  0.7384E-01  0.5502E-01  0.5502E-01
     -3.077  0.7339E-01  0.7339E-01  0.6039E-01  0.6039E-01
     -3.004  0.6315E-01  0.6315E-01  0.6501E-01  0.6501E-01
     -2.931  0.4976E-01  0.4976E-01  0.6865E-01  0.6865E-01
     -2.858  0.4363E-01  0.4363E-01  0.7184E-01  0.7184E-01
     -2.785  0.4880E-01  0.4880E-01  0.7541E-01  0.7541E-01
     -2.711  0.5924E-01  0.5924E-01  0.7975E-01  0.7975E-01
     -2.638  0.6600E-01  0.6600E-01  0.8458E-01  0.8458E-01
     -2.565  0.6719E-01  0.6719E-01  0.8949E-01  0.8949E-01
     -2.492  0.6784E-01  0.6784E-01  0.9446E-01  0.9446E-01
     -2.419  0.7123E-01  0.7123E-01  0.9967E-01  0.9967E-01
     -2.346  0.7613E-01  0.7613E-01  0.1052E+00  0.1052E+00
     -2.272  0.8201E-01  0.8201E-01  0.1112E+00  0.1112E+00
     -2.199  0.9029E-01  0.9029E-01  0.1178E+00  0.1178E+00
     -2.126  0.9977E-01  0.9977E-01  0.1251E+00  0.1251E+00
     -2.053  0.1062E+00  0.1062E+00  0.1329E+00  0.1329E+00
     -1.980  0.1074E+00  0.1074E+00  0.1408E+00  0.1408E+00
     -1.907  0.1040E+00  0.1040E+00  0.1484E+00  0.1484E+00
     -1.833  0.9760E-01  0.9760E-01  0.1555E+00  0.1555E+00
     -1.760  0.8997E-01  0.8997E-01  0.1621E+00  0.1621E+00
     -1.687  0.8426E-01  0.8426E-01  0.1683E+00  0.1683E+00
     -1.614  0.8384E-01  0.8384E-01  0.1744E+00  0.1744E+00
     -1.541  0.9131E-01  0.9131E-01  0.1811E+00  0.1811E+00
     -1.468  0.1053E+00  0.1053E+00  0.1888E+00  0.1888E+00
     -1.395  0.1180E+00  0.1180E+00  0.1974E+00  0.1974E+00
     -1.321  0.1207E+00  0.1207E+00  0.2063E+00  0.2063E+00
     -1.248  0.1139E+00  0.1139E+00  0.2146E+00  0.2146E+00
     -1.175  0.1071E+00  0.1071E+00  0.2224E+00  0.2224E+00
     -1.102  0.1076E+00  0.1076E+00  0.2303E+00  0.2303E+00
     -1.029  0.1141E+00  0.1141E+00  0.2386E+00  0.2386E+00
     -0.956  0.1218E+00  0.1218E+00  0.2475E+00  0.2475E+00
     -0.882  0.1305E+00  0.1305E+00  0.2571E+00  0.2571E+00
     -0.809  0.1419E+00  0.1419E+00  0.2675E+00  0.2675E+00
     -0.736  0.1527E+00  0.1527E+00  0.2786E+00  0.2786E+00
     -0.663  0.1547E+00  0.1547E+00  0.2900E+00  0.2900E+00
     -0.590  0.1399E+00  0.1399E+00  0.3002E+00  0.3002E+00
     -0.517  0.1072E+00  0.1072E+00  0.3080E+00  0.3080E+00
     -0.443  0.6649E-01  0.6649E-01  0.3129E+00  0.3129E+00
     -0.370  0.3270E-01  0.3270E-01  0.3153E+00  0.3153E+00
     -0.297  0.1413E-01  0.1413E-01  0.3163E+00  0.3163E+00
     -0.224  0.8044E-02  0.8044E-02  0.3169E+00  0.3169E+00
     -0.151  0.8122E-02  0.8122E-02  0.3175E+00  0.3175E+00
     -0.078  0.1188E-01  0.1188E-01  0.3184E+00  0.3184E+00
     -0.004  0.1809E-01  0.1809E-01  0.3197E+00  0.3197E+00
      0.069  0.2219E-01  0.2219E-01  0.3213E+00  0.3213E+00
      0.142  0.2025E-01  0.2025E-01  0.3228E+00  0.3228E+00
      0.215  0.1438E-01  0.1438E-01  0.3239E+00  0.3239E+00
      0.288  0.9429E-02  0.9429E-02  0.3246E+00  0.3246E+00
      0.361  0.6816E-02  0.6816E-02  0.3251E+00  0.3251E+00
      0.434  0.5381E-02  0.5381E-02  0.3254E+00  0.3254E+00
      0.508  0.5060E-02  0.5060E-02  0.3258E+00  0.3258E+00
      0.581  0.6357E-02  0.6357E-02  0.3263E+00  0.3263E+00
      0.654  0.7966E-02  0.7966E-02  0.3269E+00  0.3269E+00
      0.727  0.7949E-02  0.7949E-02  0.3274E+00  0.3274E+00
      0.800  0.6620E-02  0.6620E-02  0.3279E+00  0.3279E+00
      0.873  0.5872E-02  0.5872E-02  0.3284E+00  0.3284E+00
      0.947  0.6389E-02  0.6389E-02  0.3288E+00  0.3288E+00
      1.020  0.7840E-02  0.7840E-02  0.3294E+00  0.3294E+00
      1.093  0.1034E-01  0.1034E-01  0.3302E+00  0.3302E+00
      1.166  0.1332E-01  0.1332E-01  0.3311E+00  0.3311E+00
      1.239  0.1486E-01  0.1486E-01  0.3322E+00  0.3322E+00
      1.312  0.1406E-01  0.1406E-01  0.3332E+00  0.3332E+00
      1.386  0.1220E-01  0.1220E-01  0.3341E+00  0.3341E+00
      1.459  0.1078E-01  0.1078E-01  0.3349E+00  0.3349E+00
      1.532  0.9880E-02  0.9880E-02  0.3357E+00  0.3357E+00
      1.605  0.8892E-02  0.8892E-02  0.3363E+00  0.3363E+00
      1.678  0.7765E-02  0.7765E-02  0.3369E+00  0.3369E+00
      1.751  0.7288E-02  0.7288E-02  0.3374E+00  0.3374E+00
      1.825  0.8074E-02  0.8074E-02  0.3380E+00  0.3380E+00
      1.898  0.9446E-02  0.9446E-02  0.3387E+00  0.3387E+00
      1.971  0.9868E-02  0.9868E-02  0.3394E+00  0.3394E+00
      2.044  0.8871E-02  0.8871E-02  0.3401E+00  0.3401E+00
      2.117  0.8021E-02  0.8021E-02  0.3406E+00  0.3406E+00
      2.190  0.9069E-02  0.9069E-02  0.3413E+00  0.3413E+00
      2.263  0.1120E-01  0.1120E-01  0.3421E+00  0.3421E+00
      2.337  0.1160E-01  0.1160E-01  0.3430E+00  0.3430E+00
      2.410  0.9119E-02  0.9119E-02  0.3436E+00  0.3436E+00
      2.483  0.5379E-02  0.5379E-02  0.3440E+00  0.3440E+00
      2.556  0.2245E-02  0.2245E-02  0.3442E+00  0.3442E+00
      2.629  0.4760E-03  0.4760E-03  0.3442E+00  0.3442E+00
      2.702  0.7684E-03  0.7685E-03  0.3443E+00  0.3443E+00
      2.776  0.3973E-02  0.3973E-02  0.3446E+00  0.3446E+00
      2.849  0.9669E-02  0.9669E-02  0.3453E+00  0.3453E+00
      2.922  0.1535E-01  0.1535E-01  0.3464E+00  0.3464E+00
      2.995  0.1800E-01  0.1800E-01  0.3477E+00  0.3477E+00
      3.068  0.1674E-01  0.1674E-01  0.3490E+00  0.3490E+00
      3.141  0.1326E-01  0.1326E-01  0.3499E+00  0.3499E+00
      3.215  0.9753E-02  0.9753E-02  0.3506E+00  0.3506E+00
      3.288  0.7364E-02  0.7364E-02  0.3512E+00  0.3512E+00
      3.361  0.6227E-02  0.6227E-02  0.3516E+00  0.3516E+00
      3.434  0.5825E-02  0.5825E-02  0.3521E+00  0.3521E+00
      3.507  0.5439E-02  0.5439E-02  0.3525E+00  0.3525E+00
      3.580  0.4902E-02  0.4902E-02  0.3528E+00  0.3528E+00
      3.654  0.4736E-02  0.4736E-02  0.3532E+00  0.3532E+00
      3.727  0.5502E-02  0.5502E-02  0.3536E+00  0.3536E+00
      3.800  0.7013E-02  0.7013E-02  0.3541E+00  0.3541E+00
      3.873  0.7988E-02  0.7988E-02  0.3547E+00  0.3547E+00
      3.946  0.7098E-02  0.7098E-02  0.3552E+00  0.3552E+00
      4.019  0.4872E-02  0.4872E-02  0.3555E+00  0.3555E+00
      4.092  0.3653E-02  0.3653E-02  0.3558E+00  0.3558E+00
      4.166  0.4753E-02  0.4753E-02  0.3561E+00  0.3561E+00
      4.239  0.6582E-02  0.6582E-02  0.3566E+00  0.3566E+00
      4.312  0.7055E-02  0.7055E-02  0.3571E+00  0.3571E+00
      4.385  0.7056E-02  0.7056E-02  0.3577E+00  0.3577E+00
      4.458  0.9226E-02  0.9226E-02  0.3583E+00  0.3583E+00
      4.531  0.1357E-01  0.1357E-01  0.3593E+00  0.3593E+00
      4.605  0.1676E-01  0.1676E-01  0.3606E+00  0.3606E+00
      4.678  0.1642E-01  0.1642E-01  0.3618E+00  0.3618E+00
      4.751  0.1406E-01  0.1406E-01  0.3628E+00  0.3628E+00
      4.824  0.1248E-01  0.1248E-01  0.3637E+00  0.3637E+00
      4.897  0.1179E-01  0.1179E-01  0.3646E+00  0.3646E+00
      4.970  0.9971E-02  0.9971E-02  0.3653E+00  0.3653E+00
      5.044  0.6680E-02  0.6680E-02  0.3658E+00  0.3658E+00
      5.117  0.4282E-02  0.4282E-02  0.3661E+00  0.3661E+00
      5.190  0.4972E-02  0.4972E-02  0.3665E+00  0.3665E+00
      5.263  0.8254E-02  0.8254E-02  0.3671E+00  0.3671E+00
      5.336  0.1146E-01  0.1146E-01  0.3679E+00  0.3679E+00
      5.409  0.1247E-01  0.1247E-01  0.3688E+00  0.3688E+00
      5.483  0.1163E-01  0.1163E-01  0.3697E+00  0.3697E+00
      5.556  0.1054E-01  0.1054E-01  0.3704E+00  0.3704E+00
      5.629  0.9650E-02  0.9650E-02  0.3711E+00  0.3711E+00
      5.702  0.8710E-02  0.8710E-02  0.3718E+00  0.3718E+00
      5.775  0.8187E-02  0.8186E-02  0.3724E+00  0.3724E+00
      5.848  0.8549E-02  0.8549E-02  0.3730E+00  0.3730E+00
      5.921  0.9488E-02  0.9488E-02  0.3737E+00  0.3737E+00
      5.995  0.1043E-01  0.1043E-01  0.3745E+00  0.3745E+00
      6.068  0.1071E-01  0.1071E-01  0.3752E+00  0.3752E+00
      6.141  0.1027E-01  0.1027E-01  0.3760E+00  0.3760E+00
      6.214  0.1073E-01  0.1073E-01  0.3768E+00  0.3768E+00
      6.287  0.1341E-01  0.1341E-01  0.3778E+00  0.3778E+00
      6.360  0.1647E-01  0.1647E-01  0.3790E+00  0.3790E+00
      6.434  0.1691E-01  0.1691E-01  0.3802E+00  0.3802E+00
      6.507  0.1437E-01  0.1437E-01  0.3813E+00  0.3813E+00
      6.580  0.1078E-01  0.1078E-01  0.3820E+00  0.3820E+00
      6.653  0.8142E-02  0.8142E-02  0.3826E+00  0.3826E+00
      6.726  0.8467E-02  0.8467E-02  0.3833E+00  0.3833E+00
      6.799  0.1270E-01  0.1270E-01  0.3842E+00  0.3842E+00
      6.873  0.1790E-01  0.1790E-01  0.3855E+00  0.3855E+00
      6.946  0.1876E-01  0.1876E-01  0.3869E+00  0.3869E+00
      7.019  0.1427E-01  0.1427E-01  0.3879E+00  0.3879E+00
      7.092  0.9845E-02  0.9845E-02  0.3886E+00  0.3886E+00
      7.165  0.1074E-01  0.1074E-01  0.3894E+00  0.3894E+00
      7.238  0.1571E-01  0.1571E-01  0.3906E+00  0.3906E+00
      7.312  0.1888E-01  0.1888E-01  0.3919E+00  0.3919E+00
      7.385  0.1647E-01  0.1647E-01  0.3932E+00  0.3932E+00
      7.458  0.1027E-01  0.1027E-01  0.3939E+00  0.3939E+00
      7.531  0.4532E-02  0.4532E-02  0.3942E+00  0.3942E+00
      7.604  0.1308E-02  0.1308E-02  0.3943E+00  0.3943E+00
      7.677  0.2447E-03  0.2444E-03  0.3943E+00  0.3943E+00
      7.750  0.1366E-02  0.1365E-02  0.3944E+00  0.3944E+00
      7.824  0.5750E-02  0.5749E-02  0.3949E+00  0.3949E+00
      7.897  0.1340E-01  0.1340E-01  0.3958E+00  0.3958E+00
      7.970  0.2146E-01  0.2146E-01  0.3974E+00  0.3974E+00
      8.043  0.2588E-01  0.2588E-01  0.3993E+00  0.3993E+00
      8.116  0.2562E-01  0.2562E-01  0.4012E+00  0.4012E+00
      8.189  0.2327E-01  0.2327E-01  0.4029E+00  0.4029E+00
      8.263  0.2097E-01  0.2097E-01  0.4044E+00  0.4044E+00
      8.336  0.1888E-01  0.1888E-01  0.4058E+00  0.4058E+00
      8.409  0.1777E-01  0.1777E-01  0.4071E+00  0.4071E+00
      8.482  0.1882E-01  0.1882E-01  0.4085E+00  0.4085E+00
      8.555  0.2047E-01  0.2047E-01  0.4100E+00  0.4100E+00
      8.628  0.1933E-01  0.1933E-01  0.4114E+00  0.4114E+00
      8.702  0.1456E-01  0.1456E-01  0.4125E+00  0.4125E+00
      8.775  0.9008E-02  0.9008E-02  0.4131E+00  0.4131E+00
      8.848  0.5820E-02  0.5819E-02  0.4135E+00  0.4135E+00
      8.921  0.5413E-02  0.5412E-02  0.4139E+00  0.4139E+00
      8.994  0.6495E-02  0.6493E-02  0.4144E+00  0.4144E+00
      9.067  0.8784E-02  0.8776E-02  0.4151E+00  0.4151E+00
      9.141  0.1271E-01  0.1268E-01  0.4160E+00  0.4160E+00
      9.214  0.1711E-01  0.1706E-01  0.4172E+00  0.4172E+00
      9.287  0.1987E-01  0.1985E-01  0.4187E+00  0.4187E+00
      9.360  0.2045E-01  0.2064E-01  0.4202E+00  0.4202E+00
      9.433  0.1972E-01  0.2031E-01  0.4216E+00  0.4217E+00
      9.506  0.1777E-01  0.1866E-01  0.4229E+00  0.4230E+00
      9.579  0.1409E-01  0.1472E-01  0.4240E+00  0.4241E+00
      9.653  0.9167E-02  0.9028E-02  0.4246E+00  0.4248E+00
      9.726  0.4536E-02  0.3750E-02  0.4250E+00  0.4251E+00
      9.799  0.1399E-02  0.5716E-03  0.4251E+00  0.4251E+00
      9.872 -0.6407E-04 -0.5130E-03  0.4251E+00  0.4251E+00
      9.945 -0.3995E-03 -0.4993E-03  0.4250E+00  0.4250E+00
     10.018 -0.2822E-03 -0.2451E-03  0.4250E+00  0.4250E+00
     10.092 -0.1228E-03 -0.8139E-04  0.4250E+00  0.4250E+00
     10.165 -0.3787E-04 -0.1956E-04  0.4250E+00  0.4250E+00
     10.238 -0.8645E-05 -0.3489E-05  0.4250E+00  0.4250E+00
     10.311 -0.1486E-05 -0.4669E-06  0.4250E+00  0.4250E+00
     10.384 -0.1940E-06 -0.4717E-07  0.4250E+00  0.4250E+00
     10.457 -0.1932E-07 -0.3609E-08  0.4250E+00  0.4250E+00
     10.531 -0.1469E-08 -0.2097E-09  0.4250E+00  0.4250E+00
     10.604 -0.8548E-10 -0.9272E-11  0.4250E+00  0.4250E+00
     10.677 -0.3803E-11 -0.3122E-12  0.4250E+00  0.4250E+00
     10.750 -0.1294E-12 -0.8018E-14  0.4250E+00  0.4250E+00
     10.823 -0.3366E-14 -0.1568E-15  0.4250E+00  0.4250E+00
     10.896 -0.6787E-16 -0.2951E-17  0.4250E+00  0.4250E+00
     10.970 -0.8431E-18  0.0000E+00  0.4250E+00  0.4250E+00
     11.043  0.0000E+00  0.0000E+00  0.4250E+00  0.4250E+00
     11.116  0.0000E+00  0.0000E+00  0.4250E+00  0.4250E+00
     11.189  0.0000E+00  0.0000E+00  0.4250E+00  0.4250E+00
     11.262  0.0000E+00  0.0000E+00  0.4250E+00  0.4250E+00
     11.335  0.0000E+00  0.0000E+00  0.4250E+00  0.4250E+00
     11.408  0.0000E+00  0.0000E+00  0.4250E+00  0.4250E+00
     11.482  0.0000E+00  0.0000E+00  0.4250E+00  0.4250E+00
     11.555  0.0000E+00  0.0000E+00  0.4250E+00  0.4250E+00
     11.628  0.0000E+00  0.0000E+00  0.4250E+00  0.4250E+00
     11.701  0.0000E+00  0.0000E+00  0.4250E+00  0.4250E+00
