 vasp.6.3.2 27Jun22 (build Aug 17 2022 15:43:34) complex                        
  
 executed on           tv2STDVTST date 2025.01.21  12:59:57
 running   20 mpi-ranks, with    1 threads/rank
 distrk:  each k-point on   20 cores,    1 groups
 distr:  one band on NCORE=   5 cores,    4 groups


--------------------------------------------------------------------------------------------------------


 -----------------------------------------------------------------------------
|                                                                             |
|           W    W    AA    RRRRR   N    N  II  N    N   GGGG   !!!           |
|           W    W   A  A   R    R  NN   N  II  NN   N  G    G  !!!           |
|           W    W  A    A  R    R  N N  N  II  N N  N  G       !!!           |
|           W WW W  AAAAAA  RRRRR   N  N N  II  N  N N  G  GGG   !            |
|           WW  WW  A    A  R   R   N   NN  II  N   NN  G    G                |
|           W    W  A    A  R    R  N    N  II  N    N   GGGG   !!!           |
|                                                                             |
|     Found issues when parsing the INCAR file                                |
|     In line 64: Tagname --- R W I G S contains invalid characters.          |
|     Please check if the interpretation in the OUTCAR file is correct.       |
|                                                                             |
 -----------------------------------------------------------------------------

 INCAR:
    = \=\=\=\=\=\=\=\=\=\=\=\=\=\=\=\=\=\=\=\=\=\=\=\=\=\=\=\=\=\=\=\=\=\=\=\=\=\=\=\=\=\=\=\=\=\=\=\=\=\=\=\=\=\=\=\=\=\=\=\=\=\=\=\=\=\=\=\=\=\=\=\=
    = \=\=\=\=\=\=\=\=\=\=\=\=\=\=\=\=\=\=\=\=\=\=\=\=\=\=\=\=\=\=\=\=\=\=\=\=\=\=\=\=\=\=\=\=\=\=\=\=\=\=\=\=\=\=\=\=\=\=\=\=\=\=\=\=\=\=\=\=\=\=\=\=
   ISTART = 0
   ICHARG = 2
   IPIPOL = 3
   IVDW = 11
   IDIPOL = 3
   IVDW = 11
    = \=\=\=\=\=\=\=\=\=\=\=\=\=\=\=\=\=\=\=\=\=\=\=\=\=\=\=\=\=\=\=\=\=\=\=\=\=\=\=\=\=\=\=\=\=\=\=\=\=\=\=\=\=\=\=\=\=\=\=\=\=\=\=\=\=\=\=\=\=\=\=\=
    = \=\=\=\=\=\=\=\=\=\=\=\=\=\=\=\=\=\=\=\=\=\=\=\=\=\=\=\=\=\=\=\=\=\=\=\=\=\=\=\=\=\=\=\=\=\=\=\=\=\=\=\=\=\=\=\=\=\=\=\=\=\=\=\=\=\=\=\=\=\=\=\=
   ISPIN = 2
    = \=\=\=\=\=\=\=\=\=\=\=\=\=\=\=\=\=\=\=\=\=\=\=\=\=\=\=\=\=\=\=\=\=\=\=\=\=\=\=\=\=\=\=\=\=\=\=\=\=\=\=\=\=\=\=\=\=\=\=\=\=\=\=\=\=\=\=\=\=\=\=\=
    = \=\=\=\=\=\=\=\=\=\=\=\=\=\=\=\=\=\=\=\=\=\=\=\=\=\=\=\=\=\=\=\=\=\=\=\=\=\=\=\=\=\=\=\=\=\=\=\=\=\=\=\=\=\=\=\=\=\=\=\=\=\=\=\=\=\=\=\=\=\=\=\=
   ENCUT = 400
   PREC = Normal
   EDIFF = 2E-04
   GGA = PE
   ISMEAR = 1
   SIGMA = 0.2
   LREAL = .FALSE.
    = \=\=\=\=\=\=\=\=\=\=\=\=\=\=\=\=\=\=\=\=\=\=\=\=\=\=\=\=\=\=\=\=\=\=\=\=\=\=\=\=\=\=\=\=\=\=\=\=\=\=\=\=\=\=\=\=\=\=\=\=\=\=\=\=\=\=\=\=\=\=\=\=
    = \=\=\=\=\=\=\=\=\=\=\=\=\=\=\=\=\=\=\=\=\=\=\=\=\=\=\=\=\=\=\=\=\=\=\=\=\=\=\=\=\=\=\=\=\=\=\=\=\=\=\=\=\=\=\=\=\=\=\=\=\=\=\=\=\=\=\=\=\=\=\=\=
   ISYM = 1
   NSW = 800
   IBRION = 2
   POTIM = 0.5
   ISIF = 2
   EDIFFG = -.03
    = \=\=\=\=\=\=\=\=\=\=\=\=\=\=\=\=\=\=\=\=\=\=\=\=\=\=\=\=\=\=\=\=\=\=\=\=\=\=\=\=\=\=\=\=\=\=\=\=\=\=\=\=\=\=\=\=\=\=\=\=\=\=\=\=\=\=\=\=\=\=\=\=
    = \=\=\=\=\=\=\=\=\=\=\=\=\=\=\=\=\=\=\=\=\=\=\=\=\=\=\=\=\=\=\=\=\=\=\=\=\=\=\=\=\=\=\=\=\=\=\=\=\=\=\=\=\=\=\=\=\=\=\=\=\=\=\=\=\=\=\=\=\=\=\=\=
   NPAR = 4
   LWAVE = .FALSE.
   LCHARG = .FALSE.

 POTCAR:    PAW_PBE Cu 22Jun2005                  
 -----------------------------------------------------------------------------
|                                                                             |
|           W    W    AA    RRRRR   N    N  II  N    N   GGGG   !!!           |
|           W    W   A  A   R    R  NN   N  II  NN   N  G    G  !!!           |
|           W    W  A    A  R    R  N N  N  II  N N  N  G       !!!           |
|           W WW W  AAAAAA  RRRRR   N  N N  II  N  N N  G  GGG   !            |
|           WW  WW  A    A  R   R   N   NN  II  N   NN  G    G                |
|           W    W  A    A  R    R  N    N  II  N    N   GGGG   !!!           |
|                                                                             |
|     You use a magnetic or noncollinear calculation, but did not specify     |
|     the initial magnetic moment with the MAGMOM tag. Note that a            |
|     default of 1 will be used for all atoms. This ferromagnetic setup       |
|     may break the symmetry of the crystal, in particular it may rule        |
|     out finding an antiferromagnetic solution. Thence, we recommend         |
|     setting the initial magnetic moment manually or verifying carefully     |
|     that this magnetic setup is desired.                                    |
|                                                                             |
 -----------------------------------------------------------------------------

 POTCAR:    PAW_PBE Cu 22Jun2005                  
   SHA256 =  0e71e558f37a4e8407882b4609ceaae59938afaad9ced71dfe8490308a0ab630 Cu/POTCAR             
   COPYR  = (c) Copyright 22Jun2005 Georg Kresse                                                    
   COPYR  = This file is part of the software VASP. Any use, copying, and all other rights are regul
   COPYR  = If you do not have a valid VASP license, you may not use, copy or distribute this file. 
   VRHFIN =Cu: d10 p1                                                                               
   LEXCH  = PE                                                                                      
   EATOM  =  1390.9808 eV,  102.2342 Ry                                                             
                                                                                                    
   TITEL  = PAW_PBE Cu 22Jun2005                                                                    
   LULTRA =        F    use ultrasoft PP ?                                                          
   IUNSCR =        1    unscreen: 0-lin 1-nonlin 2-no                                               
   RPACOR =    2.000    partial core radius                                                         
   POMASS =   63.546; ZVAL   =   11.000    mass and valenz                                          
   RCORE  =    2.300    outmost cutoff radius                                                       
   RWIGS  =    2.200; RWIGS  =    1.164    wigner-seitz radius (au A)                               
   ENMAX  =  295.446; ENMIN  =  221.585 eV                                                          
   ICORE  =        3    local potential                                                             
   LCOR   =        T    correct aug charges                                                         
   LPAW   =        T    paw PP                                                                      
   EAUG   =  586.980                                                                                
   DEXC   =    0.000                                                                                
   RMAX   =    2.344    core radius for proj-oper                                                   
   RAUG   =    1.300    factor for augmentation sphere                                              
   RDEP   =    2.302    radius for radial grids                                                     
   RDEPT  =    1.771    core radius for aug-charge                                                  
                                                                                                    
   Atomic configuration                                                                             
    9 entries                                                                                       
     n  l   j            E        occ.                                                              
     1  0  0.50     -8850.2468   2.0000                                                             
     2  0  0.50     -1062.3498   2.0000                                                             
     2  1  1.50      -916.8226   6.0000                                                             
     3  0  0.50      -114.6929   2.0000                                                             
     3  1  1.50       -72.1325   6.0000                                                             
     3  2  2.50        -5.0394  10.0000                                                             
     4  0  0.50        -4.6097   1.0000                                                             
     4  1  0.50        -4.0817   0.0000                                                             
     4  3  2.50        -1.3606   0.0000                                                             
   Description                                                                                      
     l       E           TYP  RCUT    TYP  RCUT                                                     
     2     -5.0393973     23  2.200                                                                 
     2     10.8846608     23  2.200                                                                 
     0     -4.6097109     23  2.200                                                                 
     0      8.2520465     23  2.200                                                                 
     1     -2.7211652     23  2.200                                                                 
     1     21.7055443     23  2.200                                                                 
     3      2.7211652     23  2.300                                                                 
  local pseudopotential read in
  partial core-charges read in
  partial kinetic energy density read in
  atomic valenz-charges read in
  non local Contribution for L=           2  read in
    real space projection operators read in
  non local Contribution for L=           2  read in
    real space projection operators read in
  non local Contribution for L=           0  read in
    real space projection operators read in
  non local Contribution for L=           0  read in
    real space projection operators read in
  non local Contribution for L=           1  read in
    real space projection operators read in
  non local Contribution for L=           1  read in
    real space projection operators read in
    PAW grid and wavefunctions read in
 
   number of l-projection  operators is LMAX  =           6
   number of lm-projection operators is LMMAX =          18
 
 -----------------------------------------------------------------------------
|                                                                             |
|               ----> ADVICE to this user running VASP <----                  |
|                                                                             |
|     You have a (more or less) 'large supercell' and for larger cells it     |
|     might be more efficient to use real-space projection operators.         |
|     Therefore, try LREAL= Auto in the INCAR file.                           |
|     Mind: For very accurate calculation, you might also keep the            |
|     reciprocal projection scheme (i.e. LREAL=.FALSE.).                      |
|                                                                             |
 -----------------------------------------------------------------------------

  PAW_PBE Cu 22Jun2005                  :
 energy of atom  1       EATOM=-1390.9808
 kinetic energy error for atom=    0.0232 (will be added to EATOM!!)
 
 
 POSCAR: FCC Cu
  positions in cartesian coordinates
  velocities in cartesian coordinates
  No initial velocities read in
 exchange correlation table for  LEXCH =        8
   RHO(1)=    0.500       N(1)  =     2000
   RHO(2)=  100.500       N(2)  =     4000

 VTST: version 4.2, (08/11/21)

 CHAIN: initializing optimizer
 
 OPT: Using VASP Conjugate-Gradient optimizer
 CHAIN: Read ICHAIN            0
 
 POSCAR: FCC Cu
  positions in cartesian coordinates
  velocities in cartesian coordinates
  No initial velocities read in
 


--------------------------------------------------------------------------------------------------------


 ion  position               nearest neighbor table
   1  0.000  0.000  0.000-   9 2.57  13 2.57  10 2.57  15 2.57   5 2.57   6 2.57   7 2.57   8 2.57

   2  0.000  0.500  0.000-  10 2.57  14 2.57   9 2.57  16 2.57   6 2.57   5 2.57   8 2.57   7 2.57

   3  0.500  0.000  0.000-  11 2.57  15 2.57  13 2.57  12 2.57   7 2.57   5 2.57   8 2.57   6 2.57

   4  0.500  0.500  0.000-  12 2.57  16 2.57  14 2.57  11 2.57   8 2.57   7 2.57   6 2.57   5 2.57

   5  0.250  0.250  0.000-   9 2.57  13 2.57  11 2.57  14 2.57   1 2.57   2 2.57   3 2.57   4 2.57

   6  0.250  0.750  0.000-  10 2.57  14 2.57  12 2.57  13 2.57   2 2.57   4 2.57   1 2.57   3 2.57

   7  0.750  0.250  0.000-  11 2.57  15 2.57  16 2.57   9 2.57   3 2.57   4 2.57   1 2.57   2 2.57

   8  0.750  0.750  0.000-  12 2.57  16 2.57  15 2.57  10 2.57   4 2.57   3 2.57   2 2.57   1 2.57

   9  0.000  0.250  0.075-  17 2.57  21 2.57  18 2.57  23 2.57   1 2.57   5 2.57   2 2.57   7 2.57
                            13 2.57  14 2.57  15 2.57  16 2.57
  10  0.000  0.750  0.075-  18 2.57  22 2.57  17 2.57  24 2.57   2 2.57   6 2.57   1 2.57   8 2.57
                            14 2.57  13 2.57  16 2.57  15 2.57
  11  0.500  0.250  0.075-  19 2.57  23 2.57  21 2.57  20 2.57   3 2.57   7 2.57   5 2.57   4 2.57
                            15 2.57  13 2.57  16 2.57  14 2.57
  12  0.500  0.750  0.075-  20 2.57  24 2.57  22 2.57  19 2.57   4 2.57   8 2.57   6 2.57   3 2.57
                            16 2.57  14 2.57  15 2.57  13 2.57
  13  0.250  0.000  0.075-  17 2.57  21 2.57  19 2.57  22 2.57   1 2.57   5 2.57   3 2.57   6 2.57
                             9 2.57  11 2.57  10 2.57  12 2.57
  14  0.250  0.500  0.075-  18 2.57  22 2.57  21 2.57  20 2.57   2 2.57   6 2.57   5 2.57   4 2.57
                            10 2.57   9 2.57  12 2.57  11 2.57
  15  0.750  0.000  0.075-  19 2.57  23 2.57  17 2.57  24 2.57   3 2.57   7 2.57   1 2.57   8 2.57
                            11 2.57   9 2.57  12 2.57  10 2.57
  16  0.750  0.500  0.075-  20 2.57  24 2.57  23 2.57  18 2.57   4 2.57   8 2.57   7 2.57   2 2.57
                            12 2.57  11 2.57  10 2.57   9 2.57
  17  0.000  0.000  0.151-   9 2.57  13 2.57  10 2.57  15 2.57  25 2.57  29 2.57  26 2.57  31 2.57
                            21 2.57  22 2.57  23 2.57  24 2.57
  18  0.000  0.500  0.151-  10 2.57  14 2.57   9 2.57  16 2.57  26 2.57  30 2.57  25 2.57  32 2.57
                            22 2.57  21 2.57  24 2.57  23 2.57
  19  0.500  0.000  0.151-  11 2.57  15 2.57  13 2.57  12 2.57  27 2.57  31 2.57  29 2.57  28 2.57
                            23 2.57  21 2.57  24 2.57  22 2.57
  20  0.500  0.500  0.151-  12 2.57  16 2.57  14 2.57  11 2.57  28 2.57  32 2.57  30 2.57  27 2.57
                            24 2.57  23 2.57  22 2.57  21 2.57
  21  0.250  0.250  0.151-   9 2.57  13 2.57  11 2.57  14 2.57  25 2.57  29 2.57  27 2.57  30 2.57
                            17 2.57  18 2.57  19 2.57  20 2.57
  22  0.250  0.750  0.151-  10 2.57  14 2.57  12 2.57  13 2.57  26 2.57  30 2.57  28 2.57  29 2.57
                            18 2.57  20 2.57  17 2.57  19 2.57
  23  0.750  0.250  0.151-  11 2.57  15 2.57  16 2.57   9 2.57  27 2.57  31 2.57  32 2.57  25 2.57
                            19 2.57  20 2.57  17 2.57  18 2.57
  24  0.750  0.750  0.151-  12 2.57  16 2.57  15 2.57  10 2.57  28 2.57  32 2.57  31 2.57  26 2.57
                            20 2.57  19 2.57  18 2.57  17 2.57
  25  0.000  0.250  0.226-  33 2.57  37 2.57  34 2.57  39 2.57  17 2.57  21 2.57  18 2.57  23 2.57
                            29 2.57  30 2.57  31 2.57  32 2.57
  26  0.000  0.750  0.226-  34 2.57  38 2.57  33 2.57  40 2.57  18 2.57  22 2.57  17 2.57  24 2.57
                            30 2.57  29 2.57  32 2.57  31 2.57
  27  0.500  0.250  0.226-  35 2.57  39 2.57  37 2.57  36 2.57  19 2.57  23 2.57  21 2.57  20 2.57
                            31 2.57  29 2.57  32 2.57  30 2.57
  28  0.500  0.750  0.226-  36 2.57  40 2.57  38 2.57  35 2.57  20 2.57  24 2.57  22 2.57  19 2.57
                            32 2.57  30 2.57  31 2.57  29 2.57
  29  0.250  0.000  0.226-  33 2.57  37 2.57  35 2.57  38 2.57  17 2.57  21 2.57  19 2.57  22 2.57
                            25 2.57  27 2.57  26 2.57  28 2.57
  30  0.250  0.500  0.226-  34 2.57  38 2.57  37 2.57  36 2.57  18 2.57  22 2.57  21 2.57  20 2.57
                            26 2.57  25 2.57  28 2.57  27 2.57
  31  0.750  0.000  0.226-  35 2.57  39 2.57  33 2.57  40 2.57  19 2.57  23 2.57  17 2.57  24 2.57
                            27 2.57  25 2.57  28 2.57  26 2.57
  32  0.750  0.500  0.226-  36 2.57  40 2.57  39 2.57  34 2.57  20 2.57  24 2.57  23 2.57  18 2.57
                            28 2.57  27 2.57  26 2.57  25 2.57
  33  0.000  0.000  0.302-  25 2.57  29 2.57  41 2.57  45 2.57  26 2.57  31 2.57  42 2.57  47 2.57
                            37 2.57  38 2.57  39 2.57  40 2.57
  34  0.000  0.500  0.302-  26 2.57  30 2.57  25 2.57  42 2.57  46 2.57  41 2.57  32 2.57  48 2.57
                            38 2.57  37 2.57  40 2.57  39 2.57
  35  0.500  0.000  0.302-  27 2.57  31 2.57  29 2.57  43 2.57  47 2.57  45 2.57  28 2.57  44 2.57
                            39 2.57  37 2.57  40 2.57  38 2.57
  36  0.500  0.500  0.302-  28 2.57  32 2.57  30 2.57  27 2.57  44 2.57  48 2.57  46 2.57  43 2.57
                            40 2.57  39 2.57  38 2.57  37 2.57
  37  0.250  0.250  0.302-  25 2.57  29 2.57  27 2.57  30 2.57  41 2.57  45 2.57  43 2.57  46 2.57
                            33 2.57  34 2.57  35 2.57  36 2.57
  38  0.250  0.750  0.302-  26 2.57  30 2.57  28 2.57  42 2.57  46 2.57  44 2.57  29 2.57  45 2.57
                            34 2.57  36 2.57  33 2.57  35 2.57
  39  0.750  0.250  0.302-  27 2.57  31 2.57  32 2.57  43 2.57  47 2.57  48 2.57  25 2.57  41 2.57
                            35 2.57  36 2.57  33 2.57  34 2.57
  40  0.750  0.750  0.302-  28 2.57  32 2.57  44 2.57  48 2.57  31 2.57  26 2.57  47 2.57  42 2.57
                            36 2.57  35 2.57  34 2.57  33 2.57
  41  0.000  0.250  0.377-  33 2.57  37 2.57  34 2.57  39 2.57  45 2.57  46 2.57  47 2.57  48 2.57

  42  0.000  0.750  0.377-  34 2.57  38 2.57  33 2.57  40 2.57  46 2.57  45 2.57  48 2.57  47 2.57

  43  0.500  0.250  0.377-  35 2.57  39 2.57  37 2.57  36 2.57  47 2.57  45 2.57  48 2.57  46 2.57

  44  0.500  0.750  0.377-  36 2.57  40 2.57  38 2.57  35 2.57  48 2.57  46 2.57  47 2.57  45 2.57

  45  0.250  0.000  0.377-  33 2.57  37 2.57  35 2.57  38 2.57  41 2.57  43 2.57  42 2.57  44 2.57

  46  0.250  0.500  0.377-  34 2.57  38 2.57  37 2.57  36 2.57  42 2.57  41 2.57  44 2.57  43 2.57

  47  0.750  0.000  0.377-  35 2.57  39 2.57  33 2.57  40 2.57  43 2.57  41 2.57  44 2.57  42 2.57

  48  0.750  0.500  0.377-  36 2.57  40 2.57  39 2.57  34 2.57  44 2.57  43 2.57  42 2.57  41 2.57

 
  LATTYP: Found a simple tetragonal cell.
 ALAT       =     7.2600002289
 C/A-ratio  =     3.3161155979
  
  Lattice vectors:
  
 A1 = (   7.2600002289,   0.0000000000,   0.0000000000)
 A2 = (   0.0000000000,   7.2600002289,   0.0000000000)
 A3 = (   0.0000000000,   0.0000000000,  24.0750000000)


Analysis of symmetry for initial positions (statically):
=====================================================================
 Subroutine PRICEL returns following result:
 
  LATTYP: Found a simple tetragonal cell.
 ALAT       =     2.5667976963
 C/A-ratio  =     9.3793913071
  
  Lattice vectors:
  
 A1 = (   1.8150000570,  -1.8150000570,   0.0000000000)
 A2 = (   1.8150000570,   1.8150000570,   0.0000000000)
 A3 = (   0.0000000000,   0.0000000000,  24.0750000000)
 
   8 primitive cells build up your supercell.
 

 Routine SETGRP: Setting up the symmetry group for a 
 simple tetragonal supercell.


 Subroutine GETGRP returns: Found 16 space group operations
 (whereof  8 operations were pure point group operations)
 out of a pool of 16 trial point group operations.


The static configuration has the point symmetry C_4v.
 The point group associated with its full space group is D_4h.


Analysis of symmetry for dynamics (positions and initial velocities):
=====================================================================
 Subroutine PRICEL returns following result:
 
  LATTYP: Found a simple tetragonal cell.
 ALAT       =     2.5667976963
 C/A-ratio  =     9.3793913071
  
  Lattice vectors:
  
 A1 = (   1.8150000570,  -1.8150000570,   0.0000000000)
 A2 = (   1.8150000570,   1.8150000570,   0.0000000000)
 A3 = (   0.0000000000,   0.0000000000,  24.0750000000)
 
   8 primitive cells build up your supercell.
 

 Routine SETGRP: Setting up the symmetry group for a 
 simple tetragonal supercell.


 Subroutine GETGRP returns: Found 16 space group operations
 (whereof  8 operations were pure point group operations)
 out of a pool of 16 trial point group operations.


The dynamic configuration has the point symmetry C_4v.
 The point group associated with its full space group is D_4h.


Analysis of constrained symmetry for selective dynamics:
=====================================================================
 Subroutine PRICEL returns following result:
 
  LATTYP: Found a simple tetragonal cell.
 ALAT       =     2.5667976963
 C/A-ratio  =     9.3793913071
  
  Lattice vectors:
  
 A1 = (   1.8150000570,  -1.8150000570,   0.0000000000)
 A2 = (   1.8150000570,   1.8150000570,   0.0000000000)
 A3 = (   0.0000000000,   0.0000000000,  24.0750000000)
 
   8 primitive cells build up your supercell.
 

 Routine SETGRP: Setting up the symmetry group for a 
 simple tetragonal supercell.


 Subroutine GETGRP returns: Found  8 space group operations
 (whereof  8 operations were pure point group operations)
 out of a pool of 16 trial point group operations.


The constrained configuration has the point symmetry C_4v.


Analysis of structural, dynamic, and magnetic symmetry:
=====================================================================
 Subroutine PRICEL returns following result:
 
  LATTYP: Found a simple tetragonal cell.
 ALAT       =     2.5667976963
 C/A-ratio  =     9.3793913071
  
  Lattice vectors:
  
 A1 = (   1.8150000570,  -1.8150000570,   0.0000000000)
 A2 = (   1.8150000570,   1.8150000570,   0.0000000000)
 A3 = (   0.0000000000,   0.0000000000,  24.0750000000)
 
   8 primitive cells build up your supercell.
 

 Routine SETGRP: Setting up the symmetry group for a 
 simple tetragonal supercell.


 Subroutine GETGRP returns: Found  8 space group operations
 (whereof  8 operations were pure point group operations)
 out of a pool of 16 trial point group operations.


The overall configuration has the point symmetry C_4v.


 Subroutine INISYM returns: Found  8 space group operations
 (whereof  8 operations are pure point group operations),
 and found     8 'primitive' translations


----------------------------------------------------------------------------------------

                                     Primitive cell                                     

  volume of cell :     158.6169

  direct lattice vectors                    reciprocal lattice vectors
     1.815000057 -1.815000057  0.000000000     0.275482085 -0.275482085  0.000000000
     1.815000057  1.815000057  0.000000000     0.275482085  0.275482085  0.000000000
     0.000000000  0.000000000 24.075000000     0.000000000  0.000000000  0.041536864

  length of vectors
     2.566797696  2.566797696 24.075000000     0.389590501  0.389590501  0.041536864

  position of ions in fractional coordinates (direct lattice)
     0.000000000  0.000000000  0.000000000
     0.500000000  0.500000000  0.075389409
     0.000000000  0.000000000  0.150778818
     0.500000000  0.500000000  0.226168228
     0.000000000  0.000000000  0.301557637
     0.500000000  0.500000000  0.376947046

  ion indices of the primitive-cell ions
   primitive index   ion index
                 1           1
                 2           9
                 3          17
                 4          25
                 5          33
                 6          41

----------------------------------------------------------------------------------------

 
 
 KPOINTS: Auto-mesh                               

Automatic generation of k-mesh.
 Grid dimensions read from file:
 generate k-points for:    3    3    1

 Generating k-lattice:

  Cartesian coordinates                     Fractional coordinates (reciprocal lattice)
     0.045913681  0.000000000  0.000000000     0.333333333  0.000000000  0.000000000
     0.000000000  0.045913681  0.000000000     0.000000000  0.333333333  0.000000000
     0.000000000  0.000000000  0.041536864     0.000000000  0.000000000  1.000000000

  Length of vectors
     0.045913681  0.045913681  0.041536864

  Shift w.r.t. Gamma in fractional coordinates (k-lattice)
     0.000000000  0.000000000  0.000000000

 
 Subroutine IBZKPT returns following result:
 ===========================================
 
 Found      3 irreducible k-points:
 
 Following reciprocal coordinates:
            Coordinates               Weight
  0.000000  0.000000  0.000000      1.000000
  0.333333  0.000000  0.000000      4.000000
  0.333333  0.333333  0.000000      4.000000
 
 Following cartesian coordinates:
            Coordinates               Weight
  0.000000  0.000000  0.000000      1.000000
  0.045914  0.000000  0.000000      4.000000
  0.045914  0.045914  0.000000      4.000000
 


--------------------------------------------------------------------------------------------------------




 Dimension of arrays:
   k-points           NKPTS =      3   k-points in BZ     NKDIM =      3   number of bands    NBANDS=    340
   number of dos      NEDOS =    301   number of ions     NIONS =     48
   non local maximal  LDIM  =      6   non local SUM 2l+1 LMDIM =     18
   total plane-waves  NPLWV = 155520
   max r-space proj   IRMAX =      1   max aug-charges    IRDMAX=   3749
   dimension x,y,z NGX =    36 NGY =   36 NGZ =  120
   dimension x,y,z NGXF=    72 NGYF=   72 NGZF=  240
   support grid    NGXF=    72 NGYF=   72 NGZF=  240
   ions per type =              48
   NGX,Y,Z   is equivalent  to a cutoff of   8.24,  8.24,  8.29 a.u.
   NGXF,Y,Z  is equivalent  to a cutoff of  16.49, 16.49, 16.57 a.u.

 SYSTEM =  unknown system                          
 POSCAR =  FCC Cu                                  

 Startparameter for this run:
   NWRITE =      2    write-flag & timer
   PREC   = normal    normal or accurate (medium, high low for compatibility)
   ISTART =      0    job   : 0-new  1-cont  2-samecut
   ICHARG =      2    charge: 1-file 2-atom 10-const
   ISPIN  =      2    spin polarized calculation?
   LNONCOLLINEAR =      F non collinear calculations
   LSORBIT =      F    spin-orbit coupling
   INIWAV =      1    electr: 0-lowe 1-rand  2-diag
   LASPH  =      F    aspherical Exc in radial PAW
 Electronic Relaxation 1
   ENCUT  =  400.0 eV  29.40 Ry    5.42 a.u.  11.84 11.84 39.26*2*pi/ulx,y,z
   ENINI  =  400.0     initial cutoff
   ENAUG  =  587.0 eV  augmentation charge cutoff
   NELM   =     60;   NELMIN=  2; NELMDL= -5     # of ELM steps 
   EDIFF  = 0.2E-03   stopping-criterion for ELM
   LREAL  =      F    real-space projection
   NLSPLINE    = F    spline interpolate recip. space projectors
   LCOMPAT=      F    compatible to vasp.4.4
   GGA_COMPAT  = T    GGA compatible to vasp.4.4-vasp.4.6
   LMAXPAW     = -100 max onsite density
   LMAXMIX     =    2 max onsite mixed and CHGCAR
   VOSKOWN=      0    Vosko Wilk Nusair interpolation
   ROPT   =    0.00000
 Ionic relaxation
   EDIFFG = -.3E-01   stopping-criterion for IOM
   NSW    =    800    number of steps for IOM
   NBLOCK =      1;   KBLOCK =    800    inner block; outer block 
   IBRION =      2    ionic relax: 0-MD 1-quasi-New 2-CG
   NFREE  =      1    steps in history (QN), initial steepest desc. (CG)
   ISIF   =      2    stress and relaxation
   IWAVPR =     11    prediction:  0-non 1-charg 2-wave 3-comb
   ISYM   =      1    0-nonsym 1-usesym 2-fastsym
   LCORR  =      T    Harris-Foulkes like correction to forces

   POTIM  = 0.5000    time-step for ionic-motion
   TEIN   =    0.0    initial temperature
   TEBEG  =    0.0;   TEEND  =   0.0 temperature during run
   SMASS  =  -3.00    Nose mass-parameter (am)
   estimated Nose-frequenzy (Omega)   =  0.10E-29 period in steps = 0.13E+47 mass=  -0.120E-26a.u.
   SCALEE = 1.0000    scale energy and forces
   NPACO  =    256;   APACO  = 10.0  distance and # of slots for P.C.
   PSTRESS=    0.0 pullay stress

  Mass of Ions in am
   POMASS =  63.55
  Ionic Valenz
   ZVAL   =  11.00
  Atomic Wigner-Seitz radii
   RWIGS  =  -1.00
  virtual crystal weights 
   VCA    =   1.00
   NELECT =     528.0000    total number of electrons
   NUPDOWN=      -1.0000    fix difference up-down

 DOS related values:
   EMIN   =  10.00;   EMAX   =-10.00  energy-range for DOS
   EFERMI =   0.00
   ISMEAR =     1;   SIGMA  =   0.20  broadening in eV -4-tet -1-fermi 0-gaus

 Electronic relaxation 2 (details)
   IALGO  =     38    algorithm
   LDIAG  =      T    sub-space diagonalisation (order eigenvalues)
   LSUBROT=      F    optimize rotation matrix (better conditioning)
   TURBO    =      0    0=normal 1=particle mesh
   IRESTART =      0    0=no restart 2=restart with 2 vectors
   NREBOOT  =      0    no. of reboots
   NMIN     =      0    reboot dimension
   EREF     =   0.00    reference energy to select bands
   IMIX   =      4    mixing-type and parameters
     AMIX     =   0.40;   BMIX     =  1.00
     AMIX_MAG =   1.60;   BMIX_MAG =  1.00
     AMIN     =   0.10
     WC   =   100.;   INIMIX=   1;  MIXPRE=   1;  MAXMIX= -45

 Intra band minimization:
   WEIMIN = 0.0010     energy-eigenvalue tresh-hold
   EBREAK =  0.15E-06  absolut break condition
   DEPER  =   0.30     relativ break condition  

   TIME   =   0.40     timestep for ELM

  volume/ion in A,a.u.               =      26.44       178.40
  Fermi-wavevector in a.u.,A,eV,Ry     =   1.222193  2.309609 20.323764  1.493755
  Thomas-Fermi vector in A             =   2.357348
 
 Write flags
   LWAVE        =      F    write WAVECAR
   LDOWNSAMPLE  =      F    k-point downsampling of WAVECAR
   LCHARG       =      F    write CHGCAR
   LVTOT        =      F    write LOCPOT, total local potential
   LVHAR        =      F    write LOCPOT, Hartree potential only
   LELF         =      F    write electronic localiz. function (ELF)
   LORBIT       =      0    0 simple, 1 ext, 2 COOP (PROOUT), +10 PAW based schemes


 Dipole corrections
   LMONO  =      F    monopole corrections only (constant potential shift)
   LDIPOL =      F    correct potential (dipole corrections)
   IDIPOL =      3    1-x, 2-y, 3-z, 4-all directions 
   EPSILON=  1.0000000 bulk dielectric constant

 Exchange correlation treatment:
   GGA     =    PE    GGA type
   LEXCH   =     8    internal setting for exchange type
   LIBXC   =     F    Libxc                    
   VOSKOWN =     0    Vosko Wilk Nusair interpolation
   LHFCALC =     F    Hartree Fock is set to
   LHFONE  =     F    Hartree Fock one center treatment
   AEXX    =    0.0000 exact exchange contribution

 Linear response parameters
   LEPSILON=     F    determine dielectric tensor
   LRPA    =     F    only Hartree local field effects (RPA)
   LNABLA  =     F    use nabla operator in PAW spheres
   LVEL    =     F    velocity operator in full k-point grid
   CSHIFT  =0.1000    complex shift for real part using Kramers Kronig
   OMEGAMAX=  -1.0    maximum frequency
   DEG_THRESHOLD= 0.2000000E-02 threshold for treating states as degnerate
   RTIME   =   -0.100 relaxation time in fs
  (WPLASMAI=    0.000 imaginary part of plasma frequency in eV, 0.658/RTIME)
   DFIELD  = 0.0000000 0.0000000 0.0000000 field for delta impulse in time
 
  Optional k-point grid parameters
   LKPOINTS_OPT  =     F    use optional k-point grid
   KPOINTS_OPT_MODE=     1    mode for optional k-point grid
 
 Orbital magnetization related:
   ORBITALMAG=     F  switch on orbital magnetization
   LCHIMAG   =     F  perturbation theory with respect to B field
   DQ        =  0.001000  dq finite difference perturbation B field
   LLRAUG    =     F  two centre corrections for induced B field



--------------------------------------------------------------------------------------------------------


 conjugate gradient relaxation of ions
   using selective dynamics as specified on POSCAR
   WARNING: If single coordinates had been selected the selection of coordinates
            is made according to the corresponding   d i r e c t   coordinates!
            Don't support selection of single cartesian coordinates -- sorry ...
  !
 charge density and potential will be updated during run
 spin polarized calculation
 Variant of blocked Davidson
 Davidson routine will perform the subspace rotation
 perform sub-space diagonalisation
    after iterative eigenvector-optimisation
 modified Broyden-mixing scheme, WC =      100.0
 initial mixing is a Kerker type mixing with AMIX =  0.4000 and BMIX =      1.0000
 Hartree-type preconditioning will be used
 using additional bands           76
 reciprocal scheme for non local part
 use partial core corrections
 calculate Harris-corrections to forces 
   (improved forces if not selfconsistent)
 use gradient corrections 
 use of overlap-Matrix (Vanderbilt PP)
 Methfessel and Paxton  Order N= 1 SIGMA  =   0.20


--------------------------------------------------------------------------------------------------------


  energy-cutoff  :      400.00
  volume of cell :     1268.94
      direct lattice vectors                 reciprocal lattice vectors
     7.260000229  0.000000000  0.000000000     0.137741042  0.000000000  0.000000000
     0.000000000  7.260000229  0.000000000     0.000000000  0.137741042  0.000000000
     0.000000000  0.000000000 24.075000000     0.000000000  0.000000000  0.041536864

  length of vectors
     7.260000229  7.260000229 24.075000000     0.137741042  0.137741042  0.041536864


 
 k-points in units of 2pi/SCALE and weight: Auto-mesh                               
   0.00000000  0.00000000  0.00000000       0.111
   0.04591368  0.00000000  0.00000000       0.444
   0.04591368  0.04591368  0.00000000       0.444
 
 k-points in reciprocal lattice and weights: Auto-mesh                               
   0.00000000  0.00000000  0.00000000       0.111
   0.33333333  0.00000000  0.00000000       0.444
   0.33333333  0.33333333  0.00000000       0.444
 
 position of ions in fractional coordinates (direct lattice) 
   0.00000000  0.00000000  0.00000000
   0.00000000  0.50000000  0.00000000
   0.50000000  0.00000000  0.00000000
   0.50000000  0.50000000  0.00000000
   0.25000000  0.25000000  0.00000000
   0.25000000  0.75000000  0.00000000
   0.75000000  0.25000000  0.00000000
   0.75000000  0.75000000  0.00000000
   0.00000000  0.25000000  0.07538941
   0.00000000  0.75000000  0.07538941
   0.50000000  0.25000000  0.07538941
   0.50000000  0.75000000  0.07538941
   0.25000000  0.00000000  0.07538941
   0.25000000  0.50000000  0.07538941
   0.75000000  0.00000000  0.07538941
   0.75000000  0.50000000  0.07538941
   0.00000000  0.00000000  0.15077882
   0.00000000  0.50000000  0.15077882
   0.50000000  0.00000000  0.15077882
   0.50000000  0.50000000  0.15077882
   0.25000000  0.25000000  0.15077882
   0.25000000  0.75000000  0.15077882
   0.75000000  0.25000000  0.15077882
   0.75000000  0.75000000  0.15077882
   0.00000000  0.25000000  0.22616823
   0.00000000  0.75000000  0.22616823
   0.50000000  0.25000000  0.22616823
   0.50000000  0.75000000  0.22616823
   0.25000000  0.00000000  0.22616823
   0.25000000  0.50000000  0.22616823
   0.75000000  0.00000000  0.22616823
   0.75000000  0.50000000  0.22616823
   0.00000000  0.00000000  0.30155764
   0.00000000  0.50000000  0.30155764
   0.50000000  0.00000000  0.30155764
   0.50000000  0.50000000  0.30155764
   0.25000000  0.25000000  0.30155764
   0.25000000  0.75000000  0.30155764
   0.75000000  0.25000000  0.30155764
   0.75000000  0.75000000  0.30155764
   0.00000000  0.25000000  0.37694705
   0.00000000  0.75000000  0.37694705
   0.50000000  0.25000000  0.37694705
   0.50000000  0.75000000  0.37694705
   0.25000000  0.00000000  0.37694705
   0.25000000  0.50000000  0.37694705
   0.75000000  0.00000000  0.37694705
   0.75000000  0.50000000  0.37694705
 
 position of ions in cartesian coordinates  (Angst):
   0.00000000  0.00000000  0.00000000
   0.00000000  3.63000011  0.00000000
   3.63000011  0.00000000  0.00000000
   3.63000011  3.63000011  0.00000000
   1.81500006  1.81500006  0.00000000
   1.81500006  5.44500017  0.00000000
   5.44500017  1.81500006  0.00000000
   5.44500017  5.44500017  0.00000000
   0.00000000  1.81500006  1.81500003
   0.00000000  5.44500017  1.81500003
   3.63000011  1.81500006  1.81500003
   3.63000011  5.44500017  1.81500003
   1.81500006  0.00000000  1.81500003
   1.81500006  3.63000011  1.81500003
   5.44500017  0.00000000  1.81500003
   5.44500017  3.63000011  1.81500003
   0.00000000  0.00000000  3.63000005
   0.00000000  3.63000011  3.63000005
   3.63000011  0.00000000  3.63000005
   3.63000011  3.63000011  3.63000005
   1.81500006  1.81500006  3.63000005
   1.81500006  5.44500017  3.63000005
   5.44500017  1.81500006  3.63000005
   5.44500017  5.44500017  3.63000005
   0.00000000  1.81500006  5.44500008
   0.00000000  5.44500017  5.44500008
   3.63000011  1.81500006  5.44500008
   3.63000011  5.44500017  5.44500008
   1.81500006  0.00000000  5.44500008
   1.81500006  3.63000011  5.44500008
   5.44500017  0.00000000  5.44500008
   5.44500017  3.63000011  5.44500008
   0.00000000  0.00000000  7.26000010
   0.00000000  3.63000011  7.26000010
   3.63000011  0.00000000  7.26000010
   3.63000011  3.63000011  7.26000010
   1.81500006  1.81500006  7.26000010
   1.81500006  5.44500017  7.26000010
   5.44500017  1.81500006  7.26000010
   5.44500017  5.44500017  7.26000010
   0.00000000  1.81500006  9.07500013
   0.00000000  5.44500017  9.07500013
   3.63000011  1.81500006  9.07500013
   3.63000011  5.44500017  9.07500013
   1.81500006  0.00000000  9.07500013
   1.81500006  3.63000011  9.07500013
   5.44500017  0.00000000  9.07500013
   5.44500017  3.63000011  9.07500013
 


--------------------------------------------------------------------------------------------------------


 k-point   1 :   0.0000 0.0000 0.0000  plane waves:   23019
 k-point   2 :   0.3333 0.0000 0.0000  plane waves:   23008
 k-point   3 :   0.3333 0.3333 0.0000  plane waves:   23075

 maximum and minimum number of plane-waves per node :      4643     4555

 maximum number of plane-waves:     23075
 maximum index in each direction: 
   IXMAX=   11   IYMAX=   11   IZMAX=   39
   IXMIN=  -12   IYMIN=  -12   IZMIN=  -39


 parallel 3D FFT for wavefunctions:
    minimum data exchange during FFTs selected (reduces bandwidth)
 parallel 3D FFT for charge:
    minimum data exchange during FFTs selected (reduces bandwidth)


 total amount of memory used by VASP MPI-rank0    86137. kBytes
=======================================================================

   base      :      30000. kBytes
   nonl-proj :       5544. kBytes
   fftplans  :       3332. kBytes
   grid      :       7782. kBytes
   one-center:        311. kBytes
   wavefun   :      39168. kBytes
 
     INWAV:  cpu time      0.0000: real time      0.0006
 Broyden mixing: mesh for mixing (old mesh)
   NGX = 23   NGY = 23   NGZ = 79
  (NGX  = 72   NGY  = 72   NGZ  =240)
  gives a total of  41791 points

 initial charge density was supplied:
 charge density of overlapping atoms calculated
 number of electron     528.0000000 magnetization      48.0000000
 keeping initial charge density in first step


--------------------------------------------------------------------------------------------------------


 Maximum index for augmentation-charges          281 (set IRDMAX)


--------------------------------------------------------------------------------------------------------


 First call to EWALD:  gamma=   0.164
 Maximum number of real-space cells 4x 4x 2
 Maximum number of reciprocal cells 2x 2x 6

    FEWALD:  cpu time      0.0029: real time      0.0029


--------------------------------------- Iteration      1(   1)  ---------------------------------------


    POTLOK:  cpu time      0.0911: real time      0.0919
    SETDIJ:  cpu time      0.0185: real time      0.0186
     EDDAV:  cpu time     15.8464: real time     15.9694
       DOS:  cpu time      0.0025: real time      0.0025
    --------------------------------------------
      LOOP:  cpu time     15.9586: real time     16.0824

 eigenvalue-minimisations  :  4080
 total energy-change (2. order) : 0.4923816E+04  (-0.1895819E+05)
 number of electron     528.0000000 magnetization      48.0000000
 augmentation part      528.0000000 magnetization      48.0000000

 Free energy of the ion-electron system (eV)
  ---------------------------------------------------
  alpha Z        PSCENC =      1327.86869847
  Ewald energy   TEWEN  =    241977.47459993
  -Hartree energ DENC   =   -306897.48512637
  -exchange      EXHF   =         0.00000000
  -V(xc)+E(xc)   XCENC  =      2191.67054812
  PAW double counting   =     58948.67981035   -64028.20471320
  entropy T*S    EENTRO =         0.00696135
  eigenvalues    EBANDS =      4637.83888617
  atomic energy  EATOM  =     66765.96672959
  Solvation  Ediel_sol  =         0.00000000
  ---------------------------------------------------
  free energy    TOTEN  =      4923.81639442 eV

  energy without entropy =     4923.80943306  energy(sigma->0) =     4923.81407397


--------------------------------------------------------------------------------------------------------




--------------------------------------- Iteration      1(   2)  ---------------------------------------


     EDDAV:  cpu time     15.6963: real time     15.8179
       DOS:  cpu time      0.0036: real time      0.0036
    --------------------------------------------
      LOOP:  cpu time     15.6999: real time     15.8215

 eigenvalue-minimisations  :  4080
 total energy-change (2. order) :-0.4320894E+04  (-0.4139967E+04)
 number of electron     528.0000000 magnetization      48.0000000
 augmentation part      528.0000000 magnetization      48.0000000

 Free energy of the ion-electron system (eV)
  ---------------------------------------------------
  alpha Z        PSCENC =      1327.86869847
  Ewald energy   TEWEN  =    241977.47459993
  -Hartree energ DENC   =   -306897.48512637
  -exchange      EXHF   =         0.00000000
  -V(xc)+E(xc)   XCENC  =      2191.67054812
  PAW double counting   =     58948.67981035   -64028.20471320
  entropy T*S    EENTRO =         0.01275952
  eigenvalues    EBANDS =       316.93953793
  atomic energy  EATOM  =     66765.96672959
  Solvation  Ediel_sol  =         0.00000000
  ---------------------------------------------------
  free energy    TOTEN  =       602.92284434 eV

  energy without entropy =      602.91008483  energy(sigma->0) =      602.91859117


--------------------------------------------------------------------------------------------------------




--------------------------------------- Iteration      1(   3)  ---------------------------------------


     EDDAV:  cpu time     15.5922: real time     15.7125
       DOS:  cpu time      0.0030: real time      0.0030
    --------------------------------------------
      LOOP:  cpu time     15.5952: real time     15.7155

 eigenvalue-minimisations  :  4080
 total energy-change (2. order) :-0.7487393E+03  (-0.6763303E+03)
 number of electron     528.0000000 magnetization      48.0000000
 augmentation part      528.0000000 magnetization      48.0000000

 Free energy of the ion-electron system (eV)
  ---------------------------------------------------
  alpha Z        PSCENC =      1327.86869847
  Ewald energy   TEWEN  =    241977.47459993
  -Hartree energ DENC   =   -306897.48512637
  -exchange      EXHF   =         0.00000000
  -V(xc)+E(xc)   XCENC  =      2191.67054812
  PAW double counting   =     58948.67981035   -64028.20471320
  entropy T*S    EENTRO =         0.09316709
  eigenvalues    EBANDS =      -431.88012460
  atomic energy  EATOM  =     66765.96672959
  Solvation  Ediel_sol  =         0.00000000
  ---------------------------------------------------
  free energy    TOTEN  =      -145.81641061 eV

  energy without entropy =     -145.90957770  energy(sigma->0) =     -145.84746631


--------------------------------------------------------------------------------------------------------




--------------------------------------- Iteration      1(   4)  ---------------------------------------


     EDDAV:  cpu time     17.1140: real time     17.2470
       DOS:  cpu time      0.0030: real time      0.0031
    --------------------------------------------
      LOOP:  cpu time     17.1171: real time     17.2501

 eigenvalue-minimisations  :  4584
 total energy-change (2. order) :-0.5340418E+02  (-0.5148700E+02)
 number of electron     528.0000000 magnetization      48.0000000
 augmentation part      528.0000000 magnetization      48.0000000

 Free energy of the ion-electron system (eV)
  ---------------------------------------------------
  alpha Z        PSCENC =      1327.86869847
  Ewald energy   TEWEN  =    241977.47459993
  -Hartree energ DENC   =   -306897.48512637
  -exchange      EXHF   =         0.00000000
  -V(xc)+E(xc)   XCENC  =      2191.67054812
  PAW double counting   =     58948.67981035   -64028.20471320
  entropy T*S    EENTRO =         0.12732359
  eigenvalues    EBANDS =      -485.31846441
  atomic energy  EATOM  =     66765.96672959
  Solvation  Ediel_sol  =         0.00000000
  ---------------------------------------------------
  free energy    TOTEN  =      -199.22059392 eV

  energy without entropy =     -199.34791751  energy(sigma->0) =     -199.26303512


--------------------------------------------------------------------------------------------------------




--------------------------------------- Iteration      1(   5)  ---------------------------------------


     EDDAV:  cpu time     17.1082: real time     17.2426
       DOS:  cpu time      0.0033: real time      0.0033
    CHARGE:  cpu time      0.7786: real time      0.7824
    MIXING:  cpu time      0.0059: real time      0.0059
    --------------------------------------------
      LOOP:  cpu time     17.8960: real time     18.0342

 eigenvalue-minimisations  :  4592
 total energy-change (2. order) :-0.1285906E+01  (-0.1281294E+01)
 number of electron     528.0006935 magnetization      43.8034607
 augmentation part      312.9733866 magnetization      43.7148331

 Broyden mixing:
  rms(total) = 0.64008E+01    rms(broyden)= 0.64000E+01
  rms(prec ) = 0.66050E+01
  weight for this iteration     100.00

 Free energy of the ion-electron system (eV)
  ---------------------------------------------------
  alpha Z        PSCENC =      1327.86869847
  Ewald energy   TEWEN  =    241977.47459993
  -Hartree energ DENC   =   -306897.48512637
  -exchange      EXHF   =         0.00000000
  -V(xc)+E(xc)   XCENC  =      2191.67054812
  PAW double counting   =     58948.67981035   -64028.20471320
  entropy T*S    EENTRO =         0.12727333
  eigenvalues    EBANDS =      -486.60432012
  atomic energy  EATOM  =     66765.96672959
  Solvation  Ediel_sol  =         0.00000000
  ---------------------------------------------------
  free energy    TOTEN  =      -200.50649989 eV

  energy without entropy =     -200.63377323  energy(sigma->0) =     -200.54892434


--------------------------------------------------------------------------------------------------------




--------------------------------------- Iteration      1(   6)  ---------------------------------------


    POTLOK:  cpu time      0.0916: real time      0.0923
    SETDIJ:  cpu time      0.0179: real time      0.0180
     EDDAV:  cpu time     16.4088: real time     16.5351
       DOS:  cpu time      0.0026: real time      0.0026
    CHARGE:  cpu time      0.7382: real time      0.7419
    MIXING:  cpu time      0.0070: real time      0.0070
    --------------------------------------------
      LOOP:  cpu time     17.2661: real time     17.3970

 eigenvalue-minimisations  :  4376
 total energy-change (2. order) : 0.3723339E+02  (-0.4774608E+02)
 number of electron     528.0007688 magnetization      41.2566832
 augmentation part      352.6340712 magnetization      29.8912744

 Broyden mixing:
  rms(total) = 0.32317E+01    rms(broyden)= 0.32300E+01
  rms(prec ) = 0.33676E+01
  weight for this iteration     100.00

 eigenvalues of (default mixing * dielectric matrix)
  average eigenvalue GAMMA=   0.7867
  0.7867

 Free energy of the ion-electron system (eV)
  ---------------------------------------------------
  alpha Z        PSCENC =      1327.86869847
  Ewald energy   TEWEN  =    241977.47459993
  -Hartree energ DENC   =   -305614.71644653
  -exchange      EXHF   =         0.00000000
  -V(xc)+E(xc)   XCENC  =      2137.37949079
  PAW double counting   =     59604.57783292   -64426.44554997
  entropy T*S    EENTRO =         0.01672684
  eigenvalues    EBANDS =     -1935.39519156
  atomic energy  EATOM  =     66765.96672959
  Solvation  Ediel_sol  =         0.00000000
  ---------------------------------------------------
  free energy    TOTEN  =      -163.27310952 eV

  energy without entropy =     -163.28983635  energy(sigma->0) =     -163.27868513


--------------------------------------------------------------------------------------------------------




--------------------------------------- Iteration      1(   7)  ---------------------------------------


    POTLOK:  cpu time      0.0837: real time      0.0852
    SETDIJ:  cpu time      0.0171: real time      0.0172
     EDDAV:  cpu time     16.6352: real time     16.7628
       DOS:  cpu time      0.0028: real time      0.0028
    CHARGE:  cpu time      0.7304: real time      0.7341
    MIXING:  cpu time      0.0063: real time      0.0063
    --------------------------------------------
      LOOP:  cpu time     17.4756: real time     17.6084

 eigenvalue-minimisations  :  4448
 total energy-change (2. order) : 0.2176445E+02  (-0.1130716E+02)
 number of electron     528.0007408 magnetization      38.0716008
 augmentation part      337.8490630 magnetization      26.6726885

 Broyden mixing:
  rms(total) = 0.15461E+01    rms(broyden)= 0.15457E+01
  rms(prec ) = 0.15713E+01
  weight for this iteration     100.00

 eigenvalues of (default mixing * dielectric matrix)
  average eigenvalue GAMMA=   0.8303
  1.0223  0.6382

 Free energy of the ion-electron system (eV)
  ---------------------------------------------------
  alpha Z        PSCENC =      1327.86869847
  Ewald energy   TEWEN  =    241977.47459993
  -Hartree energ DENC   =   -306304.63880987
  -exchange      EXHF   =         0.00000000
  -V(xc)+E(xc)   XCENC  =      2164.03817086
  PAW double counting   =     60839.29417197   -65904.64797812
  entropy T*S    EENTRO =        -0.04304885
  eigenvalues    EBANDS =     -1006.82119359
  atomic energy  EATOM  =     66765.96672959
  Solvation  Ediel_sol  =         0.00000000
  ---------------------------------------------------
  free energy    TOTEN  =      -141.50865961 eV

  energy without entropy =     -141.46561076  energy(sigma->0) =     -141.49430999


--------------------------------------------------------------------------------------------------------




--------------------------------------- Iteration      1(   8)  ---------------------------------------


    POTLOK:  cpu time      0.0840: real time      0.0848
    SETDIJ:  cpu time      0.0172: real time      0.0172
     EDDAV:  cpu time     17.6583: real time     17.7910
       DOS:  cpu time      0.0034: real time      0.0034
    CHARGE:  cpu time      0.7524: real time      0.7562
    MIXING:  cpu time      0.0073: real time      0.0073
    --------------------------------------------
      LOOP:  cpu time     18.5226: real time     18.6600

 eigenvalue-minimisations  :  4776
 total energy-change (2. order) : 0.2423519E+01  (-0.2737483E+01)
 number of electron     528.0007382 magnetization      35.4282487
 augmentation part      336.7783877 magnetization      23.5451012

 Broyden mixing:
  rms(total) = 0.15869E+01    rms(broyden)= 0.15867E+01
  rms(prec ) = 0.16726E+01
  weight for this iteration     100.00

 eigenvalues of (default mixing * dielectric matrix)
  average eigenvalue GAMMA=   0.7150
  1.1202  0.6395  0.3853

 Free energy of the ion-electron system (eV)
  ---------------------------------------------------
  alpha Z        PSCENC =      1327.86869847
  Ewald energy   TEWEN  =    241977.47459993
  -Hartree energ DENC   =   -306297.78309328
  -exchange      EXHF   =         0.00000000
  -V(xc)+E(xc)   XCENC  =      2165.98980401
  PAW double counting   =     61601.73269938   -66722.15506992
  entropy T*S    EENTRO =         0.01895288
  eigenvalues    EBANDS =      -958.19846130
  atomic energy  EATOM  =     66765.96672959
  Solvation  Ediel_sol  =         0.00000000
  ---------------------------------------------------
  free energy    TOTEN  =      -139.08514024 eV

  energy without entropy =     -139.10409312  energy(sigma->0) =     -139.09145786


--------------------------------------------------------------------------------------------------------




--------------------------------------- Iteration      1(   9)  ---------------------------------------


    POTLOK:  cpu time      0.0855: real time      0.0895
    SETDIJ:  cpu time      0.0174: real time      0.0174
     EDDAV:  cpu time     20.0158: real time     20.1690
       DOS:  cpu time      0.0028: real time      0.0028
    CHARGE:  cpu time      0.7414: real time      0.7450
    MIXING:  cpu time      0.0078: real time      0.0078
    --------------------------------------------
      LOOP:  cpu time     20.8706: real time     21.0316

 eigenvalue-minimisations  :  5608
 total energy-change (2. order) : 0.3030195E+01  (-0.7407635E+00)
 number of electron     528.0007374 magnetization      25.6398878
 augmentation part      336.3244485 magnetization      13.7092078

 Broyden mixing:
  rms(total) = 0.11870E+01    rms(broyden)= 0.11869E+01
  rms(prec ) = 0.11939E+01
  weight for this iteration     100.00

 eigenvalues of (default mixing * dielectric matrix)
  average eigenvalue GAMMA=   1.0594
  1.9070  1.2670  0.7088  0.3550

 Free energy of the ion-electron system (eV)
  ---------------------------------------------------
  alpha Z        PSCENC =      1327.86869847
  Ewald energy   TEWEN  =    241977.47459993
  -Hartree energ DENC   =   -306398.43708290
  -exchange      EXHF   =         0.00000000
  -V(xc)+E(xc)   XCENC  =      2165.44811644
  PAW double counting   =     62084.10009840   -67234.43494578
  entropy T*S    EENTRO =        -0.03130773
  eigenvalues    EBANDS =      -824.00985185
  atomic energy  EATOM  =     66765.96672959
  Solvation  Ediel_sol  =         0.00000000
  ---------------------------------------------------
  free energy    TOTEN  =      -136.05494543 eV

  energy without entropy =     -136.02363770  energy(sigma->0) =     -136.04450952


--------------------------------------------------------------------------------------------------------




--------------------------------------- Iteration      1(  10)  ---------------------------------------


    POTLOK:  cpu time      0.0844: real time      0.0851
    SETDIJ:  cpu time      0.0173: real time      0.0174
     EDDAV:  cpu time     20.5038: real time     20.6616
       DOS:  cpu time      0.0033: real time      0.0033
    CHARGE:  cpu time      0.7498: real time      0.7534
    MIXING:  cpu time      0.0117: real time      0.0117
    --------------------------------------------
      LOOP:  cpu time     21.3702: real time     21.5325

 eigenvalue-minimisations  :  5776
 total energy-change (2. order) :-0.1234174E+01  (-0.1067919E+01)
 number of electron     528.0007412 magnetization      16.9343542
 augmentation part      338.9763647 magnetization       6.9299354

 Broyden mixing:
  rms(total) = 0.10017E+01    rms(broyden)= 0.10016E+01
  rms(prec ) = 0.10556E+01
  weight for this iteration     100.00

 eigenvalues of (default mixing * dielectric matrix)
  average eigenvalue GAMMA=   1.2188
  3.3848  1.1309  0.6155  0.6155  0.3474

 Free energy of the ion-electron system (eV)
  ---------------------------------------------------
  alpha Z        PSCENC =      1327.86869847
  Ewald energy   TEWEN  =    241977.47459993
  -Hartree energ DENC   =   -306274.94392202
  -exchange      EXHF   =         0.00000000
  -V(xc)+E(xc)   XCENC  =      2156.94005196
  PAW double counting   =     63014.62512703   -68188.78246098
  entropy T*S    EENTRO =         0.02628354
  eigenvalues    EBANDS =      -916.46422694
  atomic energy  EATOM  =     66765.96672959
  Solvation  Ediel_sol  =         0.00000000
  ---------------------------------------------------
  free energy    TOTEN  =      -137.28911942 eV

  energy without entropy =     -137.31540296  energy(sigma->0) =     -137.29788060


--------------------------------------------------------------------------------------------------------




--------------------------------------- Iteration      1(  11)  ---------------------------------------


    POTLOK:  cpu time      0.0852: real time      0.0870
    SETDIJ:  cpu time      0.0173: real time      0.0174
     EDDAV:  cpu time     17.6572: real time     17.7905
       DOS:  cpu time      0.0029: real time      0.0029
    CHARGE:  cpu time      0.7605: real time      0.7642
    MIXING:  cpu time      0.0068: real time      0.0068
    --------------------------------------------
      LOOP:  cpu time     18.5300: real time     18.6687

 eigenvalue-minimisations  :  4800
 total energy-change (2. order) :-0.1983591E+01  (-0.6336225E+00)
 number of electron     528.0007445 magnetization      11.9325375
 augmentation part      339.4118517 magnetization       3.2694426

 Broyden mixing:
  rms(total) = 0.85996E+00    rms(broyden)= 0.85986E+00
  rms(prec ) = 0.91956E+00
  weight for this iteration     100.00

 eigenvalues of (default mixing * dielectric matrix)
  average eigenvalue GAMMA=   1.3824
  4.8790  0.9081  0.9081  0.8644  0.3325  0.4020

 Free energy of the ion-electron system (eV)
  ---------------------------------------------------
  alpha Z        PSCENC =      1327.86869847
  Ewald energy   TEWEN  =    241977.47459993
  -Hartree energ DENC   =   -306380.64704449
  -exchange      EXHF   =         0.00000000
  -V(xc)+E(xc)   XCENC  =      2153.51968136
  PAW double counting   =     63707.10593459   -68915.92113121
  entropy T*S    EENTRO =         0.00710584
  eigenvalues    EBANDS =      -774.64728474
  atomic energy  EATOM  =     66765.96672959
  Solvation  Ediel_sol  =         0.00000000
  ---------------------------------------------------
  free energy    TOTEN  =      -139.27271065 eV

  energy without entropy =     -139.27981648  energy(sigma->0) =     -139.27507926


--------------------------------------------------------------------------------------------------------




--------------------------------------- Iteration      1(  12)  ---------------------------------------


    POTLOK:  cpu time      0.0850: real time      0.0890
    SETDIJ:  cpu time      0.0174: real time      0.0174
     EDDAV:  cpu time     20.1394: real time     20.2952
       DOS:  cpu time      0.0031: real time      0.0032
    CHARGE:  cpu time      0.7472: real time      0.7508
    MIXING:  cpu time      0.0076: real time      0.0076
    --------------------------------------------
      LOOP:  cpu time     20.9996: real time     21.1632

 eigenvalue-minimisations  :  5668
 total energy-change (2. order) :-0.3722616E+01  (-0.2516365E+00)
 number of electron     528.0007402 magnetization       9.0276391
 augmentation part      338.5006011 magnetization       1.3070657

 Broyden mixing:
  rms(total) = 0.58096E+00    rms(broyden)= 0.58090E+00
  rms(prec ) = 0.65753E+00
  weight for this iteration     100.00

 eigenvalues of (default mixing * dielectric matrix)
  average eigenvalue GAMMA=   1.5373
  6.5174  1.0797  1.0797  0.8070  0.5510  0.3633  0.3633

 Free energy of the ion-electron system (eV)
  ---------------------------------------------------
  alpha Z        PSCENC =      1327.86869847
  Ewald energy   TEWEN  =    241977.47459993
  -Hartree energ DENC   =   -306504.71236606
  -exchange      EXHF   =         0.00000000
  -V(xc)+E(xc)   XCENC  =      2152.46293553
  PAW double counting   =     63836.34069323   -69062.65262406
  entropy T*S    EENTRO =        -0.01929895
  eigenvalues    EBANDS =      -635.72469449
  atomic energy  EATOM  =     66765.96672959
  Solvation  Ediel_sol  =         0.00000000
  ---------------------------------------------------
  free energy    TOTEN  =      -142.99532682 eV

  energy without entropy =     -142.97602787  energy(sigma->0) =     -142.98889383


--------------------------------------------------------------------------------------------------------




--------------------------------------- Iteration      1(  13)  ---------------------------------------


    POTLOK:  cpu time      0.0846: real time      0.0853
    SETDIJ:  cpu time      0.0172: real time      0.0173
     EDDAV:  cpu time     19.4301: real time     19.5798
       DOS:  cpu time      0.0030: real time      0.0030
    CHARGE:  cpu time      0.7451: real time      0.7489
    MIXING:  cpu time      0.0077: real time      0.0078
    --------------------------------------------
      LOOP:  cpu time     20.2878: real time     20.4422

 eigenvalue-minimisations  :  5432
 total energy-change (2. order) :-0.4837128E+01  (-0.3608504E+00)
 number of electron     528.0007410 magnetization       5.3093519
 augmentation part      337.6256061 magnetization      -1.3140735

 Broyden mixing:
  rms(total) = 0.37318E+00    rms(broyden)= 0.37306E+00
  rms(prec ) = 0.46521E+00
  weight for this iteration     100.00

 eigenvalues of (default mixing * dielectric matrix)
  average eigenvalue GAMMA=   1.7749
  8.9205  1.6676  0.9171  0.9171  0.7266  0.4198  0.3373  0.2930

 Free energy of the ion-electron system (eV)
  ---------------------------------------------------
  alpha Z        PSCENC =      1327.86869847
  Ewald energy   TEWEN  =    241977.47459993
  -Hartree energ DENC   =   -306552.97617071
  -exchange      EXHF   =         0.00000000
  -V(xc)+E(xc)   XCENC  =      2151.07099895
  PAW double counting   =     63598.24817268   -68820.14637187
  entropy T*S    EENTRO =        -0.03603304
  eigenvalues    EBANDS =      -595.30307864
  atomic energy  EATOM  =     66765.96672959
  Solvation  Ediel_sol  =         0.00000000
  ---------------------------------------------------
  free energy    TOTEN  =      -147.83245464 eV

  energy without entropy =     -147.79642160  energy(sigma->0) =     -147.82044363


--------------------------------------------------------------------------------------------------------




--------------------------------------- Iteration      1(  14)  ---------------------------------------


    POTLOK:  cpu time      0.0846: real time      0.0862
    SETDIJ:  cpu time      0.0248: real time      0.0249
     EDDAV:  cpu time     19.4925: real time     19.6421
       DOS:  cpu time      0.0031: real time      0.0031
    CHARGE:  cpu time      0.7646: real time      0.7684
    MIXING:  cpu time      0.0073: real time      0.0073
    --------------------------------------------
      LOOP:  cpu time     20.3769: real time     20.5320

 eigenvalue-minimisations  :  5456
 total energy-change (2. order) :-0.9485941E+01  (-0.8658493E+00)
 number of electron     528.0007375 magnetization       4.2091692
 augmentation part      336.6647786 magnetization      -0.4708576

 Broyden mixing:
  rms(total) = 0.30751E+00    rms(broyden)= 0.30736E+00
  rms(prec ) = 0.32711E+00
  weight for this iteration     100.00

 eigenvalues of (default mixing * dielectric matrix)
  average eigenvalue GAMMA=   1.8214
 10.0091  2.2008  0.8650  0.8650  0.8408  0.5741  0.4112  0.3564  0.2699

 Free energy of the ion-electron system (eV)
  ---------------------------------------------------
  alpha Z        PSCENC =      1327.86869847
  Ewald energy   TEWEN  =    241977.47459993
  -Hartree energ DENC   =   -306553.50250413
  -exchange      EXHF   =         0.00000000
  -V(xc)+E(xc)   XCENC  =      2146.81882539
  PAW double counting   =     62985.13133962   -68180.92778211
  entropy T*S    EENTRO =        -0.03774502
  eigenvalues    EBANDS =      -626.11055744
  atomic energy  EATOM  =     66765.96672959
  Solvation  Ediel_sol  =         0.00000000
  ---------------------------------------------------
  free energy    TOTEN  =      -157.31839569 eV

  energy without entropy =     -157.28065067  energy(sigma->0) =     -157.30581402


--------------------------------------------------------------------------------------------------------




--------------------------------------- Iteration      1(  15)  ---------------------------------------


    POTLOK:  cpu time      0.0837: real time      0.0875
    SETDIJ:  cpu time      0.0171: real time      0.0172
     EDDAV:  cpu time     17.1817: real time     17.3154
       DOS:  cpu time      0.0031: real time      0.0032
    CHARGE:  cpu time      0.7371: real time      0.7409
    MIXING:  cpu time      0.0124: real time      0.0124
    --------------------------------------------
      LOOP:  cpu time     18.0351: real time     18.1766

 eigenvalue-minimisations  :  4656
 total energy-change (2. order) :-0.5308431E+01  (-0.5669839E+00)
 number of electron     528.0007381 magnetization       3.6369626
 augmentation part      336.6777369 magnetization       0.5227434

 Broyden mixing:
  rms(total) = 0.20780E+00    rms(broyden)= 0.20769E+00
  rms(prec ) = 0.22282E+00
  weight for this iteration     100.00

 eigenvalues of (default mixing * dielectric matrix)
  average eigenvalue GAMMA=   1.7363
 10.1933  2.4418  0.8603  0.8603  0.8108  0.5848  0.5848  0.4042  0.3421  0.2809

 Free energy of the ion-electron system (eV)
  ---------------------------------------------------
  alpha Z        PSCENC =      1327.86869847
  Ewald energy   TEWEN  =    241977.47459993
  -Hartree energ DENC   =   -306495.49608758
  -exchange      EXHF   =         0.00000000
  -V(xc)+E(xc)   XCENC  =      2143.46611011
  PAW double counting   =     62632.04589835   -67804.77493951
  entropy T*S    EENTRO =        -0.03418999
  eigenvalues    EBANDS =      -709.14364593
  atomic energy  EATOM  =     66765.96672959
  Solvation  Ediel_sol  =         0.00000000
  ---------------------------------------------------
  free energy    TOTEN  =      -162.62682656 eV

  energy without entropy =     -162.59263658  energy(sigma->0) =     -162.61542990


--------------------------------------------------------------------------------------------------------




--------------------------------------- Iteration      1(  16)  ---------------------------------------


    POTLOK:  cpu time      0.0881: real time      0.0888
    SETDIJ:  cpu time      0.0224: real time      0.0225
     EDDAV:  cpu time     18.5925: real time     18.7359
       DOS:  cpu time      0.0029: real time      0.0029
    CHARGE:  cpu time      0.7574: real time      0.7608
    MIXING:  cpu time      0.0086: real time      0.0086
    --------------------------------------------
      LOOP:  cpu time     19.4719: real time     19.6195

 eigenvalue-minimisations  :  5136
 total energy-change (2. order) :-0.2656087E+01  (-0.1867503E+00)
 number of electron     528.0007393 magnetization       3.1015251
 augmentation part      337.1772388 magnetization       0.9474439

 Broyden mixing:
  rms(total) = 0.12252E+00    rms(broyden)= 0.12239E+00
  rms(prec ) = 0.12998E+00
  weight for this iteration     100.00

 eigenvalues of (default mixing * dielectric matrix)
  average eigenvalue GAMMA=   1.7689
 10.5742  2.7982  0.9825  0.9825  1.0031  0.7545  0.7545  0.5752  0.4051  0.3490
  0.2785

 Free energy of the ion-electron system (eV)
  ---------------------------------------------------
  alpha Z        PSCENC =      1327.86869847
  Ewald energy   TEWEN  =    241977.47459993
  -Hartree energ DENC   =   -306433.57159539
  -exchange      EXHF   =         0.00000000
  -V(xc)+E(xc)   XCENC  =      2141.23312467
  PAW double counting   =     62442.84685152   -67599.66381313
  entropy T*S    EENTRO =        -0.05579305
  eigenvalues    EBANDS =      -787.38171652
  atomic energy  EATOM  =     66765.96672959
  Solvation  Ediel_sol  =         0.00000000
  ---------------------------------------------------
  free energy    TOTEN  =      -165.28291390 eV

  energy without entropy =     -165.22712085  energy(sigma->0) =     -165.26431622


--------------------------------------------------------------------------------------------------------




--------------------------------------- Iteration      1(  17)  ---------------------------------------


    POTLOK:  cpu time      0.0849: real time      0.0858
    SETDIJ:  cpu time      0.0173: real time      0.0174
     EDDAV:  cpu time     18.3284: real time     18.4679
       DOS:  cpu time      0.0029: real time      0.0029
    CHARGE:  cpu time      0.7402: real time      0.7439
    MIXING:  cpu time      0.0083: real time      0.0083
    --------------------------------------------
      LOOP:  cpu time     19.1821: real time     19.3262

 eigenvalue-minimisations  :  5056
 total energy-change (2. order) :-0.1206792E+01  (-0.8057462E-01)
 number of electron     528.0007394 magnetization       2.3384809
 augmentation part      337.2500994 magnetization       0.8590932

 Broyden mixing:
  rms(total) = 0.11070E+00    rms(broyden)= 0.11063E+00
  rms(prec ) = 0.11756E+00
  weight for this iteration     100.00

 eigenvalues of (default mixing * dielectric matrix)
  average eigenvalue GAMMA=   1.8036
 11.2300  3.2026  1.6130  1.0077  1.0077  0.7351  0.7351  0.6413  0.2787  0.3486
  0.4011  0.4422

 Free energy of the ion-electron system (eV)
  ---------------------------------------------------
  alpha Z        PSCENC =      1327.86869847
  Ewald energy   TEWEN  =    241977.47459993
  -Hartree energ DENC   =   -306394.90308481
  -exchange      EXHF   =         0.00000000
  -V(xc)+E(xc)   XCENC  =      2140.50584284
  PAW double counting   =     62393.46600394   -67548.16665761
  entropy T*S    EENTRO =        -0.07703750
  eigenvalues    EBANDS =      -828.62480097
  atomic energy  EATOM  =     66765.96672959
  Solvation  Ediel_sol  =         0.00000000
  ---------------------------------------------------
  free energy    TOTEN  =      -166.48970612 eV

  energy without entropy =     -166.41266861  energy(sigma->0) =     -166.46402695


--------------------------------------------------------------------------------------------------------




--------------------------------------- Iteration      1(  18)  ---------------------------------------


    POTLOK:  cpu time      0.0909: real time      0.0927
    SETDIJ:  cpu time      0.0215: real time      0.0216
     EDDAV:  cpu time     19.4379: real time     19.5878
       DOS:  cpu time      0.0030: real time      0.0031
    CHARGE:  cpu time      0.7441: real time      0.7478
    MIXING:  cpu time      0.0139: real time      0.0140
    --------------------------------------------
      LOOP:  cpu time     20.3113: real time     20.4669

 eigenvalue-minimisations  :  5436
 total energy-change (2. order) :-0.4241032E+00  (-0.4062168E-01)
 number of electron     528.0007391 magnetization       1.7588216
 augmentation part      337.2022880 magnetization       0.8992476

 Broyden mixing:
  rms(total) = 0.78360E-01    rms(broyden)= 0.78301E-01
  rms(prec ) = 0.86159E-01
  weight for this iteration     100.00

 eigenvalues of (default mixing * dielectric matrix)
  average eigenvalue GAMMA=   1.8244
 11.8358  3.2446  2.2578  0.9627  0.9627  1.0139  0.7001  0.6757  0.6757  0.2784
  0.4046  0.3471  0.3578

 Free energy of the ion-electron system (eV)
  ---------------------------------------------------
  alpha Z        PSCENC =      1327.86869847
  Ewald energy   TEWEN  =    241977.47459993
  -Hartree energ DENC   =   -306354.35763695
  -exchange      EXHF   =         0.00000000
  -V(xc)+E(xc)   XCENC  =      2140.33223987
  PAW double counting   =     62414.27480045   -67572.96050241
  entropy T*S    EENTRO =        -0.09022372
  eigenvalues    EBANDS =      -865.42251457
  atomic energy  EATOM  =     66765.96672959
  Solvation  Ediel_sol  =         0.00000000
  ---------------------------------------------------
  free energy    TOTEN  =      -166.91380933 eV

  energy without entropy =     -166.82358561  energy(sigma->0) =     -166.88373476


--------------------------------------------------------------------------------------------------------




--------------------------------------- Iteration      1(  19)  ---------------------------------------


    POTLOK:  cpu time      0.0854: real time      0.0886
    SETDIJ:  cpu time      0.0173: real time      0.0174
     EDDAV:  cpu time     18.1846: real time     18.3249
       DOS:  cpu time      0.0030: real time      0.0030
    CHARGE:  cpu time      0.7491: real time      0.7523
    MIXING:  cpu time      0.0097: real time      0.0098
    --------------------------------------------
      LOOP:  cpu time     19.0490: real time     19.1959

 eigenvalue-minimisations  :  5016
 total energy-change (2. order) :-0.6687400E+00  (-0.1562047E-01)
 number of electron     528.0007394 magnetization       1.2567978
 augmentation part      337.1953615 magnetization       0.5852843

 Broyden mixing:
  rms(total) = 0.62380E-01    rms(broyden)= 0.62364E-01
  rms(prec ) = 0.71127E-01
  weight for this iteration     100.00

 eigenvalues of (default mixing * dielectric matrix)
  average eigenvalue GAMMA=   1.8421
 12.2302  3.1160  3.1160  1.2438  0.9302  0.9302  0.8598  0.6827  0.6827  0.6134
  0.2783  0.4037  0.3482  0.3543

 Free energy of the ion-electron system (eV)
  ---------------------------------------------------
  alpha Z        PSCENC =      1327.86869847
  Ewald energy   TEWEN  =    241977.47459993
  -Hartree energ DENC   =   -306336.57030712
  -exchange      EXHF   =         0.00000000
  -V(xc)+E(xc)   XCENC  =      2139.42438608
  PAW double counting   =     62503.92065838   -67668.22635051
  entropy T*S    EENTRO =        -0.09515539
  eigenvalues    EBANDS =      -877.34580878
  atomic energy  EATOM  =     66765.96672959
  Solvation  Ediel_sol  =         0.00000000
  ---------------------------------------------------
  free energy    TOTEN  =      -167.58254934 eV

  energy without entropy =     -167.48739396  energy(sigma->0) =     -167.55083088


--------------------------------------------------------------------------------------------------------




--------------------------------------- Iteration      1(  20)  ---------------------------------------


    POTLOK:  cpu time      0.0883: real time      0.0890
    SETDIJ:  cpu time      0.0174: real time      0.0174
     EDDAV:  cpu time     19.5644: real time     19.7137
       DOS:  cpu time      0.0029: real time      0.0029
    CHARGE:  cpu time      0.7556: real time      0.7595
    MIXING:  cpu time      0.0118: real time      0.0118
    --------------------------------------------
      LOOP:  cpu time     20.4402: real time     20.5944

 eigenvalue-minimisations  :  5500
 total energy-change (2. order) :-0.2540233E+00  (-0.7840946E-02)
 number of electron     528.0007392 magnetization       0.9915825
 augmentation part      337.1253834 magnetization       0.6072899

 Broyden mixing:
  rms(total) = 0.45282E-01    rms(broyden)= 0.45269E-01
  rms(prec ) = 0.49325E-01
  weight for this iteration     100.00

 eigenvalues of (default mixing * dielectric matrix)
  average eigenvalue GAMMA=   1.8258
 12.3500  3.3566  3.3566  1.5774  0.8953  0.8953  0.9367  0.7174  0.7174  0.5995
  0.5995  0.2783  0.4045  0.3511  0.3511

 Free energy of the ion-electron system (eV)
  ---------------------------------------------------
  alpha Z        PSCENC =      1327.86869847
  Ewald energy   TEWEN  =    241977.47459993
  -Hartree energ DENC   =   -306307.00536784
  -exchange      EXHF   =         0.00000000
  -V(xc)+E(xc)   XCENC  =      2139.28390851
  PAW double counting   =     62517.17289529   -67684.41644731
  entropy T*S    EENTRO =        -0.09591347
  eigenvalues    EBANDS =      -904.08567583
  atomic energy  EATOM  =     66765.96672959
  Solvation  Ediel_sol  =         0.00000000
  ---------------------------------------------------
  free energy    TOTEN  =      -167.83657265 eV

  energy without entropy =     -167.74065919  energy(sigma->0) =     -167.80460150


--------------------------------------------------------------------------------------------------------




--------------------------------------- Iteration      1(  21)  ---------------------------------------


    POTLOK:  cpu time      0.0854: real time      0.0869
    SETDIJ:  cpu time      0.0173: real time      0.0174
     EDDAV:  cpu time     19.3618: real time     19.5110
       DOS:  cpu time      0.0061: real time      0.0061
    CHARGE:  cpu time      0.7503: real time      0.7535
    MIXING:  cpu time      0.0135: real time      0.0136
    --------------------------------------------
      LOOP:  cpu time     20.2344: real time     20.3884

 eigenvalue-minimisations  :  5428
 total energy-change (2. order) :-0.3203019E+00  (-0.3394607E-02)
 number of electron     528.0007390 magnetization       0.7506836
 augmentation part      337.1023992 magnetization       0.4930980

 Broyden mixing:
  rms(total) = 0.45158E-01    rms(broyden)= 0.45153E-01
  rms(prec ) = 0.49106E-01
  weight for this iteration     100.00

 eigenvalues of (default mixing * dielectric matrix)
  average eigenvalue GAMMA=   1.8209
 12.4513  3.6538  3.6538  1.9116  0.9627  0.9627  0.9318  0.7564  0.7564  0.6281
  0.6281  0.2783  0.4525  0.4040  0.3534  0.3491

 Free energy of the ion-electron system (eV)
  ---------------------------------------------------
  alpha Z        PSCENC =      1327.86869847
  Ewald energy   TEWEN  =    241977.47459993
  -Hartree energ DENC   =   -306287.43439711
  -exchange      EXHF   =         0.00000000
  -V(xc)+E(xc)   XCENC  =      2138.97911493
  PAW double counting   =     62517.57974363   -67685.21245737
  entropy T*S    EENTRO =        -0.09659424
  eigenvalues    EBANDS =      -923.28231237
  atomic energy  EATOM  =     66765.96672959
  Solvation  Ediel_sol  =         0.00000000
  ---------------------------------------------------
  free energy    TOTEN  =      -168.15687454 eV

  energy without entropy =     -168.06028030  energy(sigma->0) =     -168.12467646


--------------------------------------------------------------------------------------------------------




--------------------------------------- Iteration      1(  22)  ---------------------------------------


    POTLOK:  cpu time      0.0876: real time      0.0926
    SETDIJ:  cpu time      0.0173: real time      0.0174
     EDDAV:  cpu time     18.8134: real time     18.9580
       DOS:  cpu time      0.0030: real time      0.0030
    CHARGE:  cpu time      0.7461: real time      0.7496
    MIXING:  cpu time      0.0118: real time      0.0119
    --------------------------------------------
      LOOP:  cpu time     19.6792: real time     19.8325

 eigenvalue-minimisations  :  5236
 total energy-change (2. order) :-0.3887881E+00  (-0.2929341E-02)
 number of electron     528.0007392 magnetization       0.5040000
 augmentation part      337.1866638 magnetization       0.3368488

 Broyden mixing:
  rms(total) = 0.25234E-01    rms(broyden)= 0.25227E-01
  rms(prec ) = 0.26357E-01
[...]
  0.000   0.000   0.013  -0.000   0.000  -0.000  -0.000   0.001  -0.000   0.000  -0.126   0.015  -0.000  -0.024   0.000   0.000
 -0.000   0.029   0.000   0.000   0.000   0.000   0.022   0.000   0.000  -0.000   0.000  -0.000   0.184  -0.000  -0.000  -0.011
  0.000   0.000   0.042  -0.000  -0.000  -0.000  -0.000   0.018   0.000  -0.000   0.162  -0.024  -0.000   0.108  -0.000   0.000
  0.000  -0.000   0.000   0.029  -0.000   0.000  -0.000   0.000   0.022  -0.000  -0.000   0.000  -0.000  -0.000   0.184   0.000
  0.000  -0.017  -0.000  -0.000   0.000  -0.000  -0.001   0.000   0.000   0.000  -0.000   0.000  -0.011   0.000   0.000   0.001
  0.000  -0.000  -0.020   0.000  -0.000  -0.000   0.000  -0.001   0.000   0.000  -0.023   0.003  -0.000  -0.008   0.000  -0.000
  0.000  -0.000  -0.000  -0.017   0.000   0.000  -0.000  -0.000  -0.001  -0.000   0.000   0.000  -0.000   0.000  -0.011  -0.000
 total augmentation occupancy for first ion, spin component:           2
  0.000   0.000   0.000   0.000  -0.000  -0.000   0.000  -0.000   0.000   0.000   0.000  -0.000   0.000  -0.000   0.000  -0.000
  0.000   0.000  -0.000   0.000  -0.000  -0.000   0.000   0.000  -0.000  -0.000   0.000  -0.000   0.000   0.000   0.000  -0.000
  0.000  -0.000  -0.000   0.000   0.000   0.000   0.000  -0.000  -0.000  -0.000   0.000  -0.000  -0.000   0.000   0.000  -0.000
  0.000   0.000   0.000   0.000   0.000   0.000  -0.000   0.000   0.000  -0.000   0.000  -0.000   0.000  -0.000   0.000   0.000
 -0.000  -0.000   0.000   0.000  -0.000   0.000  -0.000   0.000   0.000  -0.000   0.000  -0.000   0.000  -0.000   0.000  -0.000
 -0.000  -0.000   0.000   0.000   0.000  -0.000   0.000   0.000  -0.000   0.000  -0.000  -0.000   0.000   0.000  -0.000  -0.000
  0.000   0.000   0.000  -0.000  -0.000   0.000   0.000   0.000   0.000   0.000  -0.000  -0.000  -0.000   0.000  -0.000  -0.000
 -0.000   0.000  -0.000   0.000   0.000   0.000   0.000   0.000  -0.000   0.000   0.000  -0.000  -0.000   0.000   0.000   0.000
  0.000  -0.000  -0.000   0.000   0.000  -0.000   0.000  -0.000   0.000  -0.000   0.000  -0.000   0.000  -0.000  -0.000  -0.000
  0.000  -0.000  -0.000  -0.000  -0.000   0.000   0.000   0.000  -0.000   0.000  -0.000  -0.000   0.000  -0.000   0.000   0.000
  0.000   0.000   0.000   0.000   0.000  -0.000  -0.000   0.000   0.000  -0.000  -0.000   0.000   0.000   0.000   0.000  -0.000
 -0.000  -0.000  -0.000  -0.000  -0.000  -0.000  -0.000  -0.000  -0.000  -0.000   0.000  -0.000   0.000  -0.000  -0.000   0.000
  0.000   0.000  -0.000   0.000   0.000   0.000  -0.000  -0.000   0.000   0.000   0.000   0.000  -0.000  -0.000   0.000   0.000
 -0.000   0.000   0.000  -0.000  -0.000   0.000   0.000   0.000  -0.000  -0.000   0.000  -0.000  -0.000   0.000  -0.000  -0.000
  0.000   0.000   0.000   0.000   0.000  -0.000  -0.000   0.000  -0.000   0.000   0.000  -0.000   0.000  -0.000  -0.000  -0.000
 -0.000  -0.000  -0.000   0.000  -0.000  -0.000  -0.000   0.000  -0.000   0.000  -0.000   0.000   0.000  -0.000  -0.000  -0.000
  0.000   0.000   0.000  -0.000  -0.000   0.000   0.000  -0.000  -0.000   0.000  -0.000   0.000   0.000  -0.000  -0.000  -0.000
 -0.000   0.000  -0.000  -0.000  -0.000  -0.000  -0.000   0.000  -0.000   0.000   0.000   0.000   0.000  -0.000   0.000   0.000


------------------------ aborting loop because EDIFF is reached ----------------------------------------



 DIPCOR: dipole corrections for dipol
 direction  3 min pos   163,
 dipolmoment           0.000000      0.000000     -0.018715 electrons x Angstroem
 Tr[quadrupol]     -5212.521860

 energy correction for charged system         0.000000 eV
 dipol+quadrupol energy correction            0.000025 eV
 added-field ion interaction          0.000000 eV  (added to PSCEN)

 
  *************** adding dipol energy to TOTEN NOW **************** 
    CHARGE:  cpu time      0.7706: real time      0.7741
    FORLOC:  cpu time      0.0191: real time      0.0192
    FORNL :  cpu time     16.9613: real time     17.0266
    STRESS:  cpu time     14.3692: real time     14.4470
    FORCOR:  cpu time      0.1023: real time      0.1029
    FORHAR:  cpu time      0.0234: real time      0.0235
    MIXING:  cpu time      0.0025: real time      0.0026
    OFIELD:  cpu time      0.0000: real time      0.0000

 ---------------------------------------------------------------------------------------------

         DFTD3 V3.0 Rev 1        
 Edisp (eV)  -18.72209

 E6    (eV) :    -7.4815
 E8    (eV) :   -11.2406
 % E8        : 60.04
    FORVDW:  cpu time      0.2397: real time      0.2407

  FORCE on cell =-STRESS in cart. coord.  units (eV):
  Direction    XX          YY          ZZ          XY          YZ          ZX
  --------------------------------------------------------------------------------------
  Alpha Z  1327.86870  1327.86870  1327.86870
  Ewald  292342.08398292342.08398************    -0.00000     0.00000     0.00000
  Hartree310481.55886310481.55886************    -0.00000    -0.00000    -0.00000
  E(xc)   -3085.53142 -3085.53142 -3089.38292     0.00000    -0.00000    -0.00000
  Local  ************************620631.95080    -0.00000     0.00000     0.00000
  n-local -1037.91312 -1025.33685 -1043.18090     4.64084     0.00000     0.00000
  augment  4541.54560  4541.54560  4546.44240     0.00000    -0.00000    -0.00000
  Kinetic  4304.31755  4317.16860  4323.79983     2.49560    -0.00000    -0.00000
  Fock        0.00000     0.00000     0.00000     0.00000     0.00000     0.00000
  vdW       -22.70990   -22.70990   -16.21187    -0.00000     0.00000     0.00000
  -------------------------------------------------------------------------------------
  Total     -21.29160   -21.29160    -8.35275     0.00000    -0.00000     0.00000
  in kB     -26.88309   -26.88309   -10.54631     0.00000    -0.00000     0.00000
  external pressure =      -21.44 kB  Pullay stress =        0.00 kB


 VOLUME and BASIS-vectors are now :
 -----------------------------------------------------------------------------
  energy-cutoff  :      400.00
  volume of cell :     1268.94
      direct lattice vectors                 reciprocal lattice vectors
     7.260000229  0.000000000  0.000000000     0.137741042  0.000000000  0.000000000
     0.000000000  7.260000229  0.000000000     0.000000000  0.137741042  0.000000000
     0.000000000  0.000000000 24.075000000     0.000000000  0.000000000  0.041536864

  length of vectors
     7.260000229  7.260000229 24.075000000     0.137741042  0.137741042  0.041536864


 FORCES acting on ions
    electron-ion (+dipol)            ewald-force                    non-local-force                 convergence-correction
 -----------------------------------------------------------------------------------------------
   -.121E-12 -.119E-11 0.458E+04   -.356E-06 -.356E-06 -.458E+04   -.132E-22 -.199E-22 -.366E+01   0.538E-10 0.542E-10 0.246E-02
   -.124E-12 0.174E-05 0.458E+04   -.356E-06 0.148E-06 -.458E+04   -.124E-22 0.331E-22 -.366E+01   0.519E-10 -.468E-10 0.246E-02
   0.174E-05 -.335E-12 0.458E+04   0.148E-06 -.356E-06 -.458E+04   -.993E-23 -.132E-22 -.366E+01   -.468E-10 0.539E-10 0.246E-02
   0.174E-05 0.174E-05 0.458E+04   0.148E-06 0.148E-06 -.458E+04   0.662E-23 -.529E-22 -.366E+01   -.450E-10 -.476E-10 0.246E-02
   0.871E-06 0.871E-06 0.458E+04   -.148E-06 -.148E-06 -.458E+04   0.447E-22 0.496E-23 -.366E+01   0.567E-10 0.560E-10 0.246E-02
   0.871E-06 0.261E-05 0.458E+04   -.148E-06 0.356E-06 -.458E+04   0.157E-22 -.141E-22 -.366E+01   0.566E-10 -.446E-10 0.246E-02
   0.261E-05 0.871E-06 0.458E+04   0.356E-06 -.148E-06 -.458E+04   -.132E-22 -.662E-23 -.366E+01   -.465E-10 0.579E-10 0.246E-02
   0.261E-05 0.261E-05 0.458E+04   0.356E-06 0.356E-06 -.458E+04   0.165E-23 0.430E-22 -.366E+01   -.464E-10 -.496E-10 0.246E-02
   -.937E-13 0.847E-06 0.282E+04   -.481E-06 -.195E-06 -.282E+04   -.662E-23 -.728E-22 -.522E+00   0.104E-09 0.985E-10 0.435E-02
   -.704E-13 0.254E-05 0.282E+04   -.481E-06 0.481E-06 -.282E+04   -.199E-22 0.993E-23 -.522E+00   0.103E-09 -.788E-10 0.435E-02
   0.169E-05 0.847E-06 0.282E+04   0.195E-06 -.195E-06 -.282E+04   0.199E-22 0.199E-22 -.522E+00   -.669E-10 0.993E-10 0.435E-02
   0.169E-05 0.254E-05 0.282E+04   0.195E-06 0.481E-06 -.282E+04   0.265E-22 0.265E-22 -.522E+00   -.659E-10 -.795E-10 0.435E-02
   0.847E-06 0.152E-12 0.282E+04   -.195E-06 -.481E-06 -.282E+04   0.662E-23 0.265E-22 -.522E+00   0.997E-10 0.107E-09 0.435E-02
   0.847E-06 0.169E-05 0.282E+04   -.195E-06 0.195E-06 -.282E+04   0.265E-22 0.199E-22 -.522E+00   0.995E-10 -.701E-10 0.435E-02
   0.254E-05 -.403E-12 0.282E+04   0.481E-06 -.481E-06 -.282E+04   -.397E-22 0.199E-22 -.522E+00   -.806E-10 0.106E-09 0.435E-02
   0.254E-05 0.169E-05 0.282E+04   0.481E-06 0.195E-06 -.282E+04   0.265E-22 -.331E-22 -.522E+00   -.804E-10 -.671E-10 0.435E-02
   -.708E-13 0.138E-12 0.950E+03   -.507E-06 -.507E-06 -.950E+03   0.000E+00 0.116E-22 -.214E-01   -.120E-09 -.115E-09 0.180E-02
   -.640E-13 0.169E-05 0.950E+03   -.507E-06 0.210E-06 -.950E+03   -.265E-22 0.298E-22 -.214E-01   -.118E-09 -.205E-09 0.180E-02
   0.169E-05 0.420E-12 0.950E+03   0.210E-06 -.507E-06 -.950E+03   0.132E-22 0.496E-22 -.214E-01   -.201E-09 -.116E-09 0.180E-02
   0.169E-05 0.169E-05 0.950E+03   0.210E-06 0.210E-06 -.950E+03   -.364E-22 -.265E-22 -.214E-01   -.202E-09 -.202E-09 0.180E-02
   0.845E-06 0.845E-06 0.950E+03   -.210E-06 -.210E-06 -.950E+03   -.662E-23 -.265E-22 -.214E-01   0.119E-10 0.939E-11 0.180E-02
   0.845E-06 0.253E-05 0.950E+03   -.210E-06 0.507E-06 -.950E+03   0.132E-22 0.248E-22 -.214E-01   0.127E-10 -.808E-10 0.180E-02
   0.253E-05 0.845E-06 0.950E+03   0.507E-06 -.210E-06 -.950E+03   0.265E-22 0.199E-22 -.214E-01   -.829E-10 0.609E-11 0.180E-02
   0.253E-05 0.253E-05 0.950E+03   0.507E-06 0.507E-06 -.950E+03   0.000E+00 0.331E-22 -.214E-01   -.837E-10 -.784E-10 0.180E-02
   -.725E-13 0.845E-06 -.925E+03   -.507E-06 -.210E-06 0.924E+03   0.132E-21 0.159E-21 -.976E-01   -.676E-10 -.328E-10 0.288E+00
   -.692E-13 0.253E-05 -.925E+03   -.507E-06 0.507E-06 0.924E+03   0.000E+00 -.529E-22 -.976E-01   -.670E-10 -.108E-09 0.288E+00
   0.169E-05 0.845E-06 -.925E+03   0.210E-06 -.210E-06 0.924E+03   -.529E-22 -.159E-21 -.976E-01   -.140E-09 -.300E-10 0.288E+00
   0.169E-05 0.253E-05 -.925E+03   0.210E-06 0.507E-06 0.924E+03   -.238E-21 -.529E-22 -.976E-01   -.141E-09 -.107E-09 0.288E+00
   0.845E-06 -.460E-12 -.925E+03   -.210E-06 -.507E-06 0.924E+03   0.318E-21 -.159E-21 -.976E-01   -.307E-10 -.668E-10 0.288E+00
   0.845E-06 0.169E-05 -.925E+03   -.210E-06 0.210E-06 0.924E+03   0.106E-21 -.106E-21 -.976E-01   -.301E-10 -.139E-09 0.288E+00
   0.253E-05 -.264E-12 -.925E+03   0.507E-06 -.507E-06 0.924E+03   -.212E-21 -.529E-22 -.976E-01   -.110E-09 -.667E-10 0.288E+00
   0.253E-05 0.169E-05 -.925E+03   0.507E-06 0.210E-06 0.924E+03   -.318E-21 -.265E-21 -.976E-01   -.111E-09 -.140E-09 0.288E+00
   -.663E-13 0.104E-12 -.280E+04   -.496E-06 -.496E-06 0.280E+04   -.397E-22 0.926E-22 -.261E-01   0.149E-09 0.147E-09 0.128E+00
   -.625E-13 0.169E-05 -.280E+04   -.496E-06 0.197E-06 0.280E+04   0.000E+00 -.265E-22 -.261E-01   0.149E-09 0.128E-09 0.128E+00
   0.169E-05 -.144E-11 -.280E+04   0.197E-06 -.496E-06 0.280E+04   -.662E-23 0.132E-22 -.261E-01   0.125E-09 0.145E-09 0.128E+00
   0.169E-05 0.169E-05 -.280E+04   0.197E-06 0.197E-06 0.280E+04   0.132E-22 -.132E-22 -.261E-01   0.126E-09 0.128E-09 0.128E+00
   0.843E-06 0.843E-06 -.280E+04   -.197E-06 -.197E-06 0.280E+04   0.000E+00 0.265E-22 -.261E-01   0.153E-10 0.151E-10 0.128E+00
   0.843E-06 0.253E-05 -.280E+04   -.197E-06 0.496E-06 0.280E+04   0.265E-22 -.529E-22 -.261E-01   0.165E-10 -.388E-11 0.128E+00
   0.253E-05 0.843E-06 -.280E+04   0.496E-06 -.197E-06 0.280E+04   0.265E-22 -.265E-22 -.261E-01   -.509E-11 0.176E-10 0.128E+00
   0.253E-05 0.253E-05 -.280E+04   0.496E-06 0.496E-06 0.280E+04   0.331E-22 0.132E-22 -.261E-01   -.625E-11 -.286E-11 0.128E+00
   -.851E-13 0.866E-06 -.462E+04   -.373E-06 -.152E-06 0.462E+04   -.397E-22 -.232E-22 0.387E+01   0.136E-11 -.566E-10 0.756E-02
   -.926E-13 0.260E-05 -.462E+04   -.373E-06 0.373E-06 0.462E+04   0.199E-22 -.331E-23 0.387E+01   0.508E-12 0.711E-10 0.756E-02
   0.173E-05 0.866E-06 -.462E+04   0.152E-06 -.152E-06 0.462E+04   -.910E-23 0.397E-22 0.387E+01   0.124E-09 -.577E-10 0.756E-02
   0.173E-05 0.260E-05 -.462E+04   0.152E-06 0.373E-06 0.462E+04   0.993E-23 -.331E-23 0.387E+01   0.125E-09 0.722E-10 0.756E-02
   0.866E-06 -.117E-11 -.462E+04   -.152E-06 -.373E-06 0.462E+04   -.993E-23 0.265E-22 0.387E+01   -.577E-10 -.802E-12 0.756E-02
   0.866E-06 0.173E-05 -.462E+04   -.152E-06 0.152E-06 0.462E+04   -.199E-22 0.265E-22 0.387E+01   -.582E-10 0.128E-09 0.756E-02
   0.260E-05 -.847E-12 -.462E+04   0.373E-06 -.373E-06 0.462E+04   -.265E-22 -.651E-23 0.387E+01   0.725E-10 -.334E-11 0.756E-02
   0.260E-05 0.173E-05 -.462E+04   0.373E-06 0.152E-06 0.462E+04   -.248E-23 -.993E-23 0.387E+01   0.729E-10 0.128E-09 0.756E-02
 -----------------------------------------------------------------------------------------------
   0.614E-04 0.614E-04 0.770E-01   0.248E-12 -.125E-12 -.136E-10   -.246E-21 -.509E-21 -.363E+01   -.483E-09 -.467E-09 0.346E+01
 
 
 POSITION                                       TOTAL-FORCE (eV/Angst)
 -----------------------------------------------------------------------------------
      0.00000      0.00000      0.00000        -0.000000     -0.000000      0.379299
      0.00000      3.63000      0.00000        -0.000000      0.000000      0.379299
      3.63000      0.00000      0.00000        -0.000000     -0.000000      0.379299
      3.63000      3.63000      0.00000        -0.000000      0.000000      0.379299
      1.81500      1.81500      0.00000         0.000000     -0.000000      0.379299
      1.81500      5.44500      0.00000         0.000000      0.000000      0.379299
      5.44500      1.81500      0.00000         0.000000     -0.000000      0.379299
      5.44500      5.44500      0.00000        -0.000000     -0.000000      0.379299
      0.00000      1.81500      1.81500        -0.000000     -0.000000     -0.383217
      0.00000      5.44500      1.81500        -0.000000      0.000000     -0.383217
      3.63000      1.81500      1.81500        -0.000000     -0.000000     -0.383217
      3.63000      5.44500      1.81500        -0.000000      0.000000     -0.383217
      1.81500      0.00000      1.81500         0.000000      0.000000     -0.383217
      1.81500      3.63000      1.81500         0.000000     -0.000000     -0.383217
      5.44500      0.00000      1.81500        -0.000000     -0.000000     -0.383217
      5.44500      3.63000      1.81500        -0.000000     -0.000000     -0.383217
     -0.00000      0.00000      3.56412         0.000000      0.000000      0.009118
      0.00000      3.63000      3.56412         0.000000      0.000000      0.009118
      3.63000      0.00000      3.56412        -0.000000     -0.000000      0.009118
      3.63000      3.63000      3.56412         0.000000      0.000000      0.009118
      1.81500      1.81500      3.56412         0.000000      0.000000      0.009118
      1.81500      5.44500      3.56412         0.000000     -0.000000      0.009118
      5.44500      1.81500      3.56412        -0.000000      0.000000      0.009118
      5.44500      5.44500      3.56412        -0.000000     -0.000000      0.009118
     -0.00000      1.81500      5.31221        -0.000000      0.000000     -0.006105
      0.00000      5.44500      5.31221        -0.000000      0.000000     -0.006105
      3.63000      1.81500      5.31221         0.000000      0.000000     -0.006105
      3.63000      5.44500      5.31221         0.000000      0.000000     -0.006105
      1.81500      0.00000      5.31221         0.000000     -0.000000     -0.006105
      1.81500      3.63000      5.31221        -0.000000      0.000000     -0.006105
      5.44500     -0.00000      5.31221        -0.000000     -0.000000     -0.006105
      5.44500      3.63000      5.31221         0.000000     -0.000000     -0.006105
     -0.00000     -0.00000      7.06705        -0.000000      0.000000     -0.015953
      0.00000      3.63000      7.06705        -0.000000      0.000000     -0.015953
      3.63000     -0.00000      7.06705         0.000000     -0.000000     -0.015953
      3.63000      3.63000      7.06705         0.000000     -0.000000     -0.015953
      1.81500      1.81500      7.06705        -0.000000      0.000000     -0.015953
      1.81500      5.44500      7.06705         0.000000      0.000000     -0.015953
      5.44500      1.81500      7.06705         0.000000     -0.000000     -0.015953
      5.44500      5.44500      7.06705         0.000000      0.000000     -0.015953
     -0.00000      1.81500      8.78272        -0.000000     -0.000000      0.016858
     -0.00000      5.44500      8.78272         0.000000      0.000000      0.016858
      3.63000      1.81500      8.78272        -0.000000      0.000000      0.016858
      3.63000      5.44500      8.78272        -0.000000      0.000000      0.016858
      1.81500      0.00000      8.78272         0.000000     -0.000000      0.016858
      1.81500      3.63000      8.78272        -0.000000     -0.000000      0.016858
      5.44500      0.00000      8.78272         0.000000      0.000000      0.016858
      5.44500      3.63000      8.78272         0.000000     -0.000000      0.016858
 -----------------------------------------------------------------------------------
    total drift:                                0.000061      0.000061     -0.095181


--------------------------------------------------------------------------------------------------------



  FREE ENERGIE OF THE ION-ELECTRON SYSTEM (eV)
  ---------------------------------------------------
  free  energy   TOTEN  =      -187.86628681 eV

  energy  without entropy=     -187.85345066  energy(sigma->0) =     -187.86200809
 
 d Force = 0.2534194E-03[-0.378E-03, 0.885E-03]  d Energy = 0.4962817E-03-0.243E-03
 d Force = 0.7097850E+02[ 0.710E+02, 0.710E+02]  d Ewald  = 0.7097851E+02-0.133E-04


--------------------------------------------------------------------------------------------------------


    POTLOK:  cpu time      0.1031: real time      0.1038


--------------------------------------------------------------------------------------------------------


 stress matrix after NEB project (eV)
    -21.29160      0.00000      0.00000
      0.00000    -21.29160     -0.00000
      0.00000     -0.00000     -8.35275
  FORCES: max atom, RMS     0.016858    0.010481
  FORCE total and by dimension    0.072615    0.016858
  Stress total and by dimension   31.247923   21.291597


--------------------------------------------------------------------------------------------------------


  
 reached required accuracy - stopping structural energy minimisation
     LOOP+:  cpu time     84.6081: real time     85.1556
    4ORBIT:  cpu time      0.0000: real time      0.0000

 total amount of memory used by VASP MPI-rank0    86137. kBytes
=======================================================================

   base      :      30000. kBytes
   nonl-proj :       5544. kBytes
   fftplans  :       3332. kBytes
   grid      :       7782. kBytes
   one-center:        311. kBytes
   wavefun   :      39168. kBytes
 
  
  
 General timing and accounting informations for this job:
 ========================================================
  
                  Total CPU time used (sec):     3292.248
                            User time (sec):     3224.835
                          System time (sec):       67.414
                         Elapsed time (sec):     3320.982
  
                   Maximum memory used (kb):      356568.
                   Average memory used (kb):          N/A
  
                          Minor page faults:      1543005
                          Major page faults:         6857
                 Voluntary context switches:        35197
