<?xml version="1.0" encoding="ISO-8859-1"?>
<modeling>
 <generator>
  <i name="program" type="string">vasp </i>
  <i name="version" type="string">6.3.2  </i>
  <i name="subversion" type="string">27Jun22 (build Aug 17 2022 15:43:34) complex                          parallel </i>
  <i name="platform" type="string">tv2STDVTST </i>
  <i name="date" type="string">2025 01 21 </i>
  <i name="time" type="string">12:59:57 </i>
 </generator>
 <incar>
  <i type="int" name="ISTART">     0</i>
  <i type="string" name="PREC">Normal</i>
  <i type="int" name="ISPIN">     2</i>
  <i type="int" name="ICHARG">     2</i>
  <i type="int" name="IBRION">     2</i>
  <i name="EDIFF">      0.00020000</i>
  <i name="EDIFFG">     -0.03000000</i>
  <i type="int" name="NSW">   800</i>
  <i type="int" name="ISIF">     2</i>
  <i type="int" name="ISYM">     1</i>
  <i name="ENCUT">    400.00000000</i>
  <i name="POTIM">      0.50000000</i>
  <i type="logical" name="LREAL"> F  </i>
  <i type="int" name="ISMEAR">     1</i>
  <i name="SIGMA">      0.20000000</i>
  <i type="logical" name="LWAVE"> F  </i>
  <i type="logical" name="LCHARG"> F  </i>
  <i type="string" name="GGA">PE</i>
  <i type="int" name="IDIPOL">     3</i>
  <i type="int" name="IVDW">    11</i>
 </incar>
 <primitive_cell>
  <structure name="primitive_cell" >
   <crystal>
    <varray name="basis" >
     <v>       1.81500006      -1.81500006       0.00000000 </v>
     <v>       1.81500006       1.81500006       0.00000000 </v>
     <v>       0.00000000       0.00000000      24.07500000 </v>
    </varray>
    <i name="volume">    158.61694371 </i>
    <varray name="rec_basis" >
     <v>       0.27548209      -0.27548209       0.00000000 </v>
     <v>       0.27548209       0.27548209       0.00000000 </v>
     <v>       0.00000000       0.00000000       0.04153686 </v>
    </varray>
   </crystal>
   <varray name="positions" >
    <v>       0.00000000       0.00000000       0.00000000 </v>
    <v>       0.50000000       0.50000000       0.07538941 </v>
    <v>       0.00000000       0.00000000       0.15077882 </v>
    <v>       0.50000000       0.50000000       0.22616823 </v>
    <v>       0.00000000       0.00000000       0.30155764 </v>
    <v>       0.50000000       0.50000000       0.37694705 </v>
   </varray>
  </structure>
  <varray name="primitive_index" >
   <v type="int" >        1 </v>
   <v type="int" >        9 </v>
   <v type="int" >       17 </v>
   <v type="int" >       25 </v>
   <v type="int" >       33 </v>
   <v type="int" >       41 </v>
  </varray>
 </primitive_cell>
 <kpoints>
  <generation param="Monkhorst-Pack">
   <v type="int" name="divisions">       3        3        1 </v>
   <v name="usershift">      0.00000000       0.00000000       0.00000000 </v>
   <v name="genvec1">      0.33333333       0.00000000       0.00000000 </v>
   <v name="genvec2">      0.00000000       0.33333333       0.00000000 </v>
   <v name="genvec3">      0.00000000       0.00000000       1.00000000 </v>
   <v name="shift">      0.00000000       0.00000000       0.00000000 </v>
  </generation>
  <varray name="kpointlist" >
   <v>       0.00000000       0.00000000       0.00000000 </v>
   <v>       0.33333333       0.00000000       0.00000000 </v>
   <v>       0.33333333       0.33333333       0.00000000 </v>
  </varray>
  <varray name="weights" >
   <v>       0.11111111 </v>
   <v>       0.44444444 </v>
   <v>       0.44444444 </v>
  </varray>
 </kpoints>
 <parameters>
  <separator name="general" >
   <i type="string" name="SYSTEM">unknown system</i>
   <i type="logical" name="LCOMPAT"> F  </i>
  </separator>
  <separator name="electronic" >
   <i type="string" name="PREC">normal</i>
   <i name="ENMAX">    400.00000000</i>
   <i name="ENAUG">    586.98000000</i>
   <i name="EDIFF">      0.00020000</i>
   <i type="int" name="IALGO">    38</i>
   <i type="int" name="IWAVPR">    11</i>
   <i type="int" name="NBANDS">   340</i>
   <i type="int" name="NBANDSLOW">    -1</i>
   <i type="int" name="NBANDSHIGH">    -1</i>
   <i name="NELECT">    528.00000000</i>
   <i type="int" name="TURBO">     0</i>
   <i type="int" name="IRESTART">     0</i>
   <i type="int" name="NREBOOT">     0</i>
   <i type="int" name="NMIN">     0</i>
   <i name="EREF">      0.00000000</i>
   <separator name="electronic smearing" >
    <i type="int" name="ISMEAR">     1</i>
    <i name="SIGMA">      0.20000000</i>
    <i name="KSPACING">      0.50000000</i>
    <i type="logical" name="KGAMMA"> T  </i>
    <i type="logical" name="KBLOWUP"> T  </i>
   </separator>
   <separator name="electronic projectors" >
    <i type="logical" name="LREAL"> F  </i>
    <v name="ROPT">      0.00000000</v>
    <i type="int" name="LMAXPAW">  -100</i>
    <i type="int" name="LMAXMIX">     2</i>
    <i type="logical" name="NLSPLINE"> F  </i>
   </separator>
   <separator name="electronic startup" >
    <i type="int" name="ISTART">     0</i>
    <i type="int" name="ICHARG">     2</i>
    <i type="int" name="INIWAV">     1</i>
   </separator>
   <separator name="electronic spin" >
    <i type="int" name="ISPIN">     2</i>
    <i type="logical" name="LNONCOLLINEAR"> F  </i>
    <v name="MAGMOM">      1.00000000      1.00000000      1.00000000      1.00000000      1.00000000      1.00000000      1.00000000      1.00000000      1.00000000      1.00000000      1.00000000      1.00000000      1.00000000      1.00000000      1.00000000      1.00000000      1.00000000      1.00000000      1.00000000      1.00000000
      1.00000000      1.00000000      1.00000000      1.00000000      1.00000000      1.00000000      1.00000000      1.00000000      1.00000000      1.00000000      1.00000000      1.00000000      1.00000000      1.00000000      1.00000000      1.00000000      1.00000000      1.00000000      1.00000000      1.00000000
      1.00000000      1.00000000      1.00000000      1.00000000      1.00000000      1.00000000      1.00000000      1.00000000</v>
    <i name="NUPDOWN">     -1.00000000</i>
    <i type="logical" name="LSORBIT"> F  </i>
    <v name="SAXIS">      0.00000000      0.00000000      1.00000000</v>
    <i type="logical" name="LSPIRAL"> F  </i>
    <v name="QSPIRAL">      0.00000000      0.00000000      0.00000000</v>
    <i type="logical" name="LZEROZ"> F  </i>
   </separator>
   <separator name="electronic exchange-correlation" >
    <i type="logical" name="LASPH"> F  </i>
    <i type="logical" name="LMETAGGA"> F  </i>
   </separator>
   <separator name="electronic convergence" >
    <i type="int" name="NELM">    60</i>
    <i type="int" name="NELMDL">    -5</i>
    <i type="int" name="NELMIN">     2</i>
    <i name="ENINI">    400.00000000</i>
    <separator name="electronic convergence detail" >
     <i type="logical" name="LDIAG"> T  </i>
     <i type="logical" name="LSUBROT"> F  </i>
     <i name="WEIMIN">      0.00100000</i>
     <i name="EBREAK">      0.00000015</i>
     <i name="DEPER">      0.30000000</i>
     <i type="int" name="NRMM">     4</i>
     <i name="TIME">      0.40000000</i>
    </separator>
   </separator>
   <separator name="electronic mixer" >
    <i name="AMIX">      0.40000000</i>
    <i name="BMIX">      1.00000000</i>
    <i name="AMIN">      0.10000000</i>
    <i name="AMIX_MAG">      1.60000000</i>
    <i name="BMIX_MAG">      1.00000000</i>
    <separator name="electronic mixer details" >
     <i type="int" name="IMIX">     4</i>
     <i type="logical" name="MIXFIRST"> F  </i>
     <i type="int" name="MAXMIX">   -45</i>
     <i name="WC">    100.00000000</i>
     <i type="int" name="INIMIX">     1</i>
     <i type="int" name="MIXPRE">     1</i>
     <i type="int" name="MREMOVE">     5</i>
    </separator>
   </separator>
   <separator name="electronic dipolcorrection" >
    <i type="logical" name="LDIPOL"> F  </i>
    <i type="logical" name="LMONO"> F  </i>
    <i type="int" name="IDIPOL">     3</i>
    <i name="EPSILON">      1.00000000</i>
    <v name="DIPOL">   -100.00000000   -100.00000000   -100.00000000</v>
    <i name="EFIELD">      0.00000000</i>
   </separator>
  </separator>
  <separator name="grids" >
   <i type="int" name="NGX">    36</i>
   <i type="int" name="NGY">    36</i>
   <i type="int" name="NGZ">   120</i>
   <i type="int" name="NGXF">    72</i>
   <i type="int" name="NGYF">    72</i>
   <i type="int" name="NGZF">   240</i>
   <i type="logical" name="ADDGRID"> F  </i>
  </separator>
  <separator name="ionic" >
   <i type="int" name="NSW">   800</i>
   <i type="int" name="IBRION">     2</i>
   <i type="int" name="MDALGO">     0</i>
   <i type="int" name="ISIF">     2</i>
   <i name="PSTRESS">      0.00000000</i>
   <i name="EDIFFG">     -0.03000000</i>
   <i type="int" name="NFREE">     1</i>
   <i name="POTIM">      0.50000000</i>
   <i name="SMASS">     -3.00000000</i>
   <i name="SCALEE">      1.00000000</i>
  </separator>
  <separator name="ionic md" >
   <i name="TEBEG">      0.00010000</i>
   <i name="TEEND">      0.00010000</i>
   <i type="int" name="NBLOCK">     1</i>
   <i type="int" name="KBLOCK">   800</i>
   <i type="int" name="NPACO">   256</i>
   <i name="APACO">     10.00000000</i>
  </separator>
  <separator name="symmetry" >
   <i type="int" name="ISYM">     1</i>
   <i name="SYMPREC">      0.00001000</i>
  </separator>
  <separator name="dos" >
   <i type="int" name="LORBIT">     0</i>
   <v name="RWIGS">     -1.00000000</v>
   <i type="int" name="NEDOS">   301</i>
   <i name="EMIN">     10.00000000</i>
   <i name="EMAX">    -10.00000000</i>
   <i name="EFERMI">      0.00000000</i>
  </separator>
  <separator name="writing" >
   <i type="int" name="NWRITE">     2</i>
   <i type="logical" name="LWAVE"> F  </i>
   <i type="logical" name="LDOWNSAMPLE"> F  </i>
   <i type="logical" name="LCHARG"> F  </i>
   <i type="logical" name="LPARD"> F  </i>
   <i type="logical" name="LVTOT"> F  </i>
   <i type="logical" name="LVHAR"> F  </i>
   <i type="logical" name="LELF"> F  </i>
   <i type="logical" name="LOPTICS"> F  </i>
   <v name="STM">      0.00000000      0.00000000      0.00000000      0.00000000      0.00000000      0.00000000      0.00000000</v>
  </separator>
  <separator name="performance" >
   <i type="int" name="NPAR">     4</i>
   <i type="int" name="NSIM">     4</i>
   <i type="int" name="NBLK">    -1</i>
   <i type="logical" name="LPLANE"> T  </i>
   <i type="logical" name="LSCALAPACK"> T  </i>
   <i type="logical" name="LSCAAWARE"> F  </i>
   <i type="logical" name="LSCALU"> F  </i>
   <i type="logical" name="LASYNC"> F  </i>
   <i type="logical" name="LORBITALREAL"> F  </i>
  </separator>
  <separator name="miscellaneous" >
   <i type="int" name="IDIOT">     3</i>
   <i type="int" name="PHON_NSTRUCT">    -1</i>
   <i type="logical" name="LMUSIC"> F  </i>
   <v name="POMASS">     63.54600000</v>
   <v name="DARWINR">      0.00000000</v>
   <v name="DARWINV">      1.00000000</v>
   <i type="logical" name="LCORR"> T  </i>
  </separator>
  <i type="logical" name="GGA_COMPAT"> T  </i>
  <i type="logical" name="LBERRY"> F  </i>
  <i type="int" name="ICORELEVEL">     0</i>
  <i type="logical" name="LDAU"> F  </i>
  <i type="int" name="I_CONSTRAINED_M">     0</i>
  <separator name="electronic exchange-correlation" >
   <i type="string" name="GGA">PE</i>
   <i type="int" name="VOSKOWN">     0</i>
   <i type="logical" name="LHFCALC"> F  </i>
   <i type="string" name="PRECFOCK"></i>
   <i type="logical" name="LSYMGRAD"> F  </i>
   <i type="logical" name="LHFONE"> F  </i>
   <i type="logical" name="LRHFCALC"> F  </i>
   <i type="logical" name="LTHOMAS"> F  </i>
   <i type="logical" name="LMODELHF"> F  </i>
   <i type="logical" name="LFOCKACE"> F  </i>
   <i name="ENCUT4O">     -1.00000000</i>
   <i type="int" name="EXXOEP">     0</i>
   <i type="int" name="FOURORBIT">     0</i>
   <i name="AEXX">      0.00000000</i>
   <i name="HFALPHA">      0.00000000</i>
   <i name="MCALPHA">      0.00000000</i>
   <i name="ALDAX">      1.00000000</i>
   <i name="AGGAX">      1.00000000</i>
   <i name="ALDAC">      1.00000000</i>
   <i name="AGGAC">      1.00000000</i>
   <i type="int" name="NKREDX">     1</i>
   <i type="int" name="NKREDY">     1</i>
   <i type="int" name="NKREDZ">     1</i>
   <i type="logical" name="SHIFTRED"> F  </i>
   <i type="logical" name="ODDONLY"> F  </i>
   <i type="logical" name="EVENONLY"> F  </i>
   <i type="int" name="LMAXFOCK">     0</i>
   <i type="int" name="NMAXFOCKAE">     0</i>
   <i type="logical" name="LFOCKAEDFT"> F  </i>
   <i name="HFSCREEN">      0.00000000</i>
   <i name="HFSCREENC">      0.00000000</i>
   <i type="int" name="NBANDSGWLOW">     0</i>
  </separator>
  <separator name="vdW DFT" >
   <i type="logical" name="LUSE_VDW"> F  </i>
   <i name="Zab_VDW">     -0.84910000</i>
   <i name="PARAM1">      0.12340000</i>
   <i name="PARAM2">      1.00000000</i>
   <i name="PARAM3">      0.00000000</i>
  </separator>
  <separator name="model GW" >
   <i type="int" name="MODEL_GW">     0</i>
   <i name="MODEL_EPS0">     15.86169438</i>
   <i name="MODEL_ALPHA">      1.00000000</i>
  </separator>
  <separator name="linear response parameters" >
   <i type="logical" name="LEPSILON"> F  </i>
   <i type="logical" name="LRPA"> F  </i>
   <i type="logical" name="LNABLA"> F  </i>
   <i type="logical" name="LVEL"> F  </i>
   <i name="CSHIFT">      0.10000000</i>
   <i name="OMEGAMAX">     -1.00000000</i>
   <i name="DEG_THRESHOLD">      0.00200000</i>
   <i name="RTIME">     -0.10000000</i>
   <i name="WPLASMAI">      0.00000000</i>
   <v name="DFIELD">      0.00000000      0.00000000      0.00000000</v>
   <v name="WPLASMA">      0.00000000      0.00000000      0.00000000      0.00000000      0.00000000      0.00000000      0.00000000      0.00000000      0.00000000</v>
  </separator>
  <separator name="orbital magnetization" >
   <i type="logical" name="NUCIND"> F  </i>
   <v name="MAGPOS">      0.00000000      0.00000000      0.00000000</v>
   <i type="logical" name="LNICSALL"> T  </i>
   <i type="logical" name="ORBITALMAG"> F  </i>
   <i type="logical" name="LMAGBLOCH"> F  </i>
   <i type="logical" name="LCHIMAG"> F  </i>
   <i type="logical" name="LGAUGE"> T  </i>
   <i type="int" name="MAGATOM">     0</i>
   <v name="MAGDIPOL">      0.00000000      0.00000000      0.00000000</v>
   <v name="AVECCONST">      0.00000000      0.00000000      0.00000000</v>
  </separator>
  <separator name="response functions" >
   <i type="logical" name="LFINITE_TEMPERATURE"> F  </i>
   <i type="logical" name="LADDER"> F  </i>
   <i type="logical" name="LRPAFORCE"> F  </i>
   <i type="logical" name="LFXC"> F  </i>
   <i type="logical" name="LHARTREE"> T  </i>
   <i type="int" name="IBSE">     0</i>
   <v type="int" name="KPOINT">    -1     0     0     0</v>
   <i type="logical" name="LTCTC"> F  </i>
   <i type="logical" name="LTCTE"> F  </i>
   <i type="logical" name="LTETE"> F  </i>
   <i type="logical" name="LTRIPLET"> F  </i>
   <i type="logical" name="LFXCEPS"> F  </i>
   <i type="logical" name="LFXHEG"> F  </i>
   <i type="int" name="NATURALO">     2</i>
   <i type="logical" name="LHOLEGF"> F  </i>
   <i type="logical" name="L2ORDER"> F  </i>
   <i type="logical" name="LDMP1"> F  </i>
   <i type="logical" name="LMP2LT"> F  </i>
   <i type="logical" name="LSMP2LT"> F  </i>
   <i type="logical" name="LGWLF"> F  </i>
   <i name="ENCUTGW">     -2.00000000</i>
   <i name="ENCUTGWSOFT">     -2.00000000</i>
   <i name="ENCUTLF">     -1.00000000</i>
   <i type="logical" name="LESF_SPLINES"> F  </i>
   <i type="int" name="LMAXMP2">    -1</i>
   <i name="SCISSOR">      0.00000000</i>
   <i type="int" name="NOMEGA">     0</i>
   <i type="int" name="NOMEGAR">     0</i>
   <i type="int" name="NBANDSGW">    -1</i>
   <i type="int" name="NBANDSO">    -1</i>
   <i type="int" name="NBANDSV">    -1</i>
   <i type="int" name="NELMGW">     1</i>
   <i type="int" name="NELMHF">     1</i>
   <i type="int" name="DIM">     3</i>
   <i type="int" name="IESPILON">     4</i>
   <i type="int" name="ANTIRES">     0</i>
   <i name="OMEGAMAX">    -30.00000000</i>
   <i name="OMEGAMIN">    -30.00000000</i>
   <i name="OMEGATL">   -200.00000000</i>
   <i type="int" name="OMEGAGRID">     0</i>
   <i name="CSHIFT">     -0.10000000</i>
   <i type="logical" name="LSELFENERGY"> F  </i>
   <i type="logical" name="LSPECTRAL"> F  </i>
   <i type="logical" name="LSPECTRALGW"> F  </i>
   <i type="logical" name="LSINGLES"> F  </i>
   <i type="logical" name="LFERMIGW"> F  </i>
   <i type="logical" name="ODDONLYGW"> F  </i>
   <i type="logical" name="EVENONLYGW"> F  </i>
   <i type="int" name="NKREDLFX">     1</i>
   <i type="int" name="NKREDLFY">     1</i>
   <i type="int" name="NKREDLFZ">     1</i>
   <i type="int" name="MAXMEM">  2800</i>
   <i type="int" name="TELESCOPE">     0</i>
   <i type="int" name="NTAUPAR">    -1</i>
   <i type="int" name="NOMEGAPAR">    -1</i>
   <i name="DAMP_NEWTON">      0.80000001</i>
   <i name="LAMBDA">      1.00000000</i>
  </separator>
  <separator name="External order field" >
   <i name="OFIELD_KAPPA">      0.00000000</i>
   <v name="OFIELD_K">      0.00000000      0.00000000      0.00000000</v>
   <i name="OFIELD_Q6_NEAR">      0.00000000</i>
   <i name="OFIELD_Q6_FAR">      0.00000000</i>
   <i name="OFIELD_A">      0.00000000</i>
  </separator>
  <separator name="optional k-points parameters" >
   <i type="int" name="KPOINTS_OPT_MODE">     1</i>
   <i type="logical" name="LKPOINTS_OPT"> F  </i>
  </separator>
 </parameters>
 <atominfo>
  <atoms>      48 </atoms>
  <types>       1 </types>
  <array name="atoms" >
   <dimension dim="1">ion</dimension>
   <field type="string">element</field>
   <field type="int">atomtype</field>
   <set>
    <rc><c>Cu</c><c>   1</c></rc>
    <rc><c>Cu</c><c>   1</c></rc>
    <rc><c>Cu</c><c>   1</c></rc>
    <rc><c>Cu</c><c>   1</c></rc>
    <rc><c>Cu</c><c>   1</c></rc>
    <rc><c>Cu</c><c>   1</c></rc>
    <rc><c>Cu</c><c>   1</c></rc>
    <rc><c>Cu</c><c>   1</c></rc>
    <rc><c>Cu</c><c>   1</c></rc>
    <rc><c>Cu</c><c>   1</c></rc>
    <rc><c>Cu</c><c>   1</c></rc>
    <rc><c>Cu</c><c>   1</c></rc>
    <rc><c>Cu</c><c>   1</c></rc>
    <rc><c>Cu</c><c>   1</c></rc>
    <rc><c>Cu</c><c>   1</c></rc>
    <rc><c>Cu</c><c>   1</c></rc>
    <rc><c>Cu</c><c>   1</c></rc>
    <rc><c>Cu</c><c>   1</c></rc>
    <rc><c>Cu</c><c>   1</c></rc>
    <rc><c>Cu</c><c>   1</c></rc>
    <rc><c>Cu</c><c>   1</c></rc>
    <rc><c>Cu</c><c>   1</c></rc>
    <rc><c>Cu</c><c>   1</c></rc>
    <rc><c>Cu</c><c>   1</c></rc>
    <rc><c>Cu</c><c>   1</c></rc>
    <rc><c>Cu</c><c>   1</c></rc>
    <rc><c>Cu</c><c>   1</c></rc>
    <rc><c>Cu</c><c>   1</c></rc>
    <rc><c>Cu</c><c>   1</c></rc>
    <rc><c>Cu</c><c>   1</c></rc>
    <rc><c>Cu</c><c>   1</c></rc>
    <rc><c>Cu</c><c>   1</c></rc>
    <rc><c>Cu</c><c>   1</c></rc>
    <rc><c>Cu</c><c>   1</c></rc>
    <rc><c>Cu</c><c>   1</c></rc>
    <rc><c>Cu</c><c>   1</c></rc>
    <rc><c>Cu</c><c>   1</c></rc>
    <rc><c>Cu</c><c>   1</c></rc>
    <rc><c>Cu</c><c>   1</c></rc>
    <rc><c>Cu</c><c>   1</c></rc>
    <rc><c>Cu</c><c>   1</c></rc>
    <rc><c>Cu</c><c>   1</c></rc>
    <rc><c>Cu</c><c>   1</c></rc>
    <rc><c>Cu</c><c>   1</c></rc>
    <rc><c>Cu</c><c>   1</c></rc>
    <rc><c>Cu</c><c>   1</c></rc>
    <rc><c>Cu</c><c>   1</c></rc>
    <rc><c>Cu</c><c>   1</c></rc>
   </set>
  </array>
  <array name="atomtypes" >
   <dimension dim="1">type</dimension>
   <field type="int">atomspertype</field>
   <field type="string">element</field>
   <field>mass</field>
   <field>valence</field>
   <field type="string">pseudopotential</field>
   <set>
    <rc><c>  48</c><c>Cu</c><c>     63.54600000</c><c>     11.00000000</c><c>  PAW_PBE Cu 22Jun2005                  </c></rc>
   </set>
  </array>
 </atominfo>
 <structure name="initialpos" >
  <crystal>
   <varray name="basis" >
    <v>       7.26000023       0.00000000       0.00000000 </v>
    <v>       0.00000000       7.26000023       0.00000000 </v>
    <v>       0.00000000       0.00000000      24.07500000 </v>
   </varray>
   <i name="volume">   1268.93555002 </i>
   <varray name="rec_basis" >
    <v>       0.13774104       0.00000000       0.00000000 </v>
    <v>       0.00000000       0.13774104       0.00000000 </v>
    <v>       0.00000000       0.00000000       0.04153686 </v>
   </varray>
  </crystal>
  <varray name="positions" >
   <v>       0.00000000       0.00000000       0.00000000 </v>
   <v>       0.00000000       0.50000000       0.00000000 </v>
   <v>       0.50000000       0.00000000       0.00000000 </v>
   <v>       0.50000000       0.50000000       0.00000000 </v>
   <v>       0.25000000       0.25000000       0.00000000 </v>
   <v>       0.25000000       0.75000000       0.00000000 </v>
   <v>       0.75000000       0.25000000       0.00000000 </v>
   <v>       0.75000000       0.75000000       0.00000000 </v>
   <v>       0.00000000       0.25000000       0.07538941 </v>
   <v>       0.00000000       0.75000000       0.07538941 </v>
   <v>       0.50000000       0.25000000       0.07538941 </v>
   <v>       0.50000000       0.75000000       0.07538941 </v>
   <v>       0.25000000       0.00000000       0.07538941 </v>
   <v>       0.25000000       0.50000000       0.07538941 </v>
   <v>       0.75000000       0.00000000       0.07538941 </v>
   <v>       0.75000000       0.50000000       0.07538941 </v>
   <v>       0.00000000       0.00000000       0.15077882 </v>
   <v>       0.00000000       0.50000000       0.15077882 </v>
   <v>       0.50000000       0.00000000       0.15077882 </v>
   <v>       0.50000000       0.50000000       0.15077882 </v>
   <v>       0.25000000       0.25000000       0.15077882 </v>
   <v>       0.25000000       0.75000000       0.15077882 </v>
   <v>       0.75000000       0.25000000       0.15077882 </v>
   <v>       0.75000000       0.75000000       0.15077882 </v>
   <v>       0.00000000       0.25000000       0.22616823 </v>
   <v>       0.00000000       0.75000000       0.22616823 </v>
   <v>       0.50000000       0.25000000       0.22616823 </v>
   <v>       0.50000000       0.75000000       0.22616823 </v>
   <v>       0.25000000       0.00000000       0.22616823 </v>
   <v>       0.25000000       0.50000000       0.22616823 </v>
   <v>       0.75000000       0.00000000       0.22616823 </v>
   <v>       0.75000000       0.50000000       0.22616823 </v>
   <v>       0.00000000       0.00000000       0.30155764 </v>
   <v>       0.00000000       0.50000000       0.30155764 </v>
   <v>       0.50000000       0.00000000       0.30155764 </v>
   <v>       0.50000000       0.50000000       0.30155764 </v>
   <v>       0.25000000       0.25000000       0.30155764 </v>
   <v>       0.25000000       0.75000000       0.30155764 </v>
   <v>       0.75000000       0.25000000       0.30155764 </v>
   <v>       0.75000000       0.75000000       0.30155764 </v>
   <v>       0.00000000       0.25000000       0.37694705 </v>
   <v>       0.00000000       0.75000000       0.37694705 </v>
   <v>       0.50000000       0.25000000       0.37694705 </v>
   <v>       0.50000000       0.75000000       0.37694705 </v>
   <v>       0.25000000       0.00000000       0.37694705 </v>
   <v>       0.25000000       0.50000000       0.37694705 </v>
   <v>       0.75000000       0.00000000       0.37694705 </v>
   <v>       0.75000000       0.50000000       0.37694705 </v>
  </varray>
  <varray name="selective"  type="logical" >
   <v type="logical" >  F  F  F </v>
   <v type="logical" >  F  F  F </v>
   <v type="logical" >  F  F  F </v>
   <v type="logical" >  F  F  F </v>
   <v type="logical" >  F  F  F </v>
   <v type="logical" >  F  F  F </v>
   <v type="logical" >  F  F  F </v>
   <v type="logical" >  F  F  F </v>
   <v type="logical" >  F  F  F </v>
   <v type="logical" >  F  F  F </v>
   <v type="logical" >  F  F  F </v>
   <v type="logical" >  F  F  F </v>
   <v type="logical" >  F  F  F </v>
   <v type="logical" >  F  F  F </v>
   <v type="logical" >  F  F  F </v>
   <v type="logical" >  F  F  F </v>
   <v type="logical" >  T  T  T </v>
   <v type="logical" >  T  T  T </v>
   <v type="logical" >  T  T  T </v>
   <v type="logical" >  T  T  T </v>
   <v type="logical" >  T  T  T </v>
   <v type="logical" >  T  T  T </v>
   <v type="logical" >  T  T  T </v>
   <v type="logical" >  T  T  T </v>
   <v type="logical" >  T  T  T </v>
   <v type="logical" >  T  T  T </v>
   <v type="logical" >  T  T  T </v>
   <v type="logical" >  T  T  T </v>
   <v type="logical" >  T  T  T </v>
   <v type="logical" >  T  T  T </v>
   <v type="logical" >  T  T  T </v>
   <v type="logical" >  T  T  T </v>
   <v type="logical" >  T  T  T </v>
   <v type="logical" >  T  T  T </v>
   <v type="logical" >  T  T  T </v>
   <v type="logical" >  T  T  T </v>
   <v type="logical" >  T  T  T </v>
   <v type="logical" >  T  T  T </v>
   <v type="logical" >  T  T  T </v>
   <v type="logical" >  T  T  T </v>
   <v type="logical" >  T  T  T </v>
   <v type="logical" >  T  T  T </v>
   <v type="logical" >  T  T  T </v>
   <v type="logical" >  T  T  T </v>
   <v type="logical" >  T  T  T </v>
   <v type="logical" >  T  T  T </v>
   <v type="logical" >  T  T  T </v>
   <v type="logical" >  T  T  T </v>
  </varray>
  <nose>
   <v>      -3.00000000       0.00000000       0.00010000       0.00010000 </v>
  </nose>
 </structure>
 <calculation>
  <scstep>
   <time name="dav">   15.85   15.97</time>
   <time name="total">   15.96   16.08</time>
   <energy>
    <i name="alphaZ">   1327.86869847 </i>
    <i name="ewald"> 241977.47459993 </i>
    <i name="hartreedc">-306897.48512637 </i>
    <i name="XCdc">   2191.67054812 </i>
    <i name="pawpsdc">  58948.67981035 </i>
    <i name="pawaedc"> -64028.20471320 </i>
    <i name="eentropy">      0.00696135 </i>
    <i name="bandstr">   4637.83888617 </i>
    <i name="atom">  66765.96672959 </i>
    <i name="e_fr_energy">   4923.81639442 </i>
    <i name="e_wo_entrp">   4923.80943306 </i>
    <i name="e_0_energy">   4923.81407397 </i>
   </energy>
  </scstep>
  <scstep>
   <time name="dav">   15.70   15.82</time>
   <time name="total">   15.70   15.82</time>
   <energy>
    <i name="e_fr_energy">    602.92284434 </i>
    <i name="e_wo_entrp">    602.91008483 </i>
    <i name="e_0_energy">    602.91859117 </i>
   </energy>
  </scstep>
  <scstep>
   <time name="dav">   15.59   15.71</time>
   <time name="total">   15.60   15.72</time>
   <energy>
    <i name="e_fr_energy">   -145.81641061 </i>
    <i name="e_wo_entrp">   -145.90957770 </i>
    <i name="e_0_energy">   -145.84746631 </i>
   </energy>
  </scstep>
  <scstep>
   <time name="dav">   17.11   17.25</time>
   <time name="total">   17.12   17.25</time>
   <energy>
    <i name="e_fr_energy">   -199.22059392 </i>
    <i name="e_wo_entrp">   -199.34791751 </i>
    <i name="e_0_energy">   -199.26303512 </i>
   </energy>
  </scstep>
  <scstep>
   <time name="dav">   17.11   17.24</time>
   <time name="total">   17.90   18.03</time>
   <energy>
    <i name="e_fr_energy">   -200.50649989 </i>
    <i name="e_wo_entrp">   -200.63377323 </i>
    <i name="e_0_energy">   -200.54892434 </i>
   </energy>
  </scstep>
  <scstep>
   <time name="dav">   16.41   16.54</time>
   <time name="total">   17.27   17.40</time>
   <energy>
    <i name="e_fr_energy">   -163.27310952 </i>
    <i name="e_wo_entrp">   -163.28983635 </i>
    <i name="e_0_energy">   -163.27868513 </i>
   </energy>
  </scstep>
  <scstep>
   <time name="dav">   16.64   16.76</time>
   <time name="total">   17.48   17.61</time>
   <energy>
    <i name="e_fr_energy">   -141.50865961 </i>
    <i name="e_wo_entrp">   -141.46561076 </i>
    <i name="e_0_energy">   -141.49430999 </i>
   </energy>
  </scstep>
  <scstep>
   <time name="dav">   17.66   17.79</time>
   <time name="total">   18.52   18.66</time>
   <energy>
    <i name="e_fr_energy">   -139.08514024 </i>
    <i name="e_wo_entrp">   -139.10409312 </i>
    <i name="e_0_energy">   -139.09145786 </i>
   </energy>
  </scstep>
  <scstep>
   <time name="dav">   20.02   20.17</time>
   <time name="total">   20.87   21.03</time>
   <energy>
    <i name="e_fr_energy">   -136.05494543 </i>
    <i name="e_wo_entrp">   -136.02363770 </i>
    <i name="e_0_energy">   -136.04450952 </i>
   </energy>
  </scstep>
  <scstep>
   <time name="dav">   20.50   20.66</time>
   <time name="total">   21.37   21.53</time>
   <energy>
    <i name="e_fr_energy">   -137.28911942 </i>
    <i name="e_wo_entrp">   -137.31540296 </i>
    <i name="e_0_energy">   -137.29788060 </i>
   </energy>
  </scstep>
  <scstep>
   <time name="dav">   17.66   17.79</time>
   <time name="total">   18.53   18.67</time>
   <energy>
    <i name="e_fr_energy">   -139.27271065 </i>
    <i name="e_wo_entrp">   -139.27981648 </i>
    <i name="e_0_energy">   -139.27507926 </i>
   </energy>
  </scstep>
  <scstep>
   <time name="dav">   20.14   20.30</time>
   <time name="total">   21.00   21.16</time>
   <energy>
    <i name="e_fr_energy">   -142.99532682 </i>
    <i name="e_wo_entrp">   -142.97602787 </i>
    <i name="e_0_energy">   -142.98889383 </i>
   </energy>
  </scstep>
  <scstep>
   <time name="dav">   19.43   19.58</time>
   <time name="total">   20.29   20.44</time>
   <energy>
    <i name="e_fr_energy">   -147.83245464 </i>
    <i name="e_wo_entrp">   -147.79642160 </i>
    <i name="e_0_energy">   -147.82044363 </i>
   </energy>
  </scstep>
  <scstep>
   <time name="dav">   19.49   19.64</time>
   <time name="total">   20.38   20.53</time>
   <energy>
    <i name="e_fr_energy">   -157.31839569 </i>
    <i name="e_wo_entrp">   -157.28065067 </i>
    <i name="e_0_energy">   -157.30581402 </i>
   </energy>
  </scstep>
  <scstep>
   <time name="dav">   17.18   17.32</time>
   <time name="total">   18.04   18.18</time>
   <energy>
    <i name="e_fr_energy">   -162.62682656 </i>
    <i name="e_wo_entrp">   -162.59263658 </i>
    <i name="e_0_energy">   -162.61542990 </i>
   </energy>
  </scstep>
  <scstep>
   <time name="dav">   18.59   18.74</time>
   <time name="total">   19.47   19.62</time>
   <energy>
    <i name="e_fr_energy">   -165.28291390 </i>
    <i name="e_wo_entrp">   -165.22712085 </i>
    <i name="e_0_energy">   -165.26431622 </i>
   </energy>
  </scstep>
  <scstep>
   <time name="dav">   18.33   18.47</time>
   <time name="total">   19.18   19.33</time>
   <energy>
    <i name="e_fr_energy">   -166.48970612 </i>
    <i name="e_wo_entrp">   -166.41266861 </i>
    <i name="e_0_energy">   -166.46402695 </i>
   </energy>
  </scstep>
  <scstep>
   <time name="dav">   19.44   19.59</time>
   <time name="total">   20.31   20.47</time>
   <energy>
    <i name="e_fr_energy">   -166.91380933 </i>
    <i name="e_wo_entrp">   -166.82358561 </i>
    <i name="e_0_energy">   -166.88373476 </i>
   </energy>
  </scstep>
  <scstep>
   <time name="dav">   18.18   18.32</time>
   <time name="total">   19.05   19.20</time>
   <energy>
    <i name="e_fr_energy">   -167.58254934 </i>
    <i name="e_wo_entrp">   -167.48739396 </i>
    <i name="e_0_energy">   -167.55083088 </i>
   </energy>
  </scstep>
  <scstep>
   <time name="dav">   19.56   19.71</time>
   <time name="total">   20.44   20.59</time>
   <energy>
    <i name="e_fr_energy">   -167.83657265 </i>
    <i name="e_wo_entrp">   -167.74065919 </i>
    <i name="e_0_energy">   -167.80460150 </i>
   </energy>
  </scstep>
  <scstep>
   <time name="dav">   19.36   19.51</time>
   <time name="total">   20.23   20.39</time>
   <energy>
    <i name="e_fr_energy">   -168.15687454 </i>
    <i name="e_wo_entrp">   -168.06028030 </i>
    <i name="e_0_energy">   -168.12467646 </i>
   </energy>
  </scstep>
  <scstep>
   <time name="dav">   18.81   18.96</time>
   <time name="total">   19.68   19.83</time>
   <energy>
    <i name="e_fr_energy">   -168.54566260 </i>
    <i name="e_wo_entrp">   -168.44867987 </i>
    <i name="e_0_energy">   -168.51333502 </i>
   </energy>
  </scstep>
  <scstep>
   <time name="dav">   17.96   18.10</time>
   <time name="total">   18.82   18.97</time>
   <energy>
    <i name="e_fr_energy">   -168.84786028 </i>
    <i name="e_wo_entrp">   -168.75185543 </i>
    <i name="e_0_energy">   -168.81585866 </i>
   </energy>
  </scstep>
  <scstep>
   <time name="dav">   16.82   16.95</time>
   <time name="total">   17.67   17.81</time>
   <energy>
    <i name="e_fr_energy">   -169.23696417 </i>
    <i name="e_wo_entrp">   -169.13862604 </i>
    <i name="e_0_energy">   -169.20418480 </i>
   </energy>
  </scstep>
  <scstep>
   <time name="dav">   19.24   19.39</time>
   <time name="total">   20.12   20.28</time>
   <energy>
    <i name="e_fr_energy">   -169.28870243 </i>
    <i name="e_wo_entrp">   -169.19273912 </i>
    <i name="e_0_energy">   -169.25671466 </i>
   </energy>
  </scstep>
  <scstep>
   <time name="dav">   16.85   16.98</time>
   <time name="total">   17.71   17.85</time>
   <energy>
    <i name="e_fr_energy">   -169.30658997 </i>
    <i name="e_wo_entrp">   -169.20945392 </i>
    <i name="e_0_energy">   -169.27421128 </i>
   </energy>
  </scstep>
  <scstep>
   <time name="dav">   13.27   13.38</time>
   <time name="total">   14.15   14.25</time>
   <energy>
    <i name="e_fr_energy">   -169.31972173 </i>
    <i name="e_wo_entrp">   -169.22255824 </i>
    <i name="e_0_energy">   -169.28733390 </i>
   </energy>
  </scstep>
  <scstep>
   <time name="dav">   11.89   11.98</time>
   <time name="total">   12.75   12.84</time>
   <energy>
    <i name="e_fr_energy">   -169.32345798 </i>
    <i name="e_wo_entrp">   -169.22635764 </i>
    <i name="e_0_energy">   -169.29109120 </i>
   </energy>
  </scstep>
  <scstep>
   <time name="dav">   11.34   11.42</time>
   <time name="total">   12.21   12.30</time>
   <energy>
    <i name="e_fr_energy">   -169.32389116 </i>
    <i name="e_wo_entrp">   -169.22675264 </i>
    <i name="e_0_energy">   -169.29151166 </i>
   </energy>
  </scstep>
  <scstep>
   <time name="dav">   11.22   11.31</time>
   <time name="total">   11.33   11.42</time>
   <energy>
    <i name="alphaZ">   1327.86869847 </i>
    <i name="ewald"> 241977.47459993 </i>
    <i name="hartreedc">-306228.61753980 </i>
    <i name="XCdc">   2137.70438246 </i>
    <i name="pawpsdc">  62485.97098685 </i>
    <i name="pawaedc"> -67650.21049866 </i>
    <i name="eentropy">     -0.09708813 </i>
    <i name="bandstr">   -985.38430978 </i>
    <i name="atom">  66765.96672959 </i>
    <i name="e_fr_energy">   -169.32403906 </i>
    <i name="e_wo_entrp">   -169.22695093 </i>
    <i name="e_0_energy">   -169.29167635 </i>
   </energy>
  </scstep>
  <dipole>
   <v name="dipole">      0.00000000       0.00000000       0.02115088 </v>
   <i name="Tr[quadrupol]">  -5212.58597341 </i>
   <i name="Echarged">      0.00000000 </i>
   <i name="Edipol_quadrupol">      0.00000000 </i>
   <i name="Eion">      0.00000000 </i>
  </dipole>
  <structure>
   <crystal>
    <varray name="basis" >
     <v>       7.26000023       0.00000000       0.00000000 </v>
     <v>       0.00000000       7.26000023       0.00000000 </v>
     <v>       0.00000000       0.00000000      24.07500000 </v>
    </varray>
    <i name="volume">   1268.93555002 </i>
    <varray name="rec_basis" >
     <v>       0.13774104       0.00000000       0.00000000 </v>
     <v>       0.00000000       0.13774104       0.00000000 </v>
     <v>       0.00000000       0.00000000       0.04153686 </v>
    </varray>
   </crystal>
   <varray name="positions" >
    <v>       0.00000000       0.00000000       0.00000000 </v>
    <v>       0.00000000       0.50000000       0.00000000 </v>
    <v>       0.50000000       0.00000000       0.00000000 </v>
    <v>       0.50000000       0.50000000       0.00000000 </v>
    <v>       0.25000000       0.25000000       0.00000000 </v>
    <v>       0.25000000       0.75000000       0.00000000 </v>
    <v>       0.75000000       0.25000000       0.00000000 </v>
    <v>       0.75000000       0.75000000       0.00000000 </v>
    <v>       0.00000000       0.25000000       0.07538941 </v>
    <v>       0.00000000       0.75000000       0.07538941 </v>
    <v>       0.50000000       0.25000000       0.07538941 </v>
    <v>       0.50000000       0.75000000       0.07538941 </v>
    <v>       0.25000000       0.00000000       0.07538941 </v>
    <v>       0.25000000       0.50000000       0.07538941 </v>
    <v>       0.75000000       0.00000000       0.07538941 </v>
    <v>       0.75000000       0.50000000       0.07538941 </v>
    <v>       0.00000000       0.00000000       0.15077882 </v>
    <v>       0.00000000       0.50000000       0.15077882 </v>
    <v>       0.50000000       0.00000000       0.15077882 </v>
    <v>       0.50000000       0.50000000       0.15077882 </v>
    <v>       0.25000000       0.25000000       0.15077882 </v>
    <v>       0.25000000       0.75000000       0.15077882 </v>
    <v>       0.75000000       0.25000000       0.15077882 </v>
    <v>       0.75000000       0.75000000       0.15077882 </v>
    <v>       0.00000000       0.25000000       0.22616823 </v>
    <v>       0.00000000       0.75000000       0.22616823 </v>
    <v>       0.50000000       0.25000000       0.22616823 </v>
    <v>       0.50000000       0.75000000       0.22616823 </v>
    <v>       0.25000000       0.00000000       0.22616823 </v>
    <v>       0.25000000       0.50000000       0.22616823 </v>
    <v>       0.75000000       0.00000000       0.22616823 </v>
    <v>       0.75000000       0.50000000       0.22616823 </v>
    <v>       0.00000000       0.00000000       0.30155764 </v>
    <v>       0.00000000       0.50000000       0.30155764 </v>
    <v>       0.50000000       0.00000000       0.30155764 </v>
    <v>       0.50000000       0.50000000       0.30155764 </v>
    <v>       0.25000000       0.25000000       0.30155764 </v>
    <v>       0.25000000       0.75000000       0.30155764 </v>
    <v>       0.75000000       0.25000000       0.30155764 </v>
    <v>       0.75000000       0.75000000       0.30155764 </v>
    <v>       0.00000000       0.25000000       0.37694705 </v>
    <v>       0.00000000       0.75000000       0.37694705 </v>
    <v>       0.50000000       0.25000000       0.37694705 </v>
    <v>       0.50000000       0.75000000       0.37694705 </v>
    <v>       0.25000000       0.00000000       0.37694705 </v>
    <v>       0.25000000       0.50000000       0.37694705 </v>
    <v>       0.75000000       0.00000000       0.37694705 </v>
    <v>       0.75000000       0.50000000       0.37694705 </v>
   </varray>
  </structure>
  <varray name="forces" >
   <v>       0.00000000      -0.00000000       0.38478427 </v>
   <v>       0.00000000       0.00000000       0.38478427 </v>
   <v>       0.00000000       0.00000000       0.38478427 </v>
   <v>       0.00000000      -0.00000000       0.38478427 </v>
   <v>       0.00000000       0.00000000       0.38478427 </v>
   <v>       0.00000000      -0.00000000       0.38478427 </v>
   <v>      -0.00000000       0.00000000       0.38478427 </v>
   <v>      -0.00000000      -0.00000000       0.38478427 </v>
   <v>       0.00000000       0.00000000      -0.10541047 </v>
   <v>       0.00000000       0.00000000      -0.10541047 </v>
   <v>      -0.00000000       0.00000000      -0.10541047 </v>
   <v>      -0.00000000       0.00000000      -0.10541047 </v>
   <v>       0.00000000       0.00000000      -0.10541047 </v>
   <v>      -0.00000000       0.00000000      -0.10541047 </v>
   <v>       0.00000000       0.00000000      -0.10541047 </v>
   <v>      -0.00000000      -0.00000000      -0.10541047 </v>
   <v>      -0.00000000      -0.00000000      -0.01889526 </v>
   <v>       0.00000000       0.00000000      -0.01889526 </v>
   <v>       0.00000000      -0.00000000      -0.01889526 </v>
   <v>       0.00000000       0.00000000      -0.01889526 </v>
   <v>      -0.00000000      -0.00000000      -0.01889526 </v>
   <v>      -0.00000000      -0.00000000      -0.01889526 </v>
   <v>       0.00000000      -0.00000000      -0.01889526 </v>
   <v>      -0.00000000      -0.00000000      -0.01889526 </v>
   <v>       0.00000000       0.00000000       0.00528824 </v>
   <v>       0.00000000      -0.00000000       0.00528824 </v>
   <v>      -0.00000000       0.00000000       0.00528824 </v>
   <v>      -0.00000000      -0.00000000       0.00528824 </v>
   <v>       0.00000000       0.00000000       0.00528824 </v>
   <v>       0.00000000      -0.00000000       0.00528824 </v>
   <v>       0.00000000       0.00000000       0.00528824 </v>
   <v>       0.00000000       0.00000000       0.00528824 </v>
   <v>       0.00000000       0.00000000       0.10394394 </v>
   <v>       0.00000000       0.00000000       0.10394394 </v>
   <v>      -0.00000000       0.00000000       0.10394394 </v>
   <v>      -0.00000000      -0.00000000       0.10394394 </v>
   <v>       0.00000000       0.00000000       0.10394394 </v>
   <v>       0.00000000      -0.00000000       0.10394394 </v>
   <v>       0.00000000       0.00000000       0.10394394 </v>
   <v>      -0.00000000      -0.00000000       0.10394394 </v>
   <v>      -0.00000000      -0.00000000      -0.36971072 </v>
   <v>      -0.00000000      -0.00000000      -0.36971072 </v>
   <v>      -0.00000000      -0.00000000      -0.36971072 </v>
   <v>      -0.00000000       0.00000000      -0.36971072 </v>
   <v>      -0.00000000      -0.00000000      -0.36971072 </v>
   <v>      -0.00000000      -0.00000000      -0.36971072 </v>
   <v>       0.00000000      -0.00000000      -0.36971072 </v>
   <v>      -0.00000000       0.00000000      -0.36971072 </v>
  </varray>
  <varray name="stress" >
   <v>     -42.52454565       0.00000000       0.00000000 </v>
   <v>       0.00000000     -42.52454565       0.00000000 </v>
   <v>       0.00000000       0.00000000     -32.53511988 </v>
  </varray>
  <energy>
   <i name="e_fr_energy">   -187.50054379 </i>
   <i name="e_wo_entrp">   -187.40345566 </i>
   <i name="e_0_energy">   -187.46818108 </i>
  </energy>
  <time name="totalsc">  574.37  578.90</time>
 </calculation>
 <calculation>
  <scstep>
   <time name="dav">   16.87   17.60</time>
   <time name="total">   17.75   18.48</time>
   <energy>
    <i name="alphaZ">   1327.86869847 </i>
    <i name="ewald"> 242500.17102213 </i>
    <i name="hartreedc">-306750.27268386 </i>
    <i name="XCdc">   2137.93548033 </i>
    <i name="pawpsdc">  62486.05069257 </i>
    <i name="pawaedc"> -67650.27341387 </i>
    <i name="eentropy">     -0.09071606 </i>
    <i name="bandstr">   -986.68927119 </i>
    <i name="atom">  66765.96672959 </i>
    <i name="e_fr_energy">   -169.33346190 </i>
    <i name="e_wo_entrp">   -169.24274583 </i>
    <i name="e_0_energy">   -169.30322321 </i>
   </energy>
  </scstep>
  <scstep>
   <time name="dav">   21.76   22.46</time>
   <time name="total">   22.62   23.32</time>
   <energy>
    <i name="e_fr_energy">   -169.36286299 </i>
    <i name="e_wo_entrp">   -169.26906625 </i>
    <i name="e_0_energy">   -169.33159741 </i>
   </energy>
  </scstep>
  <scstep>
   <time name="dav">   16.76   16.89</time>
   <time name="total">   17.65   17.78</time>
   <energy>
    <i name="e_fr_energy">   -169.36050126 </i>
    <i name="e_wo_entrp">   -169.26917050 </i>
    <i name="e_0_energy">   -169.33005767 </i>
   </energy>
  </scstep>
  <scstep>
   <time name="dav">   17.49   17.64</time>
   <time name="total">   18.36   18.52</time>
   <energy>
    <i name="e_fr_energy">   -169.36045604 </i>
    <i name="e_wo_entrp">   -169.26881541 </i>
    <i name="e_0_energy">   -169.32990916 </i>
   </energy>
  </scstep>
  <scstep>
   <time name="dav">   15.80   15.96</time>
   <time name="total">   16.66   16.82</time>
   <energy>
    <i name="e_fr_energy">   -169.36041130 </i>
    <i name="e_wo_entrp">   -169.26835413 </i>
    <i name="e_0_energy">   -169.32972558 </i>
   </energy>
  </scstep>
  <scstep>
   <time name="dav">   17.23   17.34</time>
   <time name="total">   18.09   18.21</time>
   <energy>
    <i name="e_fr_energy">   -169.36003194 </i>
    <i name="e_wo_entrp">   -169.26841675 </i>
    <i name="e_0_energy">   -169.32949355 </i>
   </energy>
  </scstep>
  <scstep>
   <time name="dav">   16.80   16.91</time>
   <time name="total">   16.92   17.04</time>
   <energy>
    <i name="alphaZ">   1327.86869847 </i>
    <i name="ewald"> 242500.17102213 </i>
    <i name="hartreedc">-306750.27371396 </i>
    <i name="XCdc">   2137.86689919 </i>
    <i name="pawpsdc">  62512.51318451 </i>
    <i name="pawaedc"> -67677.32984762 </i>
    <i name="eentropy">     -0.09169471 </i>
    <i name="bandstr">   -986.05132058 </i>
    <i name="atom">  66765.96672959 </i>
    <i name="e_fr_energy">   -169.36004299 </i>
    <i name="e_wo_entrp">   -169.26834828 </i>
    <i name="e_0_energy">   -169.32947809 </i>
   </energy>
  </scstep>
  <dipole>
   <v name="dipole">      0.00000000       0.00000000       0.00513357 </v>
   <i name="Tr[quadrupol]">  -5212.59163658 </i>
   <i name="Echarged">      0.00000000 </i>
   <i name="Edipol_quadrupol">      0.00000000 </i>
   <i name="Eion">      0.00000000 </i>
  </dipole>
  <structure>
   <crystal>
    <varray name="basis" >
     <v>       7.26000023       0.00000000       0.00000000 </v>
     <v>       0.00000000       7.26000023       0.00000000 </v>
     <v>       0.00000000       0.00000000      24.07500000 </v>
    </varray>
    <i name="volume">   1268.93555002 </i>
    <varray name="rec_basis" >
     <v>       0.13774104       0.00000000       0.00000000 </v>
     <v>       0.00000000       0.13774104       0.00000000 </v>
     <v>       0.00000000       0.00000000       0.04153686 </v>
    </varray>
   </crystal>
   <varray name="positions" >
    <v>       0.00000000       0.00000000       0.00000000 </v>
    <v>       0.00000000       0.50000000       0.00000000 </v>
    <v>       0.50000000       0.00000000       0.00000000 </v>
    <v>       0.50000000       0.50000000       0.00000000 </v>
    <v>       0.25000000       0.25000000       0.00000000 </v>
    <v>       0.25000000       0.75000000       0.00000000 </v>
    <v>       0.75000000       0.25000000       0.00000000 </v>
    <v>       0.75000000       0.75000000       0.00000000 </v>
    <v>       0.00000000       0.25000000       0.07538941 </v>
    <v>       0.00000000       0.75000000       0.07538941 </v>
    <v>       0.50000000       0.25000000       0.07538941 </v>
    <v>       0.50000000       0.75000000       0.07538941 </v>
    <v>       0.25000000       0.00000000       0.07538941 </v>
    <v>       0.25000000       0.50000000       0.07538941 </v>
    <v>       0.75000000       0.00000000       0.07538941 </v>
    <v>       0.75000000       0.50000000       0.07538941 </v>
    <v>      -0.00000000      -0.00000000       0.15074096 </v>
    <v>       0.00000000       0.50000000       0.15074096 </v>
    <v>       0.50000000      -0.00000000       0.15074096 </v>
    <v>       0.50000000       0.50000000       0.15074096 </v>
    <v>       0.25000000       0.25000000       0.15074096 </v>
    <v>       0.25000000       0.75000000       0.15074096 </v>
    <v>       0.75000000       0.25000000       0.15074096 </v>
    <v>       0.75000000       0.75000000       0.15074096 </v>
    <v>       0.00000000       0.25000000       0.22617882 </v>
    <v>       0.00000000       0.75000000       0.22617882 </v>
    <v>       0.50000000       0.25000000       0.22617882 </v>
    <v>       0.50000000       0.75000000       0.22617882 </v>
    <v>       0.25000000       0.00000000       0.22617882 </v>
    <v>       0.25000000       0.50000000       0.22617882 </v>
    <v>       0.75000000       0.00000000       0.22617882 </v>
    <v>       0.75000000       0.50000000       0.22617882 </v>
    <v>       0.00000000       0.00000000       0.30176592 </v>
    <v>       0.00000000       0.50000000       0.30176592 </v>
    <v>       0.50000000       0.00000000       0.30176592 </v>
    <v>       0.50000000       0.50000000       0.30176592 </v>
    <v>       0.25000000       0.25000000       0.30176592 </v>
    <v>       0.25000000       0.75000000       0.30176592 </v>
    <v>       0.75000000       0.25000000       0.30176592 </v>
    <v>       0.75000000       0.75000000       0.30176592 </v>
    <v>      -0.00000000       0.25000000       0.37620620 </v>
    <v>      -0.00000000       0.75000000       0.37620620 </v>
    <v>       0.50000000       0.25000000       0.37620620 </v>
    <v>       0.50000000       0.75000000       0.37620620 </v>
    <v>       0.25000000      -0.00000000       0.37620620 </v>
    <v>       0.25000000       0.50000000       0.37620620 </v>
    <v>       0.75000000      -0.00000000       0.37620620 </v>
    <v>       0.75000000       0.50000000       0.37620620 </v>
   </varray>
  </structure>
  <varray name="forces" >
   <v>       0.00000000       0.00000000       0.38806400 </v>
   <v>      -0.00000000      -0.00000000       0.38806400 </v>
   <v>      -0.00000000      -0.00000000       0.38806400 </v>
   <v>       0.00000000       0.00000000       0.38806400 </v>
   <v>       0.00000000       0.00000000       0.38806400 </v>
   <v>       0.00000000      -0.00000000       0.38806400 </v>
   <v>      -0.00000000      -0.00000000       0.38806400 </v>
   <v>      -0.00000000       0.00000000       0.38806400 </v>
   <v>      -0.00000000      -0.00000000      -0.10614030 </v>
   <v>      -0.00000000       0.00000000      -0.10614030 </v>
   <v>       0.00000000      -0.00000000      -0.10614030 </v>
   <v>       0.00000000       0.00000000      -0.10614030 </v>
   <v>       0.00000000       0.00000000      -0.10614030 </v>
   <v>       0.00000000       0.00000000      -0.10614030 </v>
   <v>      -0.00000000      -0.00000000      -0.10614030 </v>
   <v>      -0.00000000       0.00000000      -0.10614030 </v>
   <v>      -0.00000000      -0.00000000      -0.00394756 </v>
   <v>      -0.00000000       0.00000000      -0.00394756 </v>
   <v>       0.00000000      -0.00000000      -0.00394756 </v>
   <v>      -0.00000000       0.00000000      -0.00394756 </v>
   <v>      -0.00000000      -0.00000000      -0.00394756 </v>
   <v>      -0.00000000       0.00000000      -0.00394756 </v>
   <v>       0.00000000      -0.00000000      -0.00394756 </v>
   <v>      -0.00000000       0.00000000      -0.00394756 </v>
   <v>      -0.00000000      -0.00000000       0.01045031 </v>
   <v>      -0.00000000       0.00000000       0.01045031 </v>
   <v>      -0.00000000       0.00000000       0.01045031 </v>
   <v>       0.00000000       0.00000000       0.01045031 </v>
   <v>      -0.00000000      -0.00000000       0.01045031 </v>
   <v>      -0.00000000       0.00000000       0.01045031 </v>
   <v>      -0.00000000      -0.00000000       0.01045031 </v>
   <v>       0.00000000       0.00000000       0.01045031 </v>
   <v>      -0.00000000       0.00000000       0.01428963 </v>
   <v>       0.00000000       0.00000000       0.01428963 </v>
   <v>      -0.00000000      -0.00000000       0.01428963 </v>
   <v>      -0.00000000      -0.00000000       0.01428963 </v>
   <v>       0.00000000       0.00000000       0.01428963 </v>
   <v>       0.00000000      -0.00000000       0.01428963 </v>
   <v>       0.00000000       0.00000000       0.01428963 </v>
   <v>       0.00000000      -0.00000000       0.01428963 </v>
   <v>      -0.00000000      -0.00000000      -0.30271608 </v>
   <v>      -0.00000000       0.00000000      -0.30271608 </v>
   <v>       0.00000000      -0.00000000      -0.30271608 </v>
   <v>       0.00000000       0.00000000      -0.30271608 </v>
   <v>      -0.00000000      -0.00000000      -0.30271608 </v>
   <v>      -0.00000000      -0.00000000      -0.30271608 </v>
   <v>      -0.00000000      -0.00000000      -0.30271608 </v>
   <v>       0.00000000       0.00000000      -0.30271608 </v>
  </varray>
  <varray name="stress" >
   <v>     -42.70109827       0.00000000      -0.00000000 </v>
   <v>       0.00000000     -42.70109827       0.00000000 </v>
   <v>       0.00000000       0.00000000     -32.52991394 </v>
  </varray>
  <energy>
   <i name="e_fr_energy">   -187.55302185 </i>
   <i name="e_wo_entrp">   -187.46132715 </i>
   <i name="e_0_energy">   -187.52245695 </i>
  </energy>
  <time name="totalsc">  162.71  165.07</time>
 </calculation>
 <calculation>
  <scstep>
   <time name="dav">   16.47   16.59</time>
   <time name="total">   17.33   17.45</time>
   <energy>
    <i name="alphaZ">   1327.86869847 </i>
    <i name="ewald"> 244076.60163571 </i>
    <i name="hartreedc">-308321.69218828 </i>
    <i name="XCdc">   2138.62359143 </i>
    <i name="pawpsdc">  62512.59644124 </i>
    <i name="pawaedc"> -67677.36022188 </i>
    <i name="eentropy">     -0.07118228 </i>
    <i name="bandstr">   -991.62568702 </i>
    <i name="atom">  66765.96672959 </i>
    <i name="e_fr_energy">   -169.09218302 </i>
    <i name="e_wo_entrp">   -169.02100074 </i>
    <i name="e_0_energy">   -169.06845559 </i>
   </energy>
  </scstep>
  <scstep>
   <time name="dav">   22.41   22.56</time>
   <time name="total">   23.28   23.44</time>
   <energy>
    <i name="e_fr_energy">   -169.40952189 </i>
    <i name="e_wo_entrp">   -169.32676137 </i>
    <i name="e_0_energy">   -169.38193505 </i>
   </energy>
  </scstep>
  <scstep>
   <time name="dav">   17.82   17.94</time>
   <time name="total">   18.68   18.81</time>
   <energy>
    <i name="e_fr_energy">   -169.37405412 </i>
    <i name="e_wo_entrp">   -169.30078712 </i>
    <i name="e_0_energy">   -169.34963178 </i>
   </energy>
  </scstep>
  <scstep>
   <time name="dav">   17.87   17.99</time>
   <time name="total">   18.73   18.86</time>
   <energy>
    <i name="e_fr_energy">   -169.37371564 </i>
    <i name="e_wo_entrp">   -169.29914646 </i>
    <i name="e_0_energy">   -169.34885925 </i>
   </energy>
  </scstep>
  <scstep>
   <time name="dav">   16.54   16.65</time>
   <time name="total">   17.41   17.53</time>
   <energy>
    <i name="e_fr_energy">   -169.37331935 </i>
    <i name="e_wo_entrp">   -169.29801570 </i>
    <i name="e_0_energy">   -169.34821813 </i>
   </energy>
  </scstep>
  <scstep>
   <time name="dav">   19.25   19.38</time>
   <time name="total">   20.12   20.25</time>
   <energy>
    <i name="e_fr_energy">   -169.36942130 </i>
    <i name="e_wo_entrp">   -169.29633430 </i>
    <i name="e_0_energy">   -169.34505897 </i>
   </energy>
  </scstep>
  <scstep>
   <time name="dav">   19.73   19.86</time>
   <time name="total">   20.59   20.73</time>
   <energy>
    <i name="e_fr_energy">   -169.36900813 </i>
    <i name="e_wo_entrp">   -169.29493169 </i>
    <i name="e_0_energy">   -169.34431599 </i>
   </energy>
  </scstep>
  <scstep>
   <time name="dav">   21.33   21.50</time>
   <time name="total">   22.19   22.37</time>
   <energy>
    <i name="e_fr_energy">   -169.36830199 </i>
    <i name="e_wo_entrp">   -169.29443724 </i>
    <i name="e_0_energy">   -169.34368041 </i>
   </energy>
  </scstep>
  <scstep>
   <time name="dav">   16.47   16.59</time>
   <time name="total">   16.59   16.72</time>
   <energy>
    <i name="alphaZ">   1327.86869847 </i>
    <i name="ewald"> 244076.60163571 </i>
    <i name="hartreedc">-308321.57213521 </i>
    <i name="XCdc">   2138.38247777 </i>
    <i name="pawpsdc">  62603.53928290 </i>
    <i name="pawaedc"> -67770.03266503 </i>
    <i name="eentropy">     -0.07417348 </i>
    <i name="bandstr">   -990.04817319 </i>
    <i name="atom">  66765.96672959 </i>
    <i name="e_fr_energy">   -169.36832247 </i>
    <i name="e_wo_entrp">   -169.29414899 </i>
    <i name="e_0_energy">   -169.34359798 </i>
   </energy>
  </scstep>
  <dipole>
   <v name="dipole">      0.00000000       0.00000000      -0.01064854 </v>
   <i name="Tr[quadrupol]">  -5212.68686720 </i>
   <i name="Echarged">      0.00000000 </i>
   <i name="Edipol_quadrupol">      0.00000000 </i>
   <i name="Eion">      0.00000000 </i>
  </dipole>
  <structure>
   <crystal>
    <varray name="basis" >
     <v>       7.26000023       0.00000000       0.00000000 </v>
     <v>       0.00000000       7.26000023       0.00000000 </v>
     <v>       0.00000000       0.00000000      24.07500000 </v>
    </varray>
    <i name="volume">   1268.93555002 </i>
    <varray name="rec_basis" >
     <v>       0.13774104       0.00000000       0.00000000 </v>
     <v>       0.00000000       0.13774104       0.00000000 </v>
     <v>       0.00000000       0.00000000       0.04153686 </v>
    </varray>
   </crystal>
   <varray name="positions" >
    <v>       0.00000000       0.00000000       0.00000000 </v>
    <v>       0.00000000       0.50000000       0.00000000 </v>
    <v>       0.50000000       0.00000000       0.00000000 </v>
    <v>       0.50000000       0.50000000       0.00000000 </v>
    <v>       0.25000000       0.25000000       0.00000000 </v>
    <v>       0.25000000       0.75000000       0.00000000 </v>
    <v>       0.75000000       0.25000000       0.00000000 </v>
    <v>       0.75000000       0.75000000       0.00000000 </v>
    <v>       0.00000000       0.25000000       0.07538941 </v>
    <v>       0.00000000       0.75000000       0.07538941 </v>
    <v>       0.50000000       0.25000000       0.07538941 </v>
    <v>       0.50000000       0.75000000       0.07538941 </v>
    <v>       0.25000000       0.00000000       0.07538941 </v>
    <v>       0.25000000       0.50000000       0.07538941 </v>
    <v>       0.75000000       0.00000000       0.07538941 </v>
    <v>       0.75000000       0.50000000       0.07538941 </v>
    <v>      -0.00000000      -0.00000000       0.15062737 </v>
    <v>       0.00000000       0.50000000       0.15062737 </v>
    <v>       0.50000000      -0.00000000       0.15062737 </v>
    <v>       0.50000000       0.50000000       0.15062737 </v>
    <v>       0.25000000       0.25000000       0.15062737 </v>
    <v>       0.25000000       0.75000000       0.15062737 </v>
    <v>       0.75000000       0.25000000       0.15062737 </v>
    <v>       0.75000000       0.75000000       0.15062737 </v>
    <v>       0.00000000       0.25000000       0.22621061 </v>
    <v>       0.00000000       0.75000000       0.22621061 </v>
    <v>       0.50000000       0.25000000       0.22621061 </v>
    <v>       0.50000000       0.75000000       0.22621061 </v>
    <v>       0.25000000       0.00000000       0.22621061 </v>
    <v>       0.25000000       0.50000000       0.22621061 </v>
    <v>       0.75000000       0.00000000       0.22621061 </v>
    <v>       0.75000000       0.50000000       0.22621061 </v>
    <v>       0.00000000       0.00000000       0.30239079 </v>
    <v>       0.00000000       0.50000000       0.30239079 </v>
    <v>       0.50000000       0.00000000       0.30239079 </v>
    <v>       0.50000000       0.50000000       0.30239079 </v>
    <v>       0.25000000       0.25000000       0.30239079 </v>
    <v>       0.25000000       0.75000000       0.30239079 </v>
    <v>       0.75000000       0.25000000       0.30239079 </v>
    <v>       0.75000000       0.75000000       0.30239079 </v>
    <v>      -0.00000000       0.25000000       0.37398367 </v>
    <v>      -0.00000000       0.75000000       0.37398367 </v>
    <v>       0.50000000       0.25000000       0.37398367 </v>
    <v>       0.50000000       0.75000000       0.37398367 </v>
    <v>       0.25000000      -0.00000000       0.37398367 </v>
    <v>       0.25000000       0.50000000       0.37398367 </v>
    <v>       0.75000000      -0.00000000       0.37398367 </v>
    <v>       0.75000000       0.50000000       0.37398367 </v>
   </varray>
  </structure>
  <varray name="forces" >
   <v>      -0.00000000      -0.00000000       0.38195242 </v>
   <v>      -0.00000000      -0.00000000       0.38195242 </v>
   <v>      -0.00000000       0.00000000       0.38195242 </v>
   <v>       0.00000000      -0.00000000       0.38195242 </v>
   <v>      -0.00000000      -0.00000000       0.38195242 </v>
   <v>       0.00000000       0.00000000       0.38195242 </v>
   <v>      -0.00000000       0.00000000       0.38195242 </v>
   <v>       0.00000000       0.00000000       0.38195242 </v>
   <v>      -0.00000000      -0.00000000      -0.12450699 </v>
   <v>       0.00000000       0.00000000      -0.12450699 </v>
   <v>      -0.00000000       0.00000000      -0.12450699 </v>
   <v>      -0.00000000       0.00000000      -0.12450699 </v>
   <v>       0.00000000      -0.00000000      -0.12450699 </v>
   <v>      -0.00000000      -0.00000000      -0.12450699 </v>
   <v>      -0.00000000      -0.00000000      -0.12450699 </v>
   <v>      -0.00000000      -0.00000000      -0.12450699 </v>
   <v>       0.00000000       0.00000000       0.01729899 </v>
   <v>       0.00000000      -0.00000000       0.01729899 </v>
   <v>       0.00000000       0.00000000       0.01729899 </v>
   <v>      -0.00000000      -0.00000000       0.01729899 </v>
   <v>       0.00000000       0.00000000       0.01729899 </v>
   <v>      -0.00000000      -0.00000000       0.01729899 </v>
   <v>       0.00000000       0.00000000       0.01729899 </v>
   <v>      -0.00000000      -0.00000000       0.01729899 </v>
   <v>       0.00000000       0.00000000       0.01639216 </v>
   <v>       0.00000000       0.00000000       0.01639216 </v>
   <v>       0.00000000       0.00000000       0.01639216 </v>
   <v>       0.00000000      -0.00000000       0.01639216 </v>
   <v>      -0.00000000       0.00000000       0.01639216 </v>
   <v>      -0.00000000      -0.00000000       0.01639216 </v>
   <v>       0.00000000       0.00000000       0.01639216 </v>
   <v>       0.00000000      -0.00000000       0.01639216 </v>
   <v>      -0.00000000       0.00000000      -0.28058233 </v>
   <v>      -0.00000000      -0.00000000      -0.28058233 </v>
   <v>       0.00000000       0.00000000      -0.28058233 </v>
   <v>       0.00000000      -0.00000000      -0.28058233 </v>
   <v>      -0.00000000       0.00000000      -0.28058233 </v>
   <v>      -0.00000000       0.00000000      -0.28058233 </v>
   <v>       0.00000000       0.00000000      -0.28058233 </v>
   <v>       0.00000000       0.00000000      -0.28058233 </v>
   <v>      -0.00000000      -0.00000000      -0.01055426 </v>
   <v>      -0.00000000       0.00000000      -0.01055426 </v>
   <v>       0.00000000      -0.00000000      -0.01055426 </v>
   <v>       0.00000000       0.00000000      -0.01055426 </v>
   <v>      -0.00000000      -0.00000000      -0.01055426 </v>
   <v>      -0.00000000      -0.00000000      -0.01055426 </v>
   <v>       0.00000000       0.00000000      -0.01055426 </v>
   <v>      -0.00000000       0.00000000      -0.01055426 </v>
  </varray>
  <varray name="stress" >
   <v>     -40.96517236       0.00000000      -0.00000000 </v>
   <v>       0.00000000     -40.96517236       0.00000000 </v>
   <v>       0.00000000       0.00000000     -29.92352194 </v>
  </varray>
  <energy>
   <i name="e_fr_energy">   -187.61128565 </i>
   <i name="e_wo_entrp">   -187.53711218 </i>
   <i name="e_0_energy">   -187.58656116 </i>
  </energy>
  <time name="totalsc">  209.73  211.20</time>
 </calculation>
 <calculation>
  <scstep>
   <time name="dav">   19.03   19.20</time>
   <time name="total">   19.90   20.07</time>
   <energy>
    <i name="alphaZ">   1327.86869847 </i>
    <i name="ewald"> 243786.52855939 </i>
    <i name="hartreedc">-308032.47179388 </i>
    <i name="XCdc">   2138.24026133 </i>
    <i name="pawpsdc">  62603.22962452 </i>
    <i name="pawaedc"> -67769.66082029 </i>
    <i name="eentropy">     -0.07797328 </i>
    <i name="bandstr">   -988.99510810 </i>
    <i name="atom">  66765.96672959 </i>
    <i name="e_fr_energy">   -169.37182225 </i>
    <i name="e_wo_entrp">   -169.29384897 </i>
    <i name="e_0_energy">   -169.34583116 </i>
   </energy>
  </scstep>
  <scstep>
   <time name="dav">   20.46   20.60</time>
   <time name="total">   21.32   21.47</time>
   <energy>
    <i name="e_fr_energy">   -169.38020550 </i>
    <i name="e_wo_entrp">   -169.30337926 </i>
    <i name="e_0_energy">   -169.35459676 </i>
   </energy>
  </scstep>
  <scstep>
   <time name="dav">   18.06   18.21</time>
   <time name="total">   18.91   19.07</time>
   <energy>
    <i name="e_fr_energy">   -169.37993937 </i>
    <i name="e_wo_entrp">   -169.30265007 </i>
    <i name="e_0_energy">   -169.35417627 </i>
   </energy>
  </scstep>
  <scstep>
   <time name="dav">   11.59   11.67</time>
   <time name="total">   11.71   11.79</time>
   <energy>
    <i name="alphaZ">   1327.86869847 </i>
    <i name="ewald"> 243786.52855939 </i>
    <i name="hartreedc">-308031.68247158 </i>
    <i name="XCdc">   2138.24655280 </i>
    <i name="pawpsdc">  62593.93941020 </i>
    <i name="pawaedc"> -67759.99677330 </i>
    <i name="eentropy">     -0.07728074 </i>
    <i name="bandstr">   -990.17330592 </i>
    <i name="atom">  66765.96672959 </i>
    <i name="e_fr_energy">   -169.37988109 </i>
    <i name="e_wo_entrp">   -169.30260035 </i>
    <i name="e_0_energy">   -169.35412085 </i>
   </energy>
  </scstep>
  <dipole>
   <v name="dipole">      0.00000000       0.00000000      -0.01072998 </v>
   <i name="Tr[quadrupol]">  -5212.65461275 </i>
   <i name="Echarged">      0.00000000 </i>
   <i name="Edipol_quadrupol">      0.00000000 </i>
   <i name="Eion">      0.00000000 </i>
  </dipole>
  <structure>
   <crystal>
    <varray name="basis" >
     <v>       7.26000023       0.00000000       0.00000000 </v>
     <v>       0.00000000       7.26000023       0.00000000 </v>
     <v>       0.00000000       0.00000000      24.07500000 </v>
    </varray>
    <i name="volume">   1268.93555002 </i>
    <varray name="rec_basis" >
     <v>       0.13774104       0.00000000       0.00000000 </v>
     <v>       0.00000000       0.13774104       0.00000000 </v>
     <v>       0.00000000       0.00000000       0.04153686 </v>
    </varray>
   </crystal>
   <varray name="positions" >
    <v>       0.00000000       0.00000000       0.00000000 </v>
    <v>       0.00000000       0.50000000       0.00000000 </v>
    <v>       0.50000000       0.00000000       0.00000000 </v>
    <v>       0.50000000       0.50000000       0.00000000 </v>
    <v>       0.25000000       0.25000000       0.00000000 </v>
    <v>       0.25000000       0.75000000       0.00000000 </v>
    <v>       0.75000000       0.25000000       0.00000000 </v>
    <v>       0.75000000       0.75000000       0.00000000 </v>
    <v>       0.00000000       0.25000000       0.07538941 </v>
    <v>       0.00000000       0.75000000       0.07538941 </v>
    <v>       0.50000000       0.25000000       0.07538941 </v>
    <v>       0.50000000       0.75000000       0.07538941 </v>
    <v>       0.25000000       0.00000000       0.07538941 </v>
    <v>       0.25000000       0.50000000       0.07538941 </v>
    <v>       0.75000000       0.00000000       0.07538941 </v>
    <v>       0.75000000       0.50000000       0.07538941 </v>
    <v>      -0.00000000      -0.00000000       0.15064820 </v>
    <v>       0.00000000       0.50000000       0.15064820 </v>
    <v>       0.50000000      -0.00000000       0.15064820 </v>
    <v>       0.50000000       0.50000000       0.15064820 </v>
    <v>       0.25000000       0.25000000       0.15064820 </v>
    <v>       0.25000000       0.75000000       0.15064820 </v>
    <v>       0.75000000       0.25000000       0.15064820 </v>
    <v>       0.75000000       0.75000000       0.15064820 </v>
    <v>       0.00000000       0.25000000       0.22620478 </v>
    <v>       0.00000000       0.75000000       0.22620478 </v>
    <v>       0.50000000       0.25000000       0.22620478 </v>
    <v>       0.50000000       0.75000000       0.22620478 </v>
    <v>       0.25000000       0.00000000       0.22620478 </v>
    <v>       0.25000000       0.50000000       0.22620478 </v>
    <v>       0.75000000       0.00000000       0.22620478 </v>
    <v>       0.75000000       0.50000000       0.22620478 </v>
    <v>       0.00000000       0.00000000       0.30227617 </v>
    <v>       0.00000000       0.50000000       0.30227617 </v>
    <v>       0.50000000       0.00000000       0.30227617 </v>
    <v>       0.50000000       0.50000000       0.30227617 </v>
    <v>       0.25000000       0.25000000       0.30227617 </v>
    <v>       0.25000000       0.75000000       0.30227617 </v>
    <v>       0.75000000       0.25000000       0.30227617 </v>
    <v>       0.75000000       0.75000000       0.30227617 </v>
    <v>      -0.00000000       0.25000000       0.37439134 </v>
    <v>      -0.00000000       0.75000000       0.37439134 </v>
    <v>       0.50000000       0.25000000       0.37439134 </v>
    <v>       0.50000000       0.75000000       0.37439134 </v>
    <v>       0.25000000      -0.00000000       0.37439134 </v>
    <v>       0.25000000       0.50000000       0.37439134 </v>
    <v>       0.75000000      -0.00000000       0.37439134 </v>
    <v>       0.75000000       0.50000000       0.37439134 </v>
   </varray>
  </structure>
  <varray name="forces" >
   <v>       0.00000000      -0.00000000       0.38348505 </v>
   <v>       0.00000000      -0.00000000       0.38348505 </v>
   <v>       0.00000000       0.00000000       0.38348505 </v>
   <v>       0.00000000      -0.00000000       0.38348505 </v>
   <v>       0.00000000      -0.00000000       0.38348505 </v>
   <v>       0.00000000      -0.00000000       0.38348505 </v>
   <v>      -0.00000000       0.00000000       0.38348505 </v>
   <v>      -0.00000000       0.00000000       0.38348505 </v>
   <v>      -0.00000000      -0.00000000      -0.12065671 </v>
   <v>       0.00000000       0.00000000      -0.12065671 </v>
   <v>      -0.00000000      -0.00000000      -0.12065671 </v>
   <v>      -0.00000000       0.00000000      -0.12065671 </v>
   <v>      -0.00000000       0.00000000      -0.12065671 </v>
   <v>      -0.00000000       0.00000000      -0.12065671 </v>
   <v>      -0.00000000       0.00000000      -0.12065671 </v>
   <v>       0.00000000      -0.00000000      -0.12065671 </v>
   <v>      -0.00000000       0.00000000       0.01168717 </v>
   <v>      -0.00000000      -0.00000000       0.01168717 </v>
   <v>       0.00000000       0.00000000       0.01168717 </v>
   <v>       0.00000000      -0.00000000       0.01168717 </v>
   <v>      -0.00000000      -0.00000000       0.01168717 </v>
   <v>      -0.00000000       0.00000000       0.01168717 </v>
   <v>      -0.00000000      -0.00000000       0.01168717 </v>
   <v>       0.00000000      -0.00000000       0.01168717 </v>
   <v>      -0.00000000       0.00000000       0.01581138 </v>
   <v>       0.00000000       0.00000000       0.01581138 </v>
   <v>      -0.00000000      -0.00000000       0.01581138 </v>
   <v>       0.00000000       0.00000000       0.01581138 </v>
   <v>      -0.00000000       0.00000000       0.01581138 </v>
   <v>       0.00000000       0.00000000       0.01581138 </v>
   <v>       0.00000000      -0.00000000       0.01581138 </v>
   <v>      -0.00000000      -0.00000000       0.01581138 </v>
   <v>      -0.00000000      -0.00000000      -0.21434001 </v>
   <v>      -0.00000000      -0.00000000      -0.21434001 </v>
   <v>      -0.00000000      -0.00000000      -0.21434001 </v>
   <v>      -0.00000000       0.00000000      -0.21434001 </v>
   <v>       0.00000000       0.00000000      -0.21434001 </v>
   <v>      -0.00000000      -0.00000000      -0.21434001 </v>
   <v>       0.00000000       0.00000000      -0.21434001 </v>
   <v>       0.00000000      -0.00000000      -0.21434001 </v>
   <v>      -0.00000000      -0.00000000      -0.07598688 </v>
   <v>      -0.00000000       0.00000000      -0.07598688 </v>
   <v>      -0.00000000       0.00000000      -0.07598688 </v>
   <v>       0.00000000       0.00000000      -0.07598688 </v>
   <v>       0.00000000       0.00000000      -0.07598688 </v>
   <v>      -0.00000000       0.00000000      -0.07598688 </v>
   <v>      -0.00000000       0.00000000      -0.07598688 </v>
   <v>      -0.00000000      -0.00000000      -0.07598688 </v>
  </varray>
  <varray name="stress" >
   <v>     -36.18137074       0.00000000       0.00000000 </v>
   <v>       0.00000000     -36.18137074       0.00000000 </v>
   <v>       0.00000000       0.00000000     -25.21476887 </v>
  </varray>
  <energy>
   <i name="e_fr_energy">   -187.61360066 </i>
   <i name="e_wo_entrp">   -187.53631992 </i>
   <i name="e_0_energy">   -187.58784041 </i>
  </energy>
  <time name="totalsc">  106.53  107.26</time>
 </calculation>
 <calculation>
  <scstep>
   <time name="dav">   16.68   16.79</time>
   <time name="total">   17.54   17.66</time>
   <energy>
    <i name="alphaZ">   1327.86869847 </i>
    <i name="ewald"> 244564.91558320 </i>
    <i name="hartreedc">-308809.15664452 </i>
    <i name="XCdc">   2138.42605060 </i>
    <i name="pawpsdc">  62590.00058835 </i>
    <i name="pawaedc"> -67755.91343984 </i>
    <i name="eentropy">     -0.07350183 </i>
    <i name="bandstr">   -991.38693188 </i>
    <i name="atom">  66765.96672959 </i>
    <i name="e_fr_energy">   -169.35286785 </i>
    <i name="e_wo_entrp">   -169.27936603 </i>
    <i name="e_0_energy">   -169.32836724 </i>
   </energy>
  </scstep>
  <scstep>
   <time name="dav">   21.72   21.87</time>
   <time name="total">   22.59   22.74</time>
   <energy>
    <i name="e_fr_energy">   -169.38328103 </i>
    <i name="e_wo_entrp">   -169.30712355 </i>
    <i name="e_0_energy">   -169.35789521 </i>
   </energy>
  </scstep>
  <scstep>
   <time name="dav">   17.64   17.77</time>
   <time name="total">   18.50   18.63</time>
   <energy>
    <i name="e_fr_energy">   -169.38175950 </i>
    <i name="e_wo_entrp">   -169.30728783 </i>
    <i name="e_0_energy">   -169.35693561 </i>
   </energy>
  </scstep>
  <scstep>
   <time name="dav">   17.02   17.14</time>
   <time name="total">   17.89   18.02</time>
   <energy>
    <i name="e_fr_energy">   -169.38162168 </i>
    <i name="e_wo_entrp">   -169.30732308 </i>
    <i name="e_0_energy">   -169.35685548 </i>
   </energy>
  </scstep>
  <scstep>
   <time name="dav">   16.61   16.72</time>
   <time name="total">   17.47   17.58</time>
   <energy>
    <i name="e_fr_energy">   -169.38159787 </i>
    <i name="e_wo_entrp">   -169.30647352 </i>
    <i name="e_0_energy">   -169.35655642 </i>
   </energy>
  </scstep>
  <scstep>
   <time name="dav">   20.32   20.48</time>
   <time name="total">   21.19   21.35</time>
   <energy>
    <i name="e_fr_energy">   -169.38092180 </i>
    <i name="e_wo_entrp">   -169.30613955 </i>
    <i name="e_0_energy">   -169.35599438 </i>
   </energy>
  </scstep>
  <scstep>
   <time name="dav">   14.43   14.53</time>
   <time name="total">   14.53   14.63</time>
   <energy>
    <i name="alphaZ">   1327.86869847 </i>
    <i name="ewald"> 244564.91558320 </i>
    <i name="hartreedc">-308809.31857413 </i>
    <i name="XCdc">   2138.40753065 </i>
    <i name="pawpsdc">  62605.50022800 </i>
    <i name="pawaedc"> -67772.00691081 </i>
    <i name="eentropy">     -0.07456062 </i>
    <i name="bandstr">   -990.63958226 </i>
    <i name="atom">  66765.96672959 </i>
    <i name="e_fr_energy">   -169.38085791 </i>
    <i name="e_wo_entrp">   -169.30629729 </i>
    <i name="e_0_energy">   -169.35600437 </i>
   </energy>
  </scstep>
  <dipole>
   <v name="dipole">      0.00000000       0.00000000      -0.01146493 </v>
   <i name="Tr[quadrupol]">  -5212.66852684 </i>
   <i name="Echarged">      0.00000000 </i>
   <i name="Edipol_quadrupol">      0.00000000 </i>
   <i name="Eion">      0.00000000 </i>
  </dipole>
  <structure>
   <crystal>
    <varray name="basis" >
     <v>       7.26000023       0.00000000       0.00000000 </v>
     <v>       0.00000000       7.26000023       0.00000000 </v>
     <v>       0.00000000       0.00000000      24.07500000 </v>
    </varray>
    <i name="volume">   1268.93555002 </i>
    <varray name="rec_basis" >
     <v>       0.13774104       0.00000000       0.00000000 </v>
     <v>       0.00000000       0.13774104       0.00000000 </v>
     <v>       0.00000000       0.00000000       0.04153686 </v>
    </varray>
   </crystal>
   <varray name="positions" >
    <v>       0.00000000       0.00000000       0.00000000 </v>
    <v>       0.00000000       0.50000000       0.00000000 </v>
    <v>       0.50000000       0.00000000       0.00000000 </v>
    <v>       0.50000000       0.50000000       0.00000000 </v>
    <v>       0.25000000       0.25000000       0.00000000 </v>
    <v>       0.25000000       0.75000000       0.00000000 </v>
    <v>       0.75000000       0.25000000       0.00000000 </v>
    <v>       0.75000000       0.75000000       0.00000000 </v>
    <v>       0.00000000       0.25000000       0.07538941 </v>
    <v>       0.00000000       0.75000000       0.07538941 </v>
    <v>       0.50000000       0.25000000       0.07538941 </v>
    <v>       0.50000000       0.75000000       0.07538941 </v>
    <v>       0.25000000       0.00000000       0.07538941 </v>
    <v>       0.25000000       0.50000000       0.07538941 </v>
    <v>       0.75000000       0.00000000       0.07538941 </v>
    <v>       0.75000000       0.50000000       0.07538941 </v>
    <v>      -0.00000000      -0.00000000       0.15066538 </v>
    <v>       0.00000000       0.50000000       0.15066538 </v>
    <v>       0.50000000      -0.00000000       0.15066538 </v>
    <v>       0.50000000       0.50000000       0.15066538 </v>
    <v>       0.25000000       0.25000000       0.15066538 </v>
    <v>       0.25000000       0.75000000       0.15066538 </v>
    <v>       0.75000000       0.25000000       0.15066538 </v>
    <v>       0.75000000       0.75000000       0.15066538 </v>
    <v>       0.00000000       0.25000000       0.22625695 </v>
    <v>       0.00000000       0.75000000       0.22625695 </v>
    <v>       0.50000000       0.25000000       0.22625695 </v>
    <v>       0.50000000       0.75000000       0.22625695 </v>
    <v>       0.25000000       0.00000000       0.22625695 </v>
    <v>       0.25000000       0.50000000       0.22625695 </v>
    <v>       0.75000000      -0.00000000       0.22625695 </v>
    <v>       0.75000000       0.50000000       0.22625695 </v>
    <v>       0.00000000       0.00000000       0.30173366 </v>
    <v>       0.00000000       0.50000000       0.30173366 </v>
    <v>       0.50000000       0.00000000       0.30173366 </v>
    <v>       0.50000000       0.50000000       0.30173366 </v>
    <v>       0.25000000       0.25000000       0.30173366 </v>
    <v>       0.25000000       0.75000000       0.30173366 </v>
    <v>       0.75000000       0.25000000       0.30173366 </v>
    <v>       0.75000000       0.75000000       0.30173366 </v>
    <v>      -0.00000000       0.25000000       0.37381793 </v>
    <v>      -0.00000000       0.75000000       0.37381793 </v>
    <v>       0.50000000       0.25000000       0.37381793 </v>
    <v>       0.50000000       0.75000000       0.37381793 </v>
    <v>       0.25000000      -0.00000000       0.37381793 </v>
    <v>       0.25000000       0.50000000       0.37381793 </v>
    <v>       0.75000000      -0.00000000       0.37381793 </v>
    <v>       0.75000000       0.50000000       0.37381793 </v>
   </varray>
  </structure>
  <varray name="forces" >
   <v>       0.00000000      -0.00000000       0.38436943 </v>
   <v>       0.00000000       0.00000000       0.38436943 </v>
   <v>       0.00000000       0.00000000       0.38436943 </v>
   <v>       0.00000000      -0.00000000       0.38436943 </v>
   <v>       0.00000000      -0.00000000       0.38436943 </v>
   <v>      -0.00000000      -0.00000000       0.38436943 </v>
   <v>       0.00000000       0.00000000       0.38436943 </v>
   <v>      -0.00000000      -0.00000000       0.38436943 </v>
   <v>       0.00000000      -0.00000000      -0.11715924 </v>
   <v>      -0.00000000       0.00000000      -0.11715924 </v>
   <v>      -0.00000000       0.00000000      -0.11715924 </v>
   <v>      -0.00000000      -0.00000000      -0.11715924 </v>
   <v>      -0.00000000      -0.00000000      -0.11715924 </v>
[...]
       <r>    -9.5884    -0.0000    -0.0000 </r>
       <r>    -9.5153    -0.0000    -0.0000 </r>
       <r>    -9.4421    -0.0000    -0.0000 </r>
       <r>    -9.3689    -0.0000    -0.0000 </r>
       <r>    -9.2958    -0.0000    -0.0000 </r>
       <r>    -9.2226    -0.0000    -0.0000 </r>
       <r>    -9.1495    -0.0000    -0.0000 </r>
       <r>    -9.0763    -0.0000    -0.0000 </r>
       <r>    -9.0031    -0.0000    -0.0000 </r>
       <r>    -8.9300    -0.0000    -0.0000 </r>
       <r>    -8.8568    -0.0001    -0.0000 </r>
       <r>    -8.7837    -0.0006    -0.0001 </r>
       <r>    -8.7105    -0.0031    -0.0003 </r>
       <r>    -8.6373    -0.0103    -0.0010 </r>
       <r>    -8.5642    -0.0220    -0.0026 </r>
       <r>    -8.4910    -0.0189    -0.0040 </r>
       <r>    -8.4179     0.0438    -0.0008 </r>
       <r>    -8.3447     0.1872     0.0129 </r>
       <r>    -8.2715     0.3316     0.0371 </r>
       <r>    -8.1984     0.3612     0.0636 </r>
       <r>    -8.1252     0.3557     0.0896 </r>
       <r>    -8.0521     0.6113     0.1343 </r>
       <r>    -7.9789     1.2047     0.2224 </r>
       <r>    -7.9057     1.6855     0.3458 </r>
       <r>    -7.8326     1.5994     0.4628 </r>
       <r>    -7.7594     1.2127     0.5515 </r>
       <r>    -7.6863     1.1835     0.6381 </r>
       <r>    -7.6131     1.5590     0.7521 </r>
       <r>    -7.5399     1.7112     0.8773 </r>
       <r>    -7.4668     1.3047     0.9728 </r>
       <r>    -7.3936     0.7014     1.0241 </r>
       <r>    -7.3205     0.3106     1.0468 </r>
       <r>    -7.2473     0.1688     1.0592 </r>
       <r>    -7.1741     0.3533     1.0850 </r>
       <r>    -7.1010     1.1693     1.1706 </r>
       <r>    -7.0278     2.4661     1.3510 </r>
       <r>    -6.9547     3.3194     1.5938 </r>
       <r>    -6.8815     3.2262     1.8299 </r>
       <r>    -6.8083     3.1335     2.0591 </r>
       <r>    -6.7352     4.0726     2.3571 </r>
       <r>    -6.6620     5.2300     2.7397 </r>
       <r>    -6.5889     4.8900     3.0974 </r>
       <r>    -6.5157     2.9227     3.3113 </r>
       <r>    -6.4425     0.8363     3.3724 </r>
       <r>    -6.3694    -0.2384     3.3550 </r>
       <r>    -6.2962    -0.3352     3.3305 </r>
       <r>    -6.2231     0.1360     3.3404 </r>
       <r>    -6.1499     0.8797     3.4048 </r>
       <r>    -6.0767     1.6293     3.5240 </r>
       <r>    -6.0036     2.3912     3.6989 </r>
       <r>    -5.9304     3.5900     3.9616 </r>
       <r>    -5.8573     5.2089     4.3426 </r>
       <r>    -5.7841     6.2307     4.7985 </r>
       <r>    -5.7109     5.8429     5.2260 </r>
       <r>    -5.6378     4.5804     5.5611 </r>
       <r>    -5.5646     3.5685     5.8221 </r>
       <r>    -5.4915     3.4085     6.0715 </r>
       <r>    -5.4183     4.0644     6.3688 </r>
       <r>    -5.3451     4.9743     6.7328 </r>
       <r>    -5.2720     5.2671     7.1181 </r>
       <r>    -5.1988     4.5043     7.4476 </r>
       <r>    -5.1257     3.0613     7.6716 </r>
       <r>    -5.0525     1.6667     7.7935 </r>
       <r>    -4.9793     1.0361     7.8693 </r>
       <r>    -4.9062     1.8657     8.0058 </r>
       <r>    -4.8330     4.5524     8.3389 </r>
       <r>    -4.7599     8.4826     8.9595 </r>
       <r>    -4.6867    11.5539     9.8048 </r>
       <r>    -4.6135    11.4091    10.6395 </r>
       <r>    -4.5404     8.2358    11.2420 </r>
       <r>    -4.4672     5.3554    11.6338 </r>
       <r>    -4.3941     5.5953    12.0431 </r>
       <r>    -4.3209     8.0524    12.6323 </r>
       <r>    -4.2477     9.9098    13.3573 </r>
       <r>    -4.1746    10.2376    14.1062 </r>
       <r>    -4.1014    10.2968    14.8596 </r>
       <r>    -4.0283    11.3713    15.6915 </r>
       <r>    -3.9551    14.0546    16.7197 </r>
       <r>    -3.8819    18.7283    18.0899 </r>
       <r>    -3.8088    24.9768    19.9172 </r>
       <r>    -3.7356    30.1930    22.1261 </r>
       <r>    -3.6625    30.6841    24.3710 </r>
       <r>    -3.5893    26.5083    26.3103 </r>
       <r>    -3.5161    23.4274    28.0242 </r>
       <r>    -3.4430    26.7032    29.9779 </r>
       <r>    -3.3698    35.1554    32.5498 </r>
       <r>    -3.2967    44.5854    35.8117 </r>
       <r>    -3.2235    53.0935    39.6960 </r>
       <r>    -3.1503    59.0736    44.0178 </r>
       <r>    -3.0772    58.7105    48.3131 </r>
       <r>    -3.0040    50.5172    52.0089 </r>
       <r>    -2.9309    39.8089    54.9214 </r>
       <r>    -2.8577    34.9039    57.4749 </r>
       <r>    -2.7845    39.0432    60.3313 </r>
       <r>    -2.7114    47.3949    63.7987 </r>
       <r>    -2.6382    52.8038    67.6619 </r>
       <r>    -2.5651    53.7556    71.5946 </r>
       <r>    -2.4919    54.2697    75.5650 </r>
       <r>    -2.4187    56.9807    79.7337 </r>
       <r>    -2.3456    60.9056    84.1896 </r>
       <r>    -2.2724    65.6086    88.9895 </r>
       <r>    -2.1993    72.2355    94.2742 </r>
       <r>    -2.1261    79.8182   100.1137 </r>
       <r>    -2.0529    84.9897   106.3316 </r>
       <r>    -1.9798    85.9110   112.6168 </r>
       <r>    -1.9066    83.2337   118.7062 </r>
       <r>    -1.8335    78.0787   124.4184 </r>
       <r>    -1.7603    71.9754   129.6842 </r>
       <r>    -1.6871    67.4071   134.6157 </r>
       <r>    -1.6140    67.0757   139.5229 </r>
       <r>    -1.5408    73.0480   144.8671 </r>
       <r>    -1.4677    84.2529   151.0311 </r>
       <r>    -1.3945    94.3929   157.9368 </r>
       <r>    -1.3213    96.5830   165.0028 </r>
       <r>    -1.2482    91.1503   171.6714 </r>
       <r>    -1.1750    85.6492   177.9375 </r>
       <r>    -1.1019    86.1005   184.2366 </r>
       <r>    -1.0287    91.2609   190.9133 </r>
       <r>    -0.9555    97.4014   198.0391 </r>
       <r>    -0.8824   104.4034   205.6773 </r>
       <r>    -0.8092   113.4993   213.9809 </r>
       <r>    -0.7361   122.1564   222.9179 </r>
       <r>    -0.6629   123.7819   231.9737 </r>
       <r>    -0.5897   111.8860   240.1593 </r>
       <r>    -0.5166    85.7357   246.4318 </r>
       <r>    -0.4434    53.1946   250.3235 </r>
       <r>    -0.3703    26.1613   252.2374 </r>
       <r>    -0.2971    11.3031   253.0644 </r>
       <r>    -0.2239     6.4352   253.5352 </r>
       <r>    -0.1508     6.4978   254.0106 </r>
       <r>    -0.0776     9.5075   254.7061 </r>
       <r>    -0.0045    14.4737   255.7650 </r>
       <r>     0.0687    17.7557   257.0640 </r>
       <r>     0.1419    16.1970   258.2490 </r>
       <r>     0.2150    11.5055   259.0907 </r>
       <r>     0.2882     7.5429   259.6426 </r>
       <r>     0.3613     5.4528   260.0415 </r>
       <r>     0.4345     4.3046   260.3564 </r>
       <r>     0.5077     4.0481   260.6526 </r>
       <r>     0.5808     5.0854   261.0246 </r>
       <r>     0.6540     6.3726   261.4909 </r>
       <r>     0.7271     6.3588   261.9561 </r>
       <r>     0.8003     5.2963   262.3436 </r>
       <r>     0.8735     4.6973   262.6872 </r>
       <r>     0.9466     5.1113   263.0612 </r>
       <r>     1.0198     6.2719   263.5200 </r>
       <r>     1.0929     8.2695   264.1250 </r>
       <r>     1.1661    10.6535   264.9044 </r>
       <r>     1.2393    11.8886   265.7742 </r>
       <r>     1.3124    11.2481   266.5971 </r>
       <r>     1.3856     9.7618   267.3113 </r>
       <r>     1.4587     8.6204   267.9419 </r>
       <r>     1.5319     7.9044   268.5202 </r>
       <r>     1.6051     7.1138   269.0407 </r>
       <r>     1.6782     6.2117   269.4951 </r>
       <r>     1.7514     5.8303   269.9216 </r>
       <r>     1.8245     6.4591   270.3942 </r>
       <r>     1.8977     7.5568   270.9471 </r>
       <r>     1.9709     7.8946   271.5246 </r>
       <r>     2.0440     7.0967   272.0438 </r>
       <r>     2.1172     6.4171   272.5133 </r>
       <r>     2.1903     7.2549   273.0441 </r>
       <r>     2.2635     8.9576   273.6994 </r>
       <r>     2.3367     9.2799   274.3783 </r>
       <r>     2.4098     7.2955   274.9121 </r>
       <r>     2.4830     4.3033   275.2269 </r>
       <r>     2.5561     1.7958   275.3583 </r>
       <r>     2.6293     0.3808   275.3861 </r>
       <r>     2.7025     0.6148   275.4311 </r>
       <r>     2.7756     3.1782   275.6636 </r>
       <r>     2.8488     7.7352   276.2295 </r>
       <r>     2.9219    12.2814   277.1280 </r>
       <r>     2.9951    14.4025   278.1817 </r>
       <r>     3.0683    13.3907   279.1614 </r>
       <r>     3.1414    10.6043   279.9372 </r>
       <r>     3.2146     7.8022   280.5080 </r>
       <r>     3.2877     5.8910   280.9390 </r>
       <r>     3.3609     4.9816   281.3034 </r>
       <r>     3.4341     4.6602   281.6444 </r>
       <r>     3.5072     4.3512   281.9627 </r>
       <r>     3.5804     3.9217   282.2496 </r>
       <r>     3.6535     3.7886   282.5268 </r>
       <r>     3.7267     4.4018   282.8488 </r>
       <r>     3.7999     5.6105   283.2593 </r>
       <r>     3.8730     6.3903   283.7268 </r>
       <r>     3.9462     5.6785   284.1423 </r>
       <r>     4.0193     3.8979   284.4274 </r>
       <r>     4.0925     2.9225   284.6412 </r>
       <r>     4.1657     3.8026   284.9194 </r>
       <r>     4.2388     5.2655   285.3047 </r>
       <r>     4.3120     5.6440   285.7176 </r>
       <r>     4.3851     5.6444   286.1305 </r>
       <r>     4.4583     7.3810   286.6705 </r>
       <r>     4.5315    10.8539   287.4646 </r>
       <r>     4.6046    13.4061   288.4454 </r>
       <r>     4.6778    13.1366   289.4064 </r>
       <r>     4.7509    11.2479   290.2293 </r>
       <r>     4.8241     9.9871   290.9600 </r>
       <r>     4.8973     9.4357   291.6503 </r>
       <r>     4.9704     7.9770   292.2339 </r>
       <r>     5.0436     5.3443   292.6249 </r>
       <r>     5.1167     3.4257   292.8755 </r>
       <r>     5.1899     3.9773   293.1665 </r>
       <r>     5.2631     6.6031   293.6496 </r>
       <r>     5.3362     9.1714   294.3206 </r>
       <r>     5.4094     9.9738   295.0503 </r>
       <r>     5.4825     9.3004   295.7307 </r>
       <r>     5.5557     8.4289   296.3473 </r>
       <r>     5.6289     7.7199   296.9121 </r>
       <r>     5.7020     6.9681   297.4219 </r>
       <r>     5.7752     6.5491   297.9010 </r>
       <r>     5.8483     6.8394   298.4014 </r>
       <r>     5.9215     7.5902   298.9567 </r>
       <r>     5.9947     8.3409   299.5669 </r>
       <r>     6.0678     8.5648   300.1935 </r>
       <r>     6.1410     8.2146   300.7945 </r>
       <r>     6.2141     8.5827   301.4224 </r>
       <r>     6.2873    10.7263   302.2072 </r>
       <r>     6.3605    13.1756   303.1711 </r>
       <r>     6.4336    13.5245   304.1605 </r>
       <r>     6.5068    11.4988   305.0018 </r>
       <r>     6.5799     8.6236   305.6327 </r>
       <r>     6.6531     6.5136   306.1092 </r>
       <r>     6.7263     6.7733   306.6048 </r>
       <r>     6.7994    10.1578   307.3479 </r>
       <r>     6.8726    14.3199   308.3956 </r>
       <r>     6.9457    15.0104   309.4937 </r>
       <r>     7.0189    11.4144   310.3288 </r>
       <r>     7.0921     7.8759   310.9050 </r>
       <r>     7.1652     8.5910   311.5335 </r>
       <r>     7.2384    12.5658   312.4528 </r>
       <r>     7.3115    15.1044   313.5579 </r>
       <r>     7.3847    13.1766   314.5219 </r>
       <r>     7.4579     8.2134   315.1228 </r>
       <r>     7.5310     3.6252   315.3880 </r>
       <r>     7.6042     1.0462   315.4645 </r>
       <r>     7.6773     0.1955   315.4788 </r>
       <r>     7.7505     1.0922   315.5587 </r>
       <r>     7.8237     4.5993   315.8952 </r>
       <r>     7.8968    10.7224   316.6797 </r>
       <r>     7.9700    17.1652   317.9355 </r>
       <r>     8.0431    20.7006   319.4499 </r>
       <r>     8.1163    20.4944   320.9493 </r>
       <r>     8.1895    18.6136   322.3111 </r>
       <r>     8.2626    16.7771   323.5385 </r>
       <r>     8.3358    15.1058   324.6436 </r>
       <r>     8.4089    14.2170   325.6837 </r>
       <r>     8.4821    15.0569   326.7853 </r>
       <r>     8.5553    16.3791   327.9836 </r>
       <r>     8.6284    15.4656   329.1151 </r>
       <r>     8.7016    11.6480   329.9672 </r>
       <r>     8.7747     7.2066   330.4945 </r>
       <r>     8.8479     4.6554   330.8350 </r>
       <r>     8.9211     4.3300   331.1518 </r>
       <r>     8.9942     5.1944   331.5318 </r>
       <r>     9.0674     7.0209   332.0455 </r>
       <r>     9.1405    10.1467   332.7878 </r>
       <r>     9.2137    13.6503   333.7865 </r>
       <r>     9.2869    15.8797   334.9482 </r>
       <r>     9.3600    16.5117   336.1562 </r>
       <r>     9.4332    16.2460   337.3448 </r>
       <r>     9.5063    14.9267   338.4368 </r>
       <r>     9.5795    11.7763   339.2984 </r>
       <r>     9.6527     7.2227   339.8268 </r>
       <r>     9.7258     3.0001   340.0463 </r>
       <r>     9.7990     0.4573   340.0797 </r>
       <r>     9.8721    -0.4104   340.0497 </r>
       <r>     9.9453    -0.3995   340.0205 </r>
       <r>    10.0185    -0.1961   340.0061 </r>
       <r>    10.0916    -0.0651   340.0014 </r>
       <r>    10.1648    -0.0157   340.0002 </r>
       <r>    10.2379    -0.0028   340.0000 </r>
       <r>    10.3111    -0.0004   340.0000 </r>
       <r>    10.3843    -0.0000   340.0000 </r>
       <r>    10.4574    -0.0000   340.0000 </r>
       <r>    10.5306    -0.0000   340.0000 </r>
       <r>    10.6037    -0.0000   340.0000 </r>
       <r>    10.6769    -0.0000   340.0000 </r>
       <r>    10.7501    -0.0000   340.0000 </r>
       <r>    10.8232    -0.0000   340.0000 </r>
       <r>    10.8964    -0.0000   340.0000 </r>
       <r>    10.9695     0.0000   340.0000 </r>
       <r>    11.0427     0.0000   340.0000 </r>
       <r>    11.1159     0.0000   340.0000 </r>
       <r>    11.1890     0.0000   340.0000 </r>
       <r>    11.2622     0.0000   340.0000 </r>
       <r>    11.3353     0.0000   340.0000 </r>
       <r>    11.4085     0.0000   340.0000 </r>
       <r>    11.4817     0.0000   340.0000 </r>
       <r>    11.5548     0.0000   340.0000 </r>
       <r>    11.6280     0.0000   340.0000 </r>
       <r>    11.7011     0.0000   340.0000 </r>
      </set>
     </set>
    </array>
   </total>
  </dos>
 </calculation>
 <structure name="finalpos" >
  <crystal>
   <varray name="basis" >
    <v>       7.26000023       0.00000000       0.00000000 </v>
    <v>       0.00000000       7.26000023       0.00000000 </v>
    <v>       0.00000000       0.00000000      24.07500000 </v>
   </varray>
   <i name="volume">   1268.93555002 </i>
   <varray name="rec_basis" >
    <v>       0.13774104       0.00000000       0.00000000 </v>
    <v>       0.00000000       0.13774104       0.00000000 </v>
    <v>       0.00000000       0.00000000       0.04153686 </v>
   </varray>
  </crystal>
  <varray name="positions" >
   <v>       0.00000000       0.00000000       0.00000000 </v>
   <v>       0.00000000       0.50000000       0.00000000 </v>
   <v>       0.50000000       0.00000000       0.00000000 </v>
   <v>       0.50000000       0.50000000       0.00000000 </v>
   <v>       0.25000000       0.25000000       0.00000000 </v>
   <v>       0.25000000       0.75000000       0.00000000 </v>
   <v>       0.75000000       0.25000000       0.00000000 </v>
   <v>       0.75000000       0.75000000       0.00000000 </v>
   <v>       0.00000000       0.25000000       0.07538941 </v>
   <v>       0.00000000       0.75000000       0.07538941 </v>
   <v>       0.50000000       0.25000000       0.07538941 </v>
   <v>       0.50000000       0.75000000       0.07538941 </v>
   <v>       0.25000000       0.00000000       0.07538941 </v>
   <v>       0.25000000       0.50000000       0.07538941 </v>
   <v>       0.75000000       0.00000000       0.07538941 </v>
   <v>       0.75000000       0.50000000       0.07538941 </v>
   <v>      -0.00000000       0.00000000       0.14804254 </v>
   <v>       0.00000000       0.50000000       0.14804254 </v>
   <v>       0.50000000       0.00000000       0.14804254 </v>
   <v>       0.50000000       0.50000000       0.14804254 </v>
   <v>       0.25000000       0.25000000       0.14804254 </v>
   <v>       0.25000000       0.75000000       0.14804254 </v>
   <v>       0.75000000       0.25000000       0.14804254 </v>
   <v>       0.75000000       0.75000000       0.14804254 </v>
   <v>      -0.00000000       0.25000000       0.22065242 </v>
   <v>       0.00000000       0.75000000       0.22065242 </v>
   <v>       0.50000000       0.25000000       0.22065242 </v>
   <v>       0.50000000       0.75000000       0.22065242 </v>
   <v>       0.25000000       0.00000000       0.22065242 </v>
   <v>       0.25000000       0.50000000       0.22065242 </v>
   <v>       0.75000000      -0.00000000       0.22065242 </v>
   <v>       0.75000000       0.50000000       0.22065242 </v>
   <v>      -0.00000000      -0.00000000       0.29354306 </v>
   <v>       0.00000000       0.50000000       0.29354306 </v>
   <v>       0.50000000      -0.00000000       0.29354306 </v>
   <v>       0.50000000       0.50000000       0.29354306 </v>
   <v>       0.25000000       0.25000000       0.29354306 </v>
   <v>       0.25000000       0.75000000       0.29354306 </v>
   <v>       0.75000000       0.25000000       0.29354306 </v>
   <v>       0.75000000       0.75000000       0.29354306 </v>
   <v>      -0.00000000       0.25000000       0.36480665 </v>
   <v>      -0.00000000       0.75000000       0.36480665 </v>
   <v>       0.50000000       0.25000000       0.36480665 </v>
   <v>       0.50000000       0.75000000       0.36480665 </v>
   <v>       0.25000000       0.00000000       0.36480665 </v>
   <v>       0.25000000       0.50000000       0.36480665 </v>
   <v>       0.75000000       0.00000000       0.36480665 </v>
   <v>       0.75000000       0.50000000       0.36480665 </v>
  </varray>
  <varray name="selective"  type="logical" >
   <v type="logical" >  F  F  F </v>
   <v type="logical" >  F  F  F </v>
   <v type="logical" >  F  F  F </v>
   <v type="logical" >  F  F  F </v>
   <v type="logical" >  F  F  F </v>
   <v type="logical" >  F  F  F </v>
   <v type="logical" >  F  F  F </v>
   <v type="logical" >  F  F  F </v>
   <v type="logical" >  F  F  F </v>
   <v type="logical" >  F  F  F </v>
   <v type="logical" >  F  F  F </v>
   <v type="logical" >  F  F  F </v>
   <v type="logical" >  F  F  F </v>
   <v type="logical" >  F  F  F </v>
   <v type="logical" >  F  F  F </v>
   <v type="logical" >  F  F  F </v>
   <v type="logical" >  T  T  T </v>
   <v type="logical" >  T  T  T </v>
   <v type="logical" >  T  T  T </v>
   <v type="logical" >  T  T  T </v>
   <v type="logical" >  T  T  T </v>
   <v type="logical" >  T  T  T </v>
   <v type="logical" >  T  T  T </v>
   <v type="logical" >  T  T  T </v>
   <v type="logical" >  T  T  T </v>
   <v type="logical" >  T  T  T </v>
   <v type="logical" >  T  T  T </v>
   <v type="logical" >  T  T  T </v>
   <v type="logical" >  T  T  T </v>
   <v type="logical" >  T  T  T </v>
   <v type="logical" >  T  T  T </v>
   <v type="logical" >  T  T  T </v>
   <v type="logical" >  T  T  T </v>
   <v type="logical" >  T  T  T </v>
   <v type="logical" >  T  T  T </v>
   <v type="logical" >  T  T  T </v>
   <v type="logical" >  T  T  T </v>
   <v type="logical" >  T  T  T </v>
   <v type="logical" >  T  T  T </v>
   <v type="logical" >  T  T  T </v>
   <v type="logical" >  T  T  T </v>
   <v type="logical" >  T  T  T </v>
   <v type="logical" >  T  T  T </v>
   <v type="logical" >  T  T  T </v>
   <v type="logical" >  T  T  T </v>
   <v type="logical" >  T  T  T </v>
   <v type="logical" >  T  T  T </v>
   <v type="logical" >  T  T  T </v>
  </varray>
  <nose>
   <v>      -3.00000000       0.00000000       0.00010000       0.00010000 </v>
  </nose>
 </structure>
</modeling>
