unknown system                          
           1
     7.260000    0.000000    0.000000
     0.000000    7.260000    0.000000
     0.000000    0.000000   24.075000
   Cu
    48
Direct configuration=     1
   0.00000000  0.00000000  0.00000000
   0.00000000  0.50000000  0.00000000
   0.50000000  0.00000000  0.00000000
   0.50000000  0.50000000  0.00000000
   0.25000000  0.25000000  0.00000000
   0.25000000  0.75000000  0.00000000
   0.75000000  0.25000000  0.00000000
   0.75000000  0.75000000  0.00000000
   0.00000000  0.25000000  0.07538941
   0.00000000  0.75000000  0.07538941
   0.50000000  0.25000000  0.07538941
   0.50000000  0.75000000  0.07538941
   0.25000000  0.00000000  0.07538941
   0.25000000  0.50000000  0.07538941
   0.75000000  0.00000000  0.07538941
   0.75000000  0.50000000  0.07538941
   0.00000000  0.00000000  0.15077882
   0.00000000  0.50000000  0.15077882
   0.50000000  0.00000000  0.15077882
   0.50000000  0.50000000  0.15077882
   0.25000000  0.25000000  0.15077882
   0.25000000  0.75000000  0.15077882
   0.75000000  0.25000000  0.15077882
   0.75000000  0.75000000  0.15077882
   0.00000000  0.25000000  0.22616823
   0.00000000  0.75000000  0.22616823
   0.50000000  0.25000000  0.22616823
   0.50000000  0.75000000  0.22616823
   0.25000000  0.00000000  0.22616823
   0.25000000  0.50000000  0.22616823
   0.75000000  0.00000000  0.22616823
   0.75000000  0.50000000  0.22616823
   0.00000000  0.00000000  0.30155764
   0.00000000  0.50000000  0.30155764
   0.50000000  0.00000000  0.30155764
   0.50000000  0.50000000  0.30155764
   0.25000000  0.25000000  0.30155764
   0.25000000  0.75000000  0.30155764
   0.75000000  0.25000000  0.30155764
   0.75000000  0.75000000  0.30155764
   0.00000000  0.25000000  0.37694705
   0.00000000  0.75000000  0.37694705
   0.50000000  0.25000000  0.37694705
   0.50000000  0.75000000  0.37694705
   0.25000000  0.00000000  0.37694705
   0.25000000  0.50000000  0.37694705
   0.75000000  0.00000000  0.37694705
   0.75000000  0.50000000  0.37694705
Direct configuration=     2
   0.00000000  0.00000000  0.00000000
   0.00000000  0.50000000  0.00000000
   0.50000000  0.00000000  0.00000000
   0.50000000  0.50000000  0.00000000
   0.25000000  0.25000000  0.00000000
   0.25000000  0.75000000  0.00000000
   0.75000000  0.25000000  0.00000000
   0.75000000  0.75000000  0.00000000
   0.00000000  0.25000000  0.07538941
   0.00000000  0.75000000  0.07538941
   0.50000000  0.25000000  0.07538941
   0.50000000  0.75000000  0.07538941
   0.25000000  0.00000000  0.07538941
   0.25000000  0.50000000  0.07538941
   0.75000000  0.00000000  0.07538941
   0.75000000  0.50000000  0.07538941
  -0.00000000 -0.00000000  0.15074096
   0.00000000  0.50000000  0.15074096
   0.50000000 -0.00000000  0.15074096
   0.50000000  0.50000000  0.15074096
   0.25000000  0.25000000  0.15074096
   0.25000000  0.75000000  0.15074096
   0.75000000  0.25000000  0.15074096
   0.75000000  0.75000000  0.15074096
   0.00000000  0.25000000  0.22617882
   0.00000000  0.75000000  0.22617882
   0.50000000  0.25000000  0.22617882
   0.50000000  0.75000000  0.22617882
   0.25000000  0.00000000  0.22617882
   0.25000000  0.50000000  0.22617882
   0.75000000  0.00000000  0.22617882
   0.75000000  0.50000000  0.22617882
   0.00000000  0.00000000  0.30176592
   0.00000000  0.50000000  0.30176592
   0.50000000  0.00000000  0.30176592
   0.50000000  0.50000000  0.30176592
   0.25000000  0.25000000  0.30176592
   0.25000000  0.75000000  0.30176592
   0.75000000  0.25000000  0.30176592
   0.75000000  0.75000000  0.30176592
  -0.00000000  0.25000000  0.37620620
  -0.00000000  0.75000000  0.37620620
   0.50000000  0.25000000  0.37620620
   0.50000000  0.75000000  0.37620620
   0.25000000 -0.00000000  0.37620620
   0.25000000  0.50000000  0.37620620
   0.75000000 -0.00000000  0.37620620
   0.75000000  0.50000000  0.37620620
Direct configuration=     3
   0.00000000  0.00000000  0.00000000
   0.00000000  0.50000000  0.00000000
   0.50000000  0.00000000  0.00000000
   0.50000000  0.50000000  0.00000000
   0.25000000  0.25000000  0.00000000
   0.25000000  0.75000000  0.00000000
   0.75000000  0.25000000  0.00000000
   0.75000000  0.75000000  0.00000000
   0.00000000  0.25000000  0.07538941
   0.00000000  0.75000000  0.07538941
   0.50000000  0.25000000  0.07538941
   0.50000000  0.75000000  0.07538941
   0.25000000  0.00000000  0.07538941
   0.25000000  0.50000000  0.07538941
   0.75000000  0.00000000  0.07538941
   0.75000000  0.50000000  0.07538941
  -0.00000000 -0.00000000  0.15062737
   0.00000000  0.50000000  0.15062737
   0.50000000 -0.00000000  0.15062737
   0.50000000  0.50000000  0.15062737
   0.25000000  0.25000000  0.15062737
   0.25000000  0.75000000  0.15062737
   0.75000000  0.25000000  0.15062737
   0.75000000  0.75000000  0.15062737
   0.00000000  0.25000000  0.22621061
   0.00000000  0.75000000  0.22621061
   0.50000000  0.25000000  0.22621061
   0.50000000  0.75000000  0.22621061
   0.25000000  0.00000000  0.22621061
   0.25000000  0.50000000  0.22621061
   0.75000000  0.00000000  0.22621061
   0.75000000  0.50000000  0.22621061
   0.00000000  0.00000000  0.30239079
   0.00000000  0.50000000  0.30239079
   0.50000000  0.00000000  0.30239079
   0.50000000  0.50000000  0.30239079
   0.25000000  0.25000000  0.30239079
   0.25000000  0.75000000  0.30239079
   0.75000000  0.25000000  0.30239079
   0.75000000  0.75000000  0.30239079
  -0.00000000  0.25000000  0.37398367
  -0.00000000  0.75000000  0.37398367
   0.50000000  0.25000000  0.37398367
   0.50000000  0.75000000  0.37398367
   0.25000000 -0.00000000  0.37398367
   0.25000000  0.50000000  0.37398367
   0.75000000 -0.00000000  0.37398367
   0.75000000  0.50000000  0.37398367
Direct configuration=     4
   0.00000000  0.00000000  0.00000000
   0.00000000  0.50000000  0.00000000
   0.50000000  0.00000000  0.00000000
   0.50000000  0.50000000  0.00000000
   0.25000000  0.25000000  0.00000000
   0.25000000  0.75000000  0.00000000
   0.75000000  0.25000000  0.00000000
   0.75000000  0.75000000  0.00000000
   0.00000000  0.25000000  0.07538941
   0.00000000  0.75000000  0.07538941
   0.50000000  0.25000000  0.07538941
   0.50000000  0.75000000  0.07538941
   0.25000000  0.00000000  0.07538941
   0.25000000  0.50000000  0.07538941
   0.75000000  0.00000000  0.07538941
   0.75000000  0.50000000  0.07538941
  -0.00000000 -0.00000000  0.15064820
   0.00000000  0.50000000  0.15064820
   0.50000000 -0.00000000  0.15064820
   0.50000000  0.50000000  0.15064820
   0.25000000  0.25000000  0.15064820
   0.25000000  0.75000000  0.15064820
   0.75000000  0.25000000  0.15064820
   0.75000000  0.75000000  0.15064820
   0.00000000  0.25000000  0.22620478
   0.00000000  0.75000000  0.22620478
   0.50000000  0.25000000  0.22620478
   0.50000000  0.75000000  0.22620478
   0.25000000  0.00000000  0.22620478
   0.25000000  0.50000000  0.22620478
   0.75000000  0.00000000  0.22620478
   0.75000000  0.50000000  0.22620478
   0.00000000  0.00000000  0.30227617
   0.00000000  0.50000000  0.30227617
   0.50000000  0.00000000  0.30227617
   0.50000000  0.50000000  0.30227617
   0.25000000  0.25000000  0.30227617
   0.25000000  0.75000000  0.30227617
   0.75000000  0.25000000  0.30227617
   0.75000000  0.75000000  0.30227617
  -0.00000000  0.25000000  0.37439134
  -0.00000000  0.75000000  0.37439134
   0.50000000  0.25000000  0.37439134
   0.50000000  0.75000000  0.37439134
   0.25000000 -0.00000000  0.37439134
   0.25000000  0.50000000  0.37439134
   0.75000000 -0.00000000  0.37439134
   0.75000000  0.50000000  0.37439134
Direct configuration=     5
   0.00000000  0.00000000  0.00000000
   0.00000000  0.50000000  0.00000000
   0.50000000  0.00000000  0.00000000
   0.50000000  0.50000000  0.00000000
   0.25000000  0.25000000  0.00000000
   0.25000000  0.75000000  0.00000000
   0.75000000  0.25000000  0.00000000
   0.75000000  0.75000000  0.00000000
   0.00000000  0.25000000  0.07538941
   0.00000000  0.75000000  0.07538941
   0.50000000  0.25000000  0.07538941
   0.50000000  0.75000000  0.07538941
   0.25000000  0.00000000  0.07538941
   0.25000000  0.50000000  0.07538941
   0.75000000  0.00000000  0.07538941
   0.75000000  0.50000000  0.07538941
  -0.00000000 -0.00000000  0.15066538
   0.00000000  0.50000000  0.15066538
   0.50000000 -0.00000000  0.15066538
   0.50000000  0.50000000  0.15066538
   0.25000000  0.25000000  0.15066538
   0.25000000  0.75000000  0.15066538
   0.75000000  0.25000000  0.15066538
   0.75000000  0.75000000  0.15066538
   0.00000000  0.25000000  0.22625695
   0.00000000  0.75000000  0.22625695
   0.50000000  0.25000000  0.22625695
   0.50000000  0.75000000  0.22625695
   0.25000000  0.00000000  0.22625695
   0.25000000  0.50000000  0.22625695
   0.75000000 -0.00000000  0.22625695
   0.75000000  0.50000000  0.22625695
   0.00000000  0.00000000  0.30173366
   0.00000000  0.50000000  0.30173366
   0.50000000  0.00000000  0.30173366
   0.50000000  0.50000000  0.30173366
   0.25000000  0.25000000  0.30173366
   0.25000000  0.75000000  0.30173366
   0.75000000  0.25000000  0.30173366
   0.75000000  0.75000000  0.30173366
  -0.00000000  0.25000000  0.37381793
  -0.00000000  0.75000000  0.37381793
   0.50000000  0.25000000  0.37381793
   0.50000000  0.75000000  0.37381793
   0.25000000 -0.00000000  0.37381793
   0.25000000  0.50000000  0.37381793
   0.75000000 -0.00000000  0.37381793
   0.75000000  0.50000000  0.37381793
Direct configuration=     6
   0.00000000  0.00000000  0.00000000
   0.00000000  0.50000000  0.00000000
   0.50000000  0.00000000  0.00000000
   0.50000000  0.50000000  0.00000000
   0.25000000  0.25000000  0.00000000
   0.25000000  0.75000000  0.00000000
   0.75000000  0.25000000  0.00000000
   0.75000000  0.75000000  0.00000000
   0.00000000  0.25000000  0.07538941
   0.00000000  0.75000000  0.07538941
   0.50000000  0.25000000  0.07538941
   0.50000000  0.75000000  0.07538941
   0.25000000  0.00000000  0.07538941
   0.25000000  0.50000000  0.07538941
   0.75000000  0.00000000  0.07538941
   0.75000000  0.50000000  0.07538941
  -0.00000000 -0.00000000  0.15071693
   0.00000000  0.50000000  0.15071693
   0.50000000 -0.00000000  0.15071693
   0.50000000  0.50000000  0.15071693
   0.25000000  0.25000000  0.15071693
   0.25000000  0.75000000  0.15071693
   0.75000000  0.25000000  0.15071693
   0.75000000  0.75000000  0.15071693
  -0.00000000  0.25000000  0.22641344
   0.00000000  0.75000000  0.22641344
   0.50000000  0.25000000  0.22641344
   0.50000000  0.75000000  0.22641344
   0.25000000  0.00000000  0.22641344
   0.25000000  0.50000000  0.22641344
   0.75000000 -0.00000000  0.22641344
   0.75000000  0.50000000  0.22641344
  -0.00000000 -0.00000000  0.30010614
   0.00000000  0.50000000  0.30010614
   0.50000000 -0.00000000  0.30010614
   0.50000000  0.50000000  0.30010614
   0.25000000  0.25000000  0.30010614
   0.25000000  0.75000000  0.30010614
   0.75000000  0.25000000  0.30010614
   0.75000000  0.75000000  0.30010614
  -0.00000000  0.25000000  0.37209769
  -0.00000000  0.75000000  0.37209769
   0.50000000  0.25000000  0.37209769
   0.50000000  0.75000000  0.37209769
   0.25000000  0.00000000  0.37209769
   0.25000000  0.50000000  0.37209769
   0.75000000 -0.00000000  0.37209769
   0.75000000  0.50000000  0.37209769
Direct configuration=     7
   0.00000000  0.00000000  0.00000000
   0.00000000  0.50000000  0.00000000
   0.50000000  0.00000000  0.00000000
   0.50000000  0.50000000  0.00000000
   0.25000000  0.25000000  0.00000000
   0.25000000  0.75000000  0.00000000
   0.75000000  0.25000000  0.00000000
   0.75000000  0.75000000  0.00000000
   0.00000000  0.25000000  0.07538941
   0.00000000  0.75000000  0.07538941
   0.50000000  0.25000000  0.07538941
   0.50000000  0.75000000  0.07538941
   0.25000000  0.00000000  0.07538941
   0.25000000  0.50000000  0.07538941
   0.75000000  0.00000000  0.07538941
   0.75000000  0.50000000  0.07538941
  -0.00000000 -0.00000000  0.15073782
   0.00000000  0.50000000  0.15073782
   0.50000000 -0.00000000  0.15073782
   0.50000000  0.50000000  0.15073782
   0.25000000  0.25000000  0.15073782
   0.25000000  0.75000000  0.15073782
   0.75000000  0.25000000  0.15073782
   0.75000000  0.75000000  0.15073782
  -0.00000000  0.25000000  0.22647687
   0.00000000  0.75000000  0.22647687
   0.50000000  0.25000000  0.22647687
   0.50000000  0.75000000  0.22647687
   0.25000000  0.00000000  0.22647687
   0.25000000  0.50000000  0.22647687
   0.75000000 -0.00000000  0.22647687
   0.75000000  0.50000000  0.22647687
  -0.00000000 -0.00000000  0.29944641
   0.00000000  0.50000000  0.29944641
   0.50000000 -0.00000000  0.29944641
   0.50000000  0.50000000  0.29944641
   0.25000000  0.25000000  0.29944641
   0.25000000  0.75000000  0.29944641
   0.75000000  0.25000000  0.29944641
   0.75000000  0.75000000  0.29944641
  -0.00000000  0.25000000  0.37140038
  -0.00000000  0.75000000  0.37140038
   0.50000000  0.25000000  0.37140038
   0.50000000  0.75000000  0.37140038
   0.25000000  0.00000000  0.37140038
   0.25000000  0.50000000  0.37140038
   0.75000000  0.00000000  0.37140038
   0.75000000  0.50000000  0.37140038
Direct configuration=     8
   0.00000000  0.00000000  0.00000000
   0.00000000  0.50000000  0.00000000
   0.50000000  0.00000000  0.00000000
   0.50000000  0.50000000  0.00000000
   0.25000000  0.25000000  0.00000000
   0.25000000  0.75000000  0.00000000
   0.75000000  0.25000000  0.00000000
   0.75000000  0.75000000  0.00000000
   0.00000000  0.25000000  0.07538941
   0.00000000  0.75000000  0.07538941
   0.50000000  0.25000000  0.07538941
   0.50000000  0.75000000  0.07538941
   0.25000000  0.00000000  0.07538941
   0.25000000  0.50000000  0.07538941
   0.75000000  0.00000000  0.07538941
   0.75000000  0.50000000  0.07538941
  -0.00000000 -0.00000000  0.15076178
   0.00000000  0.50000000  0.15076178
   0.50000000 -0.00000000  0.15076178
   0.50000000  0.50000000  0.15076178
   0.25000000  0.25000000  0.15076178
   0.25000000  0.75000000  0.15076178
   0.75000000  0.25000000  0.15076178
   0.75000000  0.75000000  0.15076178
  -0.00000000  0.25000000  0.22619135
   0.00000000  0.75000000  0.22619135
   0.50000000  0.25000000  0.22619135
   0.50000000  0.75000000  0.22619135
   0.25000000  0.00000000  0.22619135
   0.25000000  0.50000000  0.22619135
   0.75000000 -0.00000000  0.22619135
   0.75000000  0.50000000  0.22619135
  -0.00000000 -0.00000000  0.29910892
   0.00000000  0.50000000  0.29910892
   0.50000000 -0.00000000  0.29910892
   0.50000000  0.50000000  0.29910892
   0.25000000  0.25000000  0.29910892
   0.25000000  0.75000000  0.29910892
   0.75000000  0.25000000  0.29910892
   0.75000000  0.75000000  0.29910892
  -0.00000000  0.25000000  0.37091440
  -0.00000000  0.75000000  0.37091440
   0.50000000  0.25000000  0.37091440
   0.50000000  0.75000000  0.37091440
   0.25000000  0.00000000  0.37091440
   0.25000000  0.50000000  0.37091440
   0.75000000  0.00000000  0.37091440
   0.75000000  0.50000000  0.37091440
Direct configuration=     9
   0.00000000  0.00000000  0.00000000
   0.00000000  0.50000000  0.00000000
   0.50000000  0.00000000  0.00000000
   0.50000000  0.50000000  0.00000000
   0.25000000  0.25000000  0.00000000
   0.25000000  0.75000000  0.00000000
   0.75000000  0.25000000  0.00000000
   0.75000000  0.75000000  0.00000000
   0.00000000  0.25000000  0.07538941
   0.00000000  0.75000000  0.07538941
   0.50000000  0.25000000  0.07538941
   0.50000000  0.75000000  0.07538941
   0.25000000  0.00000000  0.07538941
   0.25000000  0.50000000  0.07538941
   0.75000000  0.00000000  0.07538941
   0.75000000  0.50000000  0.07538941
  -0.00000000 -0.00000000  0.15083366
   0.00000000  0.50000000  0.15083366
   0.50000000 -0.00000000  0.15083366
   0.50000000  0.50000000  0.15083366
   0.25000000  0.25000000  0.15083366
   0.25000000  0.75000000  0.15083366
   0.75000000  0.25000000  0.15083366
   0.75000000  0.75000000  0.15083366
  -0.00000000  0.25000000  0.22533480
   0.00000000  0.75000000  0.22533480
   0.50000000  0.25000000  0.22533480
   0.50000000  0.75000000  0.22533480
   0.25000000  0.00000000  0.22533480
   0.25000000  0.50000000  0.22533480
   0.75000000 -0.00000000  0.22533480
   0.75000000  0.50000000  0.22533480
  -0.00000000 -0.00000000  0.29809645
   0.00000000  0.50000000  0.29809645
   0.50000000 -0.00000000  0.29809645
   0.50000000  0.50000000  0.29809645
   0.25000000  0.25000000  0.29809645
   0.25000000  0.75000000  0.29809645
   0.75000000  0.25000000  0.29809645
   0.75000000  0.75000000  0.29809645
  -0.00000000  0.25000000  0.36945645
  -0.00000000  0.75000000  0.36945645
   0.50000000  0.25000000  0.36945645
   0.50000000  0.75000000  0.36945645
   0.25000000  0.00000000  0.36945645
   0.25000000  0.50000000  0.36945645
   0.75000000  0.00000000  0.36945645
   0.75000000  0.50000000  0.36945645
Direct configuration=    10
   0.00000000  0.00000000  0.00000000
   0.00000000  0.50000000  0.00000000
   0.50000000  0.00000000  0.00000000
   0.50000000  0.50000000  0.00000000
   0.25000000  0.25000000  0.00000000
   0.25000000  0.75000000  0.00000000
   0.75000000  0.25000000  0.00000000
   0.75000000  0.75000000  0.00000000
   0.00000000  0.25000000  0.07538941
   0.00000000  0.75000000  0.07538941
   0.50000000  0.25000000  0.07538941
   0.50000000  0.75000000  0.07538941
   0.25000000  0.00000000  0.07538941
   0.25000000  0.50000000  0.07538941
   0.75000000  0.00000000  0.07538941
   0.75000000  0.50000000  0.07538941
  -0.00000000 -0.00000000  0.15097741
   0.00000000  0.50000000  0.15097741
   0.50000000 -0.00000000  0.15097741
   0.50000000  0.50000000  0.15097741
   0.25000000  0.25000000  0.15097741
   0.25000000  0.75000000  0.15097741
   0.75000000  0.25000000  0.15097741
   0.75000000  0.75000000  0.15097741
  -0.00000000  0.25000000  0.22362169
   0.00000000  0.75000000  0.22362169
   0.50000000  0.25000000  0.22362169
   0.50000000  0.75000000  0.22362169
   0.25000000  0.00000000  0.22362169
   0.25000000  0.50000000  0.22362169
   0.75000000 -0.00000000  0.22362169
   0.75000000  0.50000000  0.22362169
  -0.00000000 -0.00000000  0.29607149
   0.00000000  0.50000000  0.29607149
   0.50000000 -0.00000000  0.29607149
   0.50000000  0.50000000  0.29607149
   0.25000000  0.25000000  0.29607149
   0.25000000  0.75000000  0.29607149
   0.75000000  0.25000000  0.29607149
   0.75000000  0.75000000  0.29607149
  -0.00000000  0.25000000  0.36654055
  -0.00000000  0.75000000  0.36654055
   0.50000000  0.25000000  0.36654055
   0.50000000  0.75000000  0.36654055
   0.25000000  0.00000000  0.36654055
   0.25000000  0.50000000  0.36654055
   0.75000000  0.00000000  0.36654055
   0.75000000  0.50000000  0.36654055
Direct configuration=    11
   0.00000000  0.00000000  0.00000000
   0.00000000  0.50000000  0.00000000
   0.50000000  0.00000000  0.00000000
   0.50000000  0.50000000  0.00000000
   0.25000000  0.25000000  0.00000000
   0.25000000  0.75000000  0.00000000
   0.75000000  0.25000000  0.00000000
   0.75000000  0.75000000  0.00000000
   0.00000000  0.25000000  0.07538941
   0.00000000  0.75000000  0.07538941
   0.50000000  0.25000000  0.07538941
   0.50000000  0.75000000  0.07538941
   0.25000000  0.00000000  0.07538941
   0.25000000  0.50000000  0.07538941
   0.75000000  0.00000000  0.07538941
   0.75000000  0.50000000  0.07538941
  -0.00000000 -0.00000000  0.15091951
   0.00000000  0.50000000  0.15091951
   0.50000000 -0.00000000  0.15091951
   0.50000000  0.50000000  0.15091951
   0.25000000  0.25000000  0.15091951
   0.25000000  0.75000000  0.15091951
   0.75000000  0.25000000  0.15091951
   0.75000000  0.75000000  0.15091951
  -0.00000000  0.25000000  0.22431162
   0.00000000  0.75000000  0.22431162
   0.50000000  0.25000000  0.22431162
   0.50000000  0.75000000  0.22431162
   0.25000000  0.00000000  0.22431162
   0.25000000  0.50000000  0.22431162
   0.75000000 -0.00000000  0.22431162
   0.75000000  0.50000000  0.22431162
  -0.00000000 -0.00000000  0.29688701
   0.00000000  0.50000000  0.29688701
   0.50000000 -0.00000000  0.29688701
   0.50000000  0.50000000  0.29688701
   0.25000000  0.25000000  0.29688701
   0.25000000  0.75000000  0.29688701
   0.75000000  0.25000000  0.29688701
   0.75000000  0.75000000  0.29688701
  -0.00000000  0.25000000  0.36771488
  -0.00000000  0.75000000  0.36771488
   0.50000000  0.25000000  0.36771488
   0.50000000  0.75000000  0.36771488
   0.25000000  0.00000000  0.36771488
   0.25000000  0.50000000  0.36771488
   0.75000000  0.00000000  0.36771488
   0.75000000  0.50000000  0.36771488
Direct configuration=    12
   0.00000000  0.00000000  0.00000000
   0.00000000  0.50000000  0.00000000
   0.50000000  0.00000000  0.00000000
   0.50000000  0.50000000  0.00000000
   0.25000000  0.25000000  0.00000000
   0.25000000  0.75000000  0.00000000
   0.75000000  0.25000000  0.00000000
   0.75000000  0.75000000  0.00000000
   0.00000000  0.25000000  0.07538941
   0.00000000  0.75000000  0.07538941
   0.50000000  0.25000000  0.07538941
   0.50000000  0.75000000  0.07538941
   0.25000000  0.00000000  0.07538941
   0.25000000  0.50000000  0.07538941
   0.75000000  0.00000000  0.07538941
   0.75000000  0.50000000  0.07538941
  -0.00000000 -0.00000000  0.15093809
   0.00000000  0.50000000  0.15093809
   0.50000000 -0.00000000  0.15093809
   0.50000000  0.50000000  0.15093809
   0.25000000  0.25000000  0.15093809
   0.25000000  0.75000000  0.15093809
   0.75000000  0.25000000  0.15093809
   0.75000000  0.75000000  0.15093809
  -0.00000000  0.25000000  0.22409022
   0.00000000  0.75000000  0.22409022
   0.50000000  0.25000000  0.22409022
   0.50000000  0.75000000  0.22409022
   0.25000000  0.00000000  0.22409022
   0.25000000  0.50000000  0.22409022
   0.75000000 -0.00000000  0.22409022
   0.75000000  0.50000000  0.22409022
  -0.00000000 -0.00000000  0.29662531
   0.00000000  0.50000000  0.29662531
   0.50000000 -0.00000000  0.29662531
   0.50000000  0.50000000  0.29662531
   0.25000000  0.25000000  0.29662531
   0.25000000  0.75000000  0.29662531
   0.75000000  0.25000000  0.29662531
   0.75000000  0.75000000  0.29662531
  -0.00000000  0.25000000  0.36733804
  -0.00000000  0.75000000  0.36733804
   0.50000000  0.25000000  0.36733804
   0.50000000  0.75000000  0.36733804
   0.25000000  0.00000000  0.36733804
   0.25000000  0.50000000  0.36733804
   0.75000000  0.00000000  0.36733804
   0.75000000  0.50000000  0.36733804
Direct configuration=    13
   0.00000000  0.00000000  0.00000000
   0.00000000  0.50000000  0.00000000
   0.50000000  0.00000000  0.00000000
   0.50000000  0.50000000  0.00000000
   0.25000000  0.25000000  0.00000000
   0.25000000  0.75000000  0.00000000
   0.75000000  0.25000000  0.00000000
   0.75000000  0.75000000  0.00000000
   0.00000000  0.25000000  0.07538941
   0.00000000  0.75000000  0.07538941
   0.50000000  0.25000000  0.07538941
   0.50000000  0.75000000  0.07538941
   0.25000000  0.00000000  0.07538941
   0.25000000  0.50000000  0.07538941
   0.75000000  0.00000000  0.07538941
   0.75000000  0.50000000  0.07538941
  -0.00000000 -0.00000000  0.15032144
   0.00000000  0.50000000  0.15032144
   0.50000000  0.00000000  0.15032144
   0.50000000  0.50000000  0.15032144
   0.25000000  0.25000000  0.15032144
   0.25000000  0.75000000  0.15032144
   0.75000000  0.25000000  0.15032144
   0.75000000  0.75000000  0.15032144
  -0.00000000  0.25000000  0.22344953
   0.00000000  0.75000000  0.22344953
   0.50000000  0.25000000  0.22344953
   0.50000000  0.75000000  0.22344953
   0.25000000  0.00000000  0.22344953
   0.25000000  0.50000000  0.22344953
   0.75000000 -0.00000000  0.22344953
   0.75000000  0.50000000  0.22344953
  -0.00000000 -0.00000000  0.29600946
   0.00000000  0.50000000  0.29600946
   0.50000000 -0.00000000  0.29600946
   0.50000000  0.50000000  0.29600946
   0.25000000  0.25000000  0.29600946
   0.25000000  0.75000000  0.29600946
   0.75000000  0.25000000  0.29600946
   0.75000000  0.75000000  0.29600946
  -0.00000000  0.25000000  0.36680881
  -0.00000000  0.75000000  0.36680881
   0.50000000  0.25000000  0.36680881
   0.50000000  0.75000000  0.36680881
   0.25000000  0.00000000  0.36680881
   0.25000000  0.50000000  0.36680881
   0.75000000  0.00000000  0.36680881
   0.75000000  0.50000000  0.36680881
Direct configuration=    14
   0.00000000  0.00000000  0.00000000
   0.00000000  0.50000000  0.00000000
   0.50000000  0.00000000  0.00000000
   0.50000000  0.50000000  0.00000000
   0.25000000  0.25000000  0.00000000
   0.25000000  0.75000000  0.00000000
   0.75000000  0.25000000  0.00000000
   0.75000000  0.75000000  0.00000000
   0.00000000  0.25000000  0.07538941
   0.00000000  0.75000000  0.07538941
   0.50000000  0.25000000  0.07538941
   0.50000000  0.75000000  0.07538941
   0.25000000  0.00000000  0.07538941
   0.25000000  0.50000000  0.07538941
   0.75000000  0.00000000  0.07538941
   0.75000000  0.50000000  0.07538941
  -0.00000000  0.00000000  0.14847149
   0.00000000  0.50000000  0.14847149
   0.50000000  0.00000000  0.14847149
   0.50000000  0.50000000  0.14847149
   0.25000000  0.25000000  0.14847149
   0.25000000  0.75000000  0.14847149
   0.75000000  0.25000000  0.14847149
   0.75000000  0.75000000  0.14847149
  -0.00000000  0.25000000  0.22152746
   0.00000000  0.75000000  0.22152746
   0.50000000  0.25000000  0.22152746
   0.50000000  0.75000000  0.22152746
   0.25000000  0.00000000  0.22152746
   0.25000000  0.50000000  0.22152746
   0.75000000 -0.00000000  0.22152746
   0.75000000  0.50000000  0.22152746
  -0.00000000 -0.00000000  0.29416191
   0.00000000  0.50000000  0.29416191
   0.50000000 -0.00000000  0.29416191
   0.50000000  0.50000000  0.29416191
   0.25000000  0.25000000  0.29416191
   0.25000000  0.75000000  0.29416191
   0.75000000  0.25000000  0.29416191
   0.75000000  0.75000000  0.29416191
  -0.00000000  0.25000000  0.36522113
  -0.00000000  0.75000000  0.36522113
   0.50000000  0.25000000  0.36522113
   0.50000000  0.75000000  0.36522113
   0.25000000  0.00000000  0.36522113
   0.25000000  0.50000000  0.36522113
   0.75000000  0.00000000  0.36522113
   0.75000000  0.50000000  0.36522113
Direct configuration=    15
   0.00000000  0.00000000  0.00000000
   0.00000000  0.50000000  0.00000000
   0.50000000  0.00000000  0.00000000
   0.50000000  0.50000000  0.00000000
   0.25000000  0.25000000  0.00000000
   0.25000000  0.75000000  0.00000000
   0.75000000  0.25000000  0.00000000
   0.75000000  0.75000000  0.00000000
   0.00000000  0.25000000  0.07538941
   0.00000000  0.75000000  0.07538941
   0.50000000  0.25000000  0.07538941
   0.50000000  0.75000000  0.07538941
   0.25000000  0.00000000  0.07538941
   0.25000000  0.50000000  0.07538941
   0.75000000  0.00000000  0.07538941
   0.75000000  0.50000000  0.07538941
  -0.00000000  0.00000000  0.14800999
   0.00000000  0.50000000  0.14800999
   0.50000000  0.00000000  0.14800999
   0.50000000  0.50000000  0.14800999
   0.25000000  0.25000000  0.14800999
   0.25000000  0.75000000  0.14800999
   0.75000000  0.25000000  0.14800999
   0.75000000  0.75000000  0.14800999
  -0.00000000  0.25000000  0.22104796
   0.00000000  0.75000000  0.22104796
   0.50000000  0.25000000  0.22104796
   0.50000000  0.75000000  0.22104796
   0.25000000  0.00000000  0.22104796
   0.25000000  0.50000000  0.22104796
   0.75000000 -0.00000000  0.22104796
   0.75000000  0.50000000  0.22104796
  -0.00000000 -0.00000000  0.29370100
   0.00000000  0.50000000  0.29370100
   0.50000000 -0.00000000  0.29370100
   0.50000000  0.50000000  0.29370100
   0.25000000  0.25000000  0.29370100
   0.25000000  0.75000000  0.29370100
   0.75000000  0.25000000  0.29370100
   0.75000000  0.75000000  0.29370100
  -0.00000000  0.25000000  0.36482505
  -0.00000000  0.75000000  0.36482505
   0.50000000  0.25000000  0.36482505
   0.50000000  0.75000000  0.36482505
   0.25000000  0.00000000  0.36482505
   0.25000000  0.50000000  0.36482505
   0.75000000  0.00000000  0.36482505
   0.75000000  0.50000000  0.36482505
Direct configuration=    16
   0.00000000  0.00000000  0.00000000
   0.00000000  0.50000000  0.00000000
   0.50000000  0.00000000  0.00000000
   0.50000000  0.50000000  0.00000000
   0.25000000  0.25000000  0.00000000
   0.25000000  0.75000000  0.00000000
   0.75000000  0.25000000  0.00000000
   0.75000000  0.75000000  0.00000000
   0.00000000  0.25000000  0.07538941
   0.00000000  0.75000000  0.07538941
   0.50000000  0.25000000  0.07538941
   0.50000000  0.75000000  0.07538941
   0.25000000  0.00000000  0.07538941
   0.25000000  0.50000000  0.07538941
   0.75000000  0.00000000  0.07538941
   0.75000000  0.50000000  0.07538941
  -0.00000000  0.00000000  0.14805551
   0.00000000  0.50000000  0.14805551
   0.50000000  0.00000000  0.14805551
   0.50000000  0.50000000  0.14805551
   0.25000000  0.25000000  0.14805551
   0.25000000  0.75000000  0.14805551
   0.75000000  0.25000000  0.14805551
   0.75000000  0.75000000  0.14805551
  -0.00000000  0.25000000  0.22049477
   0.00000000  0.75000000  0.22049477
   0.50000000  0.25000000  0.22049477
   0.50000000  0.75000000  0.22049477
   0.25000000  0.00000000  0.22049477
   0.25000000  0.50000000  0.22049477
   0.75000000 -0.00000000  0.22049477
   0.75000000  0.50000000  0.22049477
  -0.00000000 -0.00000000  0.29348011
   0.00000000  0.50000000  0.29348011
   0.50000000 -0.00000000  0.29348011
   0.50000000  0.50000000  0.29348011
   0.25000000  0.25000000  0.29348011
   0.25000000  0.75000000  0.29348011
   0.75000000  0.25000000  0.29348011
   0.75000000  0.75000000  0.29348011
  -0.00000000  0.25000000  0.36479932
  -0.00000000  0.75000000  0.36479932
   0.50000000  0.25000000  0.36479932
   0.50000000  0.75000000  0.36479932
   0.25000000  0.00000000  0.36479932
   0.25000000  0.50000000  0.36479932
   0.75000000  0.00000000  0.36479932
   0.75000000  0.50000000  0.36479932
Direct configuration=    17
   0.00000000  0.00000000  0.00000000
   0.00000000  0.50000000  0.00000000
   0.50000000  0.00000000  0.00000000
   0.50000000  0.50000000  0.00000000