  34  34   0   0
  0.1991679E+02  0.5133596E-09  0.5133596E-09  0.2967047E-08  0.5000000E-15
  1.000000000000000E-004
  CAR 
 unknown system                          
     14.83015222     -9.12414483  301      2.16382775      1.00000000
     -9.124  0.0000E+00  0.0000E+00  0.0000E+00  0.0000E+00
     -9.044  0.0000E+00  0.0000E+00  0.0000E+00  0.0000E+00
     -8.964  0.0000E+00  0.0000E+00  0.0000E+00  0.0000E+00
     -8.885  0.0000E+00  0.0000E+00  0.0000E+00  0.0000E+00
     -8.805  0.0000E+00  0.0000E+00  0.0000E+00  0.0000E+00
     -8.725 -0.5926E-30 -0.5926E-30 -0.4732E-31 -0.4732E-31
     -8.645 -0.2857E-27 -0.2857E-27 -0.2286E-28 -0.2286E-28
     -8.565 -0.1000E-24 -0.1000E-24 -0.8008E-26 -0.8008E-26
     -8.485 -0.2536E-22 -0.2536E-22 -0.2033E-23 -0.2033E-23
     -8.406 -0.4659E-20 -0.4659E-20 -0.3740E-21 -0.3740E-21
     -8.326 -0.6193E-18 -0.6193E-18 -0.4982E-19 -0.4982E-19
     -8.246 -0.5761E-16 -0.5761E-16 -0.4650E-17 -0.4650E-17
     -8.166 -0.3987E-14 -0.3987E-14 -0.3230E-15 -0.3230E-15
     -8.086 -0.1986E-12 -0.1986E-12 -0.1618E-13 -0.1618E-13
     -8.006 -0.7112E-11 -0.7112E-11 -0.5841E-12 -0.5841E-12
     -7.926 -0.1826E-09 -0.1826E-09 -0.1517E-10 -0.1517E-10
     -7.847 -0.3346E-08 -0.3346E-08 -0.2824E-09 -0.2824E-09
     -7.767 -0.4347E-07 -0.4347E-07 -0.3754E-08 -0.3754E-08
     -7.687 -0.3961E-06 -0.3961E-06 -0.3538E-07 -0.3538E-07
     -7.607 -0.2483E-05 -0.2483E-05 -0.2337E-06 -0.2337E-06
     -7.527 -0.1031E-04 -0.1031E-04 -0.1057E-05 -0.1057E-05
     -7.447 -0.2561E-04 -0.2561E-04 -0.3101E-05 -0.3101E-05
     -7.367 -0.2287E-04 -0.2287E-04 -0.4927E-05 -0.4927E-05
     -7.288  0.7100E-04  0.7100E-04  0.7419E-06  0.7419E-06
     -7.208  0.2974E-03  0.2974E-03  0.2449E-04  0.2449E-04
     -7.128  0.5215E-03  0.5215E-03  0.6613E-04  0.6613E-04
     -7.048  0.5195E-03  0.5195E-03  0.1076E-03  0.1076E-03
     -6.968  0.3033E-03  0.3033E-03  0.1318E-03  0.1318E-03
     -6.888  0.1615E-03  0.1615E-03  0.1447E-03  0.1447E-03
     -6.809  0.2820E-03  0.2820E-03  0.1672E-03  0.1672E-03
     -6.729  0.4897E-03  0.4897E-03  0.2063E-03  0.2063E-03
     -6.649  0.4614E-03  0.4614E-03  0.2432E-03  0.2432E-03
     -6.569  0.1532E-03  0.1532E-03  0.2554E-03  0.2554E-03
     -6.489 -0.3996E-04 -0.3996E-04  0.2522E-03  0.2522E-03
     -6.409  0.4861E-03  0.4861E-03  0.2910E-03  0.2910E-03
     -6.329  0.1898E-02  0.1898E-02  0.4426E-03  0.4426E-03
     -6.250  0.3266E-02  0.3266E-02  0.7033E-03  0.7033E-03
     -6.170  0.3328E-02  0.3328E-02  0.9690E-03  0.9690E-03
     -6.090  0.2287E-02  0.2287E-02  0.1152E-02  0.1152E-02
     -6.010  0.1741E-02  0.1741E-02  0.1291E-02  0.1291E-02
     -5.930  0.2472E-02  0.2472E-02  0.1488E-02  0.1488E-02
     -5.850  0.3322E-02  0.3322E-02  0.1753E-02  0.1753E-02
     -5.771  0.2862E-02  0.2862E-02  0.1982E-02  0.1982E-02
     -5.691  0.1355E-02  0.1355E-02  0.2090E-02  0.2090E-02
     -5.611  0.7135E-04  0.7135E-04  0.2096E-02  0.2096E-02
     -5.531 -0.3751E-03 -0.3751E-03  0.2066E-02  0.2066E-02
     -5.451  0.7407E-04  0.7407E-04  0.2072E-02  0.2072E-02
     -5.371  0.1510E-02  0.1510E-02  0.2192E-02  0.2192E-02
     -5.291  0.3330E-02  0.3330E-02  0.2458E-02  0.2458E-02
     -5.212  0.3989E-02  0.3989E-02  0.2777E-02  0.2777E-02
     -5.132  0.2803E-02  0.2803E-02  0.3000E-02  0.3000E-02
     -5.052  0.9554E-03  0.9554E-03  0.3077E-02  0.3077E-02
     -4.972 -0.1867E-03 -0.1867E-03  0.3062E-02  0.3062E-02
     -4.892 -0.3481E-03 -0.3481E-03  0.3034E-02  0.3034E-02
     -4.812  0.3565E-03  0.3565E-03  0.3063E-02  0.3063E-02
     -4.733  0.1796E-02  0.1796E-02  0.3206E-02  0.3206E-02
     -4.653  0.3332E-02  0.3332E-02  0.3472E-02  0.3472E-02
     -4.573  0.4361E-02  0.4361E-02  0.3820E-02  0.3820E-02
     -4.493  0.5180E-02  0.5180E-02  0.4234E-02  0.4234E-02
     -4.413  0.5978E-02  0.5978E-02  0.4711E-02  0.4711E-02
     -4.333  0.5856E-02  0.5856E-02  0.5179E-02  0.5179E-02
     -4.253  0.4277E-02  0.4277E-02  0.5520E-02  0.5520E-02
     -4.174  0.2511E-02  0.2511E-02  0.5721E-02  0.5721E-02
     -4.094  0.2182E-02  0.2182E-02  0.5895E-02  0.5895E-02
     -4.014  0.3206E-02  0.3206E-02  0.6151E-02  0.6151E-02
     -3.934  0.4634E-02  0.4634E-02  0.6521E-02  0.6521E-02
     -3.854  0.6153E-02  0.6153E-02  0.7012E-02  0.7012E-02
     -3.774  0.7350E-02  0.7350E-02  0.7599E-02  0.7599E-02
     -3.695  0.7470E-02  0.7470E-02  0.8196E-02  0.8196E-02
     -3.615  0.6874E-02  0.6874E-02  0.8744E-02  0.8744E-02
     -3.535  0.6978E-02  0.6978E-02  0.9302E-02  0.9302E-02
     -3.455  0.8102E-02  0.8102E-02  0.9949E-02  0.9949E-02
     -3.375  0.8646E-02  0.8646E-02  0.1064E-01  0.1064E-01
     -3.295  0.7390E-02  0.7390E-02  0.1123E-01  0.1123E-01
     -3.215  0.5205E-02  0.5205E-02  0.1164E-01  0.1164E-01
     -3.136  0.3697E-02  0.3697E-02  0.1194E-01  0.1194E-01
     -3.056  0.3865E-02  0.3865E-02  0.1225E-01  0.1225E-01
     -2.976  0.5646E-02  0.5646E-02  0.1270E-01  0.1270E-01
     -2.896  0.7841E-02  0.7841E-02  0.1333E-01  0.1333E-01
     -2.816  0.1001E-01  0.1001E-01  0.1412E-01  0.1412E-01
     -2.736  0.1363E-01  0.1363E-01  0.1521E-01  0.1521E-01
     -2.656  0.1952E-01  0.1952E-01  0.1677E-01  0.1677E-01
     -2.577  0.2618E-01  0.2618E-01  0.1886E-01  0.1886E-01
     -2.497  0.3126E-01  0.3126E-01  0.2136E-01  0.2136E-01
     -2.417  0.3268E-01  0.3268E-01  0.2397E-01  0.2397E-01
     -2.337  0.2960E-01  0.2960E-01  0.2633E-01  0.2633E-01
     -2.257  0.2461E-01  0.2461E-01  0.2830E-01  0.2830E-01
     -2.177  0.2252E-01  0.2252E-01  0.3010E-01  0.3010E-01
     -2.098  0.2581E-01  0.2581E-01  0.3216E-01  0.3216E-01
     -2.018  0.3317E-01  0.3317E-01  0.3480E-01  0.3480E-01
     -1.938  0.4134E-01  0.4134E-01  0.3811E-01  0.3811E-01
     -1.858  0.4681E-01  0.4681E-01  0.4184E-01  0.4184E-01
     -1.778  0.4789E-01  0.4789E-01  0.4567E-01  0.4567E-01
     -1.698  0.4530E-01  0.4530E-01  0.4928E-01  0.4928E-01
     -1.618  0.4073E-01  0.4073E-01  0.5254E-01  0.5254E-01
     -1.539  0.3666E-01  0.3666E-01  0.5546E-01  0.5546E-01
     -1.459  0.3529E-01  0.3529E-01  0.5828E-01  0.5828E-01
     -1.379  0.3709E-01  0.3709E-01  0.6124E-01  0.6124E-01
     -1.299  0.4249E-01  0.4249E-01  0.6464E-01  0.6464E-01
     -1.219  0.5115E-01  0.5115E-01  0.6872E-01  0.6872E-01
     -1.139  0.5901E-01  0.5901E-01  0.7343E-01  0.7343E-01
     -1.060  0.6178E-01  0.6178E-01  0.7837E-01  0.7837E-01
     -0.980  0.6234E-01  0.6234E-01  0.8334E-01  0.8334E-01
     -0.900  0.6721E-01  0.6721E-01  0.8871E-01  0.8871E-01
     -0.820  0.7552E-01  0.7552E-01  0.9474E-01  0.9474E-01
     -0.740  0.8010E-01  0.8010E-01  0.1011E+00  0.1011E+00
     -0.660  0.7846E-01  0.7846E-01  0.1074E+00  0.1074E+00
     -0.580  0.7432E-01  0.7432E-01  0.1133E+00  0.1133E+00
     -0.501  0.7105E-01  0.7105E-01  0.1190E+00  0.1190E+00
     -0.421  0.6922E-01  0.6922E-01  0.1245E+00  0.1245E+00
     -0.341  0.6852E-01  0.6852E-01  0.1300E+00  0.1300E+00
     -0.261  0.6779E-01  0.6779E-01  0.1354E+00  0.1354E+00
     -0.181  0.6537E-01  0.6537E-01  0.1406E+00  0.1406E+00
     -0.101  0.6243E-01  0.6243E-01  0.1456E+00  0.1456E+00
     -0.022  0.6129E-01  0.6129E-01  0.1505E+00  0.1505E+00
      0.058  0.6217E-01  0.6217E-01  0.1555E+00  0.1555E+00
      0.138  0.6713E-01  0.6713E-01  0.1608E+00  0.1608E+00
      0.218  0.7805E-01  0.7805E-01  0.1671E+00  0.1671E+00
      0.298  0.8908E-01  0.8908E-01  0.1742E+00  0.1742E+00
      0.378  0.9301E-01  0.9301E-01  0.1816E+00  0.1816E+00
      0.458  0.9217E-01  0.9217E-01  0.1890E+00  0.1890E+00
      0.537  0.9184E-01  0.9184E-01  0.1963E+00  0.1963E+00
      0.617  0.8762E-01  0.8762E-01  0.2033E+00  0.2033E+00
      0.697  0.7036E-01  0.7036E-01  0.2089E+00  0.2089E+00
      0.777  0.4166E-01  0.4166E-01  0.2122E+00  0.2122E+00
      0.857  0.1490E-01  0.1490E-01  0.2134E+00  0.2134E+00
      0.937  0.7708E-03  0.7708E-03  0.2135E+00  0.2135E+00
      1.017 -0.1503E-02 -0.1503E-02  0.2134E+00  0.2134E+00
      1.096  0.1013E-02  0.1013E-02  0.2135E+00  0.2135E+00
      1.176  0.3137E-02  0.3137E-02  0.2137E+00  0.2137E+00
      1.256  0.4051E-02  0.4051E-02  0.2140E+00  0.2140E+00
      1.336  0.4929E-02  0.4929E-02  0.2144E+00  0.2144E+00
      1.416  0.6043E-02  0.6043E-02  0.2149E+00  0.2149E+00
      1.496  0.6264E-02  0.6264E-02  0.2154E+00  0.2154E+00
      1.575  0.4700E-02  0.4700E-02  0.2158E+00  0.2158E+00
      1.655  0.2568E-02  0.2568E-02  0.2160E+00  0.2160E+00
      1.735  0.2712E-02  0.2712E-02  0.2162E+00  0.2162E+00
      1.815  0.6493E-02  0.6493E-02  0.2167E+00  0.2167E+00
      1.895  0.1174E-01  0.1174E-01  0.2177E+00  0.2177E+00
      1.975  0.1469E-01  0.1469E-01  0.2188E+00  0.2188E+00
      2.055  0.1400E-01  0.1400E-01  0.2200E+00  0.2200E+00
      2.134  0.1208E-01  0.1208E-01  0.2209E+00  0.2209E+00
      2.214  0.1121E-01  0.1121E-01  0.2218E+00  0.2218E+00
      2.294  0.1002E-01  0.1002E-01  0.2226E+00  0.2226E+00
      2.374  0.6668E-02  0.6668E-02  0.2231E+00  0.2231E+00
      2.454  0.3145E-02  0.3145E-02  0.2234E+00  0.2234E+00
      2.534  0.2578E-02  0.2578E-02  0.2236E+00  0.2236E+00
      2.613  0.4874E-02  0.4874E-02  0.2240E+00  0.2240E+00
      2.693  0.7569E-02  0.7569E-02  0.2246E+00  0.2246E+00
      2.773  0.8624E-02  0.8624E-02  0.2253E+00  0.2253E+00
      2.853  0.7534E-02  0.7534E-02  0.2259E+00  0.2259E+00
      2.933  0.5707E-02  0.5707E-02  0.2263E+00  0.2263E+00
      3.013  0.4916E-02  0.4916E-02  0.2267E+00  0.2267E+00
      3.093  0.4694E-02  0.4694E-02  0.2271E+00  0.2271E+00
      3.172  0.3702E-02  0.3702E-02  0.2274E+00  0.2274E+00
      3.252  0.2645E-02  0.2645E-02  0.2276E+00  0.2276E+00
      3.332  0.3141E-02  0.3141E-02  0.2279E+00  0.2279E+00
      3.412  0.5452E-02  0.5452E-02  0.2283E+00  0.2283E+00
      3.492  0.8745E-02  0.8745E-02  0.2290E+00  0.2290E+00
      3.572  0.1175E-01  0.1175E-01  0.2299E+00  0.2299E+00
      3.651  0.1276E-01  0.1276E-01  0.2310E+00  0.2310E+00
      3.731  0.1076E-01  0.1076E-01  0.2318E+00  0.2318E+00
      3.811  0.7090E-02  0.7090E-02  0.2324E+00  0.2324E+00
      3.891  0.4353E-02  0.4353E-02  0.2327E+00  0.2327E+00
      3.971  0.3382E-02  0.3382E-02  0.2330E+00  0.2330E+00
      4.051  0.2744E-02  0.2744E-02  0.2332E+00  0.2332E+00
      4.131  0.1482E-02  0.1482E-02  0.2333E+00  0.2333E+00
      4.210  0.2069E-03  0.2069E-03  0.2334E+00  0.2334E+00
      4.290 -0.4656E-03 -0.4656E-03  0.2333E+00  0.2333E+00
      4.370 -0.4574E-03 -0.4574E-03  0.2333E+00  0.2333E+00
      4.450  0.6773E-03  0.6773E-03  0.2333E+00  0.2333E+00
      4.530  0.3343E-02  0.3343E-02  0.2336E+00  0.2336E+00
      4.610  0.6236E-02  0.6236E-02  0.2341E+00  0.2341E+00
      4.689  0.7144E-02  0.7144E-02  0.2347E+00  0.2347E+00
      4.769  0.5959E-02  0.5959E-02  0.2351E+00  0.2351E+00
      4.849  0.4339E-02  0.4339E-02  0.2355E+00  0.2355E+00
      4.929  0.2895E-02  0.2895E-02  0.2357E+00  0.2357E+00
      5.009  0.1360E-02  0.1360E-02  0.2358E+00  0.2358E+00
      5.089  0.5346E-04  0.5346E-04  0.2358E+00  0.2358E+00
      5.169 -0.4708E-03 -0.4708E-03  0.2358E+00  0.2358E+00
      5.248  0.1932E-03  0.1932E-03  0.2358E+00  0.2358E+00
      5.328  0.2338E-02  0.2338E-02  0.2360E+00  0.2360E+00
      5.408  0.5320E-02  0.5320E-02  0.2364E+00  0.2364E+00
      5.488  0.7494E-02  0.7494E-02  0.2370E+00  0.2370E+00
      5.568  0.8248E-02  0.8248E-02  0.2377E+00  0.2377E+00
      5.648  0.8731E-02  0.8731E-02  0.2384E+00  0.2384E+00
      5.728  0.9375E-02  0.9375E-02  0.2391E+00  0.2391E+00
      5.807  0.9015E-02  0.9015E-02  0.2398E+00  0.2398E+00
      5.887  0.7287E-02  0.7287E-02  0.2404E+00  0.2404E+00
      5.967  0.5184E-02  0.5184E-02  0.2408E+00  0.2408E+00
      6.047  0.3374E-02  0.3374E-02  0.2411E+00  0.2411E+00
      6.127  0.2100E-02  0.2100E-02  0.2413E+00  0.2413E+00
      6.207  0.2187E-02  0.2186E-02  0.2415E+00  0.2415E+00
      6.286  0.4591E-02  0.4591E-02  0.2418E+00  0.2418E+00
      6.366  0.8251E-02  0.8251E-02  0.2425E+00  0.2425E+00
      6.446  0.1002E-01  0.1002E-01  0.2433E+00  0.2433E+00
      6.526  0.8579E-02  0.8579E-02  0.2440E+00  0.2440E+00
      6.606  0.6093E-02  0.6093E-02  0.2445E+00  0.2445E+00
      6.686  0.4584E-02  0.4584E-02  0.2448E+00  0.2448E+00
      6.766  0.4212E-02  0.4212E-02  0.2452E+00  0.2452E+00
      6.845  0.4936E-02  0.4937E-02  0.2455E+00  0.2455E+00
      6.925  0.6362E-02  0.6362E-02  0.2461E+00  0.2461E+00
      7.005  0.7379E-02  0.7379E-02  0.2466E+00  0.2466E+00
      7.085  0.8050E-02  0.8049E-02  0.2473E+00  0.2473E+00
      7.165  0.9231E-02  0.9231E-02  0.2480E+00  0.2480E+00
      7.245  0.1044E-01  0.1044E-01  0.2489E+00  0.2489E+00
      7.324  0.1085E-01  0.1085E-01  0.2497E+00  0.2497E+00
      7.404  0.1028E-01  0.1028E-01  0.2505E+00  0.2505E+00
      7.484  0.8278E-02  0.8279E-02  0.2512E+00  0.2512E+00
      7.564  0.5231E-02  0.5231E-02  0.2516E+00  0.2516E+00
      7.644  0.3398E-02  0.3397E-02  0.2519E+00  0.2519E+00
      7.724  0.4260E-02  0.4260E-02  0.2522E+00  0.2522E+00
      7.804  0.6841E-02  0.6841E-02  0.2528E+00  0.2528E+00
      7.883  0.9390E-02  0.9390E-02  0.2535E+00  0.2535E+00
      7.963  0.1062E-01  0.1062E-01  0.2544E+00  0.2544E+00
      8.043  0.9661E-02  0.9661E-02  0.2552E+00  0.2552E+00
      8.123  0.7009E-02  0.7009E-02  0.2557E+00  0.2557E+00
      8.203  0.4850E-02  0.4850E-02  0.2561E+00  0.2561E+00
      8.283  0.4576E-02  0.4576E-02  0.2565E+00  0.2565E+00
      8.362  0.5674E-02  0.5674E-02  0.2569E+00  0.2569E+00
      8.442  0.7877E-02  0.7877E-02  0.2575E+00  0.2575E+00
      8.522  0.1115E-01  0.1116E-01  0.2584E+00  0.2584E+00
      8.602  0.1332E-01  0.1332E-01  0.2595E+00  0.2595E+00
      8.682  0.1157E-01  0.1157E-01  0.2604E+00  0.2604E+00
      8.762  0.6894E-02  0.6894E-02  0.2610E+00  0.2610E+00
      8.842  0.3449E-02  0.3449E-02  0.2612E+00  0.2612E+00
      8.921  0.3547E-02  0.3547E-02  0.2615E+00  0.2615E+00
      9.001  0.5393E-02  0.5393E-02  0.2620E+00  0.2620E+00
      9.081  0.6029E-02  0.6029E-02  0.2624E+00  0.2624E+00
      9.161  0.5282E-02  0.5282E-02  0.2629E+00  0.2629E+00
      9.241  0.5708E-02  0.5708E-02  0.2633E+00  0.2633E+00
      9.321  0.8560E-02  0.8560E-02  0.2640E+00  0.2640E+00
      9.401  0.1155E-01  0.1155E-01  0.2649E+00  0.2649E+00
      9.480  0.1162E-01  0.1162E-01  0.2659E+00  0.2659E+00
      9.560  0.8650E-02  0.8650E-02  0.2665E+00  0.2665E+00
      9.640  0.5466E-02  0.5466E-02  0.2670E+00  0.2670E+00
      9.720  0.4340E-02  0.4339E-02  0.2673E+00  0.2673E+00
      9.800  0.4985E-02  0.4985E-02  0.2677E+00  0.2677E+00
      9.880  0.6276E-02  0.6276E-02  0.2682E+00  0.2682E+00
      9.959  0.8215E-02  0.8216E-02  0.2689E+00  0.2689E+00
     10.039  0.1067E-01  0.1067E-01  0.2697E+00  0.2697E+00
     10.119  0.1181E-01  0.1181E-01  0.2707E+00  0.2707E+00
     10.199  0.1026E-01  0.1026E-01  0.2715E+00  0.2715E+00
     10.279  0.7525E-02  0.7525E-02  0.2721E+00  0.2721E+00
     10.359  0.5901E-02  0.5901E-02  0.2726E+00  0.2726E+00
     10.439  0.5948E-02  0.5948E-02  0.2730E+00  0.2730E+00
     10.518  0.7344E-02  0.7345E-02  0.2736E+00  0.2736E+00
     10.598  0.9661E-02  0.9661E-02  0.2744E+00  0.2744E+00
     10.678  0.1150E-01  0.1150E-01  0.2753E+00  0.2753E+00
     10.758  0.1140E-01  0.1140E-01  0.2762E+00  0.2762E+00
     10.838  0.1025E-01  0.1025E-01  0.2770E+00  0.2770E+00
     10.918  0.1005E-01  0.1005E-01  0.2779E+00  0.2779E+00
     10.997  0.1044E-01  0.1044E-01  0.2787E+00  0.2787E+00
     11.077  0.9811E-02  0.9812E-02  0.2795E+00  0.2795E+00
     11.157  0.9042E-02  0.9042E-02  0.2802E+00  0.2802E+00
     11.237  0.1041E-01  0.1041E-01  0.2810E+00  0.2810E+00
     11.317  0.1357E-01  0.1357E-01  0.2821E+00  0.2821E+00
     11.397  0.1525E-01  0.1525E-01  0.2833E+00  0.2833E+00
     11.477  0.1323E-01  0.1323E-01  0.2844E+00  0.2844E+00
     11.556  0.9020E-02  0.9021E-02  0.2851E+00  0.2851E+00
     11.636  0.6060E-02  0.6061E-02  0.2856E+00  0.2856E+00
     11.716  0.6082E-02  0.6082E-02  0.2861E+00  0.2861E+00
     11.796  0.7890E-02  0.7889E-02  0.2867E+00  0.2867E+00
     11.876  0.8840E-02  0.8839E-02  0.2874E+00  0.2874E+00
     11.956  0.7326E-02  0.7326E-02  0.2880E+00  0.2880E+00
     12.035  0.4300E-02  0.4300E-02  0.2883E+00  0.2883E+00
     12.115  0.1899E-02  0.1899E-02  0.2885E+00  0.2885E+00
     12.195  0.9284E-03  0.9284E-03  0.2886E+00  0.2886E+00
     12.275  0.8493E-03  0.8493E-03  0.2886E+00  0.2886E+00
     12.355  0.1197E-02  0.1197E-02  0.2887E+00  0.2887E+00
     12.435  0.1753E-02  0.1753E-02  0.2889E+00  0.2889E+00
     12.515  0.2179E-02  0.2179E-02  0.2890E+00  0.2890E+00
     12.594  0.2247E-02  0.2247E-02  0.2892E+00  0.2892E+00
     12.674  0.2154E-02  0.2154E-02  0.2894E+00  0.2894E+00
     12.754  0.2267E-02  0.2267E-02  0.2896E+00  0.2896E+00
     12.834  0.2420E-02  0.2420E-02  0.2898E+00  0.2898E+00
     12.914  0.2007E-02  0.2008E-02  0.2899E+00  0.2899E+00
     12.994  0.1036E-02  0.1036E-02  0.2900E+00  0.2900E+00
     13.074  0.2024E-03  0.2025E-03  0.2900E+00  0.2900E+00
     13.153 -0.1092E-03 -0.1092E-03  0.2900E+00  0.2900E+00
     13.233 -0.9938E-04 -0.9939E-04  0.2900E+00  0.2900E+00
     13.313 -0.3790E-04 -0.3790E-04  0.2900E+00  0.2900E+00
     13.393 -0.8830E-05 -0.8833E-05  0.2900E+00  0.2900E+00
     13.473 -0.1371E-05 -0.1372E-05  0.2900E+00  0.2900E+00
     13.553 -0.1470E-06 -0.1471E-06  0.2900E+00  0.2900E+00
     13.632 -0.1108E-07 -0.1108E-07  0.2900E+00  0.2900E+00
     13.712 -0.5922E-09 -0.5925E-09  0.2900E+00  0.2900E+00
     13.792 -0.2262E-10 -0.2264E-10  0.2900E+00  0.2900E+00
     13.872 -0.6200E-12 -0.6204E-12  0.2900E+00  0.2900E+00
     13.952 -0.1223E-13 -0.1224E-13  0.2900E+00  0.2900E+00
     14.032 -0.1738E-15 -0.1738E-15  0.2900E+00  0.2900E+00
     14.112 -0.2317E-17 -0.2317E-17  0.2900E+00  0.2900E+00
     14.191  0.0000E+00  0.0000E+00  0.2900E+00  0.2900E+00
     14.271  0.0000E+00  0.0000E+00  0.2900E+00  0.2900E+00
     14.351  0.0000E+00  0.0000E+00  0.2900E+00  0.2900E+00
     14.431  0.0000E+00  0.0000E+00  0.2900E+00  0.2900E+00
     14.511  0.0000E+00  0.0000E+00  0.2900E+00  0.2900E+00
     14.591  0.0000E+00  0.0000E+00  0.2900E+00  0.2900E+00
     14.670  0.0000E+00  0.0000E+00  0.2900E+00  0.2900E+00
     14.750  0.0000E+00  0.0000E+00  0.2900E+00  0.2900E+00
     14.830  0.0000E+00  0.0000E+00  0.2900E+00  0.2900E+00
