   34   34  800    2
  0.1991679E+02  0.5133595E-09  0.5133595E-09  0.2967047E-08  0.5000000E-15
  1.000000000000000E-004
  CAR 
 unknown system                          
    354      4    232
 
  0.0000000E+00  0.0000000E+00  0.0000000E+00  0.1111111E+00
      1         -7.124145       -7.124145   1.000000   1.000000
      2         -6.726156       -6.726156   1.000000   1.000000
      3         -6.092935       -6.092935   1.000000   1.000000
      4         -5.250158       -5.250158   1.000000   1.000000
      5         -4.331965       -4.331965   1.000000   1.000000
      6         -3.599584       -3.599584   1.000000   1.000000
      7         -3.409730       -3.409730   1.000000   1.000000
      8         -3.029655       -3.029655   1.000000   1.000000
      9         -2.903520       -2.903520   1.000000   1.000000
     10         -2.896119       -2.896119   1.000000   1.000000
     11         -2.894788       -2.894788   1.000000   1.000000
     12         -2.894672       -2.894672   1.000000   1.000000
     13         -2.713448       -2.713448   1.000000   1.000000
     14         -2.713067       -2.713067   1.000000   1.000000
     15         -2.711893       -2.711893   1.000000   1.000000
     16         -2.691329       -2.691329   1.000000   1.000000
     17         -2.691115       -2.691115   1.000000   1.000000
     18         -2.690221       -2.690221   1.000000   1.000000
     19         -2.574480       -2.574480   1.000000   1.000000
     20         -2.573728       -2.573728   1.000000   1.000000
     21         -2.572449       -2.572449   1.000000   1.000000
     22         -2.435010       -2.435010   1.000000   1.000000
     23         -2.434220       -2.434220   1.000000   1.000000
     24         -2.433856       -2.433856   1.000000   1.000000
     25         -2.388579       -2.388579   1.000000   1.000000
     26         -2.387715       -2.387715   1.000000   1.000000
     27         -2.386985       -2.386985   1.000000   1.000000
     28         -2.240761       -2.240761   1.000000   1.000000
     29         -2.238953       -2.238953   1.000000   1.000000
     30         -2.238951       -2.238951   1.000000   1.000000
     31         -2.125503       -2.125503   1.000000   1.000000
     32         -2.124789       -2.124789   1.000000   1.000000
     33         -2.123825       -2.123825   1.000000   1.000000
     34         -2.121068       -2.121068   1.000000   1.000000
     35         -2.120430       -2.120430   1.000000   1.000000
     36         -2.119798       -2.119798   1.000000   1.000000
     37         -2.110246       -2.110246   1.000000   1.000000
     38         -2.109603       -2.109603   1.000000   1.000000
     39         -2.109405       -2.109405   1.000000   1.000000
     40         -1.938231       -1.938231   1.000000   1.000000
     41         -1.935761       -1.935761   1.000000   1.000000
     42         -1.935535       -1.935535   1.000000   1.000000
     43         -1.692683       -1.692683   1.000000   1.000000
     44         -1.688213       -1.688213   1.000000   1.000000
     45         -1.687811       -1.687811   1.000000   1.000000
     46         -1.379368       -1.379368   1.000000   1.000000
     47         -1.375430       -1.375430   1.000000   1.000000
     48         -1.374451       -1.374451   1.000000   1.000000
     49         -1.075697       -1.075697   1.000000   1.000000
     50         -1.075019       -1.075019   1.000000   1.000000
     51         -1.070949       -1.070949   1.000000   1.000000
     52         -0.968678       -0.968678   1.000000   1.000000
     53         -0.952792       -0.952792   1.000000   1.000000
     54         -0.935953       -0.935953   1.000000   1.000000
     55         -0.929122       -0.929122   1.000000   1.000000
     56         -0.928685       -0.928685   1.000000   1.000000
     57         -0.883927       -0.883927   1.000000   1.000000
     58         -0.883832       -0.883832   1.000000   1.000000
     59         -0.878686       -0.878686   1.000000   1.000000
     60         -0.878249       -0.878249   1.000000   1.000000
     61         -0.877567       -0.877567   1.000000   1.000000
     62         -0.874176       -0.874176   1.000000   1.000000
     63         -0.874122       -0.874122   1.000000   1.000000
     64         -0.818709       -0.818709   1.000000   1.000000
     65         -0.808827       -0.808827   1.000000   1.000000
     66         -0.805931       -0.805931   1.000000   1.000000
     67         -0.805801       -0.805801   1.000000   1.000000
     68         -0.790423       -0.790423   1.000000   1.000000
     69         -0.788499       -0.788499   1.000000   1.000000
     70         -0.786999       -0.786999   1.000000   1.000000
     71         -0.785347       -0.785347   1.000000   1.000000
     72         -0.784678       -0.784678   1.000000   1.000000
     73         -0.780516       -0.780516   1.000000   1.000000
     74         -0.779720       -0.779720   1.000000   1.000000
     75         -0.779355       -0.779355   1.000000   1.000000
     76         -0.778672       -0.778672   1.000000   1.000000
     77         -0.777528       -0.777528   1.000000   1.000000
     78         -0.776912       -0.776912   1.000000   1.000000
     79         -0.735173       -0.735173   1.000000   1.000000
     80         -0.735097       -0.735097   1.000000   1.000000
     81         -0.729005       -0.729005   1.000000   1.000000
     82         -0.694624       -0.694624   1.000000   1.000000
     83         -0.693352       -0.693352   1.000000   1.000000
     84         -0.683886       -0.683886   1.000000   1.000000
     85         -0.683177       -0.683177   1.000000   1.000000
     86         -0.678167       -0.678167   1.000000   1.000000
     87         -0.610021       -0.610021   1.000000   1.000000
     88         -0.609915       -0.609915   1.000000   1.000000
     89         -0.591341       -0.591341   1.000000   1.000000
     90         -0.590517       -0.590517   1.000000   1.000000
     91         -0.552300       -0.552300   1.000000   1.000000
     92         -0.548836       -0.548836   1.000000   1.000000
     93         -0.547408       -0.547408   1.000000   1.000000
     94         -0.466840       -0.466840   1.000000   1.000000
     95         -0.466337       -0.466337   1.000000   1.000000
     96         -0.463030       -0.463030   1.000000   1.000000
     97         -0.461428       -0.461428   1.000000   1.000000
     98         -0.258332       -0.258332   1.000000   1.000000
     99         -0.256035       -0.256035   1.000000   1.000000
    100         -0.255481       -0.255481   1.000000   1.000000
    101         -0.205230       -0.205230   1.000000   1.000000
    102         -0.203444       -0.203444   1.000000   1.000000
    103         -0.203165       -0.203165   1.000000   1.000000
    104         -0.032194       -0.032194   1.000000   1.000000
    105         -0.022431       -0.022431   1.000000   1.000000
    106         -0.018165       -0.018165   1.000000   1.000000
    107         -0.011474       -0.011474   1.000000   1.000000
    108          0.010759        0.010759   1.000000   1.000000
    109          0.015834        0.015834   1.000000   1.000000
    110          0.017446        0.017446   1.000000   1.000000
    111          0.019132        0.019132   1.000000   1.000000
    112          0.025473        0.025473   1.000000   1.000000
    113          0.026813        0.026813   1.000000   1.000000
    114          0.027277        0.027277   1.000000   1.000000
    115          0.028804        0.028804   1.000000   1.000000
    116          0.077154        0.077154   1.000000   1.000000
    117          0.079991        0.079991   1.000000   1.000000
    118          0.230808        0.230808   1.000000   1.000000
    119          0.232231        0.232231   1.000000   1.000000
    120          0.279649        0.279649   1.000000   1.000000
    121          0.280625        0.280625   1.000000   1.000000
    122          0.281260        0.281260   1.000000   1.000000
    123          0.309387        0.309387   1.000000   1.000000
    124          0.309996        0.309996   1.000000   1.000000
    125          0.312568        0.312568   1.000000   1.000000
    126          0.371201        0.371201   1.000000   1.000000
    127          0.381751        0.381751   1.000000   1.000000
    128          0.388200        0.388200   1.000000   1.000000
    129          0.473198        0.473198   1.000000   1.000000
    130          0.474035        0.474035   1.000000   1.000000
    131          0.474368        0.474368   1.000000   1.000000
    132          0.494157        0.494157   1.000000   1.000000
    133          0.497788        0.497788   1.000000   1.000000
    134          0.499602        0.499602   1.000000   1.000000
    135          0.516415        0.516415   1.000000   1.000000
    136          0.522335        0.522335   1.000000   1.000000
    137          0.547677        0.547677   1.000000   1.000000
    138          0.548156        0.548156   1.000000   1.000000
    139          0.548362        0.548362   1.000000   1.000000
    140          0.548405        0.548405   1.000000   1.000000
    141          0.548704        0.548704   1.000000   1.000000
    142          0.554316        0.554316   1.000000   1.000000
    143          0.573342        0.573342   1.000000   1.000000
    144          0.574142        0.574142   1.000000   1.000000
    145          0.574998        0.574998   1.000000   1.000000
    146          0.581400        0.581400   1.000000   1.000000
    147          0.582033        0.582033   1.000000   1.000000
    148          0.582069        0.582069   1.000000   1.000000
    149          0.596214        0.596214   1.000000   1.000000
    150          0.604888        0.604888   1.000000   1.000000
    151          0.605204        0.605204   1.000000   1.000000
    152          0.605987        0.605987   1.000000   1.000000
    153          0.610650        0.610650   1.000000   1.000000
    154          0.647328        0.647328   1.000000   1.000000
    155          0.648459        0.648459   1.000000   1.000000
    156          0.650089        0.650089   1.000000   1.000000
    157          0.655722        0.655722   1.000000   1.000000
    158          0.656558        0.656558   1.000000   1.000000
    159          0.657549        0.657549   1.000000   1.000000
    160          0.673897        0.673897   1.000000   1.000000
    161          0.674209        0.674209   1.000000   1.000000
    162          0.675554        0.675554   1.000000   1.000000
    163          0.697299        0.697299   1.000000   1.000000
    164          0.697444        0.697444   1.000000   1.000000
    165          0.698438        0.698438   1.000000   1.000000
    166          0.737688        0.737688   1.000000   1.000000
    167          0.738407        0.738407   1.000000   1.000000
    168          0.739388        0.739388   1.000000   1.000000
    169          1.460952        1.460952   1.000004   1.000004
    170          1.487684        1.487684   1.000009   1.000009
    171          1.488151        1.488151   1.000010   1.000010
    172          1.616191        1.616191   1.000374   1.000374
    173          1.950122        1.950122   1.030855   1.030855
    174          2.100809        2.100809   0.752547   0.752547
    175          2.108391        2.108391   0.724879   0.724879
    176          2.109290        2.109290   0.721529   0.721529
    177          2.642942        2.642942  -0.001823  -0.001823
    178          2.645883        2.645883  -0.001713  -0.001713
    179          2.647038        2.647038  -0.001671  -0.001671
    180          3.031226        3.031226  -0.000000  -0.000000
    181          3.032699        3.032699  -0.000000  -0.000000
    182          3.039798        3.039798  -0.000000  -0.000000
    183          3.287215        3.287215  -0.000000  -0.000000
    184          3.289080        3.289080  -0.000000  -0.000000
    185          3.307813        3.307813  -0.000000  -0.000000
    186          3.475751        3.475751  -0.000000  -0.000000
    187          3.477187        3.477187  -0.000000  -0.000000
    188          3.511835        3.511835  -0.000000  -0.000000
    189          3.637529        3.637529  -0.000000  -0.000000
    190          3.638501        3.638501  -0.000000  -0.000000
    191          3.666104        3.666104  -0.000000  -0.000000
    192          3.711585        3.711585  -0.000000  -0.000000
    193          3.712151        3.712151  -0.000000  -0.000000
    194          3.777417        3.777417  -0.000000  -0.000000
    195          6.083744        6.083744  -0.000000  -0.000000
    196          6.141452        6.141452  -0.000000  -0.000000
    197          6.142071        6.142071  -0.000000  -0.000000
    198          6.421839        6.421864  -0.000000  -0.000000
    199          6.520279        6.520284  -0.000000  -0.000000
    200          6.550945        6.550945  -0.000000  -0.000000
    201          6.552897        6.552898  -0.000000  -0.000000
    202          6.660065        6.660071  -0.000000  -0.000000
    203          7.090379        7.090382  -0.000000  -0.000000
    204          7.098243        7.098243  -0.000000  -0.000000
    205          7.118679        7.118679  -0.000000  -0.000000
    206          7.344041        7.344049  -0.000000  -0.000000
    207          7.663553        7.663561   0.000000   0.000000
    208          7.683496        7.683496   0.000000   0.000000
    209          7.708679        7.708679   0.000000   0.000000
    210          7.909656        7.909697   0.000000   0.000000
    211          8.367425        8.367427   0.000000   0.000000
    212          8.436943        8.436943   0.000000   0.000000
    213          8.468378        8.468378   0.000000   0.000000
    214          8.753544        8.753564   0.000000   0.000000
    215          9.307012        9.307024   0.000000   0.000000
    216          9.423364        9.423370   0.000000   0.000000
    217          9.430889        9.430889   0.000000   0.000000
    218          9.475650        9.475659   0.000000   0.000000
    219         10.043433       10.043435   0.000000   0.000000
    220         10.050129       10.050129   0.000000   0.000000
    221         10.153168       10.153169   0.000000   0.000000
    222         10.304194       10.304199   0.000000   0.000000
    223         10.674744       10.674746   0.000000   0.000000
    224         10.706443       10.706443   0.000000   0.000000
    225         10.829147       10.829154   0.000000   0.000000
    226         11.155522       11.155522   0.000000   0.000000
    227         11.197022       11.197030   0.000000   0.000000
    228         11.358641       11.358644   0.000000   0.000000
    229         11.494150       11.494152   0.000000   0.000000
    230         11.542463       11.542479   0.000000   0.000000
    231         11.874843       11.874844   0.000000   0.000000
    232         11.978790       11.978793   0.000000   0.000000
 
  0.3333333E+00  0.5551115E-16  0.0000000E+00  0.4444444E+00
      1         -6.254047       -6.254047   1.000000   1.000000
      2         -5.871906       -5.871906   1.000000   1.000000
      3         -5.266332       -5.266332   1.000000   1.000000
      4         -4.468064       -4.468064   1.000000   1.000000
      5         -4.029420       -4.029420   1.000000   1.000000
      6         -3.769114       -3.769114   1.000000   1.000000
      7         -3.637899       -3.637899   1.000000   1.000000
      8         -3.445300       -3.445300   1.000000   1.000000
      9         -3.387085       -3.387085   1.000000   1.000000
     10         -2.974831       -2.974831   1.000000   1.000000
     11         -2.861106       -2.861106   1.000000   1.000000
     12         -2.705646       -2.705646   1.000000   1.000000
     13         -2.698636       -2.698636   1.000000   1.000000
     14         -2.603021       -2.603021   1.000000   1.000000
     15         -2.552361       -2.552361   1.000000   1.000000
     16         -2.550231       -2.550231   1.000000   1.000000
     17         -2.490150       -2.490150   1.000000   1.000000
     18         -2.453975       -2.453975   1.000000   1.000000
     19         -2.445114       -2.445114   1.000000   1.000000
     20         -2.410274       -2.410274   1.000000   1.000000
     21         -2.402582       -2.402582   1.000000   1.000000
     22         -2.400563       -2.400563   1.000000   1.000000
     23         -2.286974       -2.286974   1.000000   1.000000
     24         -2.285714       -2.285714   1.000000   1.000000
     25         -2.285585       -2.285585   1.000000   1.000000
     26         -2.120196       -2.120196   1.000000   1.000000
     27         -2.118967       -2.118967   1.000000   1.000000
     28         -2.014364       -2.014364   1.000000   1.000000
     29         -2.011420       -2.011420   1.000000   1.000000
     30         -2.009361       -2.009361   1.000000   1.000000
     31         -2.007110       -2.007110   1.000000   1.000000
     32         -1.911754       -1.911754   1.000000   1.000000
     33         -1.909053       -1.909053   1.000000   1.000000
     34         -1.887086       -1.887086   1.000000   1.000000
     35         -1.886022       -1.886022   1.000000   1.000000
     36         -1.881975       -1.881975   1.000000   1.000000
     37         -1.849475       -1.849475   1.000000   1.000000
     38         -1.723567       -1.723567   1.000000   1.000000
     39         -1.720373       -1.720373   1.000000   1.000000
     40         -1.697428       -1.697428   1.000000   1.000000
     41         -1.691611       -1.691611   1.000000   1.000000
     42         -1.690919       -1.690919   1.000000   1.000000
     43         -1.527983       -1.527983   1.000000   1.000000
     44         -1.524945       -1.524945   1.000000   1.000000
     45         -1.519898       -1.519898   1.000000   1.000000
     46         -1.458925       -1.458925   1.000000   1.000000
     47         -1.456415       -1.456415   1.000000   1.000000
     48         -1.405364       -1.405364   1.000000   1.000000
     49         -1.337095       -1.337095   1.000000   1.000000
     50         -1.301871       -1.301871   1.000000   1.000000
     51         -1.298281       -1.298281   1.000000   1.000000
     52         -1.280136       -1.280136   1.000000   1.000000
     53         -1.247750       -1.247750   1.000000   1.000000
     54         -1.190322       -1.190322   1.000000   1.000000
     55         -1.188915       -1.188915   1.000000   1.000000
     56         -1.186456       -1.186456   1.000000   1.000000
     57         -1.164402       -1.164402   1.000000   1.000000
     58         -1.159518       -1.159518   1.000000   1.000000
     59         -1.126109       -1.126109   1.000000   1.000000
     60         -1.123625       -1.123625   1.000000   1.000000
     61         -1.105232       -1.105232   1.000000   1.000000
     62         -1.100332       -1.100332   1.000000   1.000000
     63         -1.093173       -1.093173   1.000000   1.000000
     64         -1.090870       -1.090870   1.000000   1.000000
     65         -1.042660       -1.042660   1.000000   1.000000
     66         -1.000202       -1.000202   1.000000   1.000000
     67         -0.993653       -0.993653   1.000000   1.000000
     68         -0.923848       -0.923848   1.000000   1.000000
     69         -0.894834       -0.894834   1.000000   1.000000
     70         -0.880370       -0.880370   1.000000   1.000000
     71         -0.862150       -0.862150   1.000000   1.000000
     72         -0.851781       -0.851781   1.000000   1.000000
     73         -0.844120       -0.844120   1.000000   1.000000
     74         -0.824635       -0.824635   1.000000   1.000000
     75         -0.815074       -0.815074   1.000000   1.000000
     76         -0.813848       -0.813848   1.000000   1.000000
     77         -0.778427       -0.778427   1.000000   1.000000
     78         -0.759336       -0.759336   1.000000   1.000000
     79         -0.726243       -0.726243   1.000000   1.000000
     80         -0.700974       -0.700974   1.000000   1.000000
     81         -0.694709       -0.694709   1.000000   1.000000
     82         -0.691671       -0.691671   1.000000   1.000000
     83         -0.670127       -0.670127   1.000000   1.000000
     84         -0.667826       -0.667826   1.000000   1.000000
     85         -0.664094       -0.664094   1.000000   1.000000
     86         -0.648198       -0.648198   1.000000   1.000000
     87         -0.644609       -0.644609   1.000000   1.000000
     88         -0.598322       -0.598322   1.000000   1.000000
     89         -0.594678       -0.594678   1.000000   1.000000
     90         -0.588825       -0.588825   1.000000   1.000000
     91         -0.587387       -0.587387   1.000000   1.000000
     92         -0.566775       -0.566775   1.000000   1.000000
     93         -0.527971       -0.527971   1.000000   1.000000
     94         -0.491896       -0.491896   1.000000   1.000000
     95         -0.484090       -0.484090   1.000000   1.000000
     96         -0.473429       -0.473429   1.000000   1.000000
     97         -0.470392       -0.470392   1.000000   1.000000
     98         -0.468966       -0.468966   1.000000   1.000000
     99         -0.465254       -0.465254   1.000000   1.000000
    100         -0.456495       -0.456495   1.000000   1.000000
    101         -0.450831       -0.450831   1.000000   1.000000
    102         -0.439398       -0.439398   1.000000   1.000000
    103         -0.366278       -0.366278   1.000000   1.000000
    104         -0.354974       -0.354974   1.000000   1.000000
    105         -0.352346       -0.352346   1.000000   1.000000
    106         -0.322448       -0.322448   1.000000   1.000000
    107         -0.298108       -0.298108   1.000000   1.000000
    108         -0.286580       -0.286580   1.000000   1.000000
    109         -0.274276       -0.274276   1.000000   1.000000
    110         -0.271887       -0.271887   1.000000   1.000000
    111         -0.261767       -0.261767   1.000000   1.000000
    112         -0.255093       -0.255093   1.000000   1.000000
    113         -0.253007       -0.253007   1.000000   1.000000
    114         -0.202596       -0.202596   1.000000   1.000000
    115         -0.191128       -0.191128   1.000000   1.000000
    116         -0.178310       -0.178310   1.000000   1.000000
    117         -0.132600       -0.132600   1.000000   1.000000
    118         -0.128684       -0.128684   1.000000   1.000000
    119         -0.091882       -0.091882   1.000000   1.000000
    120         -0.062689       -0.062689   1.000000   1.000000
    121         -0.056462       -0.056462   1.000000   1.000000
    122         -0.023053       -0.023053   1.000000   1.000000
    123          0.017045        0.017045   1.000000   1.000000
    124          0.020027        0.020027   1.000000   1.000000
    125          0.021542        0.021542   1.000000   1.000000
    126          0.073285        0.073285   1.000000   1.000000
    127          0.095152        0.095152   1.000000   1.000000
    128          0.150762        0.150762   1.000000   1.000000
    129          0.152723        0.152723   1.000000   1.000000
    130          0.161561        0.161561   1.000000   1.000000
    131          0.197856        0.197856   1.000000   1.000000
    132          0.206408        0.206408   1.000000   1.000000
    133          0.208846        0.208846   1.000000   1.000000
    134          0.216920        0.216920   1.000000   1.000000
    135          0.226687        0.226687   1.000000   1.000000
    136          0.229321        0.229321   1.000000   1.000000
    137          0.237643        0.237643   1.000000   1.000000
    138          0.242563        0.242563   1.000000   1.000000
    139          0.253900        0.253900   1.000000   1.000000
    140          0.255336        0.255336   1.000000   1.000000
    141          0.256083        0.256083   1.000000   1.000000
    142          0.277676        0.277676   1.000000   1.000000
    143          0.314537        0.314537   1.000000   1.000000
    144          0.317402        0.317402   1.000000   1.000000
    145          0.323692        0.323692   1.000000   1.000000
    146          0.339843        0.339843   1.000000   1.000000
    147          0.343964        0.343964   1.000000   1.000000
    148          0.369501        0.369501   1.000000   1.000000
    149          0.376663        0.376663   1.000000   1.000000
    150          0.398129        0.398129   1.000000   1.000000
    151          0.421071        0.421071   1.000000   1.000000
    152          0.432921        0.432921   1.000000   1.000000
    153          0.434312        0.434312   1.000000   1.000000
    154          0.454851        0.454851   1.000000   1.000000
    155          0.537612        0.537612   1.000000   1.000000
    156          0.541430        0.541430   1.000000   1.000000
    157          0.542075        0.542075   1.000000   1.000000
    158          0.570138        0.570138   1.000000   1.000000
    159          0.573136        0.573136   1.000000   1.000000
    160          0.584782        0.584782   1.000000   1.000000
    161          0.587450        0.587450   1.000000   1.000000
    162          0.604240        0.604240   1.000000   1.000000
    163          0.605247        0.605247   1.000000   1.000000
    164          0.626072        0.626072   1.000000   1.000000
    165          0.653063        0.653063   1.000000   1.000000
    166          0.653977        0.653977   1.000000   1.000000
    167          0.671809        0.671809   1.000000   1.000000
    168          0.675119        0.675119   1.000000   1.000000
    169          0.718494        0.718494   1.000000   1.000000
    170          0.721206        0.721206   1.000000   1.000000
    171          1.110420        1.110420   1.000000   1.000000
    172          1.485378        1.485378   1.000009   1.000009
    173          1.848793        1.848793   1.024215   1.024215
    174          1.852059        1.852059   1.024971   1.024971
    175          1.947889        1.947889   1.031543   1.031543
    176          2.004239        2.004239   0.989520   0.989520
    177          2.006157        2.006157   0.987008   0.987008
    178          2.263912        2.263912   0.129672   0.129672
    179          2.267684        2.267684   0.119496   0.119496
    180          2.596934        2.596934  -0.004517  -0.004517
    181          2.782545        2.782545  -0.000055  -0.000055
    182          2.788181        2.788181  -0.000047  -0.000047
    183          3.058386        3.058386  -0.000000  -0.000000
    184          3.581415        3.581415  -0.000000  -0.000000
    185          3.590202        3.590202  -0.000000  -0.000000
    186          3.717105        3.717105  -0.000000  -0.000000
    187          3.969350        3.969350  -0.000000  -0.000000
    188          4.610379        4.610379  -0.000000  -0.000000
    189          4.623317        4.623317  -0.000000  -0.000000
    190          5.481565        5.481565  -0.000000  -0.000000
    191          5.707441        5.707441  -0.000000  -0.000000
    192          5.725192        5.725192  -0.000000  -0.000000
    193          6.363532        6.363532  -0.000000  -0.000000
    194          6.404699        6.404699  -0.000000  -0.000000
    195          6.695185        6.695186  -0.000000  -0.000000
    196          6.901970        6.901970  -0.000000  -0.000000
    197          6.941771        6.941771  -0.000000  -0.000000
    198          7.165788        7.165803  -0.000000  -0.000000
    199          7.222195        7.222203  -0.000000  -0.000000
    200          7.404527        7.404527  -0.000000  -0.000000
    201          7.435382        7.435383  -0.000000  -0.000000
    202          7.825188        7.825195   0.000000   0.000000
    203          7.980322        7.980322   0.000000   0.000000
    204          8.027610        8.027612   0.000000   0.000000
    205          8.265571        8.265608   0.000000   0.000000
    206          8.518097        8.518100   0.000000   0.000000
    207          8.559353        8.559357   0.000000   0.000000
    208          8.614876        8.614878   0.000000   0.000000
    209          8.998616        8.998619   0.000000   0.000000
    210          9.049028        9.049047   0.000000   0.000000
    211          9.308859        9.308861   0.000000   0.000000
    212          9.411052        9.411058   0.000000   0.000000
    213          9.456513        9.456521   0.000000   0.000000
    214          9.738232        9.738247   0.000000   0.000000
    215         10.029162       10.029168   0.000000   0.000000
    216         10.082813       10.082827   0.000000   0.000000
    217         10.151718       10.151722   0.000000   0.000000
    218         10.324258       10.324281   0.000000   0.000000
    219         10.446739       10.446751   0.000000   0.000000
    220         10.602091       10.602095   0.000000   0.000000
    221         10.692154       10.692156   0.000000   0.000000
    222         10.720055       10.720057   0.000000   0.000000
    223         10.941278       10.941305   0.000000   0.000000
    224         10.980699       10.980699   0.000000   0.000000
    225         10.990409       10.990411   0.000000   0.000000
    226         11.136361       11.136366   0.000000   0.000000
    227         11.281981       11.281983   0.000000   0.000000
    228         11.332842       11.332844   0.000000   0.000000
    229         11.491441       11.491460   0.000000   0.000000
    230         11.710879       11.710883   0.000000   0.000000
    231         11.828680       11.828683   0.000000   0.000000