<?xml version="1.0" encoding="ISO-8859-1"?>
<modeling>
 <generator>
  <i name="program" type="string">vasp </i>
  <i name="version" type="string">6.3.2  </i>
  <i name="subversion" type="string">27Jun22 (build Aug 17 2022 15:43:34) complex                          parallel </i>
  <i name="platform" type="string">tv2STDVTST </i>
  <i name="date" type="string">2025 02 17 </i>
  <i name="time" type="string">21:11:02 </i>
 </generator>
 <incar>
  <i type="int" name="ISTART">     0</i>
  <i type="string" name="PREC">Normal</i>
  <i type="int" name="ISPIN">     2</i>
  <i type="int" name="ICHARG">     2</i>
  <i type="int" name="IBRION">     2</i>
  <i name="EDIFF">      0.00020000</i>
  <i name="EDIFFG">     -0.03000000</i>
  <i type="int" name="NSW">   800</i>
  <i type="int" name="ISIF">     2</i>
  <i type="int" name="ISYM">     1</i>
  <i name="ENCUT">    400.00000000</i>
  <i name="POTIM">      0.50000000</i>
  <i type="logical" name="LREAL"> F  </i>
  <i type="int" name="ISMEAR">     1</i>
  <i name="SIGMA">      0.20000000</i>
  <i type="logical" name="LWAVE"> F  </i>
  <i type="logical" name="LCHARG"> F  </i>
  <i type="string" name="GGA">PE</i>
  <i type="int" name="IVDW">    11</i>
 </incar>
 <primitive_cell>
  <structure name="primitive_cell" >
   <crystal>
    <varray name="basis" >
     <v>       5.13359547       0.00000000       0.00000000 </v>
     <v>       2.56679773       4.44582409       0.00000000 </v>
     <v>       0.00000000       0.00000000      29.67047119 </v>
    </varray>
    <i name="volume">    677.17101477 </i>
    <varray name="rec_basis" >
     <v>       0.19479525      -0.11246509       0.00000000 </v>
     <v>       0.00000000       0.22493018       0.00000000 </v>
     <v>       0.00000000       0.00000000       0.03370354 </v>
    </varray>
   </crystal>
   <varray name="positions" >
    <v>       0.00000000       0.00000000       0.00000000 </v>
    <v>       1.00000000       0.50000000       0.00000000 </v>
    <v>       0.50000000       0.00000000       0.00000000 </v>
    <v>       0.50000000       0.50000000       0.00000000 </v>
    <v>       0.16666667       0.16666667       0.07063526 </v>
    <v>       0.16666667       0.66666667       0.07063526 </v>
    <v>       0.66666667       0.16666667       0.07063526 </v>
    <v>       0.66666667       0.66666667       0.07063526 </v>
    <v>       0.33333333       0.33333333       0.13847021 </v>
    <v>       0.33333333       0.83333333       0.13847021 </v>
    <v>       0.83333333       0.33333333       0.13847021 </v>
    <v>       0.83333333       0.83333333       0.13847021 </v>
    <v>       0.00000000       0.00000000       0.20667428 </v>
    <v>       1.00000000       0.50000000       0.20667428 </v>
    <v>       0.50000000       0.00000000       0.20667428 </v>
    <v>       0.50000000       0.50000000       0.20667428 </v>
    <v>       0.16666667       0.16666667       0.27488859 </v>
    <v>       0.16666667       0.66666667       0.27488859 </v>
    <v>       0.66666667       0.16666667       0.27488859 </v>
    <v>       0.66666667       0.66666667       0.27488859 </v>
    <v>       0.33333333       0.33333333       0.34319917 </v>
    <v>       0.33333333       0.83333333       0.34319917 </v>
    <v>       0.83333333       0.33333333       0.34319917 </v>
    <v>       0.83333333       0.83333333       0.34319917 </v>
    <v>       0.00000000       0.00000000       0.41105828 </v>
    <v>       1.00000000       0.50000000       0.41105828 </v>
    <v>       0.50000000       0.00000000       0.41105828 </v>
    <v>       0.50000000       0.50000000       0.41105828 </v>
    <v>       0.16666667       0.16666667       0.48054462 </v>
    <v>       0.16666667       0.66666667       0.48054462 </v>
    <v>       0.66666667       0.16666667       0.48054462 </v>
    <v>       0.66666667       0.66666667       0.48054462 </v>
    <v>       0.00000000       0.50000000       0.53425930 </v>
    <v>       0.91610104       0.66779791       0.53425930 </v>
   </varray>
  </structure>
  <varray name="primitive_index" >
   <v type="int" >        1 </v>
   <v type="int" >        2 </v>
   <v type="int" >        3 </v>
   <v type="int" >        4 </v>
   <v type="int" >        5 </v>
   <v type="int" >        6 </v>
   <v type="int" >        7 </v>
   <v type="int" >        8 </v>
   <v type="int" >        9 </v>
   <v type="int" >       10 </v>
   <v type="int" >       11 </v>
   <v type="int" >       12 </v>
   <v type="int" >       13 </v>
   <v type="int" >       14 </v>
   <v type="int" >       15 </v>
   <v type="int" >       16 </v>
   <v type="int" >       17 </v>
   <v type="int" >       18 </v>
   <v type="int" >       19 </v>
   <v type="int" >       20 </v>
   <v type="int" >       21 </v>
   <v type="int" >       22 </v>
   <v type="int" >       23 </v>
   <v type="int" >       24 </v>
   <v type="int" >       25 </v>
   <v type="int" >       26 </v>
   <v type="int" >       27 </v>
   <v type="int" >       28 </v>
   <v type="int" >       29 </v>
   <v type="int" >       30 </v>
   <v type="int" >       31 </v>
   <v type="int" >       32 </v>
   <v type="int" >       33 </v>
   <v type="int" >       34 </v>
  </varray>
 </primitive_cell>
 <kpoints>
  <generation param="Monkhorst-Pack">
   <v type="int" name="divisions">       3        3        1 </v>
   <v name="usershift">      0.00000000       0.00000000       0.00000000 </v>
   <v name="genvec1">      0.33333333       0.00000000       0.00000000 </v>
   <v name="genvec2">      0.00000000       0.33333333       0.00000000 </v>
   <v name="genvec3">      0.00000000       0.00000000       1.00000000 </v>
   <v name="shift">      0.00000000       0.00000000       0.00000000 </v>
  </generation>
  <varray name="kpointlist" >
   <v>       0.00000000       0.00000000       0.00000000 </v>
   <v>       0.33333333       0.00000000       0.00000000 </v>
   <v>       0.00000000       0.33333333       0.00000000 </v>
   <v>      -0.33333333       0.33333333       0.00000000 </v>
  </varray>
  <varray name="weights" >
   <v>       0.11111111 </v>
   <v>       0.44444444 </v>
   <v>       0.22222222 </v>
   <v>       0.22222222 </v>
  </varray>
 </kpoints>
 <parameters>
  <separator name="general" >
   <i type="string" name="SYSTEM">unknown system</i>
   <i type="logical" name="LCOMPAT"> F  </i>
  </separator>
  <separator name="electronic" >
   <i type="string" name="PREC">normal</i>
   <i name="ENMAX">    400.00000000</i>
   <i name="ENAUG">    586.98000000</i>
   <i name="EDIFF">      0.00020000</i>
   <i type="int" name="IALGO">    38</i>
   <i type="int" name="IWAVPR">    11</i>
   <i type="int" name="NBANDS">   232</i>
   <i type="int" name="NBANDSLOW">    -1</i>
   <i type="int" name="NBANDSHIGH">    -1</i>
   <i name="NELECT">    354.00000000</i>
   <i type="int" name="TURBO">     0</i>
   <i type="int" name="IRESTART">     0</i>
   <i type="int" name="NREBOOT">     0</i>
   <i type="int" name="NMIN">     0</i>
   <i name="EREF">      0.00000000</i>
   <separator name="electronic smearing" >
    <i type="int" name="ISMEAR">     1</i>
    <i name="SIGMA">      0.20000000</i>
    <i name="KSPACING">      0.50000000</i>
    <i type="logical" name="KGAMMA"> T  </i>
    <i type="logical" name="KBLOWUP"> T  </i>
   </separator>
   <separator name="electronic projectors" >
    <i type="logical" name="LREAL"> F  </i>
    <v name="ROPT">      0.00000000      0.00000000</v>
    <i type="int" name="LMAXPAW">  -100</i>
    <i type="int" name="LMAXMIX">     2</i>
    <i type="logical" name="NLSPLINE"> F  </i>
   </separator>
   <separator name="electronic startup" >
    <i type="int" name="ISTART">     0</i>
    <i type="int" name="ICHARG">     2</i>
    <i type="int" name="INIWAV">     1</i>
   </separator>
   <separator name="electronic spin" >
    <i type="int" name="ISPIN">     2</i>
    <i type="logical" name="LNONCOLLINEAR"> F  </i>
    <v name="MAGMOM">      1.00000000      1.00000000      1.00000000      1.00000000      1.00000000      1.00000000      1.00000000      1.00000000      1.00000000      1.00000000      1.00000000      1.00000000      1.00000000      1.00000000      1.00000000      1.00000000      1.00000000      1.00000000      1.00000000      1.00000000
      1.00000000      1.00000000      1.00000000      1.00000000      1.00000000      1.00000000      1.00000000      1.00000000      1.00000000      1.00000000      1.00000000      1.00000000      1.00000000      1.00000000</v>
    <i name="NUPDOWN">     -1.00000000</i>
    <i type="logical" name="LSORBIT"> F  </i>
    <v name="SAXIS">      0.00000000      0.00000000      1.00000000</v>
    <i type="logical" name="LSPIRAL"> F  </i>
    <v name="QSPIRAL">      0.00000000      0.00000000      0.00000000</v>
    <i type="logical" name="LZEROZ"> F  </i>
   </separator>
   <separator name="electronic exchange-correlation" >
    <i type="logical" name="LASPH"> F  </i>
    <i type="logical" name="LMETAGGA"> F  </i>
   </separator>
   <separator name="electronic convergence" >
    <i type="int" name="NELM">    60</i>
    <i type="int" name="NELMDL">    -5</i>
    <i type="int" name="NELMIN">     2</i>
    <i name="ENINI">    400.00000000</i>
    <separator name="electronic convergence detail" >
     <i type="logical" name="LDIAG"> T  </i>
     <i type="logical" name="LSUBROT"> F  </i>
     <i name="WEIMIN">      0.00100000</i>
     <i name="EBREAK">      0.00000022</i>
     <i name="DEPER">      0.30000000</i>
     <i type="int" name="NRMM">     4</i>
     <i name="TIME">      0.40000000</i>
    </separator>
   </separator>
   <separator name="electronic mixer" >
    <i name="AMIX">      0.40000000</i>
    <i name="BMIX">      1.00000000</i>
    <i name="AMIN">      0.10000000</i>
    <i name="AMIX_MAG">      1.60000000</i>
    <i name="BMIX_MAG">      1.00000000</i>
    <separator name="electronic mixer details" >
     <i type="int" name="IMIX">     4</i>
     <i type="logical" name="MIXFIRST"> F  </i>
     <i type="int" name="MAXMIX">   -45</i>
     <i name="WC">    100.00000000</i>
     <i type="int" name="INIMIX">     1</i>
     <i type="int" name="MIXPRE">     1</i>
     <i type="int" name="MREMOVE">     5</i>
    </separator>
   </separator>
   <separator name="electronic dipolcorrection" >
    <i type="logical" name="LDIPOL"> F  </i>
    <i type="logical" name="LMONO"> F  </i>
    <i type="int" name="IDIPOL">     0</i>
    <i name="EPSILON">      1.00000000</i>
    <v name="DIPOL">   -100.00000000   -100.00000000   -100.00000000</v>
    <i name="EFIELD">      0.00000000</i>
   </separator>
  </separator>
  <separator name="grids" >
   <i type="int" name="NGX">    28</i>
   <i type="int" name="NGY">    28</i>
   <i type="int" name="NGZ">   150</i>
   <i type="int" name="NGXF">    56</i>
   <i type="int" name="NGYF">    56</i>
   <i type="int" name="NGZF">   300</i>
   <i type="logical" name="ADDGRID"> F  </i>
  </separator>
  <separator name="ionic" >
   <i type="int" name="NSW">   800</i>
   <i type="int" name="IBRION">     2</i>
   <i type="int" name="MDALGO">     0</i>
   <i type="int" name="ISIF">     2</i>
   <i name="PSTRESS">      0.00000000</i>
   <i name="EDIFFG">     -0.03000000</i>
   <i type="int" name="NFREE">     1</i>
   <i name="POTIM">      0.50000000</i>
   <i name="SMASS">     -3.00000000</i>
   <i name="SCALEE">      1.00000000</i>
  </separator>
  <separator name="ionic md" >
   <i name="TEBEG">      0.00010000</i>
   <i name="TEEND">      0.00010000</i>
   <i type="int" name="NBLOCK">     1</i>
   <i type="int" name="KBLOCK">   800</i>
   <i type="int" name="NPACO">   256</i>
   <i name="APACO">     10.00000000</i>
  </separator>
  <separator name="symmetry" >
   <i type="int" name="ISYM">     1</i>
   <i name="SYMPREC">      0.00001000</i>
  </separator>
  <separator name="dos" >
   <i type="int" name="LORBIT">     0</i>
   <v name="RWIGS">     -1.00000000     -1.00000000</v>
   <i type="int" name="NEDOS">   301</i>
   <i name="EMIN">     10.00000000</i>
   <i name="EMAX">    -10.00000000</i>
   <i name="EFERMI">      0.00000000</i>
  </separator>
  <separator name="writing" >
   <i type="int" name="NWRITE">     2</i>
   <i type="logical" name="LWAVE"> F  </i>
   <i type="logical" name="LDOWNSAMPLE"> F  </i>
   <i type="logical" name="LCHARG"> F  </i>
   <i type="logical" name="LPARD"> F  </i>
   <i type="logical" name="LVTOT"> F  </i>
   <i type="logical" name="LVHAR"> F  </i>
   <i type="logical" name="LELF"> F  </i>
   <i type="logical" name="LOPTICS"> F  </i>
   <v name="STM">      0.00000000      0.00000000      0.00000000      0.00000000      0.00000000      0.00000000      0.00000000</v>
  </separator>
  <separator name="performance" >
   <i type="int" name="NPAR">     4</i>
   <i type="int" name="NSIM">     4</i>
   <i type="int" name="NBLK">    -1</i>
   <i type="logical" name="LPLANE"> T  </i>
   <i type="logical" name="LSCALAPACK"> T  </i>
   <i type="logical" name="LSCAAWARE"> F  </i>
   <i type="logical" name="LSCALU"> F  </i>
   <i type="logical" name="LASYNC"> F  </i>
   <i type="logical" name="LORBITALREAL"> F  </i>
  </separator>
  <separator name="miscellaneous" >
   <i type="int" name="IDIOT">     3</i>
   <i type="int" name="PHON_NSTRUCT">    -1</i>
   <i type="logical" name="LMUSIC"> F  </i>
   <v name="POMASS">     63.54600000      1.00000000</v>
   <v name="DARWINR">      0.00000000      0.00000000</v>
   <v name="DARWINV">      1.00000000      1.00000000</v>
   <i type="logical" name="LCORR"> T  </i>
  </separator>
  <i type="logical" name="GGA_COMPAT"> T  </i>
  <i type="logical" name="LBERRY"> F  </i>
  <i type="int" name="ICORELEVEL">     0</i>
  <i type="logical" name="LDAU"> F  </i>
  <i type="int" name="I_CONSTRAINED_M">     0</i>
  <separator name="electronic exchange-correlation" >
   <i type="string" name="GGA">PE</i>
   <i type="int" name="VOSKOWN">     0</i>
   <i type="logical" name="LHFCALC"> F  </i>
   <i type="string" name="PRECFOCK"></i>
   <i type="logical" name="LSYMGRAD"> F  </i>
   <i type="logical" name="LHFONE"> F  </i>
   <i type="logical" name="LRHFCALC"> F  </i>
   <i type="logical" name="LTHOMAS"> F  </i>
   <i type="logical" name="LMODELHF"> F  </i>
   <i type="logical" name="LFOCKACE"> F  </i>
   <i name="ENCUT4O">     -1.00000000</i>
   <i type="int" name="EXXOEP">     0</i>
   <i type="int" name="FOURORBIT">     0</i>
   <i name="AEXX">      0.00000000</i>
   <i name="HFALPHA">      0.00000000</i>
   <i name="MCALPHA">      0.00000000</i>
   <i name="ALDAX">      1.00000000</i>
   <i name="AGGAX">      1.00000000</i>
   <i name="ALDAC">      1.00000000</i>
   <i name="AGGAC">      1.00000000</i>
   <i type="int" name="NKREDX">     1</i>
   <i type="int" name="NKREDY">     1</i>
   <i type="int" name="NKREDZ">     1</i>
   <i type="logical" name="SHIFTRED"> F  </i>
   <i type="logical" name="ODDONLY"> F  </i>
   <i type="logical" name="EVENONLY"> F  </i>
   <i type="int" name="LMAXFOCK">     0</i>
   <i type="int" name="NMAXFOCKAE">     0</i>
   <i type="logical" name="LFOCKAEDFT"> F  </i>
   <i name="HFSCREEN">      0.00000000</i>
   <i name="HFSCREENC">      0.00000000</i>
   <i type="int" name="NBANDSGWLOW">     0</i>
  </separator>
  <separator name="vdW DFT" >
   <i type="logical" name="LUSE_VDW"> F  </i>
   <i name="Zab_VDW">     -0.84910000</i>
   <i name="PARAM1">      0.12340000</i>
   <i name="PARAM2">      1.00000000</i>
   <i name="PARAM3">      0.00000000</i>
  </separator>
  <separator name="model GW" >
   <i type="int" name="MODEL_GW">     0</i>
   <i name="MODEL_EPS0">     11.95007673</i>
   <i name="MODEL_ALPHA">      1.00000000</i>
  </separator>
  <separator name="linear response parameters" >
   <i type="logical" name="LEPSILON"> F  </i>
   <i type="logical" name="LRPA"> F  </i>
   <i type="logical" name="LNABLA"> F  </i>
   <i type="logical" name="LVEL"> F  </i>
   <i name="CSHIFT">      0.10000000</i>
   <i name="OMEGAMAX">     -1.00000000</i>
   <i name="DEG_THRESHOLD">      0.00200000</i>
   <i name="RTIME">     -0.10000000</i>
   <i name="WPLASMAI">      0.00000000</i>
   <v name="DFIELD">      0.00000000      0.00000000      0.00000000</v>
   <v name="WPLASMA">      0.00000000      0.00000000      0.00000000      0.00000000      0.00000000      0.00000000      0.00000000      0.00000000      0.00000000</v>
  </separator>
  <separator name="orbital magnetization" >
   <i type="logical" name="NUCIND"> F  </i>
   <v name="MAGPOS">      0.00000000      0.00000000      0.00000000</v>
   <i type="logical" name="LNICSALL"> T  </i>
   <i type="logical" name="ORBITALMAG"> F  </i>
   <i type="logical" name="LMAGBLOCH"> F  </i>
   <i type="logical" name="LCHIMAG"> F  </i>
   <i type="logical" name="LGAUGE"> T  </i>
   <i type="int" name="MAGATOM">     0</i>
   <v name="MAGDIPOL">      0.00000000      0.00000000      0.00000000</v>
   <v name="AVECCONST">      0.00000000      0.00000000      0.00000000</v>
  </separator>
  <separator name="response functions" >
   <i type="logical" name="LFINITE_TEMPERATURE"> F  </i>
   <i type="logical" name="LADDER"> F  </i>
   <i type="logical" name="LRPAFORCE"> F  </i>
   <i type="logical" name="LFXC"> F  </i>
   <i type="logical" name="LHARTREE"> T  </i>
   <i type="int" name="IBSE">     0</i>
   <v type="int" name="KPOINT">    -1     0     0     0</v>
   <i type="logical" name="LTCTC"> F  </i>
   <i type="logical" name="LTCTE"> F  </i>
   <i type="logical" name="LTETE"> F  </i>
   <i type="logical" name="LTRIPLET"> F  </i>
   <i type="logical" name="LFXCEPS"> F  </i>
   <i type="logical" name="LFXHEG"> F  </i>
   <i type="int" name="NATURALO">     2</i>
   <i type="logical" name="LHOLEGF"> F  </i>
   <i type="logical" name="L2ORDER"> F  </i>
   <i type="logical" name="LDMP1"> F  </i>
   <i type="logical" name="LMP2LT"> F  </i>
   <i type="logical" name="LSMP2LT"> F  </i>
   <i type="logical" name="LGWLF"> F  </i>
   <i name="ENCUTGW">     -2.00000000</i>
   <i name="ENCUTGWSOFT">     -2.00000000</i>
   <i name="ENCUTLF">     -1.00000000</i>
   <i type="logical" name="LESF_SPLINES"> F  </i>
   <i type="int" name="LMAXMP2">    -1</i>
   <i name="SCISSOR">      0.00000000</i>
   <i type="int" name="NOMEGA">     0</i>
   <i type="int" name="NOMEGAR">     0</i>
   <i type="int" name="NBANDSGW">    -1</i>
   <i type="int" name="NBANDSO">    -1</i>
   <i type="int" name="NBANDSV">    -1</i>
   <i type="int" name="NELMGW">     1</i>
   <i type="int" name="NELMHF">     1</i>
   <i type="int" name="DIM">     3</i>
   <i type="int" name="IESPILON">     4</i>
   <i type="int" name="ANTIRES">     0</i>
   <i name="OMEGAMAX">    -30.00000000</i>
   <i name="OMEGAMIN">    -30.00000000</i>
   <i name="OMEGATL">   -200.00000000</i>
   <i type="int" name="OMEGAGRID">     0</i>
   <i name="CSHIFT">     -0.10000000</i>
   <i type="logical" name="LSELFENERGY"> F  </i>
   <i type="logical" name="LSPECTRAL"> F  </i>
   <i type="logical" name="LSPECTRALGW"> F  </i>
   <i type="logical" name="LSINGLES"> F  </i>
   <i type="logical" name="LFERMIGW"> F  </i>
   <i type="logical" name="ODDONLYGW"> F  </i>
   <i type="logical" name="EVENONLYGW"> F  </i>
   <i type="int" name="NKREDLFX">     1</i>
   <i type="int" name="NKREDLFY">     1</i>
   <i type="int" name="NKREDLFZ">     1</i>
   <i type="int" name="MAXMEM">  2800</i>
   <i type="int" name="TELESCOPE">     0</i>
   <i type="int" name="NTAUPAR">    -1</i>
   <i type="int" name="NOMEGAPAR">    -1</i>
   <i name="DAMP_NEWTON">      0.80000001</i>
   <i name="LAMBDA">      1.00000000</i>
  </separator>
  <separator name="External order field" >
   <i name="OFIELD_KAPPA">      0.00000000</i>
   <v name="OFIELD_K">      0.00000000      0.00000000      0.00000000</v>
   <i name="OFIELD_Q6_NEAR">      0.00000000</i>
   <i name="OFIELD_Q6_FAR">      0.00000000</i>
   <i name="OFIELD_A">      0.00000000</i>
  </separator>
  <separator name="optional k-points parameters" >
   <i type="int" name="KPOINTS_OPT_MODE">     1</i>
   <i type="logical" name="LKPOINTS_OPT"> F  </i>
  </separator>
 </parameters>
 <atominfo>
  <atoms>      34 </atoms>
  <types>       2 </types>
  <array name="atoms" >
   <dimension dim="1">ion</dimension>
   <field type="string">element</field>
   <field type="int">atomtype</field>
   <set>
    <rc><c>Cu</c><c>   1</c></rc>
    <rc><c>Cu</c><c>   1</c></rc>
    <rc><c>Cu</c><c>   1</c></rc>
    <rc><c>Cu</c><c>   1</c></rc>
    <rc><c>Cu</c><c>   1</c></rc>
    <rc><c>Cu</c><c>   1</c></rc>
    <rc><c>Cu</c><c>   1</c></rc>
    <rc><c>Cu</c><c>   1</c></rc>
    <rc><c>Cu</c><c>   1</c></rc>
    <rc><c>Cu</c><c>   1</c></rc>
    <rc><c>Cu</c><c>   1</c></rc>
    <rc><c>Cu</c><c>   1</c></rc>
    <rc><c>Cu</c><c>   1</c></rc>
    <rc><c>Cu</c><c>   1</c></rc>
    <rc><c>Cu</c><c>   1</c></rc>
    <rc><c>Cu</c><c>   1</c></rc>
    <rc><c>Cu</c><c>   1</c></rc>
    <rc><c>Cu</c><c>   1</c></rc>
    <rc><c>Cu</c><c>   1</c></rc>
    <rc><c>Cu</c><c>   1</c></rc>
    <rc><c>Cu</c><c>   1</c></rc>
    <rc><c>Cu</c><c>   1</c></rc>
    <rc><c>Cu</c><c>   1</c></rc>
    <rc><c>Cu</c><c>   1</c></rc>
    <rc><c>Cu</c><c>   1</c></rc>
    <rc><c>Cu</c><c>   1</c></rc>
    <rc><c>Cu</c><c>   1</c></rc>
    <rc><c>Cu</c><c>   1</c></rc>
    <rc><c>Cu</c><c>   1</c></rc>
    <rc><c>Cu</c><c>   1</c></rc>
    <rc><c>Cu</c><c>   1</c></rc>
    <rc><c>Cu</c><c>   1</c></rc>
    <rc><c>H </c><c>   2</c></rc>
    <rc><c>H </c><c>   2</c></rc>
   </set>
  </array>
  <array name="atomtypes" >
   <dimension dim="1">type</dimension>
   <field type="int">atomspertype</field>
   <field type="string">element</field>
   <field>mass</field>
   <field>valence</field>
   <field type="string">pseudopotential</field>
   <set>
    <rc><c>  32</c><c>Cu</c><c>     63.54600000</c><c>     11.00000000</c><c>  PAW_PBE Cu 22Jun2005                  </c></rc>
    <rc><c>   2</c><c>H </c><c>      1.00000000</c><c>      1.00000000</c><c>  PAW_PBE H 15Jun2001                   </c></rc>
   </set>
  </array>
 </atominfo>
 <structure name="initialpos" >
  <crystal>
   <varray name="basis" >
    <v>       5.13359547       0.00000000       0.00000000 </v>
    <v>       2.56679773       4.44582409       0.00000000 </v>
    <v>       0.00000000       0.00000000      29.67047119 </v>
   </varray>
   <i name="volume">    677.17101477 </i>
   <varray name="rec_basis" >
    <v>       0.19479525      -0.11246509       0.00000000 </v>
    <v>       0.00000000       0.22493018       0.00000000 </v>
    <v>       0.00000000       0.00000000       0.03370354 </v>
   </varray>
  </crystal>
  <varray name="positions" >
   <v>       0.00000000       0.00000000       0.00000000 </v>
   <v>       1.00000000       0.50000000       0.00000000 </v>
   <v>       0.50000000       0.00000000       0.00000000 </v>
   <v>       0.50000000       0.50000000       0.00000000 </v>
   <v>       0.16666667       0.16666667       0.07063526 </v>
   <v>       0.16666667       0.66666667       0.07063526 </v>
   <v>       0.66666667       0.16666667       0.07063526 </v>
   <v>       0.66666667       0.66666667       0.07063526 </v>
   <v>       0.33333333       0.33333333       0.13847021 </v>
   <v>       0.33333333       0.83333333       0.13847021 </v>
   <v>       0.83333333       0.33333333       0.13847021 </v>
   <v>       0.83333333       0.83333333       0.13847021 </v>
   <v>       0.00000000       0.00000000       0.20667428 </v>
   <v>       1.00000000       0.50000000       0.20667428 </v>
   <v>       0.50000000       0.00000000       0.20667428 </v>
   <v>       0.50000000       0.50000000       0.20667428 </v>
   <v>       0.16666667       0.16666667       0.27488859 </v>
   <v>       0.16666667       0.66666667       0.27488859 </v>
   <v>       0.66666667       0.16666667       0.27488859 </v>
   <v>       0.66666667       0.66666667       0.27488859 </v>
   <v>       0.33333333       0.33333333       0.34319917 </v>
   <v>       0.33333333       0.83333333       0.34319917 </v>
   <v>       0.83333333       0.33333333       0.34319917 </v>
   <v>       0.83333333       0.83333333       0.34319917 </v>
   <v>       0.00000000       0.00000000       0.41105828 </v>
   <v>       1.00000000       0.50000000       0.41105828 </v>
   <v>       0.50000000       0.00000000       0.41105828 </v>
   <v>       0.50000000       0.50000000       0.41105828 </v>
   <v>       0.16666667       0.16666667       0.48054462 </v>
   <v>       0.16666667       0.66666667       0.48054462 </v>
   <v>       0.66666667       0.16666667       0.48054462 </v>
   <v>       0.66666667       0.66666667       0.48054462 </v>
   <v>       0.00000000       0.50000000       0.53425930 </v>
   <v>       0.91610104       0.66779791       0.53425930 </v>
  </varray>
 </structure>
 <calculation>
  <scstep>
   <time name="dav">    6.10    6.15</time>
   <time name="total">    6.19    6.24</time>
   <energy>
    <i name="alphaZ">   1114.72537883 </i>
    <i name="ewald"> 216567.80986745 </i>
    <i name="hartreedc">-260597.38392144 </i>
    <i name="XCdc">   1472.17241008 </i>
    <i name="pawpsdc">  39302.70853331 </i>
    <i name="pawaedc"> -42689.07521165 </i>
    <i name="eentropy">     -0.00747082 </i>
    <i name="bandstr">   3743.96710478 </i>
    <i name="atom">  44535.60175172 </i>
    <i name="e_fr_energy">   3450.51844227 </i>
    <i name="e_wo_entrp">   3450.52591309 </i>
    <i name="e_0_energy">   3450.52093254 </i>
   </energy>
  </scstep>
  <scstep>
   <time name="dav">    6.02    6.08</time>
   <time name="total">    6.02    6.08</time>
   <energy>
    <i name="e_fr_energy">    487.00636373 </i>
    <i name="e_wo_entrp">    487.02158990 </i>
    <i name="e_0_energy">    487.01143912 </i>
   </energy>
  </scstep>
  <scstep>
   <time name="dav">    6.04    6.09</time>
   <time name="total">    6.04    6.10</time>
   <energy>
    <i name="e_fr_energy">    -92.58117041 </i>
    <i name="e_wo_entrp">    -92.58389859 </i>
    <i name="e_0_energy">    -92.58207981 </i>
   </energy>
  </scstep>
  <scstep>
   <time name="dav">    6.48    6.53</time>
   <time name="total">    6.48    6.54</time>
   <energy>
    <i name="e_fr_energy">   -138.28267191 </i>
    <i name="e_wo_entrp">   -138.31152175 </i>
    <i name="e_0_energy">   -138.29228852 </i>
   </energy>
  </scstep>
  <scstep>
   <time name="dav">    6.52    6.58</time>
   <time name="total">    6.91    6.97</time>
   <energy>
    <i name="e_fr_energy">   -139.39734601 </i>
    <i name="e_wo_entrp">   -139.42809335 </i>
    <i name="e_0_energy">   -139.40759512 </i>
   </energy>
  </scstep>
  <scstep>
   <time name="dav">    6.62    6.67</time>
   <time name="total">    7.08    7.14</time>
   <energy>
    <i name="e_fr_energy">   -115.06218059 </i>
    <i name="e_wo_entrp">   -115.02100363 </i>
    <i name="e_0_energy">   -115.04845494 </i>
   </energy>
  </scstep>
  <scstep>
   <time name="dav">    6.73    6.79</time>
   <time name="total">    7.18    7.24</time>
   <energy>
    <i name="e_fr_energy">   -102.83235611 </i>
    <i name="e_wo_entrp">   -102.82420631 </i>
    <i name="e_0_energy">   -102.82963951 </i>
   </energy>
  </scstep>
  <scstep>
   <time name="dav">    7.29    7.35</time>
   <time name="total">    7.75    7.81</time>
   <energy>
    <i name="e_fr_energy">   -108.91913137 </i>
    <i name="e_wo_entrp">   -108.96633532 </i>
    <i name="e_0_energy">   -108.93486602 </i>
   </energy>
  </scstep>
  <scstep>
   <time name="dav">    7.84    7.91</time>
   <time name="total">    8.30    8.37</time>
   <energy>
    <i name="e_fr_energy">    -99.06738640 </i>
    <i name="e_wo_entrp">    -99.01473500 </i>
    <i name="e_0_energy">    -99.04983593 </i>
   </energy>
  </scstep>
  <scstep>
   <time name="dav">    7.50    7.56</time>
   <time name="total">    7.96    8.03</time>
   <energy>
    <i name="e_fr_energy">   -100.33341359 </i>
    <i name="e_wo_entrp">   -100.34491349 </i>
    <i name="e_0_energy">   -100.33724689 </i>
   </energy>
  </scstep>
  <scstep>
   <time name="dav">    7.05    7.11</time>
   <time name="total">    7.50    7.57</time>
   <energy>
    <i name="e_fr_energy">   -102.64564535 </i>
    <i name="e_wo_entrp">   -102.70328708 </i>
    <i name="e_0_energy">   -102.66485926 </i>
   </energy>
  </scstep>
  <scstep>
   <time name="dav">    6.88    6.93</time>
   <time name="total">    7.34    7.40</time>
   <energy>
    <i name="e_fr_energy">   -101.61428415 </i>
    <i name="e_wo_entrp">   -101.63075638 </i>
    <i name="e_0_energy">   -101.61977489 </i>
   </energy>
  </scstep>
  <scstep>
   <time name="dav">    8.64    8.72</time>
   <time name="total">    9.09    9.17</time>
   <energy>
    <i name="e_fr_energy">   -102.79565209 </i>
    <i name="e_wo_entrp">   -102.83039365 </i>
    <i name="e_0_energy">   -102.80723261 </i>
   </energy>
  </scstep>
  <scstep>
   <time name="dav">    8.30    8.38</time>
   <time name="total">    8.76    8.83</time>
   <energy>
    <i name="e_fr_energy">   -105.21485434 </i>
    <i name="e_wo_entrp">   -105.21869574 </i>
    <i name="e_0_energy">   -105.21613480 </i>
   </energy>
  </scstep>
  <scstep>
   <time name="dav">    7.53    7.60</time>
   <time name="total">    7.97    8.04</time>
   <energy>
    <i name="e_fr_energy">   -109.30845947 </i>
    <i name="e_wo_entrp">   -109.30824048 </i>
    <i name="e_0_energy">   -109.30838647 </i>
   </energy>
  </scstep>
  <scstep>
   <time name="dav">    7.16    7.23</time>
   <time name="total">    7.62    7.68</time>
   <energy>
    <i name="e_fr_energy">   -111.99962180 </i>
    <i name="e_wo_entrp">   -111.99270279 </i>
    <i name="e_0_energy">   -111.99731547 </i>
   </energy>
  </scstep>
  <scstep>
   <time name="dav">    7.15    7.21</time>
   <time name="total">    7.62    7.68</time>
   <energy>
    <i name="e_fr_energy">   -113.61599402 </i>
    <i name="e_wo_entrp">   -113.59560430 </i>
    <i name="e_0_energy">   -113.60919745 </i>
   </energy>
  </scstep>
  <scstep>
   <time name="dav">    7.07    7.13</time>
   <time name="total">    7.53    7.59</time>
   <energy>
    <i name="e_fr_energy">   -114.60416767 </i>
    <i name="e_wo_entrp">   -114.58330227 </i>
    <i name="e_0_energy">   -114.59721254 </i>
   </energy>
  </scstep>
  <scstep>
   <time name="dav">    6.83    6.89</time>
   <time name="total">    7.29    7.35</time>
   <energy>
    <i name="e_fr_energy">   -115.52075259 </i>
    <i name="e_wo_entrp">   -115.50255285 </i>
    <i name="e_0_energy">   -115.51468601 </i>
   </energy>
  </scstep>
  <scstep>
   <time name="dav">    7.10    7.17</time>
   <time name="total">    7.55    7.62</time>
   <energy>
    <i name="e_fr_energy">   -116.37056367 </i>
    <i name="e_wo_entrp">   -116.35523533 </i>
    <i name="e_0_energy">   -116.36545423 </i>
   </energy>
  </scstep>
  <scstep>
   <time name="dav">    7.62    7.68</time>
   <time name="total">    8.08    8.14</time>
   <energy>
    <i name="e_fr_energy">   -117.23900336 </i>
    <i name="e_wo_entrp">   -117.22898510 </i>
    <i name="e_0_energy">   -117.23566394 </i>
   </energy>
  </scstep>
  <scstep>
   <time name="dav">    7.45    7.51</time>
   <time name="total">    7.89    7.96</time>
   <energy>
    <i name="e_fr_energy">   -117.58664531 </i>
    <i name="e_wo_entrp">   -117.57286494 </i>
    <i name="e_0_energy">   -117.58205185 </i>
   </energy>
  </scstep>
  <scstep>
   <time name="dav">    7.20    7.26</time>
   <time name="total">    7.65    7.71</time>
   <energy>
    <i name="e_fr_energy">   -118.00319851 </i>
    <i name="e_wo_entrp">   -117.99600188 </i>
    <i name="e_0_energy">   -118.00079963 </i>
   </energy>
  </scstep>
  <scstep>
   <time name="dav">    7.21    7.27</time>
   <time name="total">    7.65    7.72</time>
   <energy>
    <i name="e_fr_energy">   -118.67451135 </i>
    <i name="e_wo_entrp">   -118.66679424 </i>
    <i name="e_0_energy">   -118.67193898 </i>
   </energy>
  </scstep>
  <scstep>
   <time name="dav">    7.34    7.40</time>
   <time name="total">    7.79    7.85</time>
   <energy>
    <i name="e_fr_energy">   -119.77505669 </i>
    <i name="e_wo_entrp">   -119.76753010 </i>
    <i name="e_0_energy">   -119.77254783 </i>
   </energy>
  </scstep>
  <scstep>
   <time name="dav">    6.71    6.77</time>
   <time name="total">    7.16    7.22</time>
   <energy>
    <i name="e_fr_energy">   -120.39230346 </i>
    <i name="e_wo_entrp">   -120.38421299 </i>
    <i name="e_0_energy">   -120.38960664 </i>
   </energy>
  </scstep>
  <scstep>
   <time name="dav">    6.36    6.42</time>
   <time name="total">    6.81    6.87</time>
   <energy>
    <i name="e_fr_energy">   -120.60111694 </i>
    <i name="e_wo_entrp">   -120.59392353 </i>
    <i name="e_0_energy">   -120.59871914 </i>
   </energy>
  </scstep>
  <scstep>
   <time name="dav">    6.76    6.82</time>
   <time name="total">    7.21    7.27</time>
   <energy>
    <i name="e_fr_energy">   -120.64434298 </i>
    <i name="e_wo_entrp">   -120.63692937 </i>
    <i name="e_0_energy">   -120.64187178 </i>
   </energy>
  </scstep>
  <scstep>
   <time name="dav">    6.49    6.54</time>
   <time name="total">    6.94    6.99</time>
   <energy>
    <i name="e_fr_energy">   -120.65100392 </i>
    <i name="e_wo_entrp">   -120.64452410 </i>
    <i name="e_0_energy">   -120.64884398 </i>
   </energy>
  </scstep>
  <scstep>
   <time name="dav">    6.12    6.18</time>
   <time name="total">    6.57    6.63</time>
   <energy>
    <i name="e_fr_energy">   -120.65649903 </i>
    <i name="e_wo_entrp">   -120.65053329 </i>
    <i name="e_0_energy">   -120.65451045 </i>
   </energy>
  </scstep>
  <scstep>
   <time name="dav">    5.60    5.64</time>
   <time name="total">    6.04    6.09</time>
   <energy>
    <i name="e_fr_energy">   -120.66138042 </i>
    <i name="e_wo_entrp">   -120.65484527 </i>
    <i name="e_0_energy">   -120.65920204 </i>
   </energy>
  </scstep>
  <scstep>
   <time name="dav">    4.55    4.59</time>
   <time name="total">    5.01    5.05</time>
   <energy>
    <i name="e_fr_energy">   -120.66091459 </i>
    <i name="e_wo_entrp">   -120.65446608 </i>
    <i name="e_0_energy">   -120.65876508 </i>
   </energy>
  </scstep>
  <scstep>
   <time name="dav">    4.57    4.61</time>
   <time name="total">    4.65    4.69</time>
   <energy>
    <i name="alphaZ">   1114.72537883 </i>
    <i name="ewald"> 216567.80986745 </i>
    <i name="hartreedc">-260099.72090510 </i>
    <i name="XCdc">   1433.93219064 </i>
    <i name="pawpsdc">  42133.06968859 </i>
    <i name="pawaedc"> -45584.99401664 </i>
    <i name="eentropy">     -0.00640851 </i>
    <i name="bandstr">   -221.07843509 </i>
    <i name="atom">  44535.60175172 </i>
    <i name="e_fr_energy">   -120.66088811 </i>
    <i name="e_wo_entrp">   -120.65447959 </i>
    <i name="e_0_energy">   -120.65875193 </i>
   </energy>
  </scstep>
  <structure>
   <crystal>
    <varray name="basis" >
     <v>       5.13359547       0.00000000       0.00000000 </v>
     <v>       2.56679773       4.44582409       0.00000000 </v>
     <v>       0.00000000       0.00000000      29.67047119 </v>
    </varray>
    <i name="volume">    677.17101477 </i>
    <varray name="rec_basis" >
     <v>       0.19479525      -0.11246509       0.00000000 </v>
     <v>       0.00000000       0.22493018       0.00000000 </v>
     <v>       0.00000000       0.00000000       0.03370354 </v>
    </varray>
   </crystal>
   <varray name="positions" >
    <v>       0.00000000       0.00000000       0.00000000 </v>
    <v>       1.00000000       0.50000000       0.00000000 </v>
    <v>       0.50000000       0.00000000       0.00000000 </v>
    <v>       0.50000000       0.50000000       0.00000000 </v>
    <v>       0.16666667       0.16666667       0.07063526 </v>
    <v>       0.16666667       0.66666667       0.07063526 </v>
    <v>       0.66666667       0.16666667       0.07063526 </v>
    <v>       0.66666667       0.66666667       0.07063526 </v>
    <v>       0.33333333       0.33333333       0.13847021 </v>
    <v>       0.33333333       0.83333333       0.13847021 </v>
    <v>       0.83333333       0.33333333       0.13847021 </v>
    <v>       0.83333333       0.83333333       0.13847021 </v>
    <v>       0.00000000       0.00000000       0.20667428 </v>
    <v>       1.00000000       0.50000000       0.20667428 </v>
    <v>       0.50000000       0.00000000       0.20667428 </v>
    <v>       0.50000000       0.50000000       0.20667428 </v>
    <v>       0.16666667       0.16666667       0.27488859 </v>
    <v>       0.16666667       0.66666667       0.27488859 </v>
    <v>       0.66666667       0.16666667       0.27488859 </v>
    <v>       0.66666667       0.66666667       0.27488859 </v>
    <v>       0.33333333       0.33333333       0.34319917 </v>
    <v>       0.33333333       0.83333333       0.34319917 </v>
    <v>       0.83333333       0.33333333       0.34319917 </v>
    <v>       0.83333333       0.83333333       0.34319917 </v>
    <v>       0.00000000       0.00000000       0.41105828 </v>
    <v>       1.00000000       0.50000000       0.41105828 </v>
    <v>       0.50000000       0.00000000       0.41105828 </v>
    <v>       0.50000000       0.50000000       0.41105828 </v>
    <v>       0.16666667       0.16666667       0.48054462 </v>
    <v>       0.16666667       0.66666667       0.48054462 </v>
    <v>       0.66666667       0.16666667       0.48054462 </v>
    <v>       0.66666667       0.66666667       0.48054462 </v>
    <v>       0.00000000       0.50000000       0.53425930 </v>
    <v>       0.91610104       0.66779791       0.53425930 </v>
   </varray>
  </structure>
  <varray name="forces" >
   <v>       0.02435498      -0.00415731       0.14021031 </v>
   <v>      -0.00000000      -0.00597773       0.16966728 </v>
   <v>      -0.02435498      -0.00415731       0.14021031 </v>
   <v>      -0.00000000       0.01748198       0.13625107 </v>
   <v>      -0.00000000       0.01258764      -0.12645692 </v>
   <v>      -0.00894035      -0.00682668      -0.11623427 </v>
   <v>      -0.00000000       0.00056256      -0.16045262 </v>
   <v>       0.00894035      -0.00682668      -0.11623427 </v>
   <v>       0.01359164      -0.01696518      -0.00882018 </v>
   <v>      -0.00000000       0.00530020      -0.02072536 </v>
   <v>      -0.01359164      -0.01696518      -0.00882018 </v>
   <v>      -0.00000000       0.02770032      -0.02013259 </v>
   <v>       0.01376005       0.00004563       0.01011020 </v>
   <v>      -0.00000000      -0.00251113       0.01854257 </v>
   <v>      -0.01376005       0.00004563       0.01011020 </v>
   <v>      -0.00000000      -0.00022798      -0.01572873 </v>
   <v>      -0.00000000      -0.02969023      -0.00724396 </v>
   <v>       0.04063925       0.00492048       0.02583654 </v>
   <v>      -0.00000000       0.01636636      -0.01069411 </v>
   <v>      -0.04063925       0.00492048       0.02583654 </v>
   <v>       0.03474590      -0.03614971       0.00196118 </v>
   <v>      -0.00000000       0.00403482       0.01556328 </v>
   <v>      -0.03474590      -0.03614971       0.00196118 </v>
   <v>       0.00000000       0.07288278      -0.03245476 </v>
   <v>      -0.01368061      -0.00779267       0.12227638 </v>
   <v>      -0.00000000       0.03478281      -0.05817899 </v>
   <v>       0.01368061      -0.00779267       0.12227638 </v>
   <v>      -0.00000000      -0.00303579       0.17250142 </v>
   <v>      -0.00000000      -0.45418877      -0.27578939 </v>
   <v>       0.30116289       0.09599777      -0.18482355 </v>
   <v>      -0.00000000       0.10111309      -0.26848178 </v>
   <v>      -0.30116289       0.09599777      -0.18482355 </v>
   <v>       0.00000000      -1.61388683       0.19576007 </v>
   <v>      -0.00000000       1.75856125       0.30702027 </v>
  </varray>
  <varray name="stress" >
   <v>     -33.00279723       0.00000000       0.00000000 </v>
   <v>       0.00000000     -28.32942197       0.45889133 </v>
   <v>       0.00000000       0.45889732      -9.05274138 </v>
  </varray>
  <energy>
   <i name="e_fr_energy">   -134.68471464 </i>
   <i name="e_wo_entrp">   -134.67830613 </i>
   <i name="e_0_energy">   -134.68257847 </i>
  </energy>
  <time name="totalsc">  249.14  251.28</time>
 </calculation>
 <calculation>
  <scstep>
   <time name="dav">    6.07    6.12</time>
   <time name="total">    6.52    6.58</time>
   <energy>
    <i name="alphaZ">   1114.72537883 </i>
    <i name="ewald"> 216793.87359706 </i>
    <i name="hartreedc">-260326.62595561 </i>
    <i name="XCdc">   1433.86005931 </i>
    <i name="pawpsdc">  42133.35776161 </i>
    <i name="pawaedc"> -45585.37023337 </i>
    <i name="eentropy">     -0.01216280 </i>
    <i name="bandstr">   -220.05269782 </i>
    <i name="atom">  44535.60175172 </i>
    <i name="e_fr_energy">   -120.64250106 </i>
    <i name="e_wo_entrp">   -120.63033826 </i>
    <i name="e_0_energy">   -120.63844680 </i>
   </energy>
  </scstep>
  <scstep>
   <time name="dav">    7.89    7.96</time>
   <time name="total">    8.35    8.43</time>
   <energy>
    <i name="e_fr_energy">   -120.66350076 </i>
    <i name="e_wo_entrp">   -120.65283587 </i>
    <i name="e_0_energy">   -120.65994580 </i>
   </energy>
  </scstep>
  <scstep>
   <time name="dav">    6.93    6.99</time>
   <time name="total">    7.39    7.45</time>
   <energy>
    <i name="e_fr_energy">   -120.68615818 </i>
    <i name="e_wo_entrp">   -120.67861972 </i>
    <i name="e_0_energy">   -120.68364536 </i>
   </energy>
  </scstep>
  <scstep>
   <time name="dav">    7.26    7.33</time>
   <time name="total">    7.73    7.80</time>
   <energy>
    <i name="e_fr_energy">   -120.69416638 </i>
    <i name="e_wo_entrp">   -120.68519178 </i>
    <i name="e_0_energy">   -120.69117485 </i>
   </energy>
  </scstep>
  <scstep>
   <time name="dav">    7.72    7.78</time>
   <time name="total">    8.17    8.24</time>
   <energy>
    <i name="e_fr_energy">   -120.68724160 </i>
    <i name="e_wo_entrp">   -120.67613652 </i>
    <i name="e_0_energy">   -120.68353990 </i>
   </energy>
  </scstep>
  <scstep>
   <time name="dav">    8.33    8.40</time>
   <time name="total">    8.79    8.87</time>
   <energy>
    <i name="e_fr_energy">   -120.65921225 </i>
    <i name="e_wo_entrp">   -120.65006314 </i>
    <i name="e_0_energy">   -120.65616254 </i>
   </energy>
  </scstep>
  <scstep>
   <time name="dav">    9.21    9.29</time>
   <time name="total">    9.67    9.75</time>
   <energy>
    <i name="e_fr_energy">   -120.65841691 </i>
    <i name="e_wo_entrp">   -120.64767445 </i>
    <i name="e_0_energy">   -120.65483609 </i>
   </energy>
  </scstep>
  <scstep>
   <time name="dav">    6.55    6.60</time>
   <time name="total">    6.99    7.05</time>
   <energy>
    <i name="e_fr_energy">   -120.65857163 </i>
    <i name="e_wo_entrp">   -120.64790688 </i>
    <i name="e_0_energy">   -120.65501671 </i>
   </energy>
  </scstep>
  <scstep>
   <time name="dav">    6.20    6.25</time>
   <time name="total">    6.27    6.33</time>
   <energy>
    <i name="alphaZ">   1114.72537883 </i>
    <i name="ewald"> 216793.87359706 </i>
    <i name="hartreedc">-260318.46133571 </i>
    <i name="XCdc">   1433.65312774 </i>
    <i name="pawpsdc">  42132.31795906 </i>
    <i name="pawaedc"> -45584.38860002 </i>
    <i name="eentropy">     -0.01053731 </i>
    <i name="bandstr">   -227.97002591 </i>
    <i name="atom">  44535.60175172 </i>
    <i name="e_fr_energy">   -120.65868454 </i>
    <i name="e_wo_entrp">   -120.64814723 </i>
    <i name="e_0_energy">   -120.65517210 </i>
   </energy>
  </scstep>
  <structure>
   <crystal>
    <varray name="basis" >
     <v>       5.13359547       0.00000000       0.00000000 </v>
     <v>       2.56679773       4.44582409       0.00000000 </v>
     <v>       0.00000000       0.00000000      29.67047119 </v>
    </varray>
    <i name="volume">    677.17101477 </i>
    <varray name="rec_basis" >
     <v>       0.19479525      -0.11246509       0.00000000 </v>
     <v>       0.00000000       0.22493018       0.00000000 </v>
     <v>       0.00000000       0.00000000       0.03370354 </v>
    </varray>
   </crystal>
   <varray name="positions" >
    <v>       0.00025143      -0.00004511       0.00022797 </v>
    <v>       0.00003243       0.49993513       0.00027587 </v>
    <v>       0.49979368      -0.00004511       0.00022797 </v>
    <v>       0.49990515       0.50018970       0.00022154 </v>
    <v>       0.16659837       0.16680326       0.07042965 </v>
    <v>       0.16661969       0.66659259       0.07044627 </v>
    <v>       0.66666361       0.16667277       0.07037438 </v>
    <v>       0.66678772       0.66659259       0.07044627 </v>
    <v>       0.33355311       0.33314924       0.13845587 </v>
    <v>       0.33330458       0.83339085       0.13843651 </v>
    <v>       0.83329765       0.33314924       0.13845587 </v>
    <v>       0.83318304       0.83363392       0.13843748 </v>
    <v>       0.00012906       0.00000050       0.20669072 </v>
    <v>       0.00001362       0.49997275       0.20670443 </v>
    <v>       0.49987044       0.00000050       0.20669072 </v>
    <v>       0.50000124       0.49999753       0.20664870 </v>
    <v>       0.16682775       0.16634449       0.27487681 </v>
    <v>       0.16702188       0.66672006       0.27493060 </v>
    <v>       0.66657787       0.16684426       0.27487120 </v>
    <v>       0.66625807       0.66672006       0.27493060 </v>
    <v>       0.33385599       0.33294106       0.34320236 </v>
    <v>       0.33331144       0.83337712       0.34322448 </v>
    <v>       0.83320295       0.33294106       0.34320236 </v>
    <v>       0.83293790       0.83412420       0.34314640 </v>
    <v>      -0.00008628      -0.00008456       0.41125709 </v>
    <v>       0.99981128       0.50037744       0.41096368 </v>
    <v>       0.50017084      -0.00008456       0.41125709 </v>
    <v>       0.50001647       0.49996706       0.41133876 </v>
    <v>       0.16913092       0.16173816       0.48009620 </v>
    <v>       0.16897598       0.66770836       0.48024410 </v>
    <v>       0.66611807       0.16776387       0.48010808 </v>
    <v>       0.66331566       0.66770836       0.48024410 </v>
    <v>       0.00875633       0.48248734       0.53457760 </v>
    <v>       0.90655977       0.68688046       0.53475850 </v>
   </varray>
  </structure>
  <varray name="forces" >
   <v>       0.01655031      -0.00420797       0.08354419 </v>
   <v>       0.00000000      -0.00098272       0.11312564 </v>
   <v>      -0.01655031      -0.00420797       0.08354419 </v>
   <v>       0.00000000       0.01218443       0.08047093 </v>
   <v>       0.00000000       0.00871415      -0.05234572 </v>
   <v>      -0.00738044      -0.00419394      -0.04427568 </v>
   <v>       0.00000000      -0.00033496      -0.08225987 </v>
   <v>       0.00738044      -0.00419394      -0.04427568 </v>
   <v>       0.00200593      -0.00773949      -0.02978820 </v>
   <v>       0.00000000       0.00323948      -0.04054638 </v>
   <v>      -0.00200593      -0.00773949      -0.02978820 </v>
   <v>       0.00000000       0.01335959      -0.03134296 </v>
   <v>       0.00530274      -0.00390664       0.00580135 </v>
   <v>       0.00000000       0.00578926       0.01208210 </v>
   <v>      -0.00530274      -0.00390664       0.00580135 </v>
   <v>       0.00000000      -0.00162937      -0.01158679 </v>
   <v>       0.00000000      -0.01248248       0.00169942 </v>
   <v>       0.01592902      -0.00191382       0.02019425 </v>
   <v>       0.00000000       0.00815987      -0.02362603 </v>
   <v>      -0.01592902      -0.00191382       0.02019425 </v>
   <v>       0.01995283      -0.02167003       0.01558396 </v>
   <v>       0.00000000      -0.00504134       0.03230899 </v>
   <v>      -0.01995283      -0.02167003       0.01558396 </v>
   <v>       0.00000000       0.04971534      -0.00896941 </v>
   <v>      -0.00993351      -0.00152747       0.02655744 </v>
   <v>       0.00000000       0.02796811      -0.06008111 </v>
   <v>       0.00993351      -0.00152747       0.02655744 </v>
   <v>       0.00000000      -0.00319561       0.07559983 </v>
   <v>       0.00000000      -0.16666812      -0.07195277 </v>
   <v>       0.01598132       0.00318575       0.01641563 </v>
   <v>       0.00000000       0.01862971      -0.13937234 </v>
   <v>      -0.01598132       0.00318575       0.01641563 </v>
   <v>      -0.00000000       0.90870391      -0.05013461 </v>
   <v>      -0.00000000      -0.78218206       0.06886521 </v>
  </varray>
  <varray name="stress" >
   <v>     -31.61445190       0.00000000       0.00000000 </v>
   <v>       0.00000000     -31.39478902       0.38736403 </v>
   <v>       0.00000000       0.38737001      -8.62378696 </v>
  </varray>
  <energy>
   <i name="e_fr_energy">   -134.75651910 </i>
   <i name="e_wo_entrp">   -134.74598178 </i>
   <i name="e_0_energy">   -134.75300666 </i>
  </energy>
  <time name="totalsc">   81.42   82.12</time>
 </calculation>
 <calculation>
  <scstep>
   <time name="dav">    5.98    6.03</time>
   <time name="total">    6.44    6.50</time>
   <energy>
    <i name="alphaZ">   1114.72537883 </i>
    <i name="ewald"> 216711.20274538 </i>
    <i name="hartreedc">-260235.03850034 </i>
    <i name="XCdc">   1433.67794170 </i>
    <i name="pawpsdc">  42132.58643918 </i>
    <i name="pawaedc"> -45584.70842310 </i>
    <i name="eentropy">     -0.00870400 </i>
    <i name="bandstr">   -228.75080846 </i>
    <i name="atom">  44535.60175172 </i>
    <i name="e_fr_energy">   -120.71217909 </i>
    <i name="e_wo_entrp">   -120.70347509 </i>
    <i name="e_0_energy">   -120.70927775 </i>
   </energy>
  </scstep>
  <scstep>
   <time name="dav">    8.21    8.28</time>
   <time name="total">    8.66    8.73</time>
   <energy>
    <i name="e_fr_energy">   -120.71839714 </i>
    <i name="e_wo_entrp">   -120.70900996 </i>
    <i name="e_0_energy">   -120.71526808 </i>
   </energy>
  </scstep>
  <scstep>
   <time name="dav">    6.60    6.65</time>
   <time name="total">    7.05    7.11</time>
   <energy>
    <i name="e_fr_energy">   -120.72244756 </i>
    <i name="e_wo_entrp">   -120.71293507 </i>
    <i name="e_0_energy">   -120.71927673 </i>
   </energy>
  </scstep>
  <scstep>
   <time name="dav">    7.06    7.12</time>
   <time name="total">    7.52    7.58</time>
   <energy>
    <i name="e_fr_energy">   -120.72181854 </i>
    <i name="e_wo_entrp">   -120.71294704 </i>
    <i name="e_0_energy">   -120.71886137 </i>
   </energy>
  </scstep>
  <scstep>
   <time name="dav">    6.59    6.65</time>
   <time name="total">    7.05    7.11</time>
   <energy>
    <i name="e_fr_energy">   -120.71885778 </i>
    <i name="e_wo_entrp">   -120.71086710 </i>
    <i name="e_0_energy">   -120.71619422 </i>
   </energy>
  </scstep>
  <scstep>
   <time name="dav">    6.73    6.79</time>
   <time name="total">    7.19    7.25</time>
   <energy>
    <i name="e_fr_energy">   -120.71787367 </i>
    <i name="e_wo_entrp">   -120.70826112 </i>
    <i name="e_0_energy">   -120.71466949 </i>
   </energy>
  </scstep>
  <scstep>
   <time name="dav">    6.31    6.36</time>
   <time name="total">    6.39    6.44</time>
   <energy>
    <i name="alphaZ">   1114.72537883 </i>
    <i name="ewald"> 216711.20274538 </i>
    <i name="hartreedc">-260235.49743126 </i>
    <i name="XCdc">   1433.73942236 </i>
    <i name="pawpsdc">  42132.48601582 </i>
    <i name="pawaedc"> -45584.57379177 </i>
    <i name="eentropy">     -0.00930268 </i>
    <i name="bandstr">   -228.39257288 </i>
    <i name="atom">  44535.60175172 </i>
    <i name="e_fr_energy">   -120.71778448 </i>
    <i name="e_wo_entrp">   -120.70848180 </i>
    <i name="e_0_energy">   -120.71468359 </i>
   </energy>
  </scstep>
  <structure>
   <crystal>
    <varray name="basis" >
     <v>       5.13359547       0.00000000       0.00000000 </v>
     <v>       2.56679773       4.44582409       0.00000000 </v>
     <v>       0.00000000       0.00000000      29.67047119 </v>
    </varray>
    <i name="volume">    677.17101477 </i>
    <varray name="rec_basis" >
     <v>       0.19479525      -0.11246509       0.00000000 </v>
     <v>       0.00000000       0.22493018       0.00000000 </v>
     <v>       0.00000000       0.00000000       0.03370354 </v>
    </varray>
   </crystal>
   <varray name="positions" >
    <v>       0.00015995      -0.00002870       0.00014502 </v>
    <v>       0.00002063       0.49995874       0.00017549 </v>
    <v>       0.49986875      -0.00002870       0.00014502 </v>
    <v>       0.49993966       0.50012068       0.00014093 </v>
    <v>       0.16662322       0.16675356       0.07050446 </v>
    <v>       0.16663678       0.66661954       0.07051504 </v>
    <v>       0.66666473       0.16667055       0.07046930 </v>
    <v>       0.66674368       0.66661954       0.07051504 </v>
    <v>       0.33347314       0.33321622       0.13846109 </v>
    <v>       0.33331504       0.83336992       0.13844878 </v>
    <v>       0.83331064       0.33321622       0.13846109 </v>
    <v>       0.83323773       0.83352455       0.13844939 </v>
    <v>       0.00008210       0.00000032       0.20668474 </v>
    <v>       0.00000867       0.49998267       0.20669346 </v>
    <v>       0.49991758       0.00000032       0.20668474 </v>
    <v>       0.50000079       0.49999843       0.20665801 </v>
    <v>       0.16676914       0.16646172       0.27488110 </v>
    <v>       0.16689263       0.66670063       0.27491531 </v>
    <v>       0.66661018       0.16677964       0.27487753 </v>
    <v>       0.66640674       0.66670063       0.27491531 </v>
    <v>       0.33366582       0.33308379       0.34320120 </v>
    <v>       0.33331941       0.83336119       0.34321527 </v>
    <v>       0.83325039       0.33308379       0.34320120 </v>
    <v>       0.83308178       0.83383644       0.34316560 </v>
    <v>      -0.00005489      -0.00005379       0.41118475 </v>
    <v>       0.99987995       0.50024010       0.41099810 </v>
    <v>       0.50010868      -0.00005379       0.41118475 </v>
    <v>       0.50001048       0.49997904       0.41123670 </v>
    <v>       0.16823429       0.16353142       0.48025936 </v>
    <v>       0.16813572       0.66732933       0.48035345 </v>
    <v>       0.66631768       0.16736465       0.48026692 </v>
    <v>       0.66453494       0.66732933       0.48035345 </v>
    <v>       0.00557029       0.48885941       0.53446178 </v>
    <v>       0.91003141       0.67993718       0.53457687 </v>
   </varray>
  </structure>
  <varray name="forces" >
   <v>       0.02073458      -0.00414500       0.10993275 </v>
   <v>       0.00000000      -0.00313340       0.14103985 </v>
   <v>      -0.02073458      -0.00414500       0.10993275 </v>
   <v>       0.00000000       0.01504821       0.10621240 </v>
   <v>       0.00000000       0.01126782      -0.09247765 </v>
   <v>      -0.00836330      -0.00574525      -0.08272888 </v>
   <v>       0.00000000       0.00047213      -0.12618418 </v>
   <v>       0.00836330      -0.00574525      -0.08272888 </v>
   <v>       0.00793753      -0.01267814      -0.02487167 </v>
   <v>       0.00000000       0.00446832      -0.03689797 </v>
   <v>      -0.00793753      -0.01267814      -0.02487167 </v>
   <v>       0.00000000       0.02166345      -0.03143368 </v>
   <v>       0.01003860      -0.00218502       0.00949035 </v>
   <v>       0.00000000       0.00253763       0.01717140 </v>
   <v>      -0.01003860      -0.00218502       0.00949035 </v>
   <v>       0.00000000      -0.00097156      -0.01350161 </v>
   <v>       0.00000000      -0.02188292      -0.00261372 </v>
   <v>       0.02921228       0.00139851       0.02422376 </v>
   <v>       0.00000000       0.01293978      -0.02041348 </v>
   <v>      -0.02921228       0.00139851       0.02422376 </v>
   <v>       0.02858919      -0.02986234       0.01588471 </v>
   <v>       0.00000000      -0.00108725       0.03273274 </v>
   <v>      -0.02858919      -0.02986234       0.01588471 </v>
   <v>      -0.00000000       0.06431874      -0.01536143 </v>
   <v>      -0.01220637      -0.00464049       0.07732280 </v>
   <v>       0.00000000       0.03365334      -0.05996686 </v>
   <v>       0.01220637      -0.00464049       0.07732280 </v>
   <v>       0.00000000      -0.00305651       0.12857790 </v>
   <v>      -0.00000000      -0.29634376      -0.16803963 </v>
   <v>       0.13044792       0.04132442      -0.05710770 </v>
   <v>      -0.00000000       0.05666545      -0.20078097 </v>
   <v>      -0.13044792       0.04132442      -0.05710770 </v>
   <v>      -0.00000000       0.32527035       0.04984585 </v>
   <v>       0.00000000      -0.18876316       0.14779881 </v>
  </varray>
  <varray name="stress" >
   <v>     -32.02481543       0.00000000       0.00000000 </v>
   <v>       0.00000000     -30.59333360       0.42592110 </v>
   <v>       0.00000000       0.42592708      -8.38371024 </v>
  </varray>
  <energy>
   <i name="e_fr_energy">   -134.75882346 </i>
   <i name="e_wo_entrp">   -134.74952078 </i>
   <i name="e_0_energy">   -134.75572257 </i>
  </energy>
  <time name="totalsc">   61.81   62.37</time>
 </calculation>
 <calculation>
  <scstep>
   <time name="dav">    8.01    8.08</time>
   <time name="total">    8.47    8.55</time>
   <energy>
    <i name="alphaZ">   1114.72537883 </i>
    <i name="ewald"> 216705.69327391 </i>
    <i name="hartreedc">-260230.16762700 </i>
    <i name="XCdc">   1433.74112622 </i>
    <i name="pawpsdc">  42132.54835080 </i>
    <i name="pawaedc"> -45584.63623640 </i>
    <i name="eentropy">     -0.00891179 </i>
    <i name="bandstr">   -228.21699019 </i>
    <i name="atom">  44535.60175172 </i>
    <i name="e_fr_energy">   -120.71988390 </i>
    <i name="e_wo_entrp">   -120.71097211 </i>
    <i name="e_0_energy">   -120.71691331 </i>
   </energy>
  </scstep>
  <scstep>
   <time name="dav">    5.03    5.07</time>
   <time name="total">    5.11    5.15</time>
   <energy>
    <i name="alphaZ">   1114.72537883 </i>
    <i name="ewald"> 216705.69327391 </i>
    <i name="hartreedc">-260230.88754820 </i>
    <i name="XCdc">   1433.74329148 </i>
    <i name="pawpsdc">  42132.57786290 </i>
    <i name="pawaedc"> -45584.66479592 </i>
    <i name="eentropy">     -0.00915114 </i>
    <i name="bandstr">   -227.50010588 </i>
    <i name="atom">  44535.60175172 </i>
    <i name="e_fr_energy">   -120.72004230 </i>
    <i name="e_wo_entrp">   -120.71089116 </i>
    <i name="e_0_energy">   -120.71699192 </i>
   </energy>
  </scstep>
  <structure>
   <crystal>
    <varray name="basis" >
     <v>       5.13359547       0.00000000       0.00000000 </v>
     <v>       2.56679773       4.44582409       0.00000000 </v>
     <v>       0.00000000       0.00000000      29.67047119 </v>
    </varray>
    <i name="volume">    677.17101477 </i>
    <varray name="rec_basis" >
     <v>       0.19479525      -0.11246509       0.00000000 </v>
     <v>       0.00000000       0.22493018       0.00000000 </v>
     <v>       0.00000000       0.00000000       0.03370354 </v>
    </varray>
   </crystal>
   <varray name="positions" >
    <v>       0.00015383      -0.00002760       0.00013948 </v>
    <v>       0.00001984       0.49996031       0.00016878 </v>
    <v>       0.49987377      -0.00002760       0.00013948 </v>
    <v>       0.49994197       0.50011606       0.00013554 </v>
    <v>       0.16662488       0.16675024       0.07050947 </v>
    <v>       0.16663792       0.66662134       0.07051963 </v>
    <v>       0.66666480       0.16667040       0.07047565 </v>
    <v>       0.66674073       0.66662134       0.07051963 </v>
    <v>       0.33346780       0.33322070       0.13846144 </v>
    <v>       0.33331574       0.83336852       0.13844960 </v>
    <v>       0.83331150       0.33322070       0.13846144 </v>
    <v>       0.83324138       0.83351724       0.13845019 </v>
    <v>       0.00007896       0.00000030       0.20668434 </v>
    <v>       0.00000834       0.49998333       0.20669272 </v>
    <v>       0.49992073       0.00000030       0.20668434 </v>
    <v>       0.50000076       0.49999849       0.20665863 </v>
    <v>       0.16676522       0.16646955       0.27488138 </v>
    <v>       0.16688399       0.66669933       0.27491429 </v>
    <v>       0.66661234       0.16677532       0.27487795 </v>
    <v>       0.66641667       0.66669933       0.27491429 </v>
    <v>       0.33365311       0.33309333       0.34320112 </v>
    <v>       0.33331994       0.83336012       0.34321465 </v>
    <v>       0.83325356       0.33309333       0.34320112 </v>
    <v>       0.83309140       0.83381721       0.34316689 </v>
    <v>      -0.00005279      -0.00005174       0.41117992 </v>
    <v>       0.99988454       0.50023092       0.41100040 </v>
    <v>       0.50010453      -0.00005174       0.41117992 </v>
    <v>       0.50001008       0.49997985       0.41122988 </v>
    <v>       0.16817436       0.16365128       0.48027026 </v>
    <v>       0.16807956       0.66730400       0.48036076 </v>
    <v>       0.66633102       0.16733796       0.48027753 </v>
    <v>       0.66461644       0.66730400       0.48036076 </v>
    <v>       0.00535734       0.48928532       0.53445404 </v>
    <v>       0.91026346       0.67947309       0.53456473 </v>
   </varray>
  </structure>
  <varray name="forces" >
   <v>       0.02073052      -0.00426755       0.11069862 </v>
   <v>      -0.00000000      -0.00303752       0.14162176 </v>
   <v>      -0.02073052      -0.00426755       0.11069862 </v>
   <v>      -0.00000000       0.01522408       0.10696145 </v>
   <v>       0.00000000       0.01115983      -0.08568213 </v>
   <v>      -0.00842398      -0.00560058      -0.07631836 </v>
   <v>       0.00000000       0.00014926      -0.11956009 </v>
   <v>       0.00842398      -0.00560058      -0.07631836 </v>
   <v>       0.00778592      -0.01255037      -0.02121094 </v>
   <v>       0.00000000       0.00453667      -0.03369022 </v>
   <v>      -0.00778592      -0.01255037      -0.02121094 </v>
   <v>       0.00000000       0.02122871      -0.02755855 </v>
   <v>       0.00993466      -0.00250369       0.01049876 </v>
   <v>       0.00000000       0.00279455       0.01750614 </v>
   <v>      -0.00993466      -0.00250369       0.01049876 </v>
   <v>       0.00000000      -0.00074557      -0.01246350 </v>
   <v>       0.00000000      -0.02090610      -0.00115401 </v>
   <v>       0.02883987       0.00119718       0.02560947 </v>
   <v>       0.00000000       0.01261290      -0.01868157 </v>
   <v>      -0.02883987       0.00119718       0.02560947 </v>
   <v>       0.02808339      -0.02942753       0.01155506 </v>
   <v>       0.00000000      -0.00115982       0.02847376 </v>
   <v>      -0.02808339      -0.02942753       0.01155506 </v>
   <v>       0.00000000       0.06349739      -0.01935366 </v>
   <v>      -0.01296836      -0.00431713       0.06570112 </v>
   <v>      -0.00000000       0.03339918      -0.06751338 </v>
   <v>       0.01296836      -0.00431713       0.06570112 </v>
   <v>       0.00000000      -0.00417456       0.11657997 </v>
   <v>      -0.00000000      -0.29167277      -0.16526637 </v>
   <v>       0.12768560       0.04032791      -0.05855581 </v>
   <v>       0.00000000       0.05513432      -0.20166595 </v>
   <v>      -0.12768560       0.04032791      -0.05855581 </v>
   <v>       0.00000000       0.30249793       0.05382809 </v>
   <v>       0.00000000      -0.16625497       0.15166241 </v>
  </varray>
  <varray name="stress" >
   <v>     -32.98179160       0.00000000       0.00000000 </v>
   <v>       0.00000000     -31.52763182       0.42684630 </v>
   <v>       0.00000000       0.42685237      -9.63562585 </v>
  </varray>
  <energy>
   <i name="e_fr_energy">   -134.75931932 </i>
   <i name="e_wo_entrp">   -134.75016818 </i>
   <i name="e_0_energy">   -134.75626894 </i>
  </energy>
  <time name="totalsc">   25.12   25.36</time>
 </calculation>
 <calculation>
  <scstep>
   <time name="dav">    7.21    7.27</time>
   <time name="total">    7.67    7.73</time>
   <energy>
    <i name="alphaZ">   1114.72537883 </i>
    <i name="ewald"> 216689.57448004 </i>
    <i name="hartreedc">-260214.08167136 </i>
    <i name="XCdc">   1433.74764239 </i>
    <i name="pawpsdc">  42132.54433229 </i>
    <i name="pawaedc"> -45584.62573308 </i>
    <i name="eentropy">     -0.00875125 </i>
    <i name="bandstr">   -228.20189331 </i>
    <i name="atom">  44535.60175172 </i>
    <i name="e_fr_energy">   -120.72446374 </i>
    <i name="e_wo_entrp">   -120.71571249 </i>
    <i name="e_0_energy">   -120.72154665 </i>
   </energy>
  </scstep>
  <scstep>
   <time name="dav">    6.96    7.02</time>
   <time name="total">    7.41    7.47</time>
   <energy>
    <i name="e_fr_energy">   -120.73109550 </i>
    <i name="e_wo_entrp">   -120.72229656 </i>
    <i name="e_0_energy">   -120.72816252 </i>
   </energy>
  </scstep>
  <scstep>
   <time name="dav">    5.18    5.22</time>
   <time name="total">    5.62    5.67</time>
   <energy>
    <i name="e_fr_energy">   -120.72456471 </i>
    <i name="e_wo_entrp">   -120.71612702 </i>
    <i name="e_0_energy">   -120.72175215 </i>
   </energy>
  </scstep>
  <scstep>
   <time name="dav">    4.78    4.82</time>
   <time name="total">    5.23    5.27</time>
   <energy>
    <i name="e_fr_energy">   -120.72494816 </i>
    <i name="e_wo_entrp">   -120.71581570 </i>
    <i name="e_0_energy">   -120.72190401 </i>
   </energy>
  </scstep>
  <scstep>
   <time name="dav">    5.40    5.44</time>
   <time name="total">    5.85    5.91</time>
   <energy>
    <i name="e_fr_energy">   -120.72465503 </i>
    <i name="e_wo_entrp">   -120.71552829 </i>
    <i name="e_0_energy">   -120.72161278 </i>
   </energy>
  </scstep>
  <scstep>
   <time name="dav">    4.37    4.41</time>
   <time name="total">    4.45    4.48</time>
   <energy>
    <i name="alphaZ">   1114.72537883 </i>
    <i name="ewald"> 216689.57448004 </i>
    <i name="hartreedc">-260214.27837422 </i>
    <i name="XCdc">   1433.76343493 </i>
    <i name="pawpsdc">  42132.45021100 </i>
    <i name="pawaedc"> -45584.51545214 </i>
    <i name="eentropy">     -0.00862451 </i>
    <i name="bandstr">   -228.03746882 </i>
    <i name="atom">  44535.60175172 </i>
    <i name="e_fr_energy">   -120.72466316 </i>
    <i name="e_wo_entrp">   -120.71603865 </i>
    <i name="e_0_energy">   -120.72178832 </i>
   </energy>
  </scstep>
  <structure>
   <crystal>
    <varray name="basis" >
     <v>       5.13359547       0.00000000       0.00000000 </v>
     <v>       2.56679773       4.44582409       0.00000000 </v>
     <v>       0.00000000       0.00000000      29.67047119 </v>
    </varray>
    <i name="volume">    677.17101477 </i>
    <varray name="rec_basis" >
     <v>       0.19479525      -0.11246509       0.00000000 </v>
     <v>       0.00000000       0.22493018       0.00000000 </v>
     <v>       0.00000000       0.00000000       0.03370354 </v>
    </varray>
   </crystal>
   <varray name="positions" >
    <v>       0.00013593      -0.00002439       0.00012325 </v>
    <v>       0.00001753       0.49996493       0.00014914 </v>
    <v>       0.49988846      -0.00002439       0.00012325 </v>
    <v>       0.49994872       0.50010256       0.00011977 </v>
    <v>       0.16662974       0.16674051       0.07052411 </v>
    <v>       0.16664127       0.66662662       0.07053309 </v>
    <v>       0.66666502       0.16666997       0.07049422 </v>
    <v>       0.66673211       0.66662662       0.07053309 </v>
    <v>       0.33345215       0.33323381       0.13846246 </v>
    <v>       0.33331779       0.83336443       0.13845200 </v>
    <v>       0.83331404       0.33323381       0.13846246 </v>
    <v>       0.83325208       0.83349583       0.13845252 </v>
    <v>       0.00006977       0.00000027       0.20668317 </v>
    <v>       0.00000737       0.49998527       0.20669058 </v>
    <v>       0.49992996       0.00000027       0.20668317 </v>
    <v>       0.50000067       0.49999866       0.20666045 </v>
    <v>       0.16675375       0.16649249       0.27488222 </v>
    <v>       0.16685870       0.66669553       0.27491130 </v>
    <v>       0.66661866       0.16676268       0.27487919 </v>
    <v>       0.66644577       0.66669553       0.27491130 </v>
    <v>       0.33361589       0.33312127       0.34320090 </v>
    <v>       0.33332150       0.83335700       0.34321285 </v>
    <v>       0.83326284       0.33312127       0.34320090 </v>
    <v>       0.83311955       0.83376089       0.34317064 </v>
    <v>      -0.00004665      -0.00004571       0.41116576 </v>
    <v>       0.99989798       0.50020405       0.41100714 </v>
    <v>       0.50009236      -0.00004571       0.41116576 </v>
    <v>       0.50000890       0.49998219       0.41120991 </v>
    <v>       0.16799889       0.16400222       0.48030219 </v>
    <v>       0.16791513       0.66722983       0.48038215 </v>
    <v>       0.66637008       0.16725983       0.48030862 </v>
    <v>       0.66485505       0.66722983       0.48038215 </v>
    <v>       0.00473384       0.49053232       0.53443138 </v>
    <v>       0.91094285       0.67811431       0.53452918 </v>
   </varray>
  </structure>
  <varray name="forces" >
   <v>       0.02144705      -0.00420484       0.11339353 </v>
   <v>      -0.00000000      -0.00351203       0.14428275 </v>
   <v>      -0.02144705      -0.00420484       0.11339353 </v>
   <v>      -0.00000000       0.01554285       0.10926773 </v>
   <v>      -0.00000000       0.01149800      -0.09504604 </v>
   <v>      -0.00848244      -0.00594934      -0.08560045 </v>
   <v>      -0.00000000       0.00044095      -0.12965825 </v>
   <v>       0.00848244      -0.00594934      -0.08560045 </v>
   <v>       0.00854836      -0.01328036      -0.01955587 </v>
   <v>      -0.00000000       0.00455624      -0.03178485 </v>
   <v>      -0.00854836      -0.01328036      -0.01955587 </v>
   <v>      -0.00000000       0.02228516      -0.02658820 </v>
   <v>       0.01047355      -0.00217792       0.01069144 </v>
   <v>      -0.00000000       0.00218567       0.01868529 </v>
   <v>      -0.01047355      -0.00217792       0.01069144 </v>
   <v>      -0.00000000      -0.00071010      -0.01278316 </v>
   <v>      -0.00000000      -0.02220003      -0.00283161 </v>
   <v>       0.03033035       0.00162145       0.02477875 </v>
   <v>      -0.00000000       0.01326218      -0.01933023 </v>
   <v>      -0.03033035       0.00162145       0.02477875 </v>
   <v>       0.02893699      -0.03029156       0.01232728 </v>
   <v>      -0.00000000      -0.00066463       0.02923449 </v>
   <v>      -0.02893699      -0.03029156       0.01232728 </v>
   <v>      -0.00000000       0.06485841      -0.01948640 </v>
   <v>      -0.01308714      -0.00458208       0.07522835 </v>
   <v>      -0.00000000       0.03349702      -0.06315271 </v>
   <v>       0.01308714      -0.00458208       0.07522835 </v>
   <v>      -0.00000000      -0.00407097       0.12463426 </v>
   <v>       0.00000000      -0.30620306      -0.17824308 </v>
   <v>       0.14118608       0.04418712      -0.06629829 </v>
   <v>      -0.00000000       0.06115101      -0.20917706 </v>
   <v>      -0.14118608       0.04418712      -0.06629829 </v>
   <v>      -0.00000000       0.21958564       0.06703318 </v>
   <v>       0.00000000      -0.08214727       0.16501441 </v>
  </varray>
  <varray name="stress" >
   <v>     -32.15228834       0.00000000       0.00000000 </v>
   <v>       0.00000000     -30.53014674       0.43036093 </v>
   <v>       0.00000000       0.43036688      -8.54048122 </v>
  </varray>
  <energy>
   <i name="e_fr_energy">   -134.75963346 </i>
   <i name="e_wo_entrp">   -134.75100895 </i>
   <i name="e_0_energy">   -134.75675862 </i>
  </energy>
  <time name="totalsc">   47.75   48.15</time>
 </calculation>
 <calculation>
  <scstep>
   <time name="dav">    6.28    6.33</time>
   <time name="total">    6.74    6.80</time>
   <energy>
    <i name="alphaZ">   1114.72537883 </i>
    <i name="ewald"> 216695.71300706 </i>
    <i name="hartreedc">-260220.57675408 </i>
    <i name="XCdc">   1433.76140416 </i>
    <i name="pawpsdc">  42132.55329526 </i>
    <i name="pawaedc"> -45584.61853575 </i>
    <i name="eentropy">     -0.00887490 </i>
    <i name="bandstr">   -227.87392003 </i>
    <i name="atom">  44535.60175172 </i>
    <i name="e_fr_energy">   -120.72324772 </i>
    <i name="e_wo_entrp">   -120.71437282 </i>
    <i name="e_0_energy">   -120.72028942 </i>
   </energy>
  </scstep>
  <scstep>
   <time name="dav">    4.92    4.96</time>
   <time name="total">    4.99    5.04</time>
   <energy>
    <i name="alphaZ">   1114.72537883 </i>
    <i name="ewald"> 216695.71300706 </i>
    <i name="hartreedc">-260220.56508202 </i>
    <i name="XCdc">   1433.75759708 </i>
    <i name="pawpsdc">  42132.70045675 </i>
    <i name="pawaedc"> -45584.75534203 </i>
    <i name="eentropy">     -0.00882597 </i>
    <i name="bandstr">   -227.89222458 </i>
    <i name="atom">  44535.60175172 </i>
    <i name="e_fr_energy">   -120.72328316 </i>
    <i name="e_wo_entrp">   -120.71445719 </i>
    <i name="e_0_energy">   -120.72034117 </i>
   </energy>
  </scstep>
  <structure>
   <crystal>
    <varray name="basis" >
     <v>       5.13359547       0.00000000       0.00000000 </v>
     <v>       2.56679773       4.44582409       0.00000000 </v>
     <v>       0.00000000       0.00000000      29.67047119 </v>
    </varray>
    <i name="volume">    677.17101477 </i>
    <varray name="rec_basis" >
     <v>       0.19479525      -0.11246509       0.00000000 </v>
     <v>       0.00000000       0.22493018       0.00000000 </v>
     <v>       0.00000000       0.00000000       0.03370354 </v>
    </varray>
   </crystal>
   <varray name="positions" >
    <v>       0.00014275      -0.00002561       0.00012943 </v>
    <v>       0.00001841       0.49996317       0.00015662 </v>
    <v>       0.49988286      -0.00002561       0.00012943 </v>
    <v>       0.49994615       0.50010770       0.00012578 </v>
    <v>       0.16662789       0.16674422       0.07051853 </v>
    <v>       0.16664000       0.66662461       0.07052797 </v>
    <v>       0.66666493       0.16667013       0.07048715 </v>
    <v>       0.66673540       0.66662461       0.07052797 </v>
    <v>       0.33345811       0.33322882       0.13846207 </v>
    <v>       0.33331701       0.83336599       0.13845108 </v>
    <v>       0.83331308       0.33322882       0.13846207 </v>
    <v>       0.83324801       0.83350399       0.13845163 </v>
    <v>       0.00007327       0.00000028       0.20668361 </v>
    <v>       0.00000774       0.49998453       0.20669140 </v>
    <v>       0.49992644       0.00000028       0.20668361 </v>
    <v>       0.50000070       0.49999860       0.20665976 </v>
    <v>       0.16675812       0.16648375       0.27488190 </v>
    <v>       0.16686833       0.66669698       0.27491244 </v>
    <v>       0.66661625       0.16676750       0.27487872 </v>
    <v>       0.66643468       0.66669698       0.27491244 </v>
    <v>       0.33363007       0.33311062       0.34320098 </v>
    <v>       0.33332090       0.83335819       0.34321354 </v>
    <v>       0.83325931       0.33311062       0.34320098 </v>
    <v>       0.83310883       0.83378235       0.34316921 </v>
    <v>      -0.00004899      -0.00004801       0.41117116 </v>
    <v>       0.99989286       0.50021429       0.41100457 </v>
    <v>       0.50009700      -0.00004801       0.41117116 </v>
    <v>       0.50000935       0.49998130       0.41121752 </v>
    <v>       0.16806574       0.16386853       0.48029003 </v>
    <v>       0.16797777       0.66725808       0.48037400 </v>
    <v>       0.66635520       0.16728960       0.48029678 </v>
    <v>       0.66476415       0.66725808       0.48037400 </v>
    <v>       0.00497137       0.49005726       0.53444001 </v>
    <v>       0.91068402       0.67863195       0.53454272 </v>
   </varray>
  </structure>
  <varray name="forces" >
   <v>       0.01903532      -0.00408317       0.09876506 </v>
   <v>      -0.00000000      -0.00316724       0.12736142 </v>
   <v>      -0.01903532      -0.00408317       0.09876506 </v>
   <v>      -0.00000000       0.01367113       0.09552233 </v>
   <v>      -0.00000000       0.00998534      -0.08199273 </v>
   <v>      -0.00779839      -0.00533258      -0.07316873 </v>
   <v>      -0.00000000      -0.00012320      -0.11225142 </v>
   <v>       0.00779839      -0.00533258      -0.07316873 </v>
   <v>       0.00656453      -0.01124394      -0.01996514 </v>
   <v>       0.00000000       0.00375636      -0.03068887 </v>
   <v>      -0.00656453      -0.01124394      -0.01996514 </v>
   <v>      -0.00000000       0.01846613      -0.02560456 </v>
   <v>       0.00862422      -0.00226603       0.00685947 </v>
   <v>      -0.00000000       0.00211725       0.01360092 </v>
   <v>      -0.00862422      -0.00226603       0.00685947 </v>
   <v>      -0.00000000      -0.00110242      -0.01322164 </v>
   <v>      -0.00000000      -0.01922138      -0.00405637 </v>
   <v>       0.02551320       0.00087254       0.01967300 </v>
   <v>      -0.00000000       0.01111855      -0.01953521 </v>
   <v>      -0.02551320       0.00087254       0.01967300 </v>
   <v>       0.02541517      -0.02691927       0.01054260 </v>
   <v>      -0.00000000      -0.00138395       0.02535662 </v>
   <v>      -0.02541517      -0.02691927       0.01054260 </v>
   <v>      -0.00000000       0.05760365      -0.01712483 </v>
   <v>      -0.01110716      -0.00453047       0.06548721 </v>
   <v>      -0.00000000       0.02982309      -0.05855731 </v>
   <v>       0.01110716      -0.00453047       0.06548721 </v>
   <v>      -0.00000000      -0.00293968       0.11330906 </v>
   <v>      -0.00000000      -0.27902987      -0.15415688 </v>
   <v>       0.12218535       0.03980333      -0.05348067 </v>
   <v>      -0.00000000       0.05120143      -0.18855343 </v>
   <v>      -0.12218535       0.03980333      -0.05348067 </v>
   <v>      -0.00000000       0.25224276       0.06169346 </v>
   <v>       0.00000000      -0.11561875       0.15947385 </v>
  </varray>
  <varray name="stress" >
   <v>     -32.22999350       0.00000000       0.00000000 </v>
   <v>       0.00000000     -30.70737266       0.42635910 </v>
   <v>       0.00000000       0.42636524      -8.73746539 </v>
  </varray>
  <energy>
   <i name="e_fr_energy">   -134.75974927 </i>
   <i name="e_wo_entrp">   -134.75092331 </i>
   <i name="e_0_energy">   -134.75680728 </i>
  </energy>
  <time name="totalsc">   23.26   23.44</time>
 </calculation>
 <calculation>
  <scstep>
   <time name="dav">    6.42    6.47</time>
   <time name="total">    6.88    6.94</time>
   <energy>
    <i name="alphaZ">   1114.72537883 </i>
    <i name="ewald"> 216819.62140907 </i>
    <i name="hartreedc">-260344.01095799 </i>
    <i name="XCdc">   1433.80617761 </i>
    <i name="pawpsdc">  42132.70812141 </i>
    <i name="pawaedc"> -45584.76386526 </i>
    <i name="eentropy">     -0.01043005 </i>
    <i name="bandstr">   -228.40691001 </i>
    <i name="atom">  44535.60175172 </i>
    <i name="e_fr_energy">   -120.72932468 </i>
    <i name="e_wo_entrp">   -120.71889463 </i>
    <i name="e_0_energy">   -120.72584800 </i>
   </energy>
  </scstep>
  <scstep>
   <time name="dav">    9.72    9.81</time>
   <time name="total">   10.18   10.27</time>
   <energy>
    <i name="e_fr_energy">   -120.74747732 </i>
    <i name="e_wo_entrp">   -120.73723964 </i>
    <i name="e_0_energy">   -120.74406476 </i>
   </energy>
  </scstep>
  <scstep>
   <time name="dav">    8.47    8.55</time>
   <time name="total">    8.94    9.02</time>
   <energy>
    <i name="e_fr_energy">   -120.73613835 </i>
    <i name="e_wo_entrp">   -120.72618638 </i>
    <i name="e_0_energy">   -120.73282103 </i>
   </energy>
  </scstep>
  <scstep>
   <time name="dav">    6.28    6.33</time>
   <time name="total">    6.73    6.79</time>
   <energy>
    <i name="e_fr_energy">   -120.73660694 </i>
[...]
       <r>    11.0773     7.8491   223.5748 </r>
       <r>    11.1572     7.2337   224.1524 </r>
       <r>    11.2370     8.3301   224.8175 </r>
       <r>    11.3169    10.8529   225.6841 </r>
       <r>    11.3967    12.1982   226.6581 </r>
       <r>    11.4766    10.5811   227.5029 </r>
       <r>    11.5564     7.2162   228.0791 </r>
       <r>    11.6362     4.8480   228.4662 </r>
       <r>    11.7161     4.8657   228.8548 </r>
       <r>    11.7959     6.3116   229.3587 </r>
       <r>    11.8758     7.0716   229.9234 </r>
       <r>    11.9556     5.8608   230.3914 </r>
       <r>    12.0355     3.4400   230.6660 </r>
       <r>    12.1153     1.5189   230.7873 </r>
       <r>    12.1952     0.7427   230.8466 </r>
       <r>    12.2750     0.6794   230.9009 </r>
       <r>    12.3549     0.9575   230.9773 </r>
       <r>    12.4347     1.4021   231.0893 </r>
       <r>    12.5146     1.7433   231.2285 </r>
       <r>    12.5944     1.7980   231.3720 </r>
       <r>    12.6743     1.7233   231.5096 </r>
       <r>    12.7541     1.8139   231.6545 </r>
       <r>    12.8340     1.9364   231.8091 </r>
       <r>    12.9138     1.6060   231.9373 </r>
       <r>    12.9937     0.8285   232.0035 </r>
       <r>    13.0735     0.1619   232.0164 </r>
       <r>    13.1534    -0.0873   232.0094 </r>
       <r>    13.2332    -0.0795   232.0031 </r>
       <r>    13.3130    -0.0303   232.0007 </r>
       <r>    13.3929    -0.0071   232.0001 </r>
       <r>    13.4727    -0.0011   232.0000 </r>
       <r>    13.5526    -0.0001   232.0000 </r>
       <r>    13.6324    -0.0000   232.0000 </r>
       <r>    13.7123    -0.0000   232.0000 </r>
       <r>    13.7921    -0.0000   232.0000 </r>
       <r>    13.8720    -0.0000   232.0000 </r>
       <r>    13.9518    -0.0000   232.0000 </r>
       <r>    14.0317    -0.0000   232.0000 </r>
       <r>    14.1115    -0.0000   232.0000 </r>
       <r>    14.1914     0.0000   232.0000 </r>
       <r>    14.2712     0.0000   232.0000 </r>
       <r>    14.3511     0.0000   232.0000 </r>
       <r>    14.4309     0.0000   232.0000 </r>
       <r>    14.5108     0.0000   232.0000 </r>
       <r>    14.5906     0.0000   232.0000 </r>
       <r>    14.6705     0.0000   232.0000 </r>
       <r>    14.7503     0.0000   232.0000 </r>
       <r>    14.8302     0.0000   232.0000 </r>
      </set>
      <set comment="spin 2">
       <r>    -9.1241     0.0000     0.0000 </r>
       <r>    -9.0443     0.0000     0.0000 </r>
       <r>    -8.9644     0.0000     0.0000 </r>
       <r>    -8.8846     0.0000     0.0000 </r>
       <r>    -8.8048     0.0000     0.0000 </r>
       <r>    -8.7249    -0.0000    -0.0000 </r>
       <r>    -8.6451    -0.0000    -0.0000 </r>
       <r>    -8.5652    -0.0000    -0.0000 </r>
       <r>    -8.4854    -0.0000    -0.0000 </r>
       <r>    -8.4055    -0.0000    -0.0000 </r>
       <r>    -8.3257    -0.0000    -0.0000 </r>
       <r>    -8.2458    -0.0000    -0.0000 </r>
       <r>    -8.1660    -0.0000    -0.0000 </r>
       <r>    -8.0861    -0.0000    -0.0000 </r>
       <r>    -8.0063    -0.0000    -0.0000 </r>
       <r>    -7.9264    -0.0000    -0.0000 </r>
       <r>    -7.8466    -0.0000    -0.0000 </r>
       <r>    -7.7667    -0.0000    -0.0000 </r>
       <r>    -7.6869    -0.0003    -0.0000 </r>
       <r>    -7.6070    -0.0020    -0.0002 </r>
       <r>    -7.5272    -0.0082    -0.0008 </r>
       <r>    -7.4473    -0.0205    -0.0025 </r>
       <r>    -7.3675    -0.0183    -0.0039 </r>
       <r>    -7.2876     0.0568     0.0006 </r>
       <r>    -7.2078     0.2379     0.0196 </r>
       <r>    -7.1280     0.4172     0.0529 </r>
       <r>    -7.0481     0.4156     0.0861 </r>
       <r>    -6.9683     0.2426     0.1055 </r>
       <r>    -6.8884     0.1292     0.1158 </r>
       <r>    -6.8086     0.2256     0.1338 </r>
       <r>    -6.7287     0.3918     0.1651 </r>
       <r>    -6.6489     0.3692     0.1946 </r>
       <r>    -6.5690     0.1226     0.2043 </r>
       <r>    -6.4892    -0.0320     0.2018 </r>
       <r>    -6.4093     0.3889     0.2328 </r>
       <r>    -6.3295     1.5180     0.3541 </r>
       <r>    -6.2496     2.6127     0.5627 </r>
       <r>    -6.1698     2.6622     0.7752 </r>
       <r>    -6.0899     1.8293     0.9213 </r>
       <r>    -6.0101     1.3931     1.0325 </r>
       <r>    -5.9302     1.9777     1.1905 </r>
       <r>    -5.8504     2.6573     1.4026 </r>
       <r>    -5.7705     2.2898     1.5855 </r>
       <r>    -5.6907     1.0842     1.6720 </r>
       <r>    -5.6108     0.0571     1.6766 </r>
       <r>    -5.5310    -0.3001     1.6526 </r>
       <r>    -5.4512     0.0593     1.6574 </r>
       <r>    -5.3713     1.2080     1.7538 </r>
       <r>    -5.2915     2.6642     1.9666 </r>
       <r>    -5.2116     3.1911     2.2214 </r>
       <r>    -5.1318     2.2423     2.4004 </r>
       <r>    -5.0519     0.7643     2.4614 </r>
       <r>    -4.9721    -0.1494     2.4495 </r>
       <r>    -4.8922    -0.2784     2.4273 </r>
       <r>    -4.8124     0.2852     2.4500 </r>
       <r>    -4.7325     1.4370     2.5648 </r>
       <r>    -4.6527     2.6655     2.7776 </r>
       <r>    -4.5728     3.4888     3.0562 </r>
       <r>    -4.4930     4.1438     3.3871 </r>
       <r>    -4.4131     4.7823     3.7689 </r>
       <r>    -4.3333     4.6846     4.1430 </r>
       <r>    -4.2534     3.4212     4.4161 </r>
       <r>    -4.1736     2.0091     4.5766 </r>
       <r>    -4.0937     1.7455     4.7159 </r>
       <r>    -4.0139     2.5647     4.9207 </r>
       <r>    -3.9340     3.7075     5.2168 </r>
       <r>    -3.8542     4.9222     5.6098 </r>
       <r>    -3.7744     5.8799     6.0793 </r>
       <r>    -3.6945     5.9761     6.5565 </r>
       <r>    -3.6147     5.4995     6.9956 </r>
       <r>    -3.5348     5.5827     7.4414 </r>
       <r>    -3.4550     6.4816     7.9589 </r>
       <r>    -3.3751     6.9172     8.5112 </r>
       <r>    -3.2953     5.9120     8.9833 </r>
       <r>    -3.2154     4.1638     9.3158 </r>
       <r>    -3.1356     2.9578     9.5519 </r>
       <r>    -3.0557     3.0924     9.7988 </r>
       <r>    -2.9759     4.5167    10.1595 </r>
       <r>    -2.8960     6.2731    10.6604 </r>
       <r>    -2.8162     8.0100    11.3000 </r>
       <r>    -2.7363    10.9015    12.1704 </r>
       <r>    -2.6565    15.6172    13.4174 </r>
       <r>    -2.5766    20.9435    15.0897 </r>
       <r>    -2.4968    25.0097    17.0867 </r>
       <r>    -2.4169    26.1455    19.1743 </r>
       <r>    -2.3371    23.6839    21.0654 </r>
       <r>    -2.2572    19.6905    22.6377 </r>
       <r>    -2.1774    18.0137    24.0760 </r>
       <r>    -2.0976    20.6464    25.7246 </r>
       <r>    -2.0177    26.5346    27.8433 </r>
       <r>    -1.9379    33.0729    30.4841 </r>
       <r>    -1.8580    37.4503    33.4744 </r>
       <r>    -1.7782    38.3080    36.5333 </r>
       <r>    -1.6983    36.2424    39.4271 </r>
       <r>    -1.6185    32.5880    42.0292 </r>
       <r>    -1.5386    29.3287    44.3710 </r>
       <r>    -1.4588    28.2287    46.6250 </r>
       <r>    -1.3789    29.6744    48.9944 </r>
       <r>    -1.2991    33.9935    51.7087 </r>
       <r>    -1.2192    40.9230    54.9764 </r>
       <r>    -1.1394    47.2042    58.7455 </r>
       <r>    -1.0595    49.4256    62.6920 </r>
       <r>    -0.9797    49.8690    66.6739 </r>
       <r>    -0.8998    53.7688    70.9672 </r>
       <r>    -0.8200    60.4124    75.7910 </r>
       <r>    -0.7401    64.0760    80.9074 </r>
       <r>    -0.6603    62.7697    85.9194 </r>
       <r>    -0.5804    59.4587    90.6670 </r>
       <r>    -0.5006    56.8390    95.2055 </r>
       <r>    -0.4208    55.3731    99.6269 </r>
       <r>    -0.3409    54.8148   104.0037 </r>
       <r>    -0.2611    54.2357   108.3343 </r>
       <r>    -0.1812    52.2923   112.5097 </r>
       <r>    -0.1014    49.9473   116.4979 </r>
       <r>    -0.0215    49.0304   120.4129 </r>
       <r>     0.0583    49.7332   124.3839 </r>
       <r>     0.1382    53.7030   128.6720 </r>
       <r>     0.2180    62.4401   133.6577 </r>
       <r>     0.2979    71.2665   139.3482 </r>
       <r>     0.3777    74.4105   145.2897 </r>
       <r>     0.4576    73.7396   151.1776 </r>
       <r>     0.5374    73.4752   157.0444 </r>
       <r>     0.6173    70.0951   162.6414 </r>
       <r>     0.6971    56.2874   167.1358 </r>
       <r>     0.7770    33.3248   169.7967 </r>
       <r>     0.8568    11.9177   170.7483 </r>
       <r>     0.9367     0.6166   170.7975 </r>
       <r>     1.0165    -1.2022   170.7015 </r>
       <r>     1.0964     0.8108   170.7663 </r>
       <r>     1.1762     2.5098   170.9667 </r>
       <r>     1.2561     3.2411   171.2255 </r>
       <r>     1.3359     3.9435   171.5403 </r>
       <r>     1.4157     4.8344   171.9264 </r>
       <r>     1.4956     5.0113   172.3265 </r>
       <r>     1.5754     3.7604   172.6268 </r>
       <r>     1.6553     2.0542   172.7908 </r>
       <r>     1.7351     2.1694   172.9640 </r>
       <r>     1.8150     5.1946   173.3788 </r>
       <r>     1.8948     9.3938   174.1289 </r>
       <r>     1.9747    11.7487   175.0670 </r>
       <r>     2.0545    11.1962   175.9610 </r>
       <r>     2.1344     9.6607   176.7323 </r>
       <r>     2.2142     8.9701   177.4486 </r>
       <r>     2.2941     8.0165   178.0887 </r>
       <r>     2.3739     5.3344   178.5146 </r>
       <r>     2.4538     2.5157   178.7155 </r>
       <r>     2.5336     2.0621   178.8802 </r>
       <r>     2.6135     3.8993   179.1915 </r>
       <r>     2.6933     6.0554   179.6750 </r>
       <r>     2.7732     6.8991   180.2259 </r>
       <r>     2.8530     6.0272   180.7071 </r>
       <r>     2.9329     4.5652   181.0717 </r>
       <r>     3.0127     3.9326   181.3857 </r>
       <r>     3.0925     3.7553   181.6855 </r>
       <r>     3.1724     2.9614   181.9220 </r>
       <r>     3.2522     2.1160   182.0909 </r>
       <r>     3.3321     2.5127   182.2916 </r>
       <r>     3.4119     4.3617   182.6399 </r>
       <r>     3.4918     6.9963   183.1985 </r>
       <r>     3.5716     9.4023   183.9492 </r>
       <r>     3.6515    10.2082   184.7644 </r>
       <r>     3.7313     8.6114   185.4520 </r>
       <r>     3.8112     5.6723   185.9049 </r>
       <r>     3.8910     3.4827   186.1830 </r>
       <r>     3.9709     2.7054   186.3990 </r>
       <r>     4.0507     2.1951   186.5743 </r>
       <r>     4.1306     1.1860   186.6690 </r>
       <r>     4.2104     0.1655   186.6822 </r>
       <r>     4.2903    -0.3725   186.6524 </r>
       <r>     4.3701    -0.3659   186.6232 </r>
       <r>     4.4500     0.5418   186.6665 </r>
       <r>     4.5298     2.6748   186.8800 </r>
       <r>     4.6097     4.9887   187.2784 </r>
       <r>     4.6895     5.7154   187.7347 </r>
       <r>     4.7693     4.7675   188.1154 </r>
       <r>     4.8492     3.4714   188.3926 </r>
       <r>     4.9290     2.3158   188.5775 </r>
       <r>     5.0089     1.0883   188.6644 </r>
       <r>     5.0887     0.0428   188.6678 </r>
       <r>     5.1686    -0.3766   188.6378 </r>
       <r>     5.2484     0.1546   188.6501 </r>
       <r>     5.3283     1.8702   188.7994 </r>
       <r>     5.4081     4.2561   189.1393 </r>
       <r>     5.4880     5.9954   189.6180 </r>
       <r>     5.5678     6.5986   190.1449 </r>
       <r>     5.6477     6.9847   190.7026 </r>
       <r>     5.7275     7.4998   191.3014 </r>
       <r>     5.8074     7.2117   191.8773 </r>
       <r>     5.8872     5.8292   192.3427 </r>
       <r>     5.9671     4.1473   192.6739 </r>
       <r>     6.0469     2.6995   192.8894 </r>
       <r>     6.1268     1.6796   193.0235 </r>
       <r>     6.2066     1.7492   193.1632 </r>
       <r>     6.2865     3.6728   193.4565 </r>
       <r>     6.3663     6.6010   193.9835 </r>
       <r>     6.4461     8.0124   194.6233 </r>
       <r>     6.5260     6.8632   195.1713 </r>
       <r>     6.6058     4.8746   195.5605 </r>
       <r>     6.6857     3.6672   195.8534 </r>
       <r>     6.7655     3.3700   196.1224 </r>
       <r>     6.8454     3.9492   196.4378 </r>
       <r>     6.9252     5.0894   196.8442 </r>
       <r>     7.0051     5.9031   197.3155 </r>
       <r>     7.0849     6.4393   197.8297 </r>
       <r>     7.1648     7.3845   198.4193 </r>
       <r>     7.2446     8.3546   199.0864 </r>
       <r>     7.3245     8.6771   199.7792 </r>
       <r>     7.4043     8.2224   200.4358 </r>
       <r>     7.4842     6.6228   200.9646 </r>
       <r>     7.5640     4.1845   201.2987 </r>
       <r>     7.6439     2.7180   201.5157 </r>
       <r>     7.7237     3.4082   201.7879 </r>
       <r>     7.8036     5.4726   202.2249 </r>
       <r>     7.8834     7.5117   202.8246 </r>
       <r>     7.9633     8.4962   203.5030 </r>
       <r>     8.0431     7.7291   204.1202 </r>
       <r>     8.1229     5.6071   204.5679 </r>
       <r>     8.2028     3.8798   204.8777 </r>
       <r>     8.2826     3.6607   205.1700 </r>
       <r>     8.3625     4.5393   205.5324 </r>
       <r>     8.4423     6.3018   206.0356 </r>
       <r>     8.5222     8.9240   206.7482 </r>
       <r>     8.6020    10.6541   207.5989 </r>
       <r>     8.6819     9.2597   208.3383 </r>
       <r>     8.7617     5.5151   208.7786 </r>
       <r>     8.8416     2.7591   208.9989 </r>
       <r>     8.9214     2.8375   209.2255 </r>
       <r>     9.0013     4.3145   209.5700 </r>
       <r>     9.0811     4.8232   209.9551 </r>
       <r>     9.1610     4.2256   210.2925 </r>
       <r>     9.2408     4.5665   210.6571 </r>
       <r>     9.3207     6.8482   211.2040 </r>
       <r>     9.4005     9.2435   211.9420 </r>
       <r>     9.4804     9.2925   212.6840 </r>
       <r>     9.5602     6.9204   213.2366 </r>
       <r>     9.6401     4.3725   213.5857 </r>
       <r>     9.7199     3.4713   213.8629 </r>
       <r>     9.7997     3.9876   214.1813 </r>
       <r>     9.8796     5.0208   214.5822 </r>
       <r>     9.9594     6.5726   215.1070 </r>
       <r>    10.0393     8.5368   215.7886 </r>
       <r>    10.1191     9.4457   216.5428 </r>
       <r>    10.1990     8.2076   217.1982 </r>
       <r>    10.2788     6.0201   217.6789 </r>
       <r>    10.3587     4.7206   218.0558 </r>
       <r>    10.4385     4.7582   218.4357 </r>
       <r>    10.5184     5.8757   218.9049 </r>
       <r>    10.5982     7.7289   219.5220 </r>
       <r>    10.6781     9.1986   220.2565 </r>
       <r>    10.7579     9.1206   220.9848 </r>
       <r>    10.8378     8.1975   221.6393 </r>
       <r>    10.9176     8.0379   222.2811 </r>
       <r>    10.9975     8.3513   222.9480 </r>
       <r>    11.0773     7.8494   223.5747 </r>
       <r>    11.1572     7.2338   224.1523 </r>
       <r>    11.2370     8.3297   224.8174 </r>
       <r>    11.3169    10.8522   225.6840 </r>
       <r>    11.3967    12.1977   226.6579 </r>
       <r>    11.4766    10.5813   227.5028 </r>
       <r>    11.5564     7.2169   228.0791 </r>
       <r>    11.6362     4.8487   228.4662 </r>
       <r>    11.7161     4.8659   228.8547 </r>
       <r>    11.7959     6.3115   229.3587 </r>
       <r>    11.8758     7.0715   229.9233 </r>
       <r>    11.9556     5.8609   230.3913 </r>
       <r>    12.0355     3.4401   230.6660 </r>
       <r>    12.1153     1.5189   230.7873 </r>
       <r>    12.1952     0.7428   230.8466 </r>
       <r>    12.2750     0.6794   230.9009 </r>
       <r>    12.3549     0.9575   230.9773 </r>
       <r>    12.4347     1.4022   231.0893 </r>
       <r>    12.5146     1.7433   231.2285 </r>
       <r>    12.5944     1.7979   231.3720 </r>
       <r>    12.6743     1.7233   231.5096 </r>
       <r>    12.7541     1.8138   231.6545 </r>
       <r>    12.8340     1.9363   231.8091 </r>
       <r>    12.9138     1.6060   231.9373 </r>
       <r>    12.9937     0.8286   232.0035 </r>
       <r>    13.0735     0.1620   232.0164 </r>
       <r>    13.1534    -0.0873   232.0094 </r>
       <r>    13.2332    -0.0795   232.0031 </r>
       <r>    13.3130    -0.0303   232.0007 </r>
       <r>    13.3929    -0.0071   232.0001 </r>
       <r>    13.4727    -0.0011   232.0000 </r>
       <r>    13.5526    -0.0001   232.0000 </r>
       <r>    13.6324    -0.0000   232.0000 </r>
       <r>    13.7123    -0.0000   232.0000 </r>
       <r>    13.7921    -0.0000   232.0000 </r>
       <r>    13.8720    -0.0000   232.0000 </r>
       <r>    13.9518    -0.0000   232.0000 </r>
       <r>    14.0317    -0.0000   232.0000 </r>
       <r>    14.1115    -0.0000   232.0000 </r>
       <r>    14.1914     0.0000   232.0000 </r>
       <r>    14.2712     0.0000   232.0000 </r>
       <r>    14.3511     0.0000   232.0000 </r>
       <r>    14.4309     0.0000   232.0000 </r>
       <r>    14.5108     0.0000   232.0000 </r>
       <r>    14.5906     0.0000   232.0000 </r>
       <r>    14.6705     0.0000   232.0000 </r>
       <r>    14.7503     0.0000   232.0000 </r>
       <r>    14.8302     0.0000   232.0000 </r>
      </set>
     </set>
    </array>
   </total>
  </dos>
 </calculation>
 <structure name="finalpos" >
  <crystal>
   <varray name="basis" >
    <v>       5.13359547       0.00000000       0.00000000 </v>
    <v>       2.56679773       4.44582409       0.00000000 </v>
    <v>       0.00000000       0.00000000      29.67047119 </v>
   </varray>
   <i name="volume">    677.17101477 </i>
   <varray name="rec_basis" >
    <v>       0.19479525      -0.11246509       0.00000000 </v>
    <v>       0.00000000       0.22493018       0.00000000 </v>
    <v>       0.00000000       0.00000000       0.03370354 </v>
   </varray>
  </crystal>
  <varray name="positions" >
   <v>      -0.00001064       0.00019031      -0.00190225 </v>
   <v>      -0.00012530       0.50025060      -0.00200597 </v>
   <v>       0.49982034       0.00019031      -0.00190225 </v>
   <v>       0.49969638       0.50060725      -0.00188841 </v>
   <v>       0.16694352       0.16611296       0.06738027 </v>
   <v>       0.16689989       0.66612098       0.06742731 </v>
   <v>       0.66690707       0.16618587       0.06735049 </v>
   <v>       0.66697913       0.66612098       0.06742731 </v>
   <v>       0.33482409       0.33087865       0.13522962 </v>
   <v>       0.33437036       0.83125928       0.13533570 </v>
   <v>       0.83429726       0.33087865       0.13522962 </v>
   <v>       0.83445261       0.83109477       0.13525334 </v>
   <v>       0.00287670      -0.00574283       0.20359375 </v>
   <v>       0.00302539       0.49394921       0.20353720 </v>
   <v>       0.50286613      -0.00574283       0.20359375 </v>
   <v>       0.50283408       0.49433184       0.20356903 </v>
   <v>       0.17113827       0.15772345       0.27177123 </v>
   <v>       0.17183039       0.65704847       0.27175508 </v>
   <v>       0.67167790       0.15664420       0.27178995 </v>
   <v>       0.67112114       0.65704847       0.27175508 </v>
   <v>       0.33963548       0.32132495       0.34014973 </v>
   <v>       0.33897489       0.82205022       0.34009883 </v>
   <v>       0.83903957       0.32132495       0.34014973 </v>
   <v>       0.83956603       0.82086794       0.34014816 </v>
   <v>       0.00671678      -0.01306932       0.40798081 </v>
   <v>       0.00645103       0.48709794       0.40791859 </v>
   <v>       0.50635254      -0.01306932       0.40798081 </v>
   <v>       0.50649916       0.48700169       0.40790612 </v>
   <v>       0.17343019       0.15313961       0.47728551 </v>
   <v>       0.17406048       0.65237986       0.47716162 </v>
   <v>       0.67385609       0.15228783       0.47711759 </v>
   <v>       0.67355966       0.65237986       0.47716162 </v>
   <v>      -0.07693944       0.65387889       0.57164442 </v>
   <v>       0.87914056       0.74171888       0.59339687 </v>
  </varray>
 </structure>
</modeling>
