unknown system                          
           1
     5.133595    0.000000    0.000000
     2.566798    4.445824    0.000000
     0.000000    0.000000   29.670471
   Cu   H 
    32     2
Direct configuration=     1
   0.00000000  0.00000000  0.00000000
   1.00000000  0.50000000  0.00000000
   0.50000000  0.00000000  0.00000000
   0.50000000  0.50000000  0.00000000
   0.16666667  0.16666667  0.07063526
   0.16666667  0.66666667  0.07063526
   0.66666667  0.16666667  0.07063526
   0.66666667  0.66666667  0.07063526
   0.33333333  0.33333333  0.13847021
   0.33333333  0.83333333  0.13847021
   0.83333333  0.33333333  0.13847021
   0.83333333  0.83333333  0.13847021
   0.00000000  0.00000000  0.20667428
   1.00000000  0.50000000  0.20667428
   0.50000000  0.00000000  0.20667428
   0.50000000  0.50000000  0.20667428
   0.16666667  0.16666667  0.27488859
   0.16666667  0.66666667  0.27488859
   0.66666667  0.16666667  0.27488859
   0.66666667  0.66666667  0.27488859
   0.33333333  0.33333333  0.34319917
   0.33333333  0.83333333  0.34319917
   0.83333333  0.33333333  0.34319917
   0.83333333  0.83333333  0.34319917
   0.00000000  0.00000000  0.41105828
   1.00000000  0.50000000  0.41105828
   0.50000000  0.00000000  0.41105828
   0.50000000  0.50000000  0.41105828
   0.16666667  0.16666667  0.48054462
   0.16666667  0.66666667  0.48054462
   0.66666667  0.16666667  0.48054462
   0.66666667  0.66666667  0.48054462
   0.00000000  0.50000000  0.53425930
   0.91610104  0.66779791  0.53425930
Direct configuration=     2
   0.00025143 -0.00004511  0.00022797
   0.00003243  0.49993513  0.00027587
   0.49979368 -0.00004511  0.00022797
   0.49990515  0.50018970  0.00022154
   0.16659837  0.16680326  0.07042965
   0.16661969  0.66659259  0.07044627
   0.66666361  0.16667277  0.07037438
   0.66678772  0.66659259  0.07044627
   0.33355311  0.33314924  0.13845587
   0.33330458  0.83339085  0.13843651
   0.83329765  0.33314924  0.13845587
   0.83318304  0.83363392  0.13843748
   0.00012906  0.00000050  0.20669072
   0.00001362  0.49997275  0.20670443
   0.49987044  0.00000050  0.20669072
   0.50000124  0.49999753  0.20664870
   0.16682775  0.16634449  0.27487681
   0.16702188  0.66672006  0.27493060
   0.66657787  0.16684426  0.27487120
   0.66625807  0.66672006  0.27493060
   0.33385599  0.33294106  0.34320236
   0.33331144  0.83337712  0.34322448
   0.83320295  0.33294106  0.34320236
   0.83293790  0.83412420  0.34314640
  -0.00008628 -0.00008456  0.41125709
   0.99981128  0.50037744  0.41096368
   0.50017084 -0.00008456  0.41125709
   0.50001647  0.49996706  0.41133876
   0.16913092  0.16173816  0.48009620
   0.16897598  0.66770836  0.48024410
   0.66611807  0.16776387  0.48010808
   0.66331566  0.66770836  0.48024410
   0.00875633  0.48248734  0.53457760
   0.90655977  0.68688046  0.53475850
Direct configuration=     3
   0.00015995 -0.00002870  0.00014502
   0.00002063  0.49995874  0.00017549
   0.49986875 -0.00002870  0.00014502
   0.49993966  0.50012068  0.00014093
   0.16662322  0.16675356  0.07050446
   0.16663678  0.66661954  0.07051504
   0.66666473  0.16667055  0.07046930
   0.66674368  0.66661954  0.07051504
   0.33347314  0.33321622  0.13846109
   0.33331504  0.83336992  0.13844878
   0.83331064  0.33321622  0.13846109
   0.83323773  0.83352455  0.13844939
   0.00008210  0.00000032  0.20668474
   0.00000867  0.49998267  0.20669346
   0.49991758  0.00000032  0.20668474
   0.50000079  0.49999843  0.20665801
   0.16676914  0.16646172  0.27488110
   0.16689263  0.66670063  0.27491531
   0.66661018  0.16677964  0.27487753
   0.66640674  0.66670063  0.27491531
   0.33366582  0.33308379  0.34320120
   0.33331941  0.83336119  0.34321527
   0.83325039  0.33308379  0.34320120
   0.83308178  0.83383644  0.34316560
  -0.00005489 -0.00005379  0.41118475
   0.99987995  0.50024010  0.41099810
   0.50010868 -0.00005379  0.41118475
   0.50001048  0.49997904  0.41123670
   0.16823429  0.16353142  0.48025936
   0.16813572  0.66732933  0.48035345
   0.66631768  0.16736465  0.48026692
   0.66453494  0.66732933  0.48035345
   0.00557029  0.48885941  0.53446178
   0.91003141  0.67993718  0.53457687
Direct configuration=     4
   0.00015383 -0.00002760  0.00013948
   0.00001984  0.49996031  0.00016878
   0.49987377 -0.00002760  0.00013948
   0.49994197  0.50011606  0.00013554
   0.16662488  0.16675024  0.07050947
   0.16663792  0.66662134  0.07051963
   0.66666480  0.16667040  0.07047565
   0.66674073  0.66662134  0.07051963
   0.33346780  0.33322070  0.13846144
   0.33331574  0.83336852  0.13844960
   0.83331150  0.33322070  0.13846144
   0.83324138  0.83351724  0.13845019
   0.00007896  0.00000030  0.20668434
   0.00000834  0.49998333  0.20669272
   0.49992073  0.00000030  0.20668434
   0.50000076  0.49999849  0.20665863
   0.16676522  0.16646955  0.27488138
   0.16688399  0.66669933  0.27491429
   0.66661234  0.16677532  0.27487795
   0.66641667  0.66669933  0.27491429
   0.33365311  0.33309333  0.34320112
   0.33331994  0.83336012  0.34321465
   0.83325356  0.33309333  0.34320112
   0.83309140  0.83381721  0.34316689
  -0.00005279 -0.00005174  0.41117992
   0.99988454  0.50023092  0.41100040
   0.50010453 -0.00005174  0.41117992
   0.50001008  0.49997985  0.41122988
   0.16817436  0.16365128  0.48027026
   0.16807956  0.66730400  0.48036076
   0.66633102  0.16733796  0.48027753
   0.66461644  0.66730400  0.48036076
   0.00535734  0.48928532  0.53445404
   0.91026346  0.67947309  0.53456473
Direct configuration=     5
   0.00013593 -0.00002439  0.00012325
   0.00001753  0.49996493  0.00014914
   0.49988846 -0.00002439  0.00012325
   0.49994872  0.50010256  0.00011977
   0.16662974  0.16674051  0.07052411
   0.16664127  0.66662662  0.07053309
   0.66666502  0.16666997  0.07049422
   0.66673211  0.66662662  0.07053309
   0.33345215  0.33323381  0.13846246
   0.33331779  0.83336443  0.13845200
   0.83331404  0.33323381  0.13846246
   0.83325208  0.83349583  0.13845252
   0.00006977  0.00000027  0.20668317
   0.00000737  0.49998527  0.20669058
   0.49992996  0.00000027  0.20668317
   0.50000067  0.49999866  0.20666045
   0.16675375  0.16649249  0.27488222
   0.16685870  0.66669553  0.27491130
   0.66661866  0.16676268  0.27487919
   0.66644577  0.66669553  0.27491130
   0.33361589  0.33312127  0.34320090
   0.33332150  0.83335700  0.34321285
   0.83326284  0.33312127  0.34320090
   0.83311955  0.83376089  0.34317064
  -0.00004665 -0.00004571  0.41116576
   0.99989798  0.50020405  0.41100714
   0.50009236 -0.00004571  0.41116576
   0.50000890  0.49998219  0.41120991
   0.16799889  0.16400222  0.48030219
   0.16791513  0.66722983  0.48038215
   0.66637008  0.16725983  0.48030862
   0.66485505  0.66722983  0.48038215
   0.00473384  0.49053232  0.53443138
   0.91094285  0.67811431  0.53452918
Direct configuration=     6
   0.00014275 -0.00002561  0.00012943
   0.00001841  0.49996317  0.00015662
   0.49988286 -0.00002561  0.00012943
   0.49994615  0.50010770  0.00012578
   0.16662789  0.16674422  0.07051853
   0.16664000  0.66662461  0.07052797
   0.66666493  0.16667013  0.07048715
   0.66673540  0.66662461  0.07052797
   0.33345811  0.33322882  0.13846207
   0.33331701  0.83336599  0.13845108
   0.83331308  0.33322882  0.13846207
   0.83324801  0.83350399  0.13845163
   0.00007327  0.00000028  0.20668361
   0.00000774  0.49998453  0.20669140
   0.49992644  0.00000028  0.20668361
   0.50000070  0.49999860  0.20665976
   0.16675812  0.16648375  0.27488190
   0.16686833  0.66669698  0.27491244
   0.66661625  0.16676750  0.27487872
   0.66643468  0.66669698  0.27491244
   0.33363007  0.33311062  0.34320098
   0.33332090  0.83335819  0.34321354
   0.83325931  0.33311062  0.34320098
   0.83310883  0.83378235  0.34316921
  -0.00004899 -0.00004801  0.41117116
   0.99989286  0.50021429  0.41100457
   0.50009700 -0.00004801  0.41117116
   0.50000935  0.49998130  0.41121752
   0.16806574  0.16386853  0.48029003
   0.16797777  0.66725808  0.48037400
   0.66635520  0.16728960  0.48029678
   0.66476415  0.66725808  0.48037400
   0.00497137  0.49005726  0.53444001
   0.91068402  0.67863195  0.53454272
Direct configuration=     7
   0.00034210 -0.00006890  0.00029036
   0.00003614  0.49992773  0.00036302
   0.49972681 -0.00006890  0.00029036
   0.49987247  0.50025506  0.00028149
   0.16657414  0.16685173  0.07038391
   0.16659655  0.66656712  0.07040749
   0.66666535  0.16666929  0.07030413
   0.66683633  0.66656712  0.07040749
   0.33358391  0.33310587  0.13843152
   0.33329659  0.83340681  0.13840339
   0.83331022  0.33310587  0.13843152
   0.83314710  0.83370580  0.13841155
   0.00016660 -0.00002215  0.20669483
  -0.00000191  0.50000382  0.20671348
   0.49985555 -0.00002215  0.20669483
   0.50000624  0.49998751  0.20663852
   0.16686345  0.16627310  0.27487514
   0.16710521  0.66670896  0.27494428
   0.66655560  0.16688880  0.27484861
   0.66618583  0.66670896  0.27494428
   0.33401430  0.33281929  0.34321684
   0.33332640  0.83334720  0.34325278
   0.83316641  0.33281929  0.34321684
   0.83279864  0.83440273  0.34314048
  -0.00012727 -0.00009820  0.41128083
   0.99973326  0.50053348  0.41091169
   0.50022547 -0.00009820  0.41128083
   0.50002495  0.49995010  0.41140333
   0.16960254  0.16079493  0.48003307
   0.16897355  0.66771766  0.48027581
   0.66606718  0.16786563  0.47998946
   0.66330879  0.66771766  0.48027581
   0.00426751  0.49146498  0.53455151
   0.91066172  0.67867656  0.53481075
Direct configuration=     8
   0.00090653 -0.00019148  0.00074602
   0.00008632  0.49982737  0.00094741
   0.49928495 -0.00019148  0.00074602
   0.49966385  0.50067230  0.00072237
   0.16642194  0.16715613  0.07000274
   0.16647352  0.66640436  0.07006637
   0.66666654  0.16666691  0.06978594
   0.66712212  0.66640436  0.07006637
   0.33394011  0.33275774  0.13834502
   0.33323880  0.83352241  0.13826837
   0.83330215  0.33275774  0.13834502
   0.83286139  0.83427722  0.13829808
   0.00043084 -0.00008567  0.20672658
  -0.00002922  0.50005843  0.20677601
   0.49965483 -0.00008567  0.20672658
   0.50002193  0.49995613  0.20657840
   0.16716166  0.16567667  0.27485600
   0.16777589  0.66674289  0.27503444
   0.66638387  0.16723225  0.27476338
   0.66548123  0.66674289  0.27503444
   0.33510222  0.33199441  0.34326174
   0.33334195  0.83331609  0.34336390
   0.83290337  0.33199441  0.34326174
   0.83192036  0.83615929  0.34305914
  -0.00034892 -0.00024030  0.41159138
   0.99928138  0.50143724  0.41064870
   0.50058922 -0.00024030  0.41159138
   0.50006912  0.49986177  0.41192943
   0.17395385  0.15209231  0.47930550
   0.17179300  0.66901891  0.47999779
   0.66525169  0.16949661  0.47911933
   0.65918808  0.66901891  0.47999779
   0.00227459  0.49545082  0.53486722
   0.91059856  0.67880288  0.53556965
Direct configuration=     9
   0.00070401 -0.00014750  0.00058253
   0.00006831  0.49986338  0.00073773
   0.49944349 -0.00014750  0.00058253
   0.49973870  0.50052260  0.00056418
   0.16647655  0.16704691  0.07013950
   0.16651766  0.66646276  0.07018876
   0.66666612  0.16666777  0.06997187
   0.66701958  0.66646276  0.07018876
   0.33381230  0.33288265  0.13837606
   0.33325953  0.83348093  0.13831682
   0.83330505  0.33288265  0.13837606
   0.83296390  0.83407219  0.13833880
   0.00033603 -0.00006288  0.20671519
  -0.00001942  0.50003884  0.20675357
   0.49972685 -0.00006288  0.20671519
   0.50001630  0.49996739  0.20659997
   0.16705466  0.16589068  0.27486287
   0.16753524  0.66673071  0.27500209
   0.66644549  0.16710902  0.27479396
   0.66573404  0.66673071  0.27500209
   0.33471187  0.33229038  0.34324563
   0.33333637  0.83332726  0.34332403
   0.83299775  0.33229038  0.34324563
   0.83223549  0.83552903  0.34308832
  -0.00026939 -0.00018931  0.41147996
   0.99944351  0.50111297  0.41074306
   0.50045870 -0.00018931  0.41147996
   0.50005327  0.49989346  0.41174066
   0.17239258  0.15521484  0.47956655
   0.17078137  0.66855202  0.48009755
   0.66554430  0.16891141  0.47943154
   0.66066661  0.66855202  0.48009755
   0.00298966  0.49402069  0.53475394
   0.91062122  0.67875755  0.53529736
Direct configuration=    10
   0.00079791 -0.00017905  0.00068300
   0.00004795  0.49990410  0.00088436
   0.49938114 -0.00017905  0.00068300
   0.49969701  0.50060598  0.00066151
   0.16648253  0.16703495  0.07016415
   0.16653809  0.66646458  0.07021754
   0.66666315  0.16667370  0.06993285
   0.66699734  0.66646458  0.07021754
   0.33376705  0.33287942  0.13825623
   0.33326507  0.83346986  0.13818949
   0.83335353  0.33287942  0.13825623
   0.83295214  0.83409572  0.13822955
   0.00042869 -0.00017131  0.20669678
  -0.00009304  0.50018608  0.20676563
   0.49974262 -0.00017131  0.20669678
   0.50001037  0.49997927  0.20655968
   0.16703669  0.16592661  0.27489545
   0.16756092  0.66664478  0.27503578
   0.66642006  0.16715987  0.27475076
   0.66579429  0.66664478  0.27503578
   0.33476225  0.33230291  0.34331683
   0.33342398  0.83315204  0.34348771
   0.83293484  0.33230291  0.34331683
   0.83210372  0.83579255  0.34310007
  -0.00042910 -0.00030250  0.41133639
   0.99933637  0.50132725  0.41072424
   0.50073161 -0.00030250  0.41133639
   0.50005490  0.49989021  0.41162569
   0.17273365  0.15453270  0.47935616
   0.17043849  0.66780436  0.48005160
   0.66548874  0.16902252  0.47923226
   0.66175715  0.66780436  0.48005160
   0.00154343  0.49691314  0.53495536
   0.91104417  0.67791167  0.53569700
Direct configuration=    11
   0.00093671 -0.00022569  0.00083152
   0.00001786  0.49996428  0.00110111
   0.49928898 -0.00022569  0.00083152
   0.49963538  0.50072924  0.00080539
   0.16649136  0.16701727  0.07020058
   0.16656828  0.66646726  0.07026007
   0.66665876  0.16668247  0.06987518
   0.66696446  0.66646726  0.07026007
   0.33370017  0.33287465  0.13807911
   0.33327325  0.83345350  0.13800129
   0.83342518  0.33287465  0.13807911
   0.83293475  0.83413050  0.13806806
   0.00056566 -0.00033159  0.20666958
  -0.00020186  0.50040372  0.20678346
   0.49976592 -0.00033159  0.20666958
   0.50000159  0.49999682  0.20650012
   0.16701013  0.16597973  0.27494361
   0.16759888  0.66651777  0.27508558
   0.66638248  0.16723505  0.27468691
   0.66588335  0.66651777  0.27508558
   0.33483673  0.33232142  0.34342207
   0.33355348  0.83289305  0.34372965
   0.83284185  0.33232142  0.34342207
   0.83190896  0.83618207  0.34311744
  -0.00066518 -0.00046981  0.41112417
   0.99917801  0.50164398  0.41069643
   0.50113499 -0.00046981  0.41112417
   0.50005730  0.49988540  0.41145575
   0.17323780  0.15352440  0.47904517
   0.16993167  0.66669921  0.47998369
   0.66540663  0.16918675  0.47893771
   0.66336912  0.66669921  0.47998369
  -0.00059428  0.50118856  0.53525309
   0.91166933  0.67666134  0.53628774
Direct configuration=    12
   0.00087242 -0.00020409  0.00076273
   0.00003180  0.49993640  0.00100072
   0.49933167 -0.00020409  0.00076273
   0.49966392  0.50067215  0.00073875
   0.16648727  0.16702546  0.07018371
   0.16655429  0.66646602  0.07024037
   0.66666080  0.16667841  0.06990189
   0.66697969  0.66646602  0.07024037
   0.33373115  0.33287686  0.13816115
   0.33326946  0.83346108  0.13808846
   0.83339199  0.33287686  0.13816115
   0.83294280  0.83411439  0.13814286
   0.00050222 -0.00025735  0.20668218
  -0.00015146  0.50030291  0.20677520
   0.49975513 -0.00025735  0.20668218
   0.50000565  0.49998869  0.20652771
   0.16702243  0.16595513  0.27492130
   0.16758130  0.66657660  0.27506251
   0.66639989  0.16720023  0.27471648
   0.66584210  0.66657660  0.27506251
   0.33480224  0.33231284  0.34337333
   0.33349350  0.83301301  0.34361759
   0.83288492  0.33231284  0.34337333
   0.83199917  0.83600166  0.34310940
  -0.00055584 -0.00039232  0.41122246
   0.99925136  0.50149728  0.41070931
   0.50094815 -0.00039232  0.41122246
   0.50005619  0.49988763  0.41153446
   0.17300429  0.15399142  0.47918921
   0.17016641  0.66721109  0.48001515
   0.66544466  0.16911068  0.47907414
   0.66262250  0.66721109  0.48001515
   0.00039585  0.49920829  0.53511519
   0.91137977  0.67724046  0.53601412
Direct configuration=    13
   0.00090280 -0.00021510  0.00080958
   0.00001408  0.49997184  0.00107291
   0.49931229 -0.00021510  0.00080958
   0.49964653  0.50070694  0.00078418
   0.16650058  0.16699884  0.07021049
   0.16657186  0.66648152  0.07026810
   0.66665942  0.16668116  0.06989935
   0.66694661  0.66648152  0.07026810
   0.33369585  0.33288573  0.13810523
   0.33327597  0.83344806  0.13803210
   0.83341842  0.33288573  0.13810523
   0.83294123  0.83411755  0.13809262
   0.00055967 -0.00031228  0.20665718
  -0.00018703  0.50037406  0.20676760
   0.49975261 -0.00031228  0.20665718
   0.50000288  0.49999424  0.20649355
   0.16701577  0.16596846  0.27495117
   0.16758883  0.66653538  0.27508471
   0.66638628  0.16722745  0.27469836
   0.66587579  0.66653538  0.27508471
   0.33473667  0.33238006  0.34339955
   0.33354064  0.83291872  0.34368661
   0.83288327  0.33238006  0.34339955
   0.83197558  0.83604884  0.34310175
  -0.00061938 -0.00048446  0.41112674
   0.99922436  0.50155129  0.41070836
   0.50110384 -0.00048446  0.41112674
   0.50003821  0.49992358  0.41145276
   0.17311016  0.15377968  0.47905964
   0.16994330  0.66667112  0.47997190
   0.66545666  0.16908667  0.47897099
   0.66338558  0.66667112  0.47997190
   0.00019051  0.49961899  0.53526844
   0.91091788  0.67816424  0.53630338
Direct configuration=    14
   0.00099395 -0.00024811  0.00095014
  -0.00003908  0.50007816  0.00128950
   0.49925417 -0.00024811  0.00095014
   0.49959435  0.50081130  0.00092047
   0.16654051  0.16691899  0.07029082
   0.16662457  0.66652804  0.07035131
   0.66665530  0.16668940  0.06989173
   0.66684739  0.66652804  0.07035131
   0.33358994  0.33291235  0.13793748
   0.33329551  0.83340899  0.13786302
   0.83349771  0.33291235  0.13793748
   0.83293649  0.83412702  0.13794191
   0.00073202 -0.00047705  0.20658220
  -0.00029376  0.50058752  0.20674477
   0.49974503 -0.00047705  0.20658220
   0.49999456  0.50001089  0.20639107
   0.16699577  0.16600846  0.27504075
   0.16761142  0.66641173  0.27515130
   0.66634545  0.16730910  0.27464398
   0.66597685  0.66641173  0.27515130
   0.33453999  0.33258170  0.34347823
   0.33368207  0.83263585  0.34389367
   0.83287831  0.33258170  0.34347823
   0.83190480  0.83619041  0.34307880
  -0.00081001 -0.00076089  0.41083957
   0.99914335  0.50171330  0.41070551
   0.50157090 -0.00076089  0.41083957
   0.49998428  0.50003144  0.41120766
   0.17342776  0.15314447  0.47867092
   0.16927398  0.66505121  0.47984217
   0.66549267  0.16901466  0.47866153
   0.66567481  0.66505121  0.47984217
  -0.00042554  0.50085107  0.53572819
   0.90953220  0.68093559  0.53717113
Direct configuration=    15
   0.00102832 -0.00026057  0.00100316
  -0.00005913  0.50011827  0.00137119
   0.49923224 -0.00026057  0.00100316
   0.49957467  0.50085067  0.00097188
   0.16655557  0.16688887  0.07032112
   0.16664445  0.66654558  0.07038270
   0.66665375  0.16669251  0.06988886
   0.66680997  0.66654558  0.07038270
   0.33355000  0.33292238  0.13787421
   0.33330287  0.83339425  0.13779925
   0.83352762  0.33292238  0.13787421
   0.83293471  0.83413059  0.13788507
   0.00079702 -0.00053920  0.20655391
  -0.00033401  0.50066803  0.20673616
   0.49974218 -0.00053920  0.20655391
   0.49999142  0.50001717  0.20635242
   0.16698823  0.16602355  0.27507454
   0.16761994  0.66636509  0.27517642
   0.66633005  0.16733990  0.27462347
   0.66601497  0.66636509  0.27517642
   0.33446581  0.33265776  0.34350791
   0.33373542  0.83252916  0.34397176
   0.83287643  0.33265776  0.34350791
   0.83187810  0.83624380  0.34307014
  -0.00088192 -0.00086515  0.41073126
   0.99911280  0.50177441  0.41070444
   0.50174706 -0.00086515  0.41073126
   0.49996394  0.50007213  0.41111521
   0.17354756  0.15290488  0.47852431
   0.16902153  0.66444023  0.47979323
   0.66550625  0.16898749  0.47854481
   0.66653825  0.66444023  0.47979323
  -0.00065789  0.50131578  0.53590160
   0.90900956  0.68198088  0.53749842
Direct configuration=    16
   0.00101514 -0.00025034  0.00103636
  -0.00007976  0.50015952  0.00142644
   0.49923520 -0.00025034  0.00103636
   0.49957339  0.50085322  0.00100317
   0.16657868  0.16684264  0.07032963
   0.16665231  0.66657779  0.07039136
   0.66665587  0.16668826  0.06990858
   0.66676990  0.66657779  0.07039136
   0.33355566  0.33291234  0.13790840
   0.33331242  0.83337516  0.13784401
   0.83353200  0.33291234  0.13790840
   0.83291737  0.83416525  0.13791643
   0.00086167 -0.00052838  0.20651226
  -0.00030688  0.50061376  0.20670071
   0.49966670 -0.00052838  0.20651226
   0.50000788  0.49998424  0.20630795
   0.16704834  0.16590332  0.27509976
   0.16768541  0.66638350  0.27517857
   0.66631054  0.16737893  0.27461359
   0.66593109  0.66638350  0.27517857
   0.33422368  0.33278805  0.34344178
   0.33373356  0.83253288  0.34386597
   0.83298827  0.33278805  0.34344178
   0.83196397  0.83607205  0.34297828
  -0.00081388 -0.00104537  0.41067694
   0.99921137  0.50157727  0.41067413
   0.50185925 -0.00104537  0.41067694
   0.49990364  0.50019271  0.41109374
   0.17376251  0.15247497  0.47836836
   0.16914193  0.66392950  0.47969819
   0.66565881  0.16868238  0.47843147
   0.66692857  0.66392950  0.47969819
  -0.00121180  0.50242359  0.53618732
   0.90849489  0.68301022  0.53796300
Direct configuration=    17
   0.00097558 -0.00021964  0.00113597
  -0.00014163  0.50028327  0.00159220
   0.49924406 -0.00021964  0.00113597
   0.49956957  0.50086086  0.00109704
   0.16664802  0.16670395  0.07035514
   0.16667589  0.66667443  0.07041733
   0.66666225  0.16667550  0.06996773
   0.66664968  0.66667443  0.07041733
   0.33357262  0.33288222  0.13801096
   0.33334106  0.83331789  0.13797829
   0.83354516  0.33288222  0.13801096
   0.83286537  0.83426925  0.13801052
   0.00105563 -0.00049590  0.20638729
  -0.00022548  0.50045097  0.20659434
   0.49944028 -0.00049590  0.20638729
   0.50005728  0.49988545  0.20617455
   0.16722869  0.16554261  0.27517542
   0.16788183  0.66643874  0.27518501
   0.66625200  0.16749601  0.27458396
   0.66567943  0.66643874  0.27518501
   0.33349731  0.33317892  0.34324341
   0.33372799  0.83254403  0.34354859
   0.83332377  0.33317892  0.34324341
   0.83222160  0.83555679  0.34270271
  -0.00060976 -0.00158603  0.41051398
   0.99950707  0.50098585  0.41058322
   0.50219579 -0.00158603  0.41051398
   0.49972277  0.50055447  0.41102932
   0.17440738  0.15118523  0.47790050
   0.16950313  0.66239734  0.47941307
   0.66611648  0.16776704  0.47809143
   0.66809952  0.66239734  0.47941307
  -0.00287352  0.50574703  0.53704449
   0.90695088  0.68609824  0.53935673
Direct configuration=    18
   0.00089647 -0.00015825  0.00133520
  -0.00026538  0.50053077  0.00192370
   0.49926178 -0.00015825  0.00133520
   0.49956192  0.50087616  0.00128479
   0.16678671  0.16642658  0.07040616
   0.16672305  0.66686769  0.07046928
   0.66667500  0.16664999  0.07008604
   0.66640926  0.66686769  0.07046928
   0.33360655  0.33282198  0.13821608
   0.33339833  0.83320334  0.13824685
   0.83357147  0.33282198  0.13821608
   0.83276138  0.83447725  0.13819870
   0.00144354 -0.00043096  0.20613736
  -0.00006269  0.50012538  0.20638161
   0.49898742 -0.00043096  0.20613736
   0.50015607  0.49968787  0.20590776
   0.16758940  0.16482121  0.27532674
   0.16827467  0.66654921  0.27519790
   0.66613492  0.16773017  0.27452470
   0.66517612  0.66654921  0.27519790
   0.33204455  0.33396066  0.34284666
   0.33371684  0.83256633  0.34291384
   0.83399478  0.33396066  0.34284666
   0.83273686  0.83452628  0.34215158
  -0.00020153 -0.00266736  0.41018806
   0.00009849  0.49980302  0.41040140
   0.50286889 -0.00266736  0.41018806
   0.49936101  0.50127798  0.41090047
   0.17569712  0.14860575  0.47696480
   0.17022555  0.65933302  0.47884283
   0.66703182  0.16593636  0.47741135
   0.67044143  0.65933302  0.47884283
  -0.00619695  0.51239390  0.53875884
   0.90386286  0.69227428  0.54214418
Direct configuration=    19
   0.00088255 -0.00014600  0.00134883
  -0.00027340  0.50054681  0.00194461
   0.49926345 -0.00014600  0.00134883
   0.49956447  0.50087106  0.00129771
   0.16679542  0.16640915  0.07041693
   0.16672790  0.66687904  0.07048008
   0.66667276  0.16665449  0.07010340
   0.66639306  0.66687904  0.07048008
   0.33360101  0.33282281  0.13822780
   0.33340375  0.83319250  0.13826222
   0.83357618  0.33282281  0.13822780
   0.83275939  0.83448123  0.13821067
   0.00145658 -0.00042368  0.20613324
  -0.00004953  0.50009906  0.20637904
   0.49896710 -0.00042368  0.20613324
   0.50016870  0.49966260  0.20590200
   0.16760469  0.16479063  0.27531225
   0.16829028  0.66654652  0.27517287
   0.66612647  0.16774705  0.27450712
   0.66516320  0.66654652  0.27517287
   0.33199831  0.33399592  0.34281980
   0.33371669  0.83256662  0.34286693
   0.83400577  0.33399592  0.34281980
   0.83276022  0.83447956  0.34211458
  -0.00017081 -0.00277201  0.41014393
   0.00015903  0.49968194  0.41036810
   0.50294282 -0.00277201  0.41014393
   0.49934874  0.50130252  0.41086960
   0.17580565  0.14838871  0.47689891
   0.17032971  0.65908969  0.47879358
   0.66713379  0.16573242  0.47736199
   0.67058060  0.65908969  0.47879358
  -0.00664857  0.51329713  0.53893575
   0.90371173  0.69257654  0.54240816
Direct configuration=    20
   0.00084078 -0.00010923  0.00138972
  -0.00029747  0.50059493  0.00200734
   0.49926845 -0.00010923  0.00138972
   0.49957212  0.50085576  0.00133649
   0.16682156  0.16635688  0.07044925
   0.16674244  0.66691308  0.07051249
   0.66666601  0.16666798  0.07015546
   0.66634448  0.66691308  0.07051249
   0.33358438  0.33282529  0.13826296
   0.33342000  0.83316000  0.13830835
   0.83359033  0.33282529  0.13826296
   0.83275342  0.83449316  0.13824657
   0.00149572 -0.00040185  0.20612090
  -0.00001005  0.50002009  0.20637132
   0.49890613 -0.00040185  0.20612090
   0.50020660  0.49958680  0.20588471
   0.16765056  0.16469888  0.27526878
   0.16833710  0.66653848  0.27509777
   0.66610114  0.16779771  0.27445437
   0.66512442  0.66653848  0.27509777
   0.33185957  0.33410171  0.34273923
   0.33371625  0.83256750  0.34272618
   0.83403872  0.33410171  0.34273923
   0.83283031  0.83433938  0.34200359
  -0.00007864 -0.00308596  0.41001153
   0.00034067  0.49931867  0.41026819
   0.50316460 -0.00308596  0.41001153
   0.49931193  0.50137614  0.41077699
   0.17613122  0.14773757  0.47670126
   0.17064221  0.65835969  0.47864586
   0.66743969  0.16512061  0.47721388
   0.67099810  0.65835969  0.47864586
  -0.00800341  0.51600681  0.53946650
   0.90325835  0.69348331  0.54320011
Direct configuration=    21
   0.00075724 -0.00003569  0.00147149
  -0.00034559  0.50069118  0.00213279
   0.49927845 -0.00003569  0.00147149
   0.49958742  0.50082515  0.00141405
   0.16687384  0.16625232  0.07051388
   0.16677152  0.66698117  0.07057732
   0.66665252  0.16669496  0.07025959
   0.66624731  0.66698117  0.07057732
   0.33355112  0.33283025  0.13833327
   0.33345250  0.83309500  0.13840060
   0.83361863  0.33283025  0.13833327
   0.83274149  0.83451703  0.13831837
   0.00157399 -0.00035819  0.20609621
   0.00006892  0.49986216  0.20635589
   0.49878420 -0.00035819  0.20609621
   0.50028240  0.49943520  0.20585012
   0.16774231  0.16451539  0.27518186
   0.16843075  0.66652239  0.27494759
   0.66605048  0.16789904  0.27434887
   0.66504687  0.66652239  0.27494759
   0.33158210  0.33431328  0.34257809
   0.33371537  0.83256926  0.34244469
   0.83410462  0.33431328  0.34257809
   0.83297049  0.83405902  0.34178161
   0.00010569 -0.00371386  0.40974673
   0.00070394  0.49859213  0.41006837
   0.50360817 -0.00371386  0.40974673
   0.49923831  0.50152338  0.41059177
   0.17678236  0.14643529  0.47630596
   0.17126719  0.65689969  0.47835040
   0.66805151  0.16389699  0.47691766
   0.67183311  0.65689969  0.47835040
  -0.01071309  0.52142618  0.54052800
   0.90235158  0.69529684  0.54478400
Direct configuration=    22
   0.00059016  0.00011138  0.00163503
  -0.00044184  0.50088368  0.00238370
   0.49929845  0.00011138  0.00163503
   0.49961803  0.50076395  0.00156916
   0.16697840  0.16604320  0.07064315
   0.16682969  0.66711734  0.07070696
   0.66662554  0.16674893  0.07046786
   0.66605297  0.66711734  0.07070696
   0.33348460  0.33284018  0.13847389
   0.33351751  0.83296499  0.13858511
   0.83367522  0.33284018  0.13847389
   0.83271762  0.83456476  0.13846197
   0.00173054 -0.00027086  0.20604683
   0.00022685  0.49954630  0.20632503
   0.49854032 -0.00027086  0.20604683
   0.50043401  0.49913199  0.20578095
   0.16792580  0.16414840  0.27500801
   0.16861804  0.66649020  0.27464721
   0.66594916  0.16810169  0.27413788
   0.66489176  0.66649020  0.27464721
   0.33102716  0.33473642  0.34225581
   0.33371361  0.83257277  0.34188171
   0.83423642  0.33473642  0.34225581
   0.83325084  0.83349831  0.34133765
   0.00047435 -0.00496966  0.40921712
   0.00143047  0.49713905  0.40966874
   0.50449531 -0.00496966  0.40921712
   0.49909107  0.50181787  0.41022132
   0.17808463  0.14383073  0.47551535
   0.17251717  0.65397970  0.47775948
   0.66927513  0.16144975  0.47632523
   0.67350314  0.65397970  0.47775948
  -0.01613245  0.53226491  0.54265099
   0.90053804  0.69892391  0.54795179
Direct configuration=    23
   0.00025601  0.00040553  0.00196212
  -0.00063433  0.50126867  0.00288552
   0.49933846  0.00040553  0.00196212
   0.49967923  0.50064153  0.00187938
   0.16718752  0.16562497  0.07090168
   0.16694602  0.66738969  0.07096626
   0.66657157  0.16685685  0.07088438
   0.66566429  0.66738969  0.07096626
   0.33335156  0.33286004  0.13875514
   0.33364751  0.83270497  0.13895413
   0.83378840  0.33286004  0.13875514
   0.83266989  0.83466023  0.13874916
   0.00204363 -0.00009621  0.20594806
   0.00054271  0.49891458  0.20626330
   0.49805258 -0.00009621  0.20594806
   0.50073721  0.49852557  0.20564262
   0.16829279  0.16341442  0.27466030
   0.16899262  0.66642583  0.27404645
   0.66574651  0.16850698  0.27371590