<?xml version="1.0" encoding="ISO-8859-1"?>
<modeling>
 <generator>
  <i name="program" type="string">vasp </i>
  <i name="version" type="string">6.3.2  </i>
  <i name="subversion" type="string">27Jun22 (build Aug 17 2022 15:43:34) complex                          parallel </i>
  <i name="platform" type="string">tv2STDVTST </i>
  <i name="date" type="string">2025 02 04 </i>
  <i name="time" type="string">14:18:01 </i>
 </generator>
 <incar>
  <i type="int" name="ISTART">     0</i>
  <i type="string" name="PREC">Normal</i>
  <i type="int" name="ISPIN">     2</i>
  <i type="int" name="ICHARG">     2</i>
  <i type="int" name="IBRION">     2</i>
  <i name="EDIFF">      0.00020000</i>
  <i name="EDIFFG">     -0.03000000</i>
  <i type="int" name="NSW">   800</i>
  <i type="int" name="ISIF">     2</i>
  <i type="int" name="ISYM">     1</i>
  <i name="ENCUT">    400.00000000</i>
  <i name="POTIM">      0.50000000</i>
  <i type="logical" name="LREAL"> F  </i>
  <i type="int" name="ISMEAR">     1</i>
  <i name="SIGMA">      0.20000000</i>
  <i type="logical" name="LWAVE"> F  </i>
  <i type="logical" name="LCHARG"> F  </i>
  <i type="string" name="GGA">PE</i>
  <i type="int" name="IVDW">    11</i>
 </incar>
 <primitive_cell>
  <structure name="primitive_cell" >
   <crystal>
    <varray name="basis" >
     <v>       2.56679773       0.00000000       0.00000000 </v>
     <v>       1.28339887       2.22291204       0.00000000 </v>
     <v>       0.00000000       0.00000000      29.67047119 </v>
    </varray>
    <i name="volume">    169.29275369 </i>
    <varray name="rec_basis" >
     <v>       0.38959050      -0.22493018       0.00000000 </v>
     <v>       0.00000000       0.44986035       0.00000000 </v>
     <v>       0.00000000       0.00000000       0.03370354 </v>
    </varray>
   </crystal>
   <varray name="positions" >
    <v>       0.00000000       0.00000000       0.00000000 </v>
    <v>       0.33333333       0.33333333       0.07063526 </v>
    <v>       0.66666667       0.66666667       0.13908594 </v>
    <v>       0.00000000       0.00000000       0.20816512 </v>
    <v>       0.33333333       0.33333333       0.27656240 </v>
    <v>       0.66666667       0.66666667       0.34556034 </v>
    <v>       0.00000000       0.00000000       0.41400593 </v>
    <v>       0.33333333       0.33333333       0.48139269 </v>
    <v>       0.00000000       1.00000000       0.53425930 </v>
    <v>       0.83220209       0.33559582       0.53425930 </v>
   </varray>
  </structure>
  <varray name="primitive_index" >
   <v type="int" >        1 </v>
   <v type="int" >        2 </v>
   <v type="int" >        3 </v>
   <v type="int" >        4 </v>
   <v type="int" >        5 </v>
   <v type="int" >        6 </v>
   <v type="int" >        7 </v>
   <v type="int" >        8 </v>
   <v type="int" >        9 </v>
   <v type="int" >       10 </v>
  </varray>
 </primitive_cell>
 <kpoints>
  <generation param="Monkhorst-Pack">
   <v type="int" name="divisions">       3        3        1 </v>
   <v name="usershift">      0.00000000       0.00000000       0.00000000 </v>
   <v name="genvec1">      0.33333333       0.00000000       0.00000000 </v>
   <v name="genvec2">      0.00000000       0.33333333       0.00000000 </v>
   <v name="genvec3">      0.00000000       0.00000000       1.00000000 </v>
   <v name="shift">      0.00000000       0.00000000       0.00000000 </v>
  </generation>
  <varray name="kpointlist" >
   <v>       0.00000000       0.00000000       0.00000000 </v>
   <v>       0.33333333       0.00000000       0.00000000 </v>
   <v>       0.00000000       0.33333333       0.00000000 </v>
   <v>      -0.33333333       0.33333333       0.00000000 </v>
  </varray>
  <varray name="weights" >
   <v>       0.11111111 </v>
   <v>       0.44444444 </v>
   <v>       0.22222222 </v>
   <v>       0.22222222 </v>
  </varray>
 </kpoints>
 <parameters>
  <separator name="general" >
   <i type="string" name="SYSTEM">unknown system</i>
   <i type="logical" name="LCOMPAT"> F  </i>
  </separator>
  <separator name="electronic" >
   <i type="string" name="PREC">normal</i>
   <i name="ENMAX">    400.00000000</i>
   <i name="ENAUG">    586.98000000</i>
   <i name="EDIFF">      0.00020000</i>
   <i type="int" name="IALGO">    38</i>
   <i type="int" name="IWAVPR">    11</i>
   <i type="int" name="NBANDS">    60</i>
   <i type="int" name="NBANDSLOW">    -1</i>
   <i type="int" name="NBANDSHIGH">    -1</i>
   <i name="NELECT">     90.00000000</i>
   <i type="int" name="TURBO">     0</i>
   <i type="int" name="IRESTART">     0</i>
   <i type="int" name="NREBOOT">     0</i>
   <i type="int" name="NMIN">     0</i>
   <i name="EREF">      0.00000000</i>
   <separator name="electronic smearing" >
    <i type="int" name="ISMEAR">     1</i>
    <i name="SIGMA">      0.20000000</i>
    <i name="KSPACING">      0.50000000</i>
    <i type="logical" name="KGAMMA"> T  </i>
    <i type="logical" name="KBLOWUP"> T  </i>
   </separator>
   <separator name="electronic projectors" >
    <i type="logical" name="LREAL"> F  </i>
    <v name="ROPT">      0.00000000      0.00000000</v>
    <i type="int" name="LMAXPAW">  -100</i>
    <i type="int" name="LMAXMIX">     2</i>
    <i type="logical" name="NLSPLINE"> F  </i>
   </separator>
   <separator name="electronic startup" >
    <i type="int" name="ISTART">     0</i>
    <i type="int" name="ICHARG">     2</i>
    <i type="int" name="INIWAV">     1</i>
   </separator>
   <separator name="electronic spin" >
    <i type="int" name="ISPIN">     2</i>
    <i type="logical" name="LNONCOLLINEAR"> F  </i>
    <v name="MAGMOM">      1.00000000      1.00000000      1.00000000      1.00000000      1.00000000      1.00000000      1.00000000      1.00000000      1.00000000      1.00000000</v>
    <i name="NUPDOWN">     -1.00000000</i>
    <i type="logical" name="LSORBIT"> F  </i>
    <v name="SAXIS">      0.00000000      0.00000000      1.00000000</v>
    <i type="logical" name="LSPIRAL"> F  </i>
    <v name="QSPIRAL">      0.00000000      0.00000000      0.00000000</v>
    <i type="logical" name="LZEROZ"> F  </i>
   </separator>
   <separator name="electronic exchange-correlation" >
    <i type="logical" name="LASPH"> F  </i>
    <i type="logical" name="LMETAGGA"> F  </i>
   </separator>
   <separator name="electronic convergence" >
    <i type="int" name="NELM">    60</i>
    <i type="int" name="NELMDL">    -5</i>
    <i type="int" name="NELMIN">     2</i>
    <i name="ENINI">    400.00000000</i>
    <separator name="electronic convergence detail" >
     <i type="logical" name="LDIAG"> T  </i>
     <i type="logical" name="LSUBROT"> F  </i>
     <i name="WEIMIN">      0.00100000</i>
     <i name="EBREAK">      0.00000083</i>
     <i name="DEPER">      0.30000000</i>
     <i type="int" name="NRMM">     4</i>
     <i name="TIME">      0.40000000</i>
    </separator>
   </separator>
   <separator name="electronic mixer" >
    <i name="AMIX">      0.40000000</i>
    <i name="BMIX">      1.00000000</i>
    <i name="AMIN">      0.10000000</i>
    <i name="AMIX_MAG">      1.60000000</i>
    <i name="BMIX_MAG">      1.00000000</i>
    <separator name="electronic mixer details" >
     <i type="int" name="IMIX">     4</i>
     <i type="logical" name="MIXFIRST"> F  </i>
     <i type="int" name="MAXMIX">   -45</i>
     <i name="WC">    100.00000000</i>
     <i type="int" name="INIMIX">     1</i>
     <i type="int" name="MIXPRE">     1</i>
     <i type="int" name="MREMOVE">     5</i>
    </separator>
   </separator>
   <separator name="electronic dipolcorrection" >
    <i type="logical" name="LDIPOL"> F  </i>
    <i type="logical" name="LMONO"> F  </i>
    <i type="int" name="IDIPOL">     0</i>
    <i name="EPSILON">      1.00000000</i>
    <v name="DIPOL">   -100.00000000   -100.00000000   -100.00000000</v>
    <i name="EFIELD">      0.00000000</i>
   </separator>
  </separator>
  <separator name="grids" >
   <i type="int" name="NGX">    14</i>
   <i type="int" name="NGY">    14</i>
   <i type="int" name="NGZ">   150</i>
   <i type="int" name="NGXF">    28</i>
   <i type="int" name="NGYF">    28</i>
   <i type="int" name="NGZF">   300</i>
   <i type="logical" name="ADDGRID"> F  </i>
  </separator>
  <separator name="ionic" >
   <i type="int" name="NSW">   800</i>
   <i type="int" name="IBRION">     2</i>
   <i type="int" name="MDALGO">     0</i>
   <i type="int" name="ISIF">     2</i>
   <i name="PSTRESS">      0.00000000</i>
   <i name="EDIFFG">     -0.03000000</i>
   <i type="int" name="NFREE">     1</i>
   <i name="POTIM">      0.50000000</i>
   <i name="SMASS">     -3.00000000</i>
   <i name="SCALEE">      1.00000000</i>
  </separator>
  <separator name="ionic md" >
   <i name="TEBEG">      0.00010000</i>
   <i name="TEEND">      0.00010000</i>
   <i type="int" name="NBLOCK">     1</i>
   <i type="int" name="KBLOCK">   800</i>
   <i type="int" name="NPACO">   256</i>
   <i name="APACO">     10.00000000</i>
  </separator>
  <separator name="symmetry" >
   <i type="int" name="ISYM">     1</i>
   <i name="SYMPREC">      0.00001000</i>
  </separator>
  <separator name="dos" >
   <i type="int" name="LORBIT">     0</i>
   <v name="RWIGS">     -1.00000000     -1.00000000</v>
   <i type="int" name="NEDOS">   301</i>
   <i name="EMIN">     10.00000000</i>
   <i name="EMAX">    -10.00000000</i>
   <i name="EFERMI">      0.00000000</i>
  </separator>
  <separator name="writing" >
   <i type="int" name="NWRITE">     2</i>
   <i type="logical" name="LWAVE"> F  </i>
   <i type="logical" name="LDOWNSAMPLE"> F  </i>
   <i type="logical" name="LCHARG"> F  </i>
   <i type="logical" name="LPARD"> F  </i>
   <i type="logical" name="LVTOT"> F  </i>
   <i type="logical" name="LVHAR"> F  </i>
   <i type="logical" name="LELF"> F  </i>
   <i type="logical" name="LOPTICS"> F  </i>
   <v name="STM">      0.00000000      0.00000000      0.00000000      0.00000000      0.00000000      0.00000000      0.00000000</v>
  </separator>
  <separator name="performance" >
   <i type="int" name="NPAR">     4</i>
   <i type="int" name="NSIM">     4</i>
   <i type="int" name="NBLK">    -1</i>
   <i type="logical" name="LPLANE"> T  </i>
   <i type="logical" name="LSCALAPACK"> T  </i>
   <i type="logical" name="LSCAAWARE"> F  </i>
   <i type="logical" name="LSCALU"> F  </i>
   <i type="logical" name="LASYNC"> F  </i>
   <i type="logical" name="LORBITALREAL"> F  </i>
  </separator>
  <separator name="miscellaneous" >
   <i type="int" name="IDIOT">     3</i>
   <i type="int" name="PHON_NSTRUCT">    -1</i>
   <i type="logical" name="LMUSIC"> F  </i>
   <v name="POMASS">     63.54600000      1.00000000</v>
   <v name="DARWINR">      0.00000000      0.00000000</v>
   <v name="DARWINV">      1.00000000      1.00000000</v>
   <i type="logical" name="LCORR"> T  </i>
  </separator>
  <i type="logical" name="GGA_COMPAT"> T  </i>
  <i type="logical" name="LBERRY"> F  </i>
  <i type="int" name="ICORELEVEL">     0</i>
  <i type="logical" name="LDAU"> F  </i>
  <i type="int" name="I_CONSTRAINED_M">     0</i>
  <separator name="electronic exchange-correlation" >
   <i type="string" name="GGA">PE</i>
   <i type="int" name="VOSKOWN">     0</i>
   <i type="logical" name="LHFCALC"> F  </i>
   <i type="string" name="PRECFOCK"></i>
   <i type="logical" name="LSYMGRAD"> F  </i>
   <i type="logical" name="LHFONE"> F  </i>
   <i type="logical" name="LRHFCALC"> F  </i>
   <i type="logical" name="LTHOMAS"> F  </i>
   <i type="logical" name="LMODELHF"> F  </i>
   <i type="logical" name="LFOCKACE"> F  </i>
   <i name="ENCUT4O">     -1.00000000</i>
   <i type="int" name="EXXOEP">     0</i>
   <i type="int" name="FOURORBIT">     0</i>
   <i name="AEXX">      0.00000000</i>
   <i name="HFALPHA">      0.00000000</i>
   <i name="MCALPHA">      0.00000000</i>
   <i name="ALDAX">      1.00000000</i>
   <i name="AGGAX">      1.00000000</i>
   <i name="ALDAC">      1.00000000</i>
   <i name="AGGAC">      1.00000000</i>
   <i type="int" name="NKREDX">     1</i>
   <i type="int" name="NKREDY">     1</i>
   <i type="int" name="NKREDZ">     1</i>
   <i type="logical" name="SHIFTRED"> F  </i>
   <i type="logical" name="ODDONLY"> F  </i>
   <i type="logical" name="EVENONLY"> F  </i>
   <i type="int" name="LMAXFOCK">     0</i>
   <i type="int" name="NMAXFOCKAE">     0</i>
   <i type="logical" name="LFOCKAEDFT"> F  </i>
   <i name="HFSCREEN">      0.00000000</i>
   <i name="HFSCREENC">      0.00000000</i>
   <i type="int" name="NBANDSGWLOW">     0</i>
  </separator>
  <separator name="vdW DFT" >
   <i type="logical" name="LUSE_VDW"> F  </i>
   <i name="Zab_VDW">     -0.84910000</i>
   <i name="PARAM1">      0.12340000</i>
   <i name="PARAM2">      1.00000000</i>
   <i name="PARAM3">      0.00000000</i>
  </separator>
  <separator name="model GW" >
   <i type="int" name="MODEL_GW">     0</i>
   <i name="MODEL_EPS0">     10.15756522</i>
   <i name="MODEL_ALPHA">      1.00000000</i>
  </separator>
  <separator name="linear response parameters" >
   <i type="logical" name="LEPSILON"> F  </i>
   <i type="logical" name="LRPA"> F  </i>
   <i type="logical" name="LNABLA"> F  </i>
   <i type="logical" name="LVEL"> F  </i>
   <i name="CSHIFT">      0.10000000</i>
   <i name="OMEGAMAX">     -1.00000000</i>
   <i name="DEG_THRESHOLD">      0.00200000</i>
   <i name="RTIME">     -0.10000000</i>
   <i name="WPLASMAI">      0.00000000</i>
   <v name="DFIELD">      0.00000000      0.00000000      0.00000000</v>
   <v name="WPLASMA">      0.00000000      0.00000000      0.00000000      0.00000000      0.00000000      0.00000000      0.00000000      0.00000000      0.00000000</v>
  </separator>
  <separator name="orbital magnetization" >
   <i type="logical" name="NUCIND"> F  </i>
   <v name="MAGPOS">      0.00000000      0.00000000      0.00000000</v>
   <i type="logical" name="LNICSALL"> T  </i>
   <i type="logical" name="ORBITALMAG"> F  </i>
   <i type="logical" name="LMAGBLOCH"> F  </i>
   <i type="logical" name="LCHIMAG"> F  </i>
   <i type="logical" name="LGAUGE"> T  </i>
   <i type="int" name="MAGATOM">     0</i>
   <v name="MAGDIPOL">      0.00000000      0.00000000      0.00000000</v>
   <v name="AVECCONST">      0.00000000      0.00000000      0.00000000</v>
  </separator>
  <separator name="response functions" >
   <i type="logical" name="LFINITE_TEMPERATURE"> F  </i>
   <i type="logical" name="LADDER"> F  </i>
   <i type="logical" name="LRPAFORCE"> F  </i>
   <i type="logical" name="LFXC"> F  </i>
   <i type="logical" name="LHARTREE"> T  </i>
   <i type="int" name="IBSE">     0</i>
   <v type="int" name="KPOINT">    -1     0     0     0</v>
   <i type="logical" name="LTCTC"> F  </i>
   <i type="logical" name="LTCTE"> F  </i>
   <i type="logical" name="LTETE"> F  </i>
   <i type="logical" name="LTRIPLET"> F  </i>
   <i type="logical" name="LFXCEPS"> F  </i>
   <i type="logical" name="LFXHEG"> F  </i>
   <i type="int" name="NATURALO">     2</i>
   <i type="logical" name="LHOLEGF"> F  </i>
   <i type="logical" name="L2ORDER"> F  </i>
   <i type="logical" name="LDMP1"> F  </i>
   <i type="logical" name="LMP2LT"> F  </i>
   <i type="logical" name="LSMP2LT"> F  </i>
   <i type="logical" name="LGWLF"> F  </i>
   <i name="ENCUTGW">     -2.00000000</i>
   <i name="ENCUTGWSOFT">     -2.00000000</i>
   <i name="ENCUTLF">     -1.00000000</i>
   <i type="logical" name="LESF_SPLINES"> F  </i>
   <i type="int" name="LMAXMP2">    -1</i>
   <i name="SCISSOR">      0.00000000</i>
   <i type="int" name="NOMEGA">     0</i>
   <i type="int" name="NOMEGAR">     0</i>
   <i type="int" name="NBANDSGW">    -1</i>
   <i type="int" name="NBANDSO">    -1</i>
   <i type="int" name="NBANDSV">    -1</i>
   <i type="int" name="NELMGW">     1</i>
   <i type="int" name="NELMHF">     1</i>
   <i type="int" name="DIM">     3</i>
   <i type="int" name="IESPILON">     4</i>
   <i type="int" name="ANTIRES">     0</i>
   <i name="OMEGAMAX">    -30.00000000</i>
   <i name="OMEGAMIN">    -30.00000000</i>
   <i name="OMEGATL">   -200.00000000</i>
   <i type="int" name="OMEGAGRID">     0</i>
   <i name="CSHIFT">     -0.10000000</i>
   <i type="logical" name="LSELFENERGY"> F  </i>
   <i type="logical" name="LSPECTRAL"> F  </i>
   <i type="logical" name="LSPECTRALGW"> F  </i>
   <i type="logical" name="LSINGLES"> F  </i>
   <i type="logical" name="LFERMIGW"> F  </i>
   <i type="logical" name="ODDONLYGW"> F  </i>
   <i type="logical" name="EVENONLYGW"> F  </i>
   <i type="int" name="NKREDLFX">     1</i>
   <i type="int" name="NKREDLFY">     1</i>
   <i type="int" name="NKREDLFZ">     1</i>
   <i type="int" name="MAXMEM">  2800</i>
   <i type="int" name="TELESCOPE">     0</i>
   <i type="int" name="NTAUPAR">    -1</i>
   <i type="int" name="NOMEGAPAR">    -1</i>
   <i name="DAMP_NEWTON">      0.80000001</i>
   <i name="LAMBDA">      1.00000000</i>
  </separator>
  <separator name="External order field" >
   <i name="OFIELD_KAPPA">      0.00000000</i>
   <v name="OFIELD_K">      0.00000000      0.00000000      0.00000000</v>
   <i name="OFIELD_Q6_NEAR">      0.00000000</i>
   <i name="OFIELD_Q6_FAR">      0.00000000</i>
   <i name="OFIELD_A">      0.00000000</i>
  </separator>
  <separator name="optional k-points parameters" >
   <i type="int" name="KPOINTS_OPT_MODE">     1</i>
   <i type="logical" name="LKPOINTS_OPT"> F  </i>
  </separator>
 </parameters>
 <atominfo>
  <atoms>      10 </atoms>
  <types>       2 </types>
  <array name="atoms" >
   <dimension dim="1">ion</dimension>
   <field type="string">element</field>
   <field type="int">atomtype</field>
   <set>
    <rc><c>Cu</c><c>   1</c></rc>
    <rc><c>Cu</c><c>   1</c></rc>
    <rc><c>Cu</c><c>   1</c></rc>
    <rc><c>Cu</c><c>   1</c></rc>
    <rc><c>Cu</c><c>   1</c></rc>
    <rc><c>Cu</c><c>   1</c></rc>
    <rc><c>Cu</c><c>   1</c></rc>
    <rc><c>Cu</c><c>   1</c></rc>
    <rc><c>H </c><c>   2</c></rc>
    <rc><c>H </c><c>   2</c></rc>
   </set>
  </array>
  <array name="atomtypes" >
   <dimension dim="1">type</dimension>
   <field type="int">atomspertype</field>
   <field type="string">element</field>
   <field>mass</field>
   <field>valence</field>
   <field type="string">pseudopotential</field>
   <set>
    <rc><c>   8</c><c>Cu</c><c>     63.54600000</c><c>     11.00000000</c><c>  PAW_PBE Cu 22Jun2005                  </c></rc>
    <rc><c>   2</c><c>H </c><c>      1.00000000</c><c>      1.00000000</c><c>  PAW_PBE H 15Jun2001                   </c></rc>
   </set>
  </array>
 </atominfo>
 <structure name="initialpos" >
  <crystal>
   <varray name="basis" >
    <v>       2.56679773       0.00000000       0.00000000 </v>
    <v>       1.28339887       2.22291204       0.00000000 </v>
    <v>       0.00000000       0.00000000      29.67047119 </v>
   </varray>
   <i name="volume">    169.29275369 </i>
   <varray name="rec_basis" >
    <v>       0.38959050      -0.22493018       0.00000000 </v>
    <v>       0.00000000       0.44986035       0.00000000 </v>
    <v>       0.00000000       0.00000000       0.03370354 </v>
   </varray>
  </crystal>
  <varray name="positions" >
   <v>       0.00000000       0.00000000       0.00000000 </v>
   <v>       0.33333333       0.33333333       0.07063526 </v>
   <v>       0.66666667       0.66666667       0.13908594 </v>
   <v>       0.00000000       0.00000000       0.20816512 </v>
   <v>       0.33333333       0.33333333       0.27656240 </v>
   <v>       0.66666667       0.66666667       0.34556034 </v>
   <v>       0.00000000       0.00000000       0.41400593 </v>
   <v>       0.33333333       0.33333333       0.48139269 </v>
   <v>       0.00000000       1.00000000       0.53425930 </v>
   <v>       0.83220209       0.33559582       0.53425930 </v>
  </varray>
 </structure>
 <calculation>
  <scstep>
   <time name="dav">    0.28    0.29</time>
   <time name="total">    0.32    0.32</time>
   <energy>
    <i name="alphaZ">    285.34744303 </i>
    <i name="ewald">  52650.12678750 </i>
    <i name="hartreedc"> -63700.71380858 </i>
    <i name="XCdc">    372.86105402 </i>
    <i name="pawpsdc">   9828.36862813 </i>
    <i name="pawaedc"> -10674.97285505 </i>
    <i name="eentropy">      0.00759560 </i>
    <i name="bandstr">    884.46528395 </i>
    <i name="atom">  11152.61838693 </i>
    <i name="e_fr_energy">    798.10851553 </i>
    <i name="e_wo_entrp">    798.10091993 </i>
    <i name="e_0_energy">    798.10598367 </i>
   </energy>
  </scstep>
  <scstep>
   <time name="dav">    0.27    0.28</time>
   <time name="total">    0.27    0.28</time>
   <energy>
    <i name="e_fr_energy">     73.35509973 </i>
    <i name="e_wo_entrp">     73.35069879 </i>
    <i name="e_0_energy">     73.35363275 </i>
   </energy>
  </scstep>
  <scstep>
   <time name="dav">    0.28    0.28</time>
   <time name="total">    0.28    0.28</time>
   <energy>
    <i name="e_fr_energy">    -32.79795523 </i>
    <i name="e_wo_entrp">    -32.79329837 </i>
    <i name="e_0_energy">    -32.79640294 </i>
   </energy>
  </scstep>
  <scstep>
   <time name="dav">    0.30    0.30</time>
   <time name="total">    0.30    0.30</time>
   <energy>
    <i name="e_fr_energy">    -37.29546818 </i>
    <i name="e_wo_entrp">    -37.29794292 </i>
    <i name="e_0_energy">    -37.29629310 </i>
   </energy>
  </scstep>
  <scstep>
   <time name="dav">    0.32    0.32</time>
   <time name="total">    0.38    0.38</time>
   <energy>
    <i name="e_fr_energy">    -37.39233594 </i>
    <i name="e_wo_entrp">    -37.39524383 </i>
    <i name="e_0_energy">    -37.39330523 </i>
   </energy>
  </scstep>
  <scstep>
   <time name="dav">    0.35    0.35</time>
   <time name="total">    0.44    0.44</time>
   <energy>
    <i name="e_fr_energy">    -39.56512379 </i>
    <i name="e_wo_entrp">    -39.55662069 </i>
    <i name="e_0_energy">    -39.56228942 </i>
   </energy>
  </scstep>
  <scstep>
   <time name="dav">    0.39    0.39</time>
   <time name="total">    0.47    0.47</time>
   <energy>
    <i name="e_fr_energy">    -74.47455280 </i>
    <i name="e_wo_entrp">    -74.46902523 </i>
    <i name="e_0_energy">    -74.47271028 </i>
   </energy>
  </scstep>
  <scstep>
   <time name="dav">    0.40    0.40</time>
   <time name="total">    0.48    0.49</time>
   <energy>
    <i name="e_fr_energy">    -42.13018798 </i>
    <i name="e_wo_entrp">    -42.11283951 </i>
    <i name="e_0_energy">    -42.12440516 </i>
   </energy>
  </scstep>
  <scstep>
   <time name="dav">    0.38    0.39</time>
   <time name="total">    0.47    0.47</time>
   <energy>
    <i name="e_fr_energy">    -33.79776488 </i>
    <i name="e_wo_entrp">    -33.78646416 </i>
    <i name="e_0_energy">    -33.79399798 </i>
   </energy>
  </scstep>
  <scstep>
   <time name="dav">    0.39    0.40</time>
   <time name="total">    0.48    0.48</time>
   <energy>
    <i name="e_fr_energy">    -32.38641427 </i>
    <i name="e_wo_entrp">    -32.37689296 </i>
    <i name="e_0_energy">    -32.38324050 </i>
   </energy>
  </scstep>
  <scstep>
   <time name="dav">    0.35    0.35</time>
   <time name="total">    0.43    0.43</time>
   <energy>
    <i name="e_fr_energy">    -30.99009715 </i>
    <i name="e_wo_entrp">    -30.97994726 </i>
    <i name="e_0_energy">    -30.98671385 </i>
   </energy>
  </scstep>
  <scstep>
   <time name="dav">    0.36    0.36</time>
   <time name="total">    0.44    0.44</time>
   <energy>
    <i name="e_fr_energy">    -30.14774600 </i>
    <i name="e_wo_entrp">    -30.13920497 </i>
    <i name="e_0_energy">    -30.14489899 </i>
   </energy>
  </scstep>
  <scstep>
   <time name="dav">    0.42    0.42</time>
   <time name="total">    0.50    0.50</time>
   <energy>
    <i name="e_fr_energy">    -30.62574779 </i>
    <i name="e_wo_entrp">    -30.61898390 </i>
    <i name="e_0_energy">    -30.62349316 </i>
   </energy>
  </scstep>
  <scstep>
   <time name="dav">    0.42    0.42</time>
   <time name="total">    0.50    0.50</time>
   <energy>
    <i name="e_fr_energy">    -32.14486826 </i>
    <i name="e_wo_entrp">    -32.13359899 </i>
    <i name="e_0_energy">    -32.14111184 </i>
   </energy>
  </scstep>
  <scstep>
   <time name="dav">    0.38    0.38</time>
   <time name="total">    0.46    0.46</time>
   <energy>
    <i name="e_fr_energy">    -32.56152857 </i>
    <i name="e_wo_entrp">    -32.55118465 </i>
    <i name="e_0_energy">    -32.55808059 </i>
   </energy>
  </scstep>
  <scstep>
   <time name="dav">    0.34    0.34</time>
   <time name="total">    0.43    0.43</time>
   <energy>
    <i name="e_fr_energy">    -33.28017241 </i>
    <i name="e_wo_entrp">    -33.26172466 </i>
    <i name="e_0_energy">    -33.27402316 </i>
   </energy>
  </scstep>
  <scstep>
   <time name="dav">    0.37    0.37</time>
   <time name="total">    0.45    0.45</time>
   <energy>
    <i name="e_fr_energy">    -34.95172766 </i>
    <i name="e_wo_entrp">    -34.94425286 </i>
    <i name="e_0_energy">    -34.94923606 </i>
   </energy>
  </scstep>
  <scstep>
   <time name="dav">    0.34    0.34</time>
   <time name="total">    0.41    0.42</time>
   <energy>
    <i name="e_fr_energy">    -35.37430414 </i>
    <i name="e_wo_entrp">    -35.37723362 </i>
    <i name="e_0_energy">    -35.37528063 </i>
   </energy>
  </scstep>
  <scstep>
   <time name="dav">    0.32    0.32</time>
   <time name="total">    0.40    0.40</time>
   <energy>
    <i name="e_fr_energy">    -35.63914371 </i>
    <i name="e_wo_entrp">    -35.62501935 </i>
    <i name="e_0_energy">    -35.63443559 </i>
   </energy>
  </scstep>
  <scstep>
   <time name="dav">    0.37    0.37</time>
   <time name="total">    0.45    0.45</time>
   <energy>
    <i name="e_fr_energy">    -35.73654724 </i>
    <i name="e_wo_entrp">    -35.72001868 </i>
    <i name="e_0_energy">    -35.73103772 </i>
   </energy>
  </scstep>
  <scstep>
   <time name="dav">    0.32    0.32</time>
   <time name="total">    0.40    0.40</time>
   <energy>
    <i name="e_fr_energy">    -35.84833491 </i>
    <i name="e_wo_entrp">    -35.82852329 </i>
    <i name="e_0_energy">    -35.84173104 </i>
   </energy>
  </scstep>
  <scstep>
   <time name="dav">    0.32    0.32</time>
   <time name="total">    0.40    0.40</time>
   <energy>
    <i name="e_fr_energy">    -35.89428642 </i>
    <i name="e_wo_entrp">    -35.87171222 </i>
    <i name="e_0_energy">    -35.88676169 </i>
   </energy>
  </scstep>
  <scstep>
   <time name="dav">    0.36    0.36</time>
   <time name="total">    0.44    0.44</time>
   <energy>
    <i name="e_fr_energy">    -35.94753726 </i>
    <i name="e_wo_entrp">    -35.92304523 </i>
    <i name="e_0_energy">    -35.93937325 </i>
   </energy>
  </scstep>
  <scstep>
   <time name="dav">    0.32    0.32</time>
   <time name="total">    0.40    0.40</time>
   <energy>
    <i name="e_fr_energy">    -36.25355483 </i>
    <i name="e_wo_entrp">    -36.22859947 </i>
    <i name="e_0_energy">    -36.24523637 </i>
   </energy>
  </scstep>
  <scstep>
   <time name="dav">    0.34    0.34</time>
   <time name="total">    0.42    0.42</time>
   <energy>
    <i name="e_fr_energy">    -36.45096757 </i>
    <i name="e_wo_entrp">    -36.42713079 </i>
    <i name="e_0_energy">    -36.44302198 </i>
   </energy>
  </scstep>
  <scstep>
   <time name="dav">    0.41    0.42</time>
   <time name="total">    0.49    0.50</time>
   <energy>
    <i name="e_fr_energy">    -36.48123011 </i>
    <i name="e_wo_entrp">    -36.45856715 </i>
    <i name="e_0_energy">    -36.47367579 </i>
   </energy>
  </scstep>
  <scstep>
   <time name="dav">    0.30    0.31</time>
   <time name="total">    0.39    0.39</time>
   <energy>
    <i name="e_fr_energy">    -36.49388017 </i>
    <i name="e_wo_entrp">    -36.47221247 </i>
    <i name="e_0_energy">    -36.48665761 </i>
   </energy>
  </scstep>
  <scstep>
   <time name="dav">    0.28    0.28</time>
   <time name="total">    0.36    0.36</time>
   <energy>
    <i name="e_fr_energy">    -36.49593083 </i>
    <i name="e_wo_entrp">    -36.47362403 </i>
    <i name="e_0_energy">    -36.48849523 </i>
   </energy>
  </scstep>
  <scstep>
   <time name="dav">    0.28    0.28</time>
   <time name="total">    0.36    0.36</time>
   <energy>
    <i name="e_fr_energy">    -36.49782983 </i>
    <i name="e_wo_entrp">    -36.47561947 </i>
    <i name="e_0_energy">    -36.49042638 </i>
   </energy>
  </scstep>
  <scstep>
   <time name="dav">    0.24    0.24</time>
   <time name="total">    0.32    0.32</time>
   <energy>
    <i name="e_fr_energy">    -36.50004454 </i>
    <i name="e_wo_entrp">    -36.47728990 </i>
    <i name="e_0_energy">    -36.49245966 </i>
   </energy>
  </scstep>
  <scstep>
   <time name="dav">    0.24    0.24</time>
   <time name="total">    0.32    0.32</time>
   <energy>
    <i name="e_fr_energy">    -36.50151591 </i>
    <i name="e_wo_entrp">    -36.47888721 </i>
    <i name="e_0_energy">    -36.49397301 </i>
   </energy>
  </scstep>
  <scstep>
   <time name="dav">    0.23    0.23</time>
   <time name="total">    0.31    0.31</time>
   <energy>
    <i name="e_fr_energy">    -36.50425643 </i>
    <i name="e_wo_entrp">    -36.48104705 </i>
    <i name="e_0_energy">    -36.49651997 </i>
   </energy>
  </scstep>
  <scstep>
   <time name="dav">    0.23    0.23</time>
   <time name="total">    0.31    0.31</time>
   <energy>
    <i name="e_fr_energy">    -36.50604945 </i>
    <i name="e_wo_entrp">    -36.48312017 </i>
    <i name="e_0_energy">    -36.49840636 </i>
   </energy>
  </scstep>
  <scstep>
   <time name="dav">    0.22    0.22</time>
   <time name="total">    0.30    0.30</time>
   <energy>
    <i name="e_fr_energy">    -36.50719508 </i>
    <i name="e_wo_entrp">    -36.48399791 </i>
    <i name="e_0_energy">    -36.49946269 </i>
   </energy>
  </scstep>
  <scstep>
   <time name="dav">    0.21    0.21</time>
   <time name="total">    0.29    0.29</time>
   <energy>
    <i name="e_fr_energy">    -36.50744093 </i>
    <i name="e_wo_entrp">    -36.48432479 </i>
    <i name="e_0_energy">    -36.49973555 </i>
   </energy>
  </scstep>
  <scstep>
   <time name="dav">    0.20    0.20</time>
   <time name="total">    0.23    0.23</time>
   <energy>
    <i name="alphaZ">    285.34744303 </i>
    <i name="ewald">  52650.12678750 </i>
    <i name="hartreedc"> -63622.20311964 </i>
    <i name="XCdc">    363.25501645 </i>
    <i name="pawpsdc">  10583.00881735 </i>
    <i name="pawaedc"> -11445.37783224 </i>
    <i name="eentropy">     -0.02309911 </i>
    <i name="bandstr">     -3.25993231 </i>
    <i name="atom">  11152.61838693 </i>
    <i name="e_fr_energy">    -36.50753203 </i>
    <i name="e_wo_entrp">    -36.48443292 </i>
    <i name="e_0_energy">    -36.49983232 </i>
   </energy>
  </scstep>
  <structure>
   <crystal>
    <varray name="basis" >
     <v>       2.56679773       0.00000000       0.00000000 </v>
     <v>       1.28339887       2.22291204       0.00000000 </v>
     <v>       0.00000000       0.00000000      29.67047119 </v>
    </varray>
    <i name="volume">    169.29275369 </i>
    <varray name="rec_basis" >
     <v>       0.38959050      -0.22493018       0.00000000 </v>
     <v>       0.00000000       0.44986035       0.00000000 </v>
     <v>       0.00000000       0.00000000       0.03370354 </v>
    </varray>
   </crystal>
   <varray name="positions" >
    <v>       0.00000000       0.00000000       0.00000000 </v>
    <v>       0.33333333       0.33333333       0.07063526 </v>
    <v>       0.66666667       0.66666667       0.13908594 </v>
    <v>       0.00000000       0.00000000       0.20816512 </v>
    <v>       0.33333333       0.33333333       0.27656240 </v>
    <v>       0.66666667       0.66666667       0.34556034 </v>
    <v>       0.00000000       0.00000000       0.41400593 </v>
    <v>       0.33333333       0.33333333       0.48139269 </v>
    <v>       0.00000000       1.00000000       0.53425930 </v>
    <v>       0.83220209       0.33559582       0.53425930 </v>
   </varray>
  </structure>
  <varray name="forces" >
   <v>      -0.00000000      -0.00252279       0.47113728 </v>
   <v>       0.00000000       0.00445088      -0.39266464 </v>
   <v>      -0.00000000      -0.00473286       0.00085589 </v>
   <v>       0.00000000       0.00732595      -0.00344534 </v>
   <v>      -0.00000000      -0.00953998      -0.03214728 </v>
   <v>       0.00000000       0.01103890      -0.05288033 </v>
   <v>      -0.00000000      -0.02581021      -0.15980072 </v>
   <v>      -0.00000000      -0.14050999      -1.15284934 </v>
   <v>      -0.00000000      -0.96954117       0.60574127 </v>
   <v>       0.00000000       1.12984128       0.71605320 </v>
  </varray>
  <varray name="stress" >
   <v>     -44.20624657      -0.00000000       0.00000000 </v>
   <v>      -0.00000000     -30.78860805       2.73453084 </v>
   <v>       0.00000000       2.73453702       0.38971225 </v>
  </varray>
  <energy>
   <i name="e_fr_energy">    -40.18572891 </i>
   <i name="e_wo_entrp">    -40.16262980 </i>
   <i name="e_0_energy">    -40.17802921 </i>
  </energy>
  <time name="totalsc">   14.54   14.69</time>
 </calculation>
 <calculation>
  <scstep>
   <time name="dav">    0.28    0.28</time>
   <time name="total">    0.36    0.37</time>
   <energy>
    <i name="alphaZ">    285.34744303 </i>
    <i name="ewald">  53024.85967977 </i>
    <i name="hartreedc"> -63998.57534684 </i>
    <i name="XCdc">    363.21127948 </i>
    <i name="pawpsdc">  10582.97439941 </i>
    <i name="pawaedc"> -11445.33967848 </i>
    <i name="eentropy">     -0.02246313 </i>
    <i name="bandstr">     -1.59715534 </i>
    <i name="atom">  11152.61838693 </i>
    <i name="e_fr_energy">    -36.52345518 </i>
    <i name="e_wo_entrp">    -36.50099204 </i>
    <i name="e_0_energy">    -36.51596747 </i>
   </energy>
  </scstep>
  <scstep>
   <time name="dav">    0.37    0.37</time>
   <time name="total">    0.45    0.45</time>
   <energy>
    <i name="e_fr_energy">    -36.56941769 </i>
    <i name="e_wo_entrp">    -36.54194338 </i>
    <i name="e_0_energy">    -36.56025959 </i>
   </energy>
  </scstep>
  <scstep>
   <time name="dav">    0.39    0.40</time>
   <time name="total">    0.47    0.48</time>
   <energy>
    <i name="e_fr_energy">    -36.57447530 </i>
    <i name="e_wo_entrp">    -36.56050045 </i>
    <i name="e_0_energy">    -36.56981702 </i>
   </energy>
  </scstep>
  <scstep>
   <time name="dav">    0.39    0.39</time>
   <time name="total">    0.47    0.47</time>
   <energy>
    <i name="e_fr_energy">    -36.56996194 </i>
    <i name="e_wo_entrp">    -36.53961235 </i>
    <i name="e_0_energy">    -36.55984541 </i>
   </energy>
  </scstep>
  <scstep>
   <time name="dav">    0.37    0.38</time>
   <time name="total">    0.45    0.46</time>
   <energy>
    <i name="e_fr_energy">    -36.56375158 </i>
    <i name="e_wo_entrp">    -36.54322264 </i>
    <i name="e_0_energy">    -36.55690860 </i>
   </energy>
  </scstep>
  <scstep>
   <time name="dav">    0.45    0.45</time>
   <time name="total">    0.53    0.53</time>
   <energy>
    <i name="e_fr_energy">    -36.56160614 </i>
    <i name="e_wo_entrp">    -36.53866904 </i>
    <i name="e_0_energy">    -36.55396044 </i>
   </energy>
  </scstep>
  <scstep>
   <time name="dav">    0.34    0.35</time>
   <time name="total">    0.43    0.43</time>
   <energy>
    <i name="e_fr_energy">    -36.56153828 </i>
    <i name="e_wo_entrp">    -36.53786045 </i>
    <i name="e_0_energy">    -36.55364567 </i>
   </energy>
  </scstep>
  <scstep>
   <time name="dav">    0.24    0.25</time>
   <time name="total">    0.27    0.27</time>
   <energy>
    <i name="alphaZ">    285.34744303 </i>
    <i name="ewald">  53024.85967977 </i>
    <i name="hartreedc"> -63994.12784649 </i>
    <i name="XCdc">    363.09130751 </i>
    <i name="pawpsdc">  10587.59221406 </i>
    <i name="pawaedc"> -11450.14982696 </i>
    <i name="eentropy">     -0.02320281 </i>
    <i name="bandstr">     -5.76974603 </i>
    <i name="atom">  11152.61838693 </i>
    <i name="e_fr_energy">    -36.56159099 </i>
    <i name="e_wo_entrp">    -36.53838819 </i>
    <i name="e_0_energy">    -36.55385673 </i>
   </energy>
  </scstep>
  <structure>
   <crystal>
    <varray name="basis" >
     <v>       2.56679773       0.00000000       0.00000000 </v>
     <v>       1.28339887       2.22291204       0.00000000 </v>
     <v>       0.00000000       0.00000000      29.67047119 </v>
    </varray>
    <i name="volume">    169.29275369 </i>
    <varray name="rec_basis" >
     <v>       0.38959050      -0.22493018       0.00000000 </v>
     <v>       0.00000000       0.44986035       0.00000000 </v>
     <v>       0.00000000       0.00000000       0.03370354 </v>
    </varray>
   </crystal>
   <varray name="positions" >
    <v>       0.00002738      -0.00005475       0.00076604 </v>
    <v>       0.33328504       0.33342993       0.06999681 </v>
    <v>       0.66671802       0.66656395       0.13908733 </v>
    <v>      -0.00007950       0.00015899       0.20815951 </v>
    <v>       0.33343685       0.33312629       0.27651013 </v>
    <v>       0.66654688       0.66690624       0.34547436 </v>
    <v>       0.00028007      -0.00056015       0.41374611 </v>
    <v>       0.33485804       0.33028392       0.47951822 </v>
    <v>       0.01052071       0.97895857       0.53524421 </v>
    <v>       0.81994192       0.36011616       0.53542357 </v>
   </varray>
  </structure>
  <varray name="forces" >
   <v>      -0.00000000      -0.00182628       0.29865757 </v>
   <v>       0.00000000       0.00252706      -0.14277737 </v>
   <v>      -0.00000000      -0.00234270      -0.08158726 </v>
   <v>       0.00000000       0.00279819      -0.01211089 </v>
   <v>      -0.00000000      -0.00378501      -0.03144404 </v>
   <v>       0.00000000       0.00366027      -0.08128418 </v>
   <v>      -0.00000000      -0.02591259      -0.39921753 </v>
   <v>      -0.00000000      -0.08883215      -0.61310250 </v>
   <v>       0.00000000       0.96384684       0.49496007 </v>
   <v>      -0.00000000      -0.85013364       0.56790613 </v>
  </varray>
  <varray name="stress" >
   <v>     -40.57258807      -0.00000000       0.00000000 </v>
   <v>      -0.00000000     -43.14799791       2.19968806 </v>
   <v>       0.00000000       2.19969441       7.61002026 </v>
  </varray>
  <energy>
   <i name="e_fr_energy">    -40.26770577 </i>
   <i name="e_wo_entrp">    -40.24450296 </i>
   <i name="e_0_energy">    -40.25997150 </i>
  </energy>
  <time name="totalsc">    3.91    3.97</time>
 </calculation>
 <calculation>
  <scstep>
   <time name="dav">    0.28    0.28</time>
   <time name="total">    0.36    0.37</time>
   <energy>
    <i name="alphaZ">    285.34744303 </i>
    <i name="ewald">  52981.00326577 </i>
    <i name="hartreedc"> -63949.92731948 </i>
    <i name="XCdc">    363.09526497 </i>
    <i name="pawpsdc">  10587.80312239 </i>
    <i name="pawaedc"> -11450.36411600 </i>
    <i name="eentropy">     -0.02334389 </i>
    <i name="bandstr">     -6.12230740 </i>
    <i name="atom">  11152.61838693 </i>
    <i name="e_fr_energy">    -36.56960366 </i>
    <i name="e_wo_entrp">    -36.54625977 </i>
    <i name="e_0_energy">    -36.56182237 </i>
   </energy>
  </scstep>
  <scstep>
   <time name="dav">    0.34    0.35</time>
   <time name="total">    0.42    0.43</time>
   <energy>
    <i name="e_fr_energy">    -36.57019604 </i>
    <i name="e_wo_entrp">    -36.54700130 </i>
    <i name="e_0_energy">    -36.56246446 </i>
   </energy>
  </scstep>
  <scstep>
   <time name="dav">    0.23    0.23</time>
   <time name="total">    0.25    0.26</time>
   <energy>
    <i name="alphaZ">    285.34744303 </i>
    <i name="ewald">  52981.00326577 </i>
    <i name="hartreedc"> -63950.24117739 </i>
    <i name="XCdc">    363.10650918 </i>
    <i name="pawpsdc">  10587.49059221 </i>
    <i name="pawaedc"> -11450.06070025 </i>
    <i name="eentropy">     -0.02375151 </i>
    <i name="bandstr">     -5.81075709 </i>
    <i name="atom">  11152.61838693 </i>
    <i name="e_fr_energy">    -36.57018913 </i>
    <i name="e_wo_entrp">    -36.54643762 </i>
    <i name="e_0_energy">    -36.56227196 </i>
   </energy>
  </scstep>
  <structure>
   <crystal>
    <varray name="basis" >
     <v>       2.56679773       0.00000000       0.00000000 </v>
     <v>       1.28339887       2.22291204       0.00000000 </v>
     <v>       0.00000000       0.00000000      29.67047119 </v>
    </varray>
    <i name="volume">    169.29275369 </i>
    <varray name="rec_basis" >
     <v>       0.38959050      -0.22493018       0.00000000 </v>
     <v>       0.00000000       0.44986035       0.00000000 </v>
     <v>       0.00000000       0.00000000       0.03370354 </v>
    </varray>
   </crystal>
   <varray name="positions" >
    <v>       0.00002419      -0.00004837       0.00067684 </v>
    <v>       0.33329066       0.33341868       0.07007116 </v>
    <v>       0.66671204       0.66657591       0.13908717 </v>
    <v>      -0.00007024       0.00014048       0.20816017 </v>
    <v>       0.33342480       0.33315040       0.27651621 </v>
    <v>       0.66656083       0.66687834       0.34548437 </v>
    <v>       0.00024746      -0.00049491       0.41377636 </v>
    <v>       0.33468048       0.33063903       0.47973651 </v>
    <v>       0.00929555       0.98140891       0.53512951 </v>
    <v>       0.82136965       0.35726069       0.53528799 </v>
   </varray>
  </structure>
  <varray name="forces" >
   <v>      -0.00000000      -0.00168864       0.33139328 </v>
   <v>       0.00000000       0.00336215      -0.17275683 </v>
   <v>      -0.00000000      -0.00264537      -0.06339265 </v>
   <v>       0.00000000       0.00486708      -0.00571979 </v>
   <v>      -0.00000000      -0.00532983      -0.03360936 </v>
   <v>       0.00000000       0.00574025      -0.08263291 </v>
   <v>      -0.00000000      -0.02597865      -0.37315122 </v>
   <v>      -0.00000000      -0.09784772      -0.67703928 </v>
   <v>       0.00000000       0.92659795       0.50136440 </v>
   <v>      -0.00000000      -0.80707724       0.57554436 </v>
  </varray>
  <varray name="stress" >
   <v>     -45.62544502      -0.00000000       0.00000000 </v>
   <v>      -0.00000000     -47.56827191       2.26271715 </v>
   <v>       0.00000000       2.26272361       1.72318300 </v>
  </varray>
  <energy>
   <i name="e_fr_energy">    -40.26851029 </i>
   <i name="e_wo_entrp">    -40.24475878 </i>
   <i name="e_0_energy">    -40.26059312 </i>
  </energy>
  <time name="totalsc">    1.51    1.60</time>
 </calculation>
 <calculation>
  <scstep>
   <time name="dav">    0.28    0.28</time>
   <time name="total">    0.36    0.36</time>
   <energy>
    <i name="alphaZ">    285.34744303 </i>
    <i name="ewald">  53489.15151370 </i>
    <i name="hartreedc"> -64457.80117821 </i>
    <i name="XCdc">    363.16925026 </i>
    <i name="pawpsdc">  10587.24162112 </i>
    <i name="pawaedc"> -11449.77962077 </i>
    <i name="eentropy">     -0.01859348 </i>
    <i name="bandstr">     -6.54047979 </i>
    <i name="atom">  11152.61838693 </i>
    <i name="e_fr_energy">    -36.61165720 </i>
    <i name="e_wo_entrp">    -36.59306373 </i>
    <i name="e_0_energy">    -36.60545938 </i>
   </energy>
  </scstep>
  <scstep>
   <time name="dav">    0.42    0.42</time>
   <time name="total">    0.50    0.51</time>
   <energy>
    <i name="e_fr_energy">    -36.72634866 </i>
    <i name="e_wo_entrp">    -36.69171371 </i>
    <i name="e_0_energy">    -36.71480367 </i>
   </energy>
  </scstep>
  <scstep>
   <time name="dav">    0.46    0.46</time>
   <time name="total">    0.54    0.54</time>
   <energy>
    <i name="e_fr_energy">    -36.67955801 </i>
    <i name="e_wo_entrp">    -36.66166610 </i>
    <i name="e_0_energy">    -36.67359404 </i>
   </energy>
  </scstep>
  <scstep>
   <time name="dav">    0.36    0.36</time>
   <time name="total">    0.44    0.44</time>
   <energy>
    <i name="e_fr_energy">    -36.67722246 </i>
    <i name="e_wo_entrp">    -36.65514492 </i>
    <i name="e_0_energy">    -36.66986328 </i>
   </energy>
  </scstep>
  <scstep>
   <time name="dav">    0.41    0.41</time>
   <time name="total">    0.49    0.49</time>
   <energy>
    <i name="e_fr_energy">    -36.67626883 </i>
    <i name="e_wo_entrp">    -36.65181327 </i>
    <i name="e_0_energy">    -36.66811698 </i>
   </energy>
  </scstep>
  <scstep>
   <time name="dav">    0.37    0.38</time>
   <time name="total">    0.45    0.46</time>
   <energy>
    <i name="e_fr_energy">    -36.67602450 </i>
    <i name="e_wo_entrp">    -36.65146037 </i>
    <i name="e_0_energy">    -36.66783646 </i>
   </energy>
  </scstep>
  <scstep>
   <time name="dav">    0.28    0.29</time>
   <time name="total">    0.36    0.37</time>
   <energy>
    <i name="e_fr_energy">    -36.67586817 </i>
    <i name="e_wo_entrp">    -36.65259069 </i>
    <i name="e_0_energy">    -36.66810901 </i>
   </energy>
  </scstep>
  <scstep>
   <time name="dav">    0.22    0.23</time>
   <time name="total">    0.25    0.25</time>
   <energy>
    <i name="alphaZ">    285.34744303 </i>
    <i name="ewald">  53489.15151370 </i>
    <i name="hartreedc"> -64456.20227816 </i>
    <i name="XCdc">    363.19241801 </i>
    <i name="pawpsdc">  10605.77242898 </i>
    <i name="pawaedc"> -11468.57401781 </i>
    <i name="eentropy">     -0.02329449 </i>
    <i name="bandstr">     -7.95845910 </i>
    <i name="atom">  11152.61838693 </i>
    <i name="e_fr_energy">    -36.67585891 </i>
    <i name="e_wo_entrp">    -36.65256442 </i>
    <i name="e_0_energy">    -36.66809408 </i>
   </energy>
  </scstep>
  <structure>
   <crystal>
    <varray name="basis" >
     <v>       2.56679773       0.00000000       0.00000000 </v>
     <v>       1.28339887       2.22291204       0.00000000 </v>
     <v>       0.00000000       0.00000000      29.67047119 </v>
    </varray>
    <i name="volume">    169.29275369 </i>
    <varray name="rec_basis" >
     <v>       0.38959050      -0.22493018       0.00000000 </v>
     <v>       0.00000000       0.44986035       0.00000000 </v>
     <v>       0.00000000       0.00000000       0.03370354 </v>
    </varray>
   </crystal>
   <varray name="positions" >
    <v>       0.00005786      -0.00011572       0.00164457 </v>
    <v>       0.33322719       0.33354561       0.06942888 </v>
    <v>       0.66676968       0.66646065       0.13898730 </v>
    <v>      -0.00016763       0.00033527       0.20814785 </v>
    <v>       0.33354094       0.33291811       0.27643272 </v>
    <v>       0.66643096       0.66713808       0.34530359 </v>
    <v>       0.00068419      -0.00136839       0.41303404 </v>
    <v>       0.33659618       0.32680763       0.47758109 </v>
    <v>       0.00553790       0.98892420       0.53649330 </v>
    <v>       0.82285814       0.35428372       0.53687294 </v>
   </varray>
  </structure>
  <varray name="forces" >
   <v>      -0.00000000      -0.00071921       0.10896240 </v>
   <v>       0.00000000       0.00046414       0.10920294 </v>
   <v>       0.00000000       0.00007909      -0.11915444 </v>
   <v>       0.00000000       0.00035954      -0.03302505 </v>
   <v>       0.00000000       0.00004251      -0.04649666 </v>
   <v>      -0.00000000      -0.00334249      -0.15475294 </v>
   <v>      -0.00000000      -0.02842236      -0.53070509 </v>
   <v>      -0.00000000      -0.06443551      -0.30146789 </v>
   <v>       0.00000000       0.82065694       0.46611680 </v>
   <v>      -0.00000000      -0.72468264       0.50131994 </v>
  </varray>
  <varray name="stress" >
   <v>     -41.70912372      -0.00000000       0.00000000 </v>
   <v>      -0.00000000     -44.92843195       2.09912245 </v>
   <v>       0.00000000       2.09912853      12.01306509 </v>
  </varray>
  <energy>
   <i name="e_fr_energy">    -40.38211332 </i>
   <i name="e_wo_entrp">    -40.35881882 </i>
   <i name="e_0_energy">    -40.37434848 </i>
  </energy>
  <time name="totalsc">    3.87    3.96</time>
 </calculation>
 <calculation>
  <scstep>
   <time name="dav">    0.32    0.32</time>
   <time name="total">    0.40    0.40</time>
   <energy>
    <i name="alphaZ">    285.34744303 </i>
    <i name="ewald">  54739.58346877 </i>
    <i name="hartreedc"> -65705.47512534 </i>
    <i name="XCdc">    363.47314860 </i>
    <i name="pawpsdc">  10605.50731598 </i>
    <i name="pawaedc"> -11468.28991375 </i>
    <i name="eentropy">     -0.01662244 </i>
    <i name="bandstr">     -9.12003873 </i>
    <i name="atom">  11152.61838693 </i>
    <i name="e_fr_energy">    -36.37193695 </i>
    <i name="e_wo_entrp">    -36.35531452 </i>
    <i name="e_0_energy">    -36.36639614 </i>
   </energy>
  </scstep>
  <scstep>
   <time name="dav">    0.38    0.39</time>
   <time name="total">    0.47    0.47</time>
   <energy>
    <i name="e_fr_energy">    -36.83289262 </i>
    <i name="e_wo_entrp">    -36.79984611 </i>
    <i name="e_0_energy">    -36.82187712 </i>
   </energy>
  </scstep>
  <scstep>
   <time name="dav">    0.41    0.41</time>
   <time name="total">    0.49    0.50</time>
   <energy>
    <i name="e_fr_energy">    -36.77218666 </i>
    <i name="e_wo_entrp">    -36.75547420 </i>
    <i name="e_0_energy">    -36.76661584 </i>
   </energy>
  </scstep>
  <scstep>
   <time name="dav">    0.39    0.39</time>
   <time name="total">    0.47    0.48</time>
   <energy>
    <i name="e_fr_energy">    -36.74194990 </i>
    <i name="e_wo_entrp">    -36.72075451 </i>
    <i name="e_0_energy">    -36.73488477 </i>
   </energy>
  </scstep>
  <scstep>
   <time name="dav">    0.35    0.36</time>
   <time name="total">    0.44    0.44</time>
   <energy>
    <i name="e_fr_energy">    -36.73925516 </i>
    <i name="e_wo_entrp">    -36.71350822 </i>
    <i name="e_0_energy">    -36.73067285 </i>
   </energy>
  </scstep>
  <scstep>
   <time name="dav">    0.32    0.33</time>
   <time name="total">    0.40    0.41</time>
   <energy>
    <i name="e_fr_energy">    -36.73725090 </i>
    <i name="e_wo_entrp">    -36.71682657 </i>
    <i name="e_0_energy">    -36.73044279 </i>
   </energy>
  </scstep>
  <scstep>
   <time name="dav">    0.37    0.37</time>
   <time name="total">    0.45    0.45</time>
   <energy>
    <i name="e_fr_energy">    -36.73582330 </i>
    <i name="e_wo_entrp">    -36.71291342 </i>
    <i name="e_0_energy">    -36.72818668 </i>
   </energy>
  </scstep>
  <scstep>
   <time name="dav">    0.38    0.38</time>
   <time name="total">    0.47    0.47</time>
   <energy>
    <i name="e_fr_energy">    -36.73598296 </i>
    <i name="e_wo_entrp">    -36.71443554 </i>
    <i name="e_0_energy">    -36.72880049 </i>
   </energy>
  </scstep>
  <scstep>
   <time name="dav">    0.27    0.27</time>
   <time name="total">    0.30    0.30</time>
   <energy>
    <i name="alphaZ">    285.34744303 </i>
    <i name="ewald">  54739.58346877 </i>
    <i name="hartreedc"> -65699.18252531 </i>
    <i name="XCdc">    363.46292158 </i>
    <i name="pawpsdc">  10661.69694876 </i>
    <i name="pawaedc"> -11525.36866986 </i>
    <i name="eentropy">     -0.02164839 </i>
    <i name="bandstr">    -14.87239225 </i>
    <i name="atom">  11152.61838693 </i>
    <i name="e_fr_energy">    -36.73606674 </i>
    <i name="e_wo_entrp">    -36.71441834 </i>
    <i name="e_0_energy">    -36.72885061 </i>
   </energy>
  </scstep>
  <structure>
   <crystal>
    <varray name="basis" >
     <v>       2.56679773       0.00000000       0.00000000 </v>
     <v>       1.28339887       2.22291204       0.00000000 </v>
     <v>       0.00000000       0.00000000      29.67047119 </v>
    </varray>
    <i name="volume">    169.29275369 </i>
    <varray name="rec_basis" >
     <v>       0.38959050      -0.22493018       0.00000000 </v>
     <v>       0.00000000       0.44986035       0.00000000 </v>
     <v>       0.00000000       0.00000000       0.03370354 </v>
    </varray>
   </crystal>
   <varray name="positions" >
    <v>       0.00013928      -0.00027855       0.00398440 </v>
    <v>       0.33307374       0.33385252       0.06787595 </v>
    <v>       0.66690902       0.66618195       0.13874583 </v>
    <v>      -0.00040312       0.00080624       0.20811809 </v>
    <v>       0.33382176       0.33235647       0.27623084 </v>
    <v>       0.66611696       0.66776608       0.34486651 </v>
    <v>       0.00174015      -0.00348030       0.41123921 </v>
    <v>       0.34122803       0.31754393       0.47236964 </v>
    <v>      -0.00354747       0.00709495       0.53979072 </v>
    <v>       0.82645707       0.34708587       0.54070511 </v>
   </varray>
  </structure>
  <varray name="forces" >
   <v>       0.00000000       0.00290002      -0.62205417 </v>
   <v>      -0.00000000      -0.00397139       0.96375030 </v>
   <v>       0.00000000       0.00534473      -0.21826680 </v>
   <v>      -0.00000000      -0.00601428      -0.08555292 </v>
   <v>       0.00000000       0.01042498      -0.06112245 </v>
   <v>      -0.00000000      -0.02024154      -0.35673118 </v>
   <v>      -0.00000000      -0.05024687      -1.08292370 </v>
   <v>       0.00000000       0.00633191       0.75713194 </v>
   <v>      -0.00000000      -0.09834727       0.33024602 </v>
   <v>       0.00000000       0.15381972       0.37552297 </v>
  </varray>
  <varray name="stress" >
   <v>     -28.61303642      -0.00000000       0.00000000 </v>
   <v>      -0.00000000     -28.94159840       2.32985544 </v>
   <v>       0.00000000       2.32985934      41.04996563 </v>
  </varray>
  <energy>
   <i name="e_fr_energy">    -40.47103708 </i>
   <i name="e_wo_entrp">    -40.44938868 </i>
   <i name="e_0_energy">    -40.46382095 </i>
  </energy>
  <time name="totalsc">    4.36    4.48</time>
 </calculation>
 <calculation>
  <scstep>
   <time name="dav">    0.28    0.28</time>
   <time name="total">    0.37    0.37</time>
   <energy>
    <i name="alphaZ">    285.34744303 </i>
    <i name="ewald">  54438.87796224 </i>
    <i name="hartreedc"> -65399.65334128 </i>
    <i name="XCdc">    363.39955388 </i>
    <i name="pawpsdc">  10661.46348377 </i>
    <i name="pawaedc"> -11525.13433831 </i>
    <i name="eentropy">     -0.02442727 </i>
    <i name="bandstr">    -13.62609106 </i>
    <i name="atom">  11152.61838693 </i>
    <i name="e_fr_energy">    -36.73136806 </i>
    <i name="e_wo_entrp">    -36.70694079 </i>
    <i name="e_0_energy">    -36.72322564 </i>
   </energy>
  </scstep>
  <scstep>
   <time name="dav">    0.40    0.40</time>
   <time name="total">    0.48    0.49</time>
   <energy>
    <i name="e_fr_energy">    -36.75771840 </i>
    <i name="e_wo_entrp">    -36.74149184 </i>
    <i name="e_0_energy">    -36.75230955 </i>
   </energy>
  </scstep>
  <scstep>
   <time name="dav">    0.43    0.44</time>
   <time name="total">    0.52    0.52</time>
   <energy>
    <i name="e_fr_energy">    -36.75278965 </i>
    <i name="e_wo_entrp">    -36.72776886 </i>
    <i name="e_0_energy">    -36.74444939 </i>
   </energy>
  </scstep>
  <scstep>
   <time name="dav">    0.39    0.39</time>
   <time name="total">    0.47    0.47</time>
   <energy>
    <i name="e_fr_energy">    -36.75140215 </i>
    <i name="e_wo_entrp">    -36.73014257 </i>
    <i name="e_0_energy">    -36.74431562 </i>
   </energy>
  </scstep>
  <scstep>
   <time name="dav">    0.38    0.39</time>
   <time name="total">    0.47    0.47</time>
   <energy>
    <i name="e_fr_energy">    -36.75111621 </i>
    <i name="e_wo_entrp">    -36.72808322 </i>
    <i name="e_0_energy">    -36.74343855 </i>
   </energy>
  </scstep>
  <scstep>
   <time name="dav">    0.29    0.30</time>
   <time name="total">    0.38    0.38</time>
   <energy>
    <i name="e_fr_energy">    -36.75113594 </i>
    <i name="e_wo_entrp">    -36.72921023 </i>
    <i name="e_0_energy">    -36.74382737 </i>
   </energy>
  </scstep>
  <scstep>
   <time name="dav">    0.25    0.25</time>
   <time name="total">    0.27    0.28</time>
   <energy>
    <i name="alphaZ">    285.34744303 </i>
    <i name="ewald">  54438.87796224 </i>
    <i name="hartreedc"> -65401.34915401 </i>
    <i name="XCdc">    363.38468393 </i>
    <i name="pawpsdc">  10646.39407951 </i>
    <i name="pawaedc"> -11509.82259541 </i>
    <i name="eentropy">     -0.02249475 </i>
    <i name="bandstr">    -12.17925902 </i>
    <i name="atom">  11152.61838693 </i>
    <i name="e_fr_energy">    -36.75094753 </i>
    <i name="e_wo_entrp">    -36.72845278 </i>
    <i name="e_0_energy">    -36.74344928 </i>
   </energy>
  </scstep>
  <structure>
   <crystal>
    <varray name="basis" >
     <v>       2.56679773       0.00000000       0.00000000 </v>
     <v>       1.28339887       2.22291204       0.00000000 </v>
     <v>       0.00000000       0.00000000      29.67047119 </v>
    </varray>
    <i name="volume">    169.29275369 </i>
    <varray name="rec_basis" >
     <v>       0.38959050      -0.22493018       0.00000000 </v>
     <v>       0.00000000       0.44986035       0.00000000 </v>
     <v>       0.00000000       0.00000000       0.03370354 </v>
    </varray>
   </crystal>
   <varray name="positions" >
    <v>       0.00011988      -0.00023976       0.00342697 </v>
    <v>       0.33311030       0.33377940       0.06824592 </v>
    <v>       0.66687583       0.66624835       0.13880335 </v>
    <v>      -0.00034702       0.00069404       0.20812518 </v>
    <v>       0.33375486       0.33249028       0.27627893 </v>
    <v>       0.66619177       0.66761646       0.34497064 </v>
    <v>       0.00148858      -0.00297716       0.41166680 </v>
    <v>       0.34012456       0.31975088       0.47361120 </v>
    <v>      -0.00138301       0.00276601       0.53900516 </v>
    <v>       0.82559967       0.34880066       0.53979215 </v>
   </varray>
  </structure>
  <varray name="forces" >
   <v>       0.00000000       0.00141160      -0.44396607 </v>
   <v>      -0.00000000      -0.00330065       0.74103205 </v>
   <v>       0.00000000       0.00354670      -0.20207361 </v>
   <v>      -0.00000000      -0.00448731      -0.07369559 </v>
   <v>       0.00000000       0.00785609      -0.05394973 </v>
   <v>      -0.00000000      -0.01648630      -0.29767931 </v>
   <v>      -0.00000000      -0.04186867      -0.91814459 </v>
   <v>      -0.00000000      -0.01105762       0.48701671 </v>
   <v>       0.00000000       0.22120873       0.36825773 </v>
   <v>      -0.00000000      -0.15682257       0.39320239 </v>
  </varray>
  <varray name="stress" >
   <v>     -30.65191922      -0.00000000       0.00000000 </v>
   <v>      -0.00000000     -32.50758197       2.19327524 </v>
   <v>       0.00000000       2.19327842      34.79916179 </v>
  </varray>
  <energy>
   <i name="e_fr_energy">    -40.47787231 </i>
   <i name="e_wo_entrp">    -40.45537756 </i>
   <i name="e_0_energy">    -40.47037406 </i>
  </energy>
  <time name="totalsc">    3.44    3.51</time>
 </calculation>
 <calculation>
  <scstep>
   <time name="dav">    0.29    0.29</time>
   <time name="total">    0.37    0.37</time>
   <energy>
    <i name="alphaZ">    285.34744303 </i>
    <i name="ewald">  54962.29790644 </i>
    <i name="hartreedc"> -65924.90342151 </i>
    <i name="XCdc">    363.38489016 </i>
    <i name="pawpsdc">  10646.21145008 </i>
    <i name="pawaedc"> -11509.64665278 </i>
    <i name="eentropy">     -0.02254584 </i>
    <i name="bandstr">    -12.02906105 </i>
    <i name="atom">  11152.61838693 </i>
    <i name="e_fr_energy">    -36.74160455 </i>
    <i name="e_wo_entrp">    -36.71905871 </i>
    <i name="e_0_energy">    -36.73408927 </i>
   </energy>
  </scstep>
  <scstep>
   <time name="dav">    0.37    0.37</time>
   <time name="total">    0.45    0.45</time>
   <energy>
    <i name="e_fr_energy">    -36.83484832 </i>
    <i name="e_wo_entrp">    -36.81417015 </i>
    <i name="e_0_energy">    -36.82795559 </i>
   </energy>
  </scstep>
  <scstep>
   <time name="dav">    0.34    0.34</time>
   <time name="total">    0.42    0.43</time>
   <energy>
    <i name="e_fr_energy">    -36.83448002 </i>
    <i name="e_wo_entrp">    -36.81400916 </i>
    <i name="e_0_energy">    -36.82765640 </i>
   </energy>
  </scstep>
  <scstep>
   <time name="dav">    0.33    0.34</time>
   <time name="total">    0.42    0.42</time>
   <energy>
    <i name="e_fr_energy">    -36.83592306 </i>
    <i name="e_wo_entrp">    -36.80803671 </i>
    <i name="e_0_energy">    -36.82662761 </i>
   </energy>
  </scstep>
  <scstep>
   <time name="dav">    0.45    0.45</time>
   <time name="total">    0.53    0.53</time>
   <energy>
    <i name="e_fr_energy">    -36.83687211 </i>
    <i name="e_wo_entrp">    -36.82094198 </i>
    <i name="e_0_energy">    -36.83156206 </i>
   </energy>
  </scstep>
  <scstep>
   <time name="dav">    0.42    0.42</time>
   <time name="total">    0.50    0.51</time>
   <energy>
    <i name="e_fr_energy">    -36.83030408 </i>
    <i name="e_wo_entrp">    -36.80775245 </i>
    <i name="e_0_energy">    -36.82278687 </i>
   </energy>
  </scstep>
  <scstep>
   <time name="dav">    0.42    0.42</time>
   <time name="total">    0.50    0.50</time>
   <energy>
    <i name="e_fr_energy">    -36.83006860 </i>
    <i name="e_wo_entrp">    -36.80856462 </i>
    <i name="e_0_energy">    -36.82290061 </i>
   </energy>
  </scstep>
  <scstep>
   <time name="dav">    0.30    0.30</time>
   <time name="total">    0.32    0.33</time>
   <energy>
    <i name="alphaZ">    285.34744303 </i>
    <i name="ewald">  54962.29790644 </i>
    <i name="hartreedc"> -65920.36104779 </i>
    <i name="XCdc">    363.43807860 </i>
    <i name="pawpsdc">  10646.95124331 </i>
    <i name="pawaedc"> -11510.36232674 </i>
    <i name="eentropy">     -0.02180558 </i>
    <i name="bandstr">    -16.73799922 </i>
    <i name="atom">  11152.61838693 </i>
    <i name="e_fr_energy">    -36.83012103 </i>
    <i name="e_wo_entrp">    -36.80831544 </i>
    <i name="e_0_energy">    -36.82285250 </i>
   </energy>
  </scstep>
  <structure>
   <crystal>
    <varray name="basis" >
     <v>       2.56679773       0.00000000       0.00000000 </v>
     <v>       1.28339887       2.22291204       0.00000000 </v>
     <v>       0.00000000       0.00000000      29.67047119 </v>
    </varray>
    <i name="volume">    169.29275369 </i>
    <varray name="rec_basis" >
     <v>       0.38959050      -0.22493018       0.00000000 </v>
     <v>       0.00000000       0.44986035       0.00000000 </v>
     <v>       0.00000000       0.00000000       0.03370354 </v>
    </varray>
   </crystal>
   <varray name="positions" >
    <v>       0.00012862      -0.00025724       0.00330178 </v>
    <v>       0.33310311       0.33379379       0.06929901 </v>
    <v>       0.66687439       0.66625122       0.13827759 </v>
    <v>      -0.00036644       0.00073288       0.20795435 </v>
    <v>       0.33374169       0.33251662       0.27608926 </v>
    <v>       0.66631819       0.66736361       0.34416692 </v>
    <v>       0.00247468      -0.00494936       0.40902759 </v>
    <v>       0.34194692       0.31610616       0.47279955 </v>
    <v>      -0.00785111       0.01570222       0.54098858 </v>
    <v>       0.82916537       0.34166926       0.54202165 </v>
   </varray>
  </structure>
  <varray name="forces" >
   <v>       0.00000000       0.00177281      -0.20675524 </v>
   <v>      -0.00000000      -0.00302232       0.32647798 </v>
   <v>       0.00000000       0.00473850       0.03255527 </v>
   <v>      -0.00000000      -0.00490394      -0.11790020 </v>
   <v>       0.00000000       0.00787314      -0.15324188 </v>
   <v>      -0.00000000      -0.02474319      -0.53570845 </v>
   <v>      -0.00000000      -0.02847116      -0.11736951 </v>
   <v>      -0.00000000      -0.00553856       0.10193655 </v>
   <v>      -0.00000000      -1.13108691       0.26533307 </v>
   <v>       0.00000000       1.18338162       0.40467240 </v>
  </varray>
  <varray name="stress" >
   <v>     -35.47724186      -0.00000000       0.00000000 </v>
   <v>      -0.00000000     -28.47974060       2.50188608 </v>
   <v>       0.00000000       2.50188868      30.09173620 </v>
  </varray>
  <energy>
   <i name="e_fr_energy">    -40.56966885 </i>
   <i name="e_wo_entrp">    -40.54786327 </i>
   <i name="e_0_energy">    -40.56240032 </i>
  </energy>
  <time name="totalsc">    3.98    4.09</time>
 </calculation>
 <calculation>
  <scstep>
   <time name="dav">    0.28    0.28</time>
   <time name="total">    0.36    0.36</time>
   <energy>
    <i name="alphaZ">    285.34744303 </i>
    <i name="ewald">  55038.16292050 </i>
    <i name="hartreedc"> -65996.33316317 </i>
    <i name="XCdc">    363.43630217 </i>
    <i name="pawpsdc">  10646.94102315 </i>
    <i name="pawaedc"> -11510.33160782 </i>
    <i name="eentropy">     -0.02174874 </i>
    <i name="bandstr">    -16.64778473 </i>
    <i name="atom">  11152.61838693 </i>
    <i name="e_fr_energy">    -36.82822867 </i>
    <i name="e_wo_entrp">    -36.80647993 </i>
    <i name="e_0_energy">    -36.82097909 </i>
   </energy>
  </scstep>
  <scstep>
   <time name="dav">    0.38    0.38</time>
   <time name="total">    0.46    0.47</time>
   <energy>
    <i name="e_fr_energy">    -36.83012844 </i>
    <i name="e_wo_entrp">    -36.80817758 </i>
    <i name="e_0_energy">    -36.82281148 </i>
   </energy>
  </scstep>
  <scstep>
   <time name="dav">    0.33    0.33</time>
   <time name="total">    0.41    0.41</time>
   <energy>
    <i name="e_fr_energy">    -36.83028473 </i>
    <i name="e_wo_entrp">    -36.80961342 </i>
    <i name="e_0_energy">    -36.82339429 </i>
   </energy>
  </scstep>
  <scstep>
   <time name="dav">    0.23    0.23</time>
   <time name="total">    0.31    0.32</time>
   <energy>
    <i name="e_fr_energy">    -36.83013219 </i>
    <i name="e_wo_entrp">    -36.80738900 </i>
    <i name="e_0_energy">    -36.82255113 </i>
   </energy>
  </scstep>
  <scstep>
   <time name="dav">    0.21    0.22</time>
   <time name="total">    0.24    0.24</time>
   <energy>
    <i name="alphaZ">    285.34744303 </i>
    <i name="ewald">  55038.16292050 </i>
    <i name="hartreedc"> -65995.65031460 </i>
    <i name="XCdc">    363.44276960 </i>
    <i name="pawpsdc">  10647.21019074 </i>
    <i name="pawaedc"> -11510.56706088 </i>
    <i name="eentropy">     -0.02107462 </i>
    <i name="bandstr">    -17.37335192 </i>
    <i name="atom">  11152.61838693 </i>
    <i name="e_fr_energy">    -36.83009121 </i>
    <i name="e_wo_entrp">    -36.80901659 </i>
    <i name="e_0_energy">    -36.82306634 </i>
   </energy>
  </scstep>
  <structure>
   <crystal>
    <varray name="basis" >
     <v>       2.56679773       0.00000000       0.00000000 </v>
     <v>       1.28339887       2.22291204       0.00000000 </v>
     <v>       0.00000000       0.00000000      29.67047119 </v>
    </varray>
    <i name="volume">    169.29275369 </i>
    <varray name="rec_basis" >
     <v>       0.38959050      -0.22493018       0.00000000 </v>
     <v>       0.00000000       0.44986035       0.00000000 </v>
     <v>       0.00000000       0.00000000       0.03370354 </v>
    </varray>
   </crystal>
   <varray name="positions" >
    <v>       0.00012988      -0.00025976       0.00328378 </v>
    <v>       0.33310207       0.33379586       0.06945039 </v>
    <v>       0.66687418       0.66625163       0.13820201 </v>
    <v>      -0.00036923       0.00073846       0.20792980 </v>
    <v>       0.33373980       0.33252040       0.27606199 </v>
    <v>       0.66633637       0.66732727       0.34405139 </v>
    <v>       0.00261643      -0.00523285       0.40864822 </v>
    <v>       0.34220887       0.31558226       0.47268289 </v>
    <v>      -0.00878086       0.01756171       0.54127369 </v>
    <v>       0.82967791       0.34064418       0.54234213 </v>
   </varray>
  </structure>
  <varray name="forces" >
   <v>       0.00000000       0.00192120      -0.16741212 </v>
   <v>      -0.00000000      -0.00322812       0.25254889 </v>
   <v>       0.00000000       0.00464982       0.06605670 </v>
   <v>      -0.00000000      -0.00488266      -0.12892444 </v>
   <v>       0.00000000       0.00811750      -0.16882369 </v>
   <v>      -0.00000000      -0.02600065      -0.57631099 </v>
   <v>      -0.00000000      -0.02795932       0.00302343 </v>
   <v>      -0.00000000      -0.00531666       0.05265188 </v>
   <v>      -0.00000000      -1.36201022       0.25111825 </v>
   <v>       0.00000000       1.41470912       0.41607210 </v>
  </varray>
  <varray name="stress" >
   <v>     -29.38207459      -0.00000000       0.00000000 </v>
   <v>      -0.00000000     -20.98386521       2.56960712 </v>
   <v>       0.00000000       2.56961185      36.50862065 </v>
  </varray>
  <energy>
   <i name="e_fr_energy">    -40.57171931 </i>
   <i name="e_wo_entrp">    -40.55064469 </i>
   <i name="e_0_energy">    -40.56469444 </i>
  </energy>
  <time name="totalsc">    2.26    2.31</time>
 </calculation>
 <calculation>
  <scstep>
   <time name="dav">    0.28    0.28</time>
   <time name="total">    0.36    0.36</time>
   <energy>
    <i name="alphaZ">    285.34744303 </i>
    <i name="ewald">  55270.97599263 </i>
    <i name="hartreedc"> -66229.71987772 </i>
    <i name="XCdc">    363.40769416 </i>
    <i name="pawpsdc">  10647.42566708 </i>
    <i name="pawaedc"> -11510.78156225 </i>
    <i name="eentropy">     -0.02276409 </i>
    <i name="bandstr">    -16.10717779 </i>
    <i name="atom">  11152.61838693 </i>
    <i name="e_fr_energy">    -36.85619800 </i>
    <i name="e_wo_entrp">    -36.83343392 </i>
    <i name="e_0_energy">    -36.84860997 </i>
   </energy>
  </scstep>
  <scstep>
   <time name="dav">    0.36    0.36</time>
   <time name="total">    0.44    0.45</time>
   <energy>
    <i name="e_fr_energy">    -36.87650730 </i>
    <i name="e_wo_entrp">    -36.85833457 </i>
    <i name="e_0_energy">    -36.87044972 </i>
   </energy>
  </scstep>
  <scstep>
   <time name="dav">    0.33    0.34</time>
   <time name="total">    0.41    0.42</time>
   <energy>
    <i name="e_fr_energy">    -36.87877344 </i>
    <i name="e_wo_entrp">    -36.85112854 </i>
    <i name="e_0_energy">    -36.86955847 </i>
   </energy>
  </scstep>
  <scstep>
   <time name="dav">    0.34    0.34</time>
   <time name="total">    0.42    0.43</time>
   <energy>
    <i name="e_fr_energy">    -36.87521437 </i>
    <i name="e_wo_entrp">    -36.85538568 </i>
    <i name="e_0_energy">    -36.86860481 </i>
   </energy>
  </scstep>
  <scstep>
   <time name="dav">    0.40    0.40</time>
   <time name="total">    0.48    0.48</time>
   <energy>
    <i name="e_fr_energy">    -36.87476663 </i>
    <i name="e_wo_entrp">    -36.85320665 </i>
    <i name="e_0_energy">    -36.86757997 </i>
   </energy>
  </scstep>
  <scstep>
   <time name="dav">    0.35    0.35</time>
   <time name="total">    0.43    0.43</time>
   <energy>
    <i name="e_fr_energy">    -36.87453722 </i>
    <i name="e_wo_entrp">    -36.85206953 </i>
    <i name="e_0_energy">    -36.86704799 </i>
   </energy>
  </scstep>
  <scstep>
   <time name="dav">    0.26    0.26</time>
   <time name="total">    0.29    0.29</time>
   <energy>
    <i name="alphaZ">    285.34744303 </i>
    <i name="ewald">  55270.97599263 </i>
    <i name="hartreedc"> -66227.81532869 </i>
    <i name="XCdc">    363.38158667 </i>
    <i name="pawpsdc">  10645.28465684 </i>
    <i name="pawaedc"> -11508.63100496 </i>
    <i name="eentropy">     -0.02172525 </i>
    <i name="bandstr">    -18.01446082 </i>
    <i name="atom">  11152.61838693 </i>
    <i name="e_fr_energy">    -36.87445361 </i>
    <i name="e_wo_entrp">    -36.85272835 </i>
    <i name="e_0_energy">    -36.86721186 </i>
   </energy>
  </scstep>
  <structure>
   <crystal>
    <varray name="basis" >
     <v>       2.56679773       0.00000000       0.00000000 </v>
     <v>       1.28339887       2.22291204       0.00000000 </v>
     <v>       0.00000000       0.00000000      29.67047119 </v>
    </varray>
    <i name="volume">    169.29275369 </i>
    <varray name="rec_basis" >
     <v>       0.38959050      -0.22493018       0.00000000 </v>
     <v>       0.00000000       0.44986035       0.00000000 </v>
     <v>       0.00000000       0.00000000       0.03370354 </v>
    </varray>
   </crystal>
   <varray name="positions" >
    <v>       0.00012734      -0.00025467       0.00315090 </v>
    <v>       0.33310946       0.33378107       0.07001087 </v>
    <v>       0.66685862       0.66628275       0.13801484 </v>
    <v>      -0.00036161       0.00072321       0.20779647 </v>
    <v>       0.33370819       0.33258362       0.27590157 </v>
    <v>       0.66647270       0.66705459       0.34343868 </v>
    <v>       0.00311720      -0.00623439       0.40755023 </v>
    <v>       0.34298514       0.31402971       0.47237016 </v>
    <v>      -0.00709226       0.01418451       0.54222104 </v>
    <v>       0.82661063       0.34677875       0.54347154 </v>
   </varray>
  </structure>
  <varray name="forces" >
   <v>       0.00000000       0.00161076      -0.05432629 </v>
   <v>      -0.00000000      -0.00290194       0.03241459 </v>
   <v>       0.00000000       0.00425837       0.18130205 </v>
   <v>      -0.00000000      -0.00546885      -0.13350053 </v>
   <v>       0.00000000       0.00683008      -0.23743371 </v>
   <v>      -0.00000000      -0.02959284      -0.60102798 </v>
   <v>      -0.00000000      -0.02013419       0.26968571 </v>
   <v>      -0.00000000      -0.00110077      -0.04893701 </v>
   <v>      -0.00000000      -0.56424000       0.24246692 </v>
   <v>       0.00000000       0.61073940       0.34935625 </v>
  </varray>
  <varray name="stress" >
   <v>     -33.36121563      -0.00000000       0.00000000 </v>
   <v>      -0.00000000     -30.58764489       2.31198673 </v>
   <v>       0.00000000       2.31199191      31.08818515 </v>
  </varray>
  <energy>
   <i name="e_fr_energy">    -40.62311513 </i>
   <i name="e_wo_entrp">    -40.60138987 </i>
   <i name="e_0_energy">    -40.61587337 </i>
  </energy>
  <time name="totalsc">    3.31    3.39</time>
 </calculation>
 <calculation>
  <scstep>
   <time name="dav">    0.30    0.30</time>
   <time name="total">    0.38    0.38</time>
   <energy>
    <i name="alphaZ">    285.34744303 </i>
    <i name="ewald">  55535.60792479 </i>
    <i name="hartreedc"> -66492.95396250 </i>
    <i name="XCdc">    363.34799763 </i>
    <i name="pawpsdc">  10645.33514597 </i>
    <i name="pawaedc"> -11508.68292344 </i>
    <i name="eentropy">     -0.02237095 </i>
    <i name="bandstr">    -17.46166692 </i>
    <i name="atom">  11152.61838693 </i>
    <i name="e_fr_energy">    -36.86402545 </i>
    <i name="e_wo_entrp">    -36.84165450 </i>
    <i name="e_0_energy">    -36.85656846 </i>
   </energy>
  </scstep>
  <scstep>
   <time name="dav">    0.36    0.37</time>
   <time name="total">    0.45    0.45</time>
   <energy>
    <i name="e_fr_energy">    -36.89038292 </i>
    <i name="e_wo_entrp">    -36.87187729 </i>
    <i name="e_0_energy">    -36.88421437 </i>
   </energy>
  </scstep>
  <scstep>
   <time name="dav">    0.30    0.30</time>
   <time name="total">    0.38    0.39</time>
   <energy>
    <i name="e_fr_energy">    -36.89222825 </i>
    <i name="e_wo_entrp">    -36.86533725 </i>
    <i name="e_0_energy">    -36.88326458 </i>
   </energy>
  </scstep>
  <scstep>
   <time name="dav">    0.35    0.35</time>
   <time name="total">    0.43    0.43</time>
   <energy>
    <i name="e_fr_energy">    -36.88960079 </i>
    <i name="e_wo_entrp">    -36.87058739 </i>
    <i name="e_0_energy">    -36.88326299 </i>
   </energy>
  </scstep>
  <scstep>
   <time name="dav">    0.43    0.44</time>
   <time name="total">    0.51    0.52</time>
   <energy>
    <i name="e_fr_energy">    -36.88856159 </i>
    <i name="e_wo_entrp">    -36.86697752 </i>
    <i name="e_0_energy">    -36.88136690 </i>
   </energy>
  </scstep>
  <scstep>
   <time name="dav">    0.37    0.38</time>
   <time name="total">    0.46    0.46</time>
   <energy>
    <i name="e_fr_energy">    -36.88848314 </i>
    <i name="e_wo_entrp">    -36.86628437 </i>
    <i name="e_0_energy">    -36.88108355 </i>
   </energy>
  </scstep>
  <scstep>
   <time name="dav">    0.26    0.27</time>
   <time name="total">    0.29    0.29</time>
   <energy>
    <i name="alphaZ">    285.34744303 </i>
    <i name="ewald">  55535.60792479 </i>
    <i name="hartreedc"> -66490.67711795 </i>
    <i name="XCdc">    363.31843570 </i>
    <i name="pawpsdc">  10644.09377407 </i>
    <i name="pawaedc"> -11507.45095973 </i>
    <i name="eentropy">     -0.02141358 </i>
    <i name="bandstr">    -19.72480022 </i>
    <i name="atom">  11152.61838693 </i>
    <i name="e_fr_energy">    -36.88832696 </i>
    <i name="e_wo_entrp">    -36.86691338 </i>
    <i name="e_0_energy">    -36.88118910 </i>
   </energy>
  </scstep>
  <structure>
   <crystal>
    <varray name="basis" >
     <v>       2.56679773       0.00000000       0.00000000 </v>
     <v>       1.28339887       2.22291204       0.00000000 </v>
     <v>       0.00000000       0.00000000      29.67047119 </v>
    </varray>
    <i name="volume">    169.29275369 </i>
    <varray name="rec_basis" >
     <v>       0.38959050      -0.22493018       0.00000000 </v>
     <v>       0.00000000       0.44986035       0.00000000 </v>
     <v>       0.00000000       0.00000000       0.03370354 </v>
    </varray>
   </crystal>
   <varray name="positions" >
    <v>       0.00012447      -0.00024894       0.00300098 </v>
    <v>       0.33311780       0.33376439       0.07064322 </v>
    <v>       0.66684107       0.66631787       0.13780367 </v>
    <v>      -0.00035301       0.00070601       0.20764604 </v>
    <v>       0.33367253       0.33265495       0.27572057 </v>
    <v>       0.66662653       0.66674695       0.34274740 </v>
    <v>       0.00368218      -0.00736436       0.40631145 </v>
    <v>       0.34386096       0.31227809       0.47201733 </v>
    <v>      -0.00518713       0.01037427       0.54328986 </v>
    <v>       0.82315003       0.35369993       0.54474576 </v>
   </varray>
  </structure>
  <varray name="forces" >
   <v>       0.00000000       0.00108989       0.06300987 </v>
   <v>      -0.00000000      -0.00376357      -0.21809354 </v>
   <v>       0.00000000       0.00394409       0.30697991 </v>
   <v>      -0.00000000      -0.00527266      -0.14905533 </v>
   <v>       0.00000000       0.00545050      -0.31797858 </v>
   <v>      -0.00000000      -0.03262457      -0.62609803 </v>
   <v>      -0.00000000      -0.01081699       0.57830439 </v>
   <v>       0.00000000       0.00194710      -0.15101668 </v>
   <v>       0.00000000       0.17672964       0.23838173 </v>
   <v>      -0.00000000      -0.13668343       0.27556626 </v>
  </varray>
  <varray name="stress" >
   <v>     -32.10638183      -0.00000000       0.00000000 </v>
   <v>      -0.00000000     -34.94398807       2.01519832 </v>
   <v>       0.00000000       2.01520280      31.68403298 </v>
  </varray>
  <energy>
   <i name="e_fr_energy">    -40.64593080 </i>
   <i name="e_wo_entrp">    -40.62451722 </i>
   <i name="e_0_energy">    -40.63879294 </i>
  </energy>
  <time name="totalsc">    3.37    3.46</time>
 </calculation>
 <calculation>
  <scstep>
   <time name="dav">    0.28    0.28</time>
   <time name="total">    0.36    0.37</time>
   <energy>
    <i name="alphaZ">    285.34744303 </i>
    <i name="ewald">  55603.56597999 </i>
    <i name="hartreedc"> -66558.72042012 </i>
    <i name="XCdc">    363.31251821 </i>
    <i name="pawpsdc">  10644.19326598 </i>
    <i name="pawaedc"> -11507.55694381 </i>
    <i name="eentropy">     -0.02159263 </i>
    <i name="bandstr">    -19.64250141 </i>
    <i name="atom">  11152.61838693 </i>
    <i name="e_fr_energy">    -36.90386382 </i>
    <i name="e_wo_entrp">    -36.88227119 </i>
    <i name="e_0_energy">    -36.89666627 </i>
   </energy>
  </scstep>
  <scstep>
   <time name="dav">    0.34    0.35</time>
   <time name="total">    0.43    0.43</time>
   <energy>
    <i name="e_fr_energy">    -36.90794014 </i>
    <i name="e_wo_entrp">    -36.88677327 </i>
    <i name="e_0_energy">    -36.90088452 </i>
   </energy>
  </scstep>
  <scstep>
   <time name="dav">    0.28    0.29</time>
   <time name="total">    0.37    0.37</time>
   <energy>
    <i name="e_fr_energy">    -36.90790748 </i>
[...]
    <v>       0.34340480       0.31319040       0.47305722 </v>
    <v>      -0.05069872       0.10139744       0.55200771 </v>
    <v>       0.84436074       0.31127852       0.57208138 </v>
   </varray>
  </structure>
  <varray name="forces" >
   <v>      -0.00000000      -0.00302671       0.01058465 </v>
   <v>      -0.00000000      -0.00290807      -0.00283310 </v>
   <v>       0.00000000       0.00037998      -0.01767449 </v>
   <v>       0.00000000       0.00127109      -0.01122043 </v>
   <v>       0.00000000       0.00121416       0.02268673 </v>
   <v>      -0.00000000      -0.00825868       0.01447465 </v>
   <v>       0.00000000       0.00542959       0.01022711 </v>
   <v>       0.00000000       0.00812662      -0.01865872 </v>
   <v>       0.00000000       0.01602043      -0.02949415 </v>
   <v>      -0.00000000      -0.01824840       0.02190775 </v>
  </varray>
  <varray name="stress" >
   <v>     -42.73607380      -0.00000000       0.00000000 </v>
   <v>      -0.00000000     -43.84846138       0.57573881 </v>
   <v>       0.00000000       0.57574321      -7.18979611 </v>
  </varray>
  <energy>
   <i name="e_fr_energy">    -40.87960272 </i>
   <i name="e_wo_entrp">    -40.85307174 </i>
   <i name="e_0_energy">    -40.87075906 </i>
  </energy>
  <time name="totalsc">    0.94    0.98</time>
 </calculation>
 <calculation>
  <scstep>
   <time name="dav">    0.18    0.18</time>
   <time name="total">    0.27    0.27</time>
   <energy>
    <i name="alphaZ">    285.34744303 </i>
    <i name="ewald">  52892.07699040 </i>
    <i name="hartreedc"> -63831.83348782 </i>
    <i name="XCdc">    362.89423693 </i>
    <i name="pawpsdc">  10590.75466786 </i>
    <i name="pawaedc"> -11453.17272798 </i>
    <i name="eentropy">     -0.02649866 </i>
    <i name="bandstr">    -35.87726430 </i>
    <i name="atom">  11152.61838693 </i>
    <i name="e_fr_energy">    -37.21825360 </i>
    <i name="e_wo_entrp">    -37.19175494 </i>
    <i name="e_0_energy">    -37.20942071 </i>
   </energy>
  </scstep>
  <scstep>
   <time name="dav">    0.18    0.18</time>
   <time name="total">    0.21    0.21</time>
   <energy>
    <i name="alphaZ">    285.34744303 </i>
    <i name="ewald">  52892.07699040 </i>
    <i name="hartreedc"> -63831.83542182 </i>
    <i name="XCdc">    362.89425348 </i>
    <i name="pawpsdc">  10590.75536004 </i>
    <i name="pawaedc"> -11453.17350180 </i>
    <i name="eentropy">     -0.02650668 </i>
    <i name="bandstr">    -35.87525723 </i>
    <i name="atom">  11152.61838693 </i>
    <i name="e_fr_energy">    -37.21825365 </i>
    <i name="e_wo_entrp">    -37.19174697 </i>
    <i name="e_0_energy">    -37.20941809 </i>
   </energy>
  </scstep>
  <structure>
   <crystal>
    <varray name="basis" >
     <v>       2.56679773       0.00000000       0.00000000 </v>
     <v>       1.28339887       2.22291204       0.00000000 </v>
     <v>       0.00000000       0.00000000      29.67047119 </v>
    </varray>
    <i name="volume">    169.29275369 </i>
    <varray name="rec_basis" >
     <v>       0.38959050      -0.22493018       0.00000000 </v>
     <v>       0.00000000       0.44986035       0.00000000 </v>
     <v>       0.00000000       0.00000000       0.03370354 </v>
    </varray>
   </crystal>
   <varray name="positions" >
    <v>       0.00040130      -0.00080260      -0.00299192 </v>
    <v>       0.33451038       0.33097924       0.06434046 </v>
    <v>       0.66941535       0.66116930       0.13253864 </v>
    <v>       0.00469332      -0.00938664       0.20102313 </v>
    <v>       0.33846777       0.32306446       0.26881604 </v>
    <v>       0.67229793       0.65540414       0.33740913 </v>
    <v>       0.00868256      -0.01736511       0.40564450 </v>
    <v>       0.34340480       0.31319040       0.47305722 </v>
    <v>      -0.05069873       0.10139746       0.55200771 </v>
    <v>       0.84436075       0.31127851       0.57208138 </v>
   </varray>
  </structure>
  <varray name="forces" >
   <v>      -0.00000000      -0.00304196       0.01108910 </v>
   <v>      -0.00000000      -0.00290986      -0.00321872 </v>
   <v>       0.00000000       0.00039040      -0.01786870 </v>
   <v>       0.00000000       0.00127999      -0.01158476 </v>
   <v>       0.00000000       0.00121957       0.02239501 </v>
   <v>      -0.00000000      -0.00826111       0.01451913 </v>
   <v>       0.00000000       0.00543527       0.01014596 </v>
   <v>       0.00000000       0.00813919      -0.01822220 </v>
   <v>       0.00000000       0.01604397      -0.02933915 </v>
   <v>      -0.00000000      -0.01829546       0.02208432 </v>
  </varray>
  <varray name="stress" >
   <v>     -42.62129048      -0.00000000       0.00000000 </v>
   <v>      -0.00000000     -43.73376334       0.57547087 </v>
   <v>       0.00000000       0.57547542      -7.06058644 </v>
  </varray>
  <energy>
   <i name="e_fr_energy">    -40.87960221 </i>
   <i name="e_wo_entrp">    -40.85309553 </i>
   <i name="e_0_energy">    -40.87076665 </i>
  </energy>
  <time name="totalsc">    0.94    0.98</time>
 </calculation>
 <calculation>
  <scstep>
   <time name="dav">    0.18    0.19</time>
   <time name="total">    0.26    0.27</time>
   <energy>
    <i name="alphaZ">    285.34744303 </i>
    <i name="ewald">  52892.07697786 </i>
    <i name="hartreedc"> -63831.83452652 </i>
    <i name="XCdc">    362.89424668 </i>
    <i name="pawpsdc">  10590.75502370 </i>
    <i name="pawaedc"> -11453.17312495 </i>
    <i name="eentropy">     -0.02649988 </i>
    <i name="bandstr">    -35.87618046 </i>
    <i name="atom">  11152.61838693 </i>
    <i name="e_fr_energy">    -37.21825362 </i>
    <i name="e_wo_entrp">    -37.19175374 </i>
    <i name="e_0_energy">    -37.20942032 </i>
   </energy>
  </scstep>
  <scstep>
   <time name="dav">    0.18    0.18</time>
   <time name="total">    0.21    0.21</time>
   <energy>
    <i name="alphaZ">    285.34744303 </i>
    <i name="ewald">  52892.07697786 </i>
    <i name="hartreedc"> -63831.83678254 </i>
    <i name="XCdc">    362.89424598 </i>
    <i name="pawpsdc">  10590.75518923 </i>
    <i name="pawaedc"> -11453.17325993 </i>
    <i name="eentropy">     -0.02650117 </i>
    <i name="bandstr">    -35.87395302 </i>
    <i name="atom">  11152.61838693 </i>
    <i name="e_fr_energy">    -37.21825363 </i>
    <i name="e_wo_entrp">    -37.19175246 </i>
    <i name="e_0_energy">    -37.20941991 </i>
   </energy>
  </scstep>
  <structure>
   <crystal>
    <varray name="basis" >
     <v>       2.56679773       0.00000000       0.00000000 </v>
     <v>       1.28339887       2.22291204       0.00000000 </v>
     <v>       0.00000000       0.00000000      29.67047119 </v>
    </varray>
    <i name="volume">    169.29275369 </i>
    <varray name="rec_basis" >
     <v>       0.38959050      -0.22493018       0.00000000 </v>
     <v>       0.00000000       0.44986035       0.00000000 </v>
     <v>       0.00000000       0.00000000       0.03370354 </v>
    </varray>
   </crystal>
   <varray name="positions" >
    <v>       0.00040130      -0.00080260      -0.00299192 </v>
    <v>       0.33451038       0.33097924       0.06434046 </v>
    <v>       0.66941535       0.66116930       0.13253864 </v>
    <v>       0.00469332      -0.00938664       0.20102313 </v>
    <v>       0.33846777       0.32306446       0.26881604 </v>
    <v>       0.67229793       0.65540414       0.33740913 </v>
    <v>       0.00868256      -0.01736511       0.40564450 </v>
    <v>       0.34340480       0.31319040       0.47305722 </v>
    <v>      -0.05069873       0.10139746       0.55200771 </v>
    <v>       0.84436075       0.31127850       0.57208138 </v>
   </varray>
  </structure>
  <varray name="forces" >
   <v>      -0.00000000      -0.00326899       0.01080411 </v>
   <v>      -0.00000000      -0.00302486      -0.00350436 </v>
   <v>       0.00000000       0.00054459      -0.01809569 </v>
   <v>       0.00000000       0.00135244      -0.01192859 </v>
   <v>       0.00000000       0.00124490       0.02280323 </v>
   <v>      -0.00000000      -0.00846311       0.01489308 </v>
   <v>       0.00000000       0.00559285       0.01028422 </v>
   <v>       0.00000000       0.00822332      -0.01819717 </v>
   <v>       0.00000000       0.01608895      -0.02925441 </v>
   <v>      -0.00000000      -0.01829009       0.02219558 </v>
  </varray>
  <varray name="stress" >
   <v>     -42.59319625      -0.00000000       0.00000000 </v>
   <v>      -0.00000000     -43.70576516       0.57538693 </v>
   <v>       0.00000000       0.57539134      -7.03166237 </v>
  </varray>
  <energy>
   <i name="e_fr_energy">    -40.87960219 </i>
   <i name="e_wo_entrp">    -40.85310102 </i>
   <i name="e_0_energy">    -40.87076847 </i>
  </energy>
  <time name="totalsc">    0.94    0.99</time>
 </calculation>
 <calculation>
  <scstep>
   <time name="dav">    0.18    0.18</time>
   <time name="total">    0.26    0.27</time>
   <energy>
    <i name="alphaZ">    285.34744303 </i>
    <i name="ewald">  52892.07697314 </i>
    <i name="hartreedc"> -63831.83617167 </i>
    <i name="XCdc">    362.89424615 </i>
    <i name="pawpsdc">  10590.75505871 </i>
    <i name="pawaedc"> -11453.17313282 </i>
    <i name="eentropy">     -0.02650028 </i>
    <i name="bandstr">    -35.87455683 </i>
    <i name="atom">  11152.61838693 </i>
    <i name="e_fr_energy">    -37.21825364 </i>
    <i name="e_wo_entrp">    -37.19175335 </i>
    <i name="e_0_energy">    -37.20942021 </i>
   </energy>
  </scstep>
  <scstep>
   <time name="dav">    0.18    0.18</time>
   <time name="total">    0.21    0.21</time>
   <energy>
    <i name="alphaZ">    285.34744303 </i>
    <i name="ewald">  52892.07697314 </i>
    <i name="hartreedc"> -63831.83680823 </i>
    <i name="XCdc">    362.89424588 </i>
    <i name="pawpsdc">  10590.75488595 </i>
    <i name="pawaedc"> -11453.17294767 </i>
    <i name="eentropy">     -0.02650066 </i>
    <i name="bandstr">    -35.87393203 </i>
    <i name="atom">  11152.61838693 </i>
    <i name="e_fr_energy">    -37.21825364 </i>
    <i name="e_wo_entrp">    -37.19175298 </i>
    <i name="e_0_energy">    -37.20942009 </i>
   </energy>
  </scstep>
  <structure>
   <crystal>
    <varray name="basis" >
     <v>       2.56679773       0.00000000       0.00000000 </v>
     <v>       1.28339887       2.22291204       0.00000000 </v>
     <v>       0.00000000       0.00000000      29.67047119 </v>
    </varray>
    <i name="volume">    169.29275369 </i>
    <varray name="rec_basis" >
     <v>       0.38959050      -0.22493018       0.00000000 </v>
     <v>       0.00000000       0.44986035       0.00000000 </v>
     <v>       0.00000000       0.00000000       0.03370354 </v>
    </varray>
   </crystal>
   <varray name="positions" >
    <v>       0.00040130      -0.00080260      -0.00299192 </v>
    <v>       0.33451038       0.33097924       0.06434046 </v>
    <v>       0.66941535       0.66116930       0.13253864 </v>
    <v>       0.00469332      -0.00938664       0.20102313 </v>
    <v>       0.33846777       0.32306446       0.26881604 </v>
    <v>       0.67229793       0.65540414       0.33740913 </v>
    <v>       0.00868255      -0.01736511       0.40564450 </v>
    <v>       0.34340480       0.31319040       0.47305722 </v>
    <v>      -0.05069873       0.10139746       0.55200771 </v>
    <v>       0.84436075       0.31127850       0.57208138 </v>
   </varray>
  </structure>
  <varray name="forces" >
   <v>      -0.00000000      -0.00339946       0.01051997 </v>
   <v>      -0.00000000      -0.00311306      -0.00366219 </v>
   <v>       0.00000000       0.00062899      -0.01826741 </v>
   <v>       0.00000000       0.00138860      -0.01214864 </v>
   <v>       0.00000000       0.00124821       0.02332913 </v>
   <v>      -0.00000000      -0.00863185       0.01520633 </v>
   <v>       0.00000000       0.00574353       0.01054033 </v>
   <v>       0.00000000       0.00832239      -0.01844067 </v>
   <v>       0.00000000       0.01609781      -0.02925814 </v>
   <v>      -0.00000000      -0.01828516       0.02218128 </v>
  </varray>
  <varray name="stress" >
   <v>     -42.59725249      -0.00000000       0.00000000 </v>
   <v>      -0.00000000     -43.70984347       0.57534484 </v>
   <v>       0.00000000       0.57534939      -7.03476060 </v>
  </varray>
  <energy>
   <i name="e_fr_energy">    -40.87960220 </i>
   <i name="e_wo_entrp">    -40.85310154 </i>
   <i name="e_0_energy">    -40.87076865 </i>
  </energy>
  <time name="totalsc">    0.95    1.07</time>
 </calculation>
 <calculation>
  <scstep>
   <time name="dav">    0.18    0.18</time>
   <time name="total">    0.26    0.27</time>
   <energy>
    <i name="alphaZ">    285.34744303 </i>
    <i name="ewald">  52892.07697138 </i>
    <i name="hartreedc"> -63831.83673830 </i>
    <i name="XCdc">    362.89424603 </i>
    <i name="pawpsdc">  10590.75479683 </i>
    <i name="pawaedc"> -11453.17285346 </i>
    <i name="eentropy">     -0.02649960 </i>
    <i name="bandstr">    -35.87400650 </i>
    <i name="atom">  11152.61838693 </i>
    <i name="e_fr_energy">    -37.21825365 </i>
    <i name="e_wo_entrp">    -37.19175405 </i>
    <i name="e_0_energy">    -37.20942045 </i>
   </energy>
  </scstep>
  <scstep>
   <time name="dav">    0.18    0.18</time>
   <time name="total">    0.21    0.21</time>
   <energy>
    <i name="alphaZ">    285.34744303 </i>
    <i name="ewald">  52892.07697138 </i>
    <i name="hartreedc"> -63831.83881424 </i>
    <i name="XCdc">    362.89425616 </i>
    <i name="pawpsdc">  10590.75493121 </i>
    <i name="pawaedc"> -11453.17305284 </i>
    <i name="eentropy">     -0.02650326 </i>
    <i name="bandstr">    -35.87187202 </i>
    <i name="atom">  11152.61838693 </i>
    <i name="e_fr_energy">    -37.21825366 </i>
    <i name="e_wo_entrp">    -37.19175039 </i>
    <i name="e_0_energy">    -37.20941923 </i>
   </energy>
  </scstep>
  <structure>
   <crystal>
    <varray name="basis" >
     <v>       2.56679773       0.00000000       0.00000000 </v>
     <v>       1.28339887       2.22291204       0.00000000 </v>
     <v>       0.00000000       0.00000000      29.67047119 </v>
    </varray>
    <i name="volume">    169.29275369 </i>
    <varray name="rec_basis" >
     <v>       0.38959050      -0.22493018       0.00000000 </v>
     <v>       0.00000000       0.44986035       0.00000000 </v>
     <v>       0.00000000       0.00000000       0.03370354 </v>
    </varray>
   </crystal>
   <varray name="positions" >
    <v>       0.00040130      -0.00080260      -0.00299192 </v>
    <v>       0.33451038       0.33097924       0.06434046 </v>
    <v>       0.66941535       0.66116930       0.13253864 </v>
    <v>       0.00469332      -0.00938664       0.20102313 </v>
    <v>       0.33846777       0.32306446       0.26881604 </v>
    <v>       0.67229793       0.65540414       0.33740913 </v>
    <v>       0.00868255      -0.01736511       0.40564450 </v>
    <v>       0.34340480       0.31319040       0.47305722 </v>
    <v>      -0.05069873       0.10139746       0.55200771 </v>
    <v>       0.84436075       0.31127850       0.57208138 </v>
   </varray>
  </structure>
  <varray name="forces" >
   <v>      -0.00000000      -0.00343630       0.01040631 </v>
   <v>      -0.00000000      -0.00313602      -0.00366281 </v>
   <v>       0.00000000       0.00064840      -0.01829046 </v>
   <v>       0.00000000       0.00139797      -0.01218000 </v>
   <v>       0.00000000       0.00124801       0.02350864 </v>
   <v>      -0.00000000      -0.00867741       0.01527935 </v>
   <v>       0.00000000       0.00578349       0.01060691 </v>
   <v>       0.00000000       0.00835300      -0.01856204 </v>
   <v>       0.00000000       0.01609789      -0.02927336 </v>
   <v>      -0.00000000      -0.01827904       0.02216746 </v>
  </varray>
  <varray name="stress" >
   <v>     -42.61476848      -0.00000000       0.00000000 </v>
   <v>      -0.00000000     -43.72734496       0.57535864 </v>
   <v>       0.00000000       0.57536330      -7.05366564 </v>
  </varray>
  <energy>
   <i name="e_fr_energy">    -40.87960222 </i>
   <i name="e_wo_entrp">    -40.85309895 </i>
   <i name="e_0_energy">    -40.87076779 </i>
  </energy>
  <time name="totalsc">    0.94    0.96</time>
 </calculation>
 <calculation>
  <scstep>
   <time name="dav">    0.28    0.28</time>
   <time name="total">    0.36    0.37</time>
   <energy>
    <i name="alphaZ">    285.34744303 </i>
    <i name="ewald">  52893.99547162 </i>
    <i name="hartreedc"> -63833.80174376 </i>
    <i name="XCdc">    362.89167202 </i>
    <i name="pawpsdc">  10590.75466020 </i>
    <i name="pawaedc"> -11453.17274708 </i>
    <i name="eentropy">     -0.02650366 </i>
    <i name="bandstr">    -35.82448754 </i>
    <i name="atom">  11152.61838693 </i>
    <i name="e_fr_energy">    -37.21784823 </i>
    <i name="e_wo_entrp">    -37.19134457 </i>
    <i name="e_0_energy">    -37.20901367 </i>
   </energy>
  </scstep>
  <scstep>
   <time name="dav">    0.22    0.22</time>
   <time name="total">    0.24    0.25</time>
   <energy>
    <i name="alphaZ">    285.34744303 </i>
    <i name="ewald">  52893.99547162 </i>
    <i name="hartreedc"> -63833.80632254 </i>
    <i name="XCdc">    362.89030766 </i>
    <i name="pawpsdc">  10590.68432693 </i>
    <i name="pawaedc"> -11453.10237756 </i>
    <i name="eentropy">     -0.02653335 </i>
    <i name="bandstr">    -35.81855468 </i>
    <i name="atom">  11152.61838693 </i>
    <i name="e_fr_energy">    -37.21785196 </i>
    <i name="e_wo_entrp">    -37.19131860 </i>
    <i name="e_0_energy">    -37.20900750 </i>
   </energy>
  </scstep>
  <structure>
   <crystal>
    <varray name="basis" >
     <v>       2.56679773       0.00000000       0.00000000 </v>
     <v>       1.28339887       2.22291204       0.00000000 </v>
     <v>       0.00000000       0.00000000      29.67047119 </v>
    </varray>
    <i name="volume">    169.29275369 </i>
    <varray name="rec_basis" >
     <v>       0.38959050      -0.22493018       0.00000000 </v>
     <v>       0.00000000       0.44986035       0.00000000 </v>
     <v>       0.00000000       0.00000000       0.03370354 </v>
    </varray>
   </crystal>
   <varray name="positions" >
    <v>       0.00038510      -0.00077020      -0.00298692 </v>
    <v>       0.33450215       0.33099569       0.06434306 </v>
    <v>       0.66942434       0.66115132       0.13254179 </v>
    <v>       0.00470042      -0.00940085       0.20102998 </v>
    <v>       0.33846532       0.32306935       0.26879033 </v>
    <v>       0.67225672       0.65548656       0.33739792 </v>
    <v>       0.00871869      -0.01743738       0.40563465 </v>
    <v>       0.34344818       0.31310363       0.47306905 </v>
    <v>      -0.05034052       0.10068104       0.55200401 </v>
    <v>       0.84397501       0.31204999       0.57210243 </v>
   </varray>
  </structure>
  <varray name="forces" >
   <v>      -0.00000000      -0.00534260       0.00628102 </v>
   <v>      -0.00000000      -0.00457312      -0.00594952 </v>
   <v>       0.00000000       0.00145512      -0.02119696 </v>
   <v>       0.00000000       0.00180094      -0.02131403 </v>
   <v>       0.00000000       0.00095077       0.04101982 </v>
   <v>      -0.00000000      -0.01330353       0.01995944 </v>
   <v>       0.00000000       0.00963146       0.01816580 </v>
   <v>       0.00000000       0.01189580      -0.02734520 </v>
   <v>       0.00000000       0.06114718       0.02649803 </v>
   <v>      -0.00000000      -0.06366203      -0.03611840 </v>
  </varray>
  <varray name="stress" >
   <v>     -42.93979786      -0.00000000       0.00000000 </v>
   <v>      -0.00000000     -44.26760299       0.32651839 </v>
   <v>       0.00000000       0.32652262      -7.74969885 </v>
  </varray>
  <energy>
   <i name="e_fr_energy">    -40.87941551 </i>
   <i name="e_wo_entrp">    -40.85288215 </i>
   <i name="e_0_energy">    -40.87057105 </i>
  </energy>
