unknown system                          
           1
     2.566798    0.000000    0.000000
     1.283399    2.222912    0.000000
     0.000000    0.000000   29.670471
   Cu   H 
     8     2
Direct configuration=     1
   0.00000000  0.00000000  0.00000000
   0.33333333  0.33333333  0.07063526
   0.66666667  0.66666667  0.13908594
   0.00000000  0.00000000  0.20816512
   0.33333333  0.33333333  0.27656240
   0.66666667  0.66666667  0.34556034
   0.00000000  0.00000000  0.41400593
   0.33333333  0.33333333  0.48139269
   0.00000000  1.00000000  0.53425930
   0.83220209  0.33559582  0.53425930
Direct configuration=     2
   0.00002738 -0.00005475  0.00076604
   0.33328504  0.33342993  0.06999681
   0.66671802  0.66656395  0.13908733
  -0.00007950  0.00015899  0.20815951
   0.33343685  0.33312629  0.27651013
   0.66654688  0.66690624  0.34547436
   0.00028007 -0.00056015  0.41374611
   0.33485804  0.33028392  0.47951822
   0.01052071  0.97895857  0.53524421
   0.81994192  0.36011616  0.53542357
Direct configuration=     3
   0.00002419 -0.00004837  0.00067684
   0.33329066  0.33341868  0.07007116
   0.66671204  0.66657591  0.13908717
  -0.00007024  0.00014048  0.20816017
   0.33342480  0.33315040  0.27651621
   0.66656083  0.66687834  0.34548437
   0.00024746 -0.00049491  0.41377636
   0.33468048  0.33063903  0.47973651
   0.00929555  0.98140891  0.53512951
   0.82136965  0.35726069  0.53528799
Direct configuration=     4
   0.00005786 -0.00011572  0.00164457
   0.33322719  0.33354561  0.06942888
   0.66676968  0.66646065  0.13898730
  -0.00016763  0.00033527  0.20814785
   0.33354094  0.33291811  0.27643272
   0.66643096  0.66713808  0.34530359
   0.00068419 -0.00136839  0.41303404
   0.33659618  0.32680763  0.47758109
   0.00553790  0.98892420  0.53649330
   0.82285814  0.35428372  0.53687294
Direct configuration=     5
   0.00013928 -0.00027855  0.00398440
   0.33307374  0.33385252  0.06787595
   0.66690902  0.66618195  0.13874583
  -0.00040312  0.00080624  0.20811809
   0.33382176  0.33235647  0.27623084
   0.66611696  0.66776608  0.34486651
   0.00174015 -0.00348030  0.41123921
   0.34122803  0.31754393  0.47236964
  -0.00354747  0.00709495  0.53979072
   0.82645707  0.34708587  0.54070511
Direct configuration=     6
   0.00011988 -0.00023976  0.00342697
   0.33311030  0.33377940  0.06824592
   0.66687583  0.66624835  0.13880335
  -0.00034702  0.00069404  0.20812518
   0.33375486  0.33249028  0.27627893
   0.66619177  0.66761646  0.34497064
   0.00148858 -0.00297716  0.41166680
   0.34012456  0.31975088  0.47361120
  -0.00138301  0.00276601  0.53900516
   0.82559967  0.34880066  0.53979215
Direct configuration=     7
   0.00012862 -0.00025724  0.00330178
   0.33310311  0.33379379  0.06929901
   0.66687439  0.66625122  0.13827759
  -0.00036644  0.00073288  0.20795435
   0.33374169  0.33251662  0.27608926
   0.66631819  0.66736361  0.34416692
   0.00247468 -0.00494936  0.40902759
   0.34194692  0.31610616  0.47279955
  -0.00785111  0.01570222  0.54098858
   0.82916537  0.34166926  0.54202165
Direct configuration=     8
   0.00012988 -0.00025976  0.00328378
   0.33310207  0.33379586  0.06945039
   0.66687418  0.66625163  0.13820201
  -0.00036923  0.00073846  0.20792980
   0.33373980  0.33252040  0.27606199
   0.66633637  0.66732727  0.34405139
   0.00261643 -0.00523285  0.40864822
   0.34220887  0.31558226  0.47268289
  -0.00878086  0.01756171  0.54127369
   0.82967791  0.34064418  0.54234213
Direct configuration=     9
   0.00012734 -0.00025467  0.00315090
   0.33310946  0.33378107  0.07001087
   0.66685862  0.66628275  0.13801484
  -0.00036161  0.00072321  0.20779647
   0.33370819  0.33258362  0.27590157
   0.66647270  0.66705459  0.34343868
   0.00311720 -0.00623439  0.40755023
   0.34298514  0.31402971  0.47237016
  -0.00709226  0.01418451  0.54222104
   0.82661063  0.34677875  0.54347154
Direct configuration=    10
   0.00012447 -0.00024894  0.00300098
   0.33311780  0.33376439  0.07064322
   0.66684107  0.66631787  0.13780367
  -0.00035301  0.00070601  0.20764604
   0.33367253  0.33265495  0.27572057
   0.66662653  0.66674695  0.34274740
   0.00368218 -0.00736436  0.40631145
   0.34386096  0.31227809  0.47201733
  -0.00518713  0.01037427  0.54328986
   0.82315003  0.35369993  0.54474576
Direct configuration=    11
   0.00011944 -0.00023887  0.00299979
   0.33313479  0.33373043  0.07067641
   0.66682101  0.66635798  0.13793097
  -0.00033000  0.00066001  0.20751938
   0.33364189  0.33271623  0.27548625
   0.66679464  0.66641073  0.34220018
   0.00386967 -0.00773933  0.40633569
   0.34407777  0.31184445  0.47183764
  -0.00539586  0.01079172  0.54370472
   0.82280209  0.35439581  0.54523525
Direct configuration=    12
   0.00010434 -0.00020867  0.00299622
   0.33318573  0.33362854  0.07077600
   0.66676084  0.66647832  0.13831286
  -0.00026100  0.00052200  0.20713943
   0.33354997  0.33290006  0.27478329
   0.66729896  0.66540207  0.34055850
   0.00443213 -0.00886425  0.40640842
   0.34472823  0.31054355  0.47129856
  -0.00602204  0.01204408  0.54494930
   0.82175827  0.35648345  0.54670371
Direct configuration=    13
   0.00007413 -0.00014827  0.00298909
   0.33328762  0.33342475  0.07097517
   0.66664050  0.66671901  0.13907665
  -0.00012299  0.00024598  0.20637951
   0.33336613  0.33326774  0.27337735
   0.66830762  0.66338476  0.33727515
   0.00555705 -0.01111410  0.40655389
   0.34602913  0.30794173  0.47022040
  -0.00727441  0.01454881  0.54743846
   0.81967063  0.36065874  0.54964062
Direct configuration=    14
   0.00009289 -0.00018578  0.00299352
   0.33322434  0.33355132  0.07085146
   0.66671524  0.66656952  0.13860226
  -0.00020871  0.00041742  0.20685150
   0.33348031  0.33303938  0.27425058
   0.66768114  0.66463772  0.33931445
   0.00485836 -0.00971672  0.40646354
   0.34522114  0.30955772  0.47089004
  -0.00649656  0.01299312  0.54589244
   0.82096727  0.35806546  0.54781650
Direct configuration=    15
   0.00007203 -0.00014407  0.00310063
   0.33326848  0.33346304  0.07075218
   0.66666029  0.66667941  0.13880181
  -0.00014775  0.00029550  0.20657985
   0.33344769  0.33310462  0.27331226
   0.66806884  0.66386231  0.33891871
   0.00532853 -0.01065707  0.40611807
   0.34544066  0.30911867  0.47083767
  -0.00922156  0.01844312  0.54672341
   0.82261819  0.35476362  0.54878169
Direct configuration=    16
   0.00005732 -0.00011463  0.00317620
   0.33329963  0.33340075  0.07068213
   0.66662152  0.66675695  0.13894262
  -0.00010474  0.00020948  0.20638819
   0.33342467  0.33315065  0.27265021
   0.66834239  0.66331521  0.33863949
   0.00566027 -0.01132055  0.40587432
   0.34559555  0.30880889  0.47080072
  -0.01114423  0.02228846  0.54730971
   0.82378303  0.35243394  0.54946270
Direct configuration=    17
   0.00003962 -0.00007925  0.00328205
   0.33333472  0.33333055  0.07059665
   0.66658043  0.66683915  0.13894339
  -0.00004959  0.00009918  0.20610865
   0.33343234  0.33313533  0.27188166
   0.66867286  0.66265427  0.33852689
   0.00608651 -0.01217302  0.40544750
   0.34568120  0.30863761  0.47084900
  -0.01046521  0.02093042  0.54796161
   0.82222254  0.35555491  0.55032889
Direct configuration=    18
   0.00002114 -0.00004229  0.00339261
   0.33337139  0.33325723  0.07050737
   0.66653749  0.66692501  0.13894420
   0.00000802 -0.00001604  0.20581666
   0.33344034  0.33311932  0.27107886
   0.66901806  0.66196388  0.33840927
   0.00653174 -0.01306348  0.40500167
   0.34577065  0.30845870  0.47089943
  -0.00975594  0.01951187  0.54864255
   0.82059252  0.35881495  0.55123367
Direct configuration=    19
   0.00001442 -0.00002883  0.00340511
   0.33337761  0.33324479  0.07052877
   0.66653312  0.66693376  0.13868187
   0.00002833 -0.00005666  0.20557321
   0.33349894  0.33300213  0.27109075
   0.66915730  0.66168539  0.33834031
   0.00671232 -0.01342464  0.40488961
   0.34573038  0.30853923  0.47091360
  -0.00987959  0.01975918  0.54889981
   0.82036259  0.35927482  0.55160325
Direct configuration=    20
  -0.00000576  0.00001153  0.00344261
   0.33339627  0.33320747  0.07059295
   0.66652000  0.66695999  0.13789487
   0.00008926 -0.00017851  0.20484289
   0.33367473  0.33265055  0.27112644
   0.66957504  0.66084992  0.33813344
   0.00725406 -0.01450811  0.40455342
   0.34560958  0.30878084  0.47095612
  -0.01025054  0.02050108  0.54967157
   0.81967279  0.36065441  0.55271197
Direct configuration=    21
  -0.00004612  0.00009225  0.00351761
   0.33343359  0.33313282  0.07072133
   0.66649377  0.66701246  0.13632087
   0.00021111 -0.00042222  0.20338225
   0.33402630  0.33194739  0.27119781
   0.67041051  0.65917897  0.33771971
   0.00833753 -0.01667506  0.40388104
   0.34536798  0.30926405  0.47104115
  -0.01099244  0.02198489  0.55121509
   0.81829320  0.36341361  0.55492942
Direct configuration=    22
  -0.00002460  0.00004919  0.00347761
   0.33341368  0.33317263  0.07065286
   0.66650776  0.66698448  0.13716035
   0.00014612 -0.00029224  0.20416127
   0.33383879  0.33232242  0.27115975
   0.66996492  0.66007016  0.33794037
   0.00775967 -0.01551933  0.40423965
   0.34549684  0.30900633  0.47099580
  -0.01059675  0.02119351  0.55039187
   0.81902899  0.36194201  0.55374676
Direct configuration=    23
  -0.00003376  0.00006752  0.00346880
   0.33341243  0.33317514  0.07036428
   0.66652299  0.66695401  0.13675795
   0.00018826 -0.00037652  0.20389552
   0.33404125  0.33191751  0.27100768
   0.67025591  0.65948819  0.33782472
   0.00802878 -0.01605757  0.40433321
   0.34538109  0.30923782  0.47091630
  -0.01282992  0.02565984  0.55089572
   0.82056840  0.35886321  0.55446212
Direct configuration=    24
  -0.00003453  0.00006907  0.00346806
   0.33341232  0.33317535  0.07033997
   0.66652428  0.66695145  0.13672405
   0.00019181 -0.00038361  0.20387313
   0.33405830  0.33188340  0.27099487
   0.67028042  0.65943917  0.33781498
   0.00805145 -0.01610291  0.40434109
   0.34537134  0.30925732  0.47090960
  -0.01301803  0.02603606  0.55093816
   0.82069807  0.35860387  0.55452238
Direct configuration=    25
  -0.00003568  0.00007135  0.00339731
   0.33340771  0.33318459  0.06995378
   0.66655324  0.66689353  0.13649629
   0.00023609 -0.00047219  0.20376211
   0.33426329  0.33147343  0.27076804
   0.67050859  0.65898282  0.33775848
   0.00821069 -0.01642139  0.40451887
   0.34526685  0.30946631  0.47082649
  -0.01308759  0.02617518  0.55128616
   0.82021223  0.35957554  0.55515875
Direct configuration=    26
  -0.00003769  0.00007537  0.00327299
   0.33339959  0.33320082  0.06927516
   0.66660413  0.66679174  0.13609605
   0.00031392 -0.00062784  0.20356700
   0.33462350  0.33075300  0.27036945
   0.67090955  0.65818089  0.33765921
   0.00849052 -0.01698104  0.40483128
   0.34508322  0.30983355  0.47068043
  -0.01320982  0.02641964  0.55189768
   0.81935849  0.36128301  0.55627703
Direct configuration=    27
  -0.00004171  0.00008341  0.00302436
   0.33338336  0.33323328  0.06791791
   0.66670592  0.66658816  0.13529557
   0.00046957 -0.00093913  0.20317680
   0.33534392  0.32931216  0.26957226
   0.67171148  0.65657705  0.33746066
   0.00905017 -0.01810035  0.40545610
   0.34471598  0.31056803  0.47038831
  -0.01345429  0.02690858  0.55312072
   0.81765102  0.36469796  0.55851359
Direct configuration=    28
  -0.00003862  0.00007723  0.00321557
   0.33339584  0.33320832  0.06896171
   0.66662764  0.66674472  0.13591119
   0.00034986 -0.00069973  0.20347689
   0.33478987  0.33042026  0.27018535
   0.67109475  0.65781050  0.33761335
   0.00861977 -0.01723953  0.40497558
   0.34499841  0.31000317  0.47061297
  -0.01326628  0.02653256  0.55218013
   0.81896417  0.36207166  0.55679355
Direct configuration=    29
  -0.00004116  0.00008233  0.00278730
   0.33338416  0.33323168  0.06859379
   0.66667959  0.66664082  0.13567846
   0.00044755 -0.00089510  0.20328169
   0.33511376  0.32977247  0.26994246
   0.67139802  0.65720396  0.33762272
   0.00880317 -0.01760635  0.40499110
   0.34482525  0.31034950  0.47073910
  -0.01413884  0.02827769  0.55262173
   0.81906392  0.36187215  0.55766794
Direct configuration=    30
  -0.00004881  0.00009763  0.00150248
   0.33334912  0.33330177  0.06749001
   0.66683545  0.66632910  0.13498026
   0.00074060 -0.00148120  0.20269610
   0.33608544  0.32782912  0.26921381
   0.67230783  0.65538434  0.33765082
   0.00935340 -0.01870679  0.40503765
   0.34430575  0.31138849  0.47111750
  -0.01675654  0.03351308  0.55394654
   0.81936318  0.36127363  0.56029111
Direct configuration=    31
  -0.00006411  0.00012822 -0.00106715
   0.33327903  0.33344195  0.06528244
   0.66714717  0.66570565  0.13358388
   0.00132671 -0.00265341  0.20152490
   0.33802879  0.32394241  0.26775650
   0.67412745  0.65174511  0.33770703
   0.01045384 -0.02090769  0.40513077
   0.34326676  0.31346647  0.47187430
  -0.02199193  0.04398385  0.55659616
   0.81996170  0.36007659  0.56553746
Direct configuration=    32
  -0.00006623  0.00013247 -0.00164845
   0.33327729  0.33344543  0.06497580
   0.66721341  0.66557318  0.13324426
   0.00150750 -0.00301499  0.20118895
   0.33835721  0.32328558  0.26777141
   0.67445993  0.65108013  0.33754414
   0.01058733 -0.02117465  0.40515408
   0.34311678  0.31376643  0.47206238
  -0.02258808  0.04517617  0.55703061
   0.81967030  0.36065941  0.56660310
Direct configuration=    33
  -0.00007121  0.00014241 -0.00300920
   0.33327321  0.33345357  0.06425800
   0.66736845  0.66526310  0.13244927
   0.00193070 -0.00386140  0.20040252
   0.33912598  0.32174803  0.26780632
   0.67523824  0.64952352  0.33716284
   0.01089980 -0.02179959  0.40520864
   0.34276570  0.31446861  0.47250265
  -0.02398361  0.04796722  0.55804762
   0.81898815  0.36202371  0.56909764
Direct configuration=    34
  -0.00007382  0.00014765 -0.00376683
   0.33328910  0.33342181  0.06385915
   0.66746765  0.66506469  0.13192911
   0.00224616 -0.00449232  0.19997385
   0.33950994  0.32098012  0.26797132
   0.67564307  0.64871386  0.33686349
   0.01097873 -0.02195745  0.40524399
   0.34263823  0.31472354  0.47275463
  -0.02706710  0.05413420  0.55871087
   0.82090347  0.35819306  0.57038670
Direct configuration=    35
  -0.00007433  0.00014865 -0.00391217
   0.33329214  0.33341571  0.06378264
   0.66748668  0.66502663  0.13182933
   0.00230668 -0.00461335  0.19989162
   0.33958360  0.32083281  0.26800298
   0.67572073  0.64855854  0.33680606
   0.01099387 -0.02198774  0.40525077
   0.34261378  0.31477244  0.47280297
  -0.02765863  0.05531725  0.55883811
   0.82127090  0.35745821  0.57063399
Direct configuration=    36
  -0.00007412  0.00014824 -0.00385238
   0.33329089  0.33341822  0.06381412
   0.66747885  0.66504229  0.13187038
   0.00228178 -0.00456356  0.19992545
   0.33955329  0.32089341  0.26798995
   0.67568878  0.64862244  0.33682969
   0.01098764 -0.02197528  0.40524798
   0.34262384  0.31475232  0.47278308
  -0.02741527  0.05483054  0.55878576
   0.82111973  0.35776053  0.57053225
Direct configuration=    37
  -0.00007426  0.00014852 -0.00389227
   0.33329173  0.33341655  0.06379311
   0.66748408  0.66503184  0.13184299
   0.00229839 -0.00459678  0.19990287
   0.33957351  0.32085297  0.26799864
   0.67571010  0.64857980  0.33681393
   0.01099180 -0.02198359  0.40524984
   0.34261713  0.31476575  0.47279635
  -0.02757765  0.05515530  0.55882069
   0.82122060  0.35755881  0.57060013
Direct configuration=    38
  -0.00007418  0.00014836 -0.00386916
   0.33329124  0.33341752  0.06380528
   0.66748105  0.66503790  0.13185886
   0.00228877 -0.00457753  0.19991595
   0.33956180  0.32087640  0.26799361
   0.67569775  0.64860451  0.33682306
   0.01098939 -0.02197877  0.40524876
   0.34262102  0.31475797  0.47278866
  -0.02748357  0.05496713  0.55880045
   0.82116216  0.35767569  0.57056080
Direct configuration=    39
  -0.00007424  0.00014847 -0.00388560
   0.33329159  0.33341683  0.06379663
   0.66748320  0.66503359  0.13184757
   0.00229561 -0.00459123  0.19990665
   0.33957013  0.32085974  0.26799719
   0.67570653  0.64858694  0.33681656
   0.01099110 -0.02198220  0.40524953
   0.34261825  0.31476350  0.47279413
  -0.02755049  0.05510098  0.55881485
   0.82120373  0.35759255  0.57058878
Direct configuration=    40
  -0.00007424  0.00014849 -0.00388776
   0.33329163  0.33341674  0.06379549
   0.66748349  0.66503302  0.13184608
   0.00229651 -0.00459303  0.19990542
   0.33957123  0.32085754  0.26799766
   0.67570769  0.64858462  0.33681571
   0.01099133 -0.02198265  0.40524963
   0.34261789  0.31476423  0.47279485
  -0.02755930  0.05511859  0.55881674
   0.82120920  0.35758160  0.57059246
Direct configuration=    41
  -0.00007424  0.00014847 -0.00388581
   0.33329159  0.33341682  0.06379652
   0.66748323  0.66503354  0.13184743
   0.00229570 -0.00459140  0.19990653
   0.33957024  0.32085953  0.26799724
   0.67570664  0.64858672  0.33681648
   0.01099112 -0.02198224  0.40524954
   0.34261822  0.31476357  0.47279420
  -0.02755133  0.05510266  0.55881503
   0.82120425  0.35759150  0.57058913
Direct configuration=    42
  -0.00007424  0.00014848 -0.00388679
   0.33329161  0.33341678  0.06379600
   0.66748336  0.66503328  0.13184675
   0.00229611 -0.00459221  0.19990598
   0.33957073  0.32085854  0.26799745
   0.67570717  0.64858567  0.33681609
   0.01099122 -0.02198245  0.40524958
   0.34261805  0.31476390  0.47279453
  -0.02755531  0.05511063  0.55881589
   0.82120672  0.35758655  0.57059080
Direct configuration=    43
  -0.00007424  0.00014848 -0.00388629
   0.33329160  0.33341680  0.06379626
   0.66748330  0.66503341  0.13184709
   0.00229590 -0.00459181  0.19990626
   0.33957048  0.32085903  0.26799734
   0.67570690  0.64858619  0.33681629
   0.01099117 -0.02198235  0.40524956
   0.34261813  0.31476373  0.47279436
  -0.02755331  0.05510663  0.55881546
   0.82120548  0.35758904  0.57058996
Direct configuration=    44
  -0.00007210  0.00014421 -0.00376224
   0.33331199  0.33337601  0.06376609
   0.66748930  0.66502139  0.13184692
   0.00233807 -0.00467614  0.20002915
   0.33950680  0.32098640  0.26798904
   0.67563106  0.64873787  0.33685799
   0.01089578 -0.02179155  0.40524376
   0.34270237  0.31459526  0.47274080
  -0.02784789  0.05569578  0.55872874
   0.82158003  0.35683994  0.57048603
Direct configuration=    45
  -0.00007078  0.00014156 -0.00368540
   0.33332463  0.33335075  0.06374740
   0.66749303  0.66501395  0.13184682
   0.00236419 -0.00472838  0.20010526
   0.33946736  0.32106528  0.26798390
   0.67558409  0.64883181  0.33688382
   0.01083669 -0.02167338  0.40524017
   0.34275455  0.31449091  0.47270763
  -0.02803034  0.05606068  0.55867502
   0.82181201  0.35637597  0.57042166
Direct configuration=    46
  -0.00006814  0.00013627 -0.00353173
   0.33334989  0.33330022  0.06371003
   0.66750047  0.66499906  0.13184661
   0.00241643 -0.00483285  0.20025749
   0.33938847  0.32122305  0.26797361
   0.67549015  0.64901970  0.33693547
   0.01071852 -0.02143703  0.40523299
   0.34285890  0.31428221  0.47264129
  -0.02839524  0.05679048  0.55856760
   0.82227598  0.35544803  0.57029292
Direct configuration=    47
  -0.00007019  0.00014038 -0.00365111
   0.33333026  0.33333947  0.06373906
   0.66749469  0.66501063  0.13184677
   0.00237585 -0.00475170  0.20013924
   0.33944975  0.32110049  0.26798160
   0.67556313  0.64887375  0.33689535
   0.01081032 -0.02162063  0.40523857
   0.34277783  0.31444433  0.47269283
  -0.02811177  0.05622355  0.55865105
   0.82191556  0.35616889  0.57039293
Direct configuration=    48
  -0.00006916  0.00013833 -0.00359142
   0.33334008  0.33331985  0.06372455
   0.66749758  0.66500485  0.13184669
   0.00239614 -0.00479227  0.20019836
   0.33941911  0.32116177  0.26797761
   0.67552664  0.64894672  0.33691541
   0.01076442 -0.02152883  0.40523578
   0.34281837  0.31436327  0.47266706
  -0.02825351  0.05650702  0.55860933
   0.82209577  0.35580846  0.57034292
Direct configuration=    49
  -0.00006984  0.00013967 -0.00363051
   0.33333365  0.33333270  0.06373405
   0.66749568  0.66500863  0.13184675
   0.00238285 -0.00476570  0.20015964
   0.33943918  0.32112164  0.26798022
   0.67555053  0.64889893  0.33690227
   0.01079447 -0.02158895  0.40523761
   0.34279182  0.31441635  0.47268393
  -0.02816069  0.05632139  0.55863665
   0.82197776  0.35604449  0.57037567
Direct configuration=    50
  -0.00006495  0.00012990 -0.00349845
   0.33337925  0.33324150  0.06368367
   0.66752171  0.66495658  0.13181935
   0.00250502 -0.00501005  0.20029438
   0.33934281  0.32131438  0.26803465
   0.67543434  0.64913131  0.33692624
   0.01060758 -0.02121516  0.40522390
   0.34294838  0.31410325  0.47261029
  -0.02803198  0.05606397  0.55845349
   0.82189327  0.35621347  0.57037877
Direct configuration=    51
  -0.00006322  0.00012644 -0.00345167
   0.33339540  0.33320920  0.06366582
   0.66753093  0.66493814  0.13180965
   0.00254830 -0.00509661  0.20034211
   0.33930867  0.32138266  0.26805393
   0.67539318  0.64921363  0.33693473
   0.01054138 -0.02108275  0.40521905
   0.34300383  0.31399234  0.47258420
  -0.02798639  0.05597278  0.55838861
   0.82186333  0.35627333  0.57037987
Direct configuration=    52
  -0.00006231  0.00012462 -0.00342439
   0.33342557  0.33314885  0.06366942
   0.66755614  0.66488772  0.13179557
   0.00265895 -0.00531790  0.20036429
   0.33925158  0.32149684  0.26815228
   0.67531269  0.64937463  0.33693593
   0.01041420 -0.02082841  0.40521840
   0.34310982  0.31378037  0.47255932
  -0.02836000  0.05672001  0.55824352
   0.82222878  0.35554244  0.57041194
Direct configuration=    53
  -0.00005957  0.00011915 -0.00334255
   0.33351609  0.33296781  0.06368021
   0.66763178  0.66473643  0.13175334
   0.00299088 -0.00598176  0.20043085
   0.33908031  0.32183938  0.26844735
   0.67507119  0.64985762  0.33693953
   0.01003269 -0.02006538  0.40521646
   0.34342777  0.31314446  0.47248469
  -0.02948084  0.05896168  0.55780826
   0.82332512  0.35334975  0.57050816
Direct configuration=    54
  -0.00005411  0.00010821 -0.00317888
   0.33369714  0.33260573  0.06370178
   0.66778307  0.66443387  0.13166888
   0.00365475 -0.00730949  0.20056396
   0.33873776  0.32252447  0.26903748
   0.67458820  0.65082360  0.33694673
   0.00926966 -0.01853932  0.40521257
   0.34406367  0.31187266  0.47233543
  -0.03172252  0.06344504  0.55693773
   0.82551781  0.34896439  0.57070059
Direct configuration=    55
  -0.00005772  0.00011544 -0.00328705
   0.33357748  0.33284503  0.06368752
   0.66768308  0.66463384  0.13172470
   0.00321599 -0.00643197  0.20047599
   0.33896416  0.32207168  0.26864745
   0.67490742  0.65018517  0.33694197
   0.00977396 -0.01954792  0.40521514
   0.34364339  0.31271322  0.47243408
  -0.03024096  0.06048191  0.55751308
   0.82406862  0.35186276  0.57057341
Direct configuration=    56
  -0.00005591  0.00011183 -0.00323297
   0.33363731  0.33272538  0.06369465
   0.66773307  0.66453385  0.13169679
   0.00343537 -0.00687073  0.20051997
   0.33885096  0.32229808  0.26884247
   0.67474781  0.65050438  0.33694435
   0.00952181 -0.01904362  0.40521386
   0.34385353  0.31229294  0.47238476
  -0.03098174  0.06196348  0.55722540
   0.82479321  0.35041357  0.57063700
Direct configuration=    57
  -0.00005053  0.00010107 -0.00323186
   0.33365976  0.33268047  0.06371467
   0.66776652  0.66446695  0.13171873
   0.00354027 -0.00708055  0.20055062
   0.33880443  0.32239113  0.26887709
   0.67465349  0.65069301  0.33698136
   0.00940670 -0.01881341  0.40519535
   0.34395767  0.31208466  0.47237162
  -0.03137667  0.06275334  0.55705756
   0.82517377  0.34965247  0.57069116
Direct configuration=    58
  -0.00003440  0.00006880 -0.00322853
   0.33372713  0.33254575  0.06377472
   0.66786688  0.66426625  0.13178456
   0.00385499 -0.00770999  0.20064255
   0.33866485  0.32267029  0.26898094
   0.67437055  0.65125891  0.33709240
   0.00906138 -0.01812276  0.40513982
   0.34427009  0.31145982  0.47233219
  -0.03256147  0.06512295  0.55655401
   0.82631543  0.34736915  0.57085363
Direct configuration=    59
  -0.00000212  0.00000425 -0.00322189
   0.33386185  0.33227630  0.06389481
   0.66806758  0.66386485  0.13191621
   0.00448444 -0.00896888  0.20082641
   0.33838569  0.32322861  0.26918865
   0.67380465  0.65239070  0.33731448
   0.00837073 -0.01674147  0.40502876
   0.34489493  0.31021014  0.47225334
  -0.03493108  0.06986215  0.55554693
   0.82859875  0.34280251  0.57117859
Direct configuration=    60
   0.00000400 -0.00000800 -0.00322407
   0.33388221  0.33223559  0.06391190
   0.66810234  0.66379533  0.13194454
   0.00456925 -0.00913850  0.20085508
   0.33835073  0.32329855  0.26920050
   0.67371720  0.65256560  0.33734625
   0.00828492 -0.01656985  0.40502257
   0.34497248  0.31005505  0.47224701
  -0.03547902  0.07095805  0.55540985
   0.82913133  0.34173734  0.57121267
Direct configuration=    61
   0.00002237 -0.00004473 -0.00323060
   0.33394326  0.33211348  0.06396316
   0.66820661  0.66358677  0.13202954
   0.00482369 -0.00964738  0.20094108
   0.33824583  0.32350835  0.26923602
   0.67345484  0.65309031  0.33744154
   0.00802750 -0.01605500  0.40500399
   0.34520511  0.30958978  0.47222802
  -0.03712287  0.07424574  0.55499861
   0.83072908  0.33854185  0.57131491
Direct configuration=    62
   0.00005910 -0.00011821 -0.00324367
   0.33406538  0.33186925  0.06406570
   0.66841517  0.66316967  0.13219953
   0.00533257 -0.01066514  0.20111310
   0.33803602  0.32392795  0.26930708
   0.67293013  0.65413974  0.33763212
   0.00751265 -0.01502531  0.40496684
   0.34567038  0.30865923  0.47219005
  -0.04041056  0.08082111  0.55417614
   0.83392457  0.33215086  0.57151941
Direct configuration=    63
   0.00013258 -0.00026516 -0.00326982
   0.33430961  0.33138079  0.06427076
   0.66883228  0.66233545  0.13253951
   0.00635033 -0.01270065  0.20145713
   0.33761642  0.32476716  0.26944919
   0.67188070  0.65623860  0.33801330
   0.00648296 -0.01296592  0.40489254
   0.34660093  0.30679814  0.47211409
  -0.04698593  0.09397187  0.55253119
   0.84031556  0.31936889  0.57192839
Direct configuration=    64
   0.00009150 -0.00018301 -0.00325520
   0.33417307  0.33165385  0.06415612
   0.66859910  0.66280180  0.13234945
   0.00578137 -0.01156273  0.20126480
   0.33785099  0.32429801  0.26936975
   0.67246737  0.65506527  0.33780021
   0.00705859 -0.01411719  0.40493408
   0.34608072  0.30783855  0.47215655
  -0.04331009  0.08662018  0.55345077
   0.83674279  0.32651442  0.57169976
Direct configuration=    65
   0.00011204 -0.00022408 -0.00326251
   0.33424134  0.33151732  0.06421344
   0.66871569  0.66256863  0.13244448
   0.00606585 -0.01213169  0.20136096
   0.33773371  0.32453259  0.26940947
   0.67217403  0.65565193  0.33790675
   0.00677078 -0.01354155  0.40491331
   0.34634083  0.30731835  0.47213532
  -0.04514801  0.09029602  0.55299098
   0.83852917  0.32294165  0.57181408
Direct configuration=    66
   0.00011948 -0.00023897 -0.00323943
   0.33425030  0.33149940  0.06420034
   0.66876639  0.66246723  0.13248144
   0.00602580 -0.01205160  0.20135862
   0.33776649  0.32446702  0.26938841
   0.67212251  0.65575497  0.33782639
   0.00687303 -0.01374606  0.40501543
   0.34622244  0.30755511  0.47216471
  -0.04596234  0.09192468  0.55295407
   0.83935132  0.32129737  0.57177631
Direct configuration=    67
   0.00012579 -0.00025159 -0.00321986
   0.33425790  0.33148421  0.06418924
   0.66880938  0.66238124  0.13251277
   0.00599184 -0.01198369  0.20135663
   0.33779429  0.32441143  0.26937054
   0.67207883  0.65584235  0.33775825
   0.00695974 -0.01391948  0.40510202
   0.34612206  0.30775589  0.47218964
  -0.04665289  0.09330579  0.55292276
   0.84004849  0.31990301  0.57174429
Direct configuration=    68
   0.00014169 -0.00028339 -0.00319991
   0.33427139  0.33145722  0.06419064
   0.66886385  0.66227230  0.13253009
   0.00590191 -0.01180382  0.20133594
   0.33785059  0.32429881  0.26933220
   0.67205390  0.65589219  0.33765664
   0.00711613 -0.01423226  0.40522571
   0.34592654  0.30814692  0.47224304
  -0.04681325  0.09362649  0.55281142
   0.84022266  0.31955468  0.57180053
Direct configuration=    69
   0.00016297 -0.00032594 -0.00317321
   0.33428945  0.33142109  0.06419252
   0.66893675  0.66212649  0.13255327
   0.00578153 -0.01156307  0.20130824
   0.33792596  0.32414808  0.26928087
   0.67202054  0.65595891  0.33752063
   0.00732546 -0.01465091  0.40539127
   0.34566484  0.30867031  0.47231451
  -0.04702788  0.09405576  0.55266239
   0.84045578  0.31908843  0.57187580
Direct configuration=    70
   0.00018474 -0.00036947 -0.00315532
   0.33431053  0.33137894  0.06421183
   0.66900139  0.66199723  0.13256069
   0.00565062 -0.01130123  0.20128298
   0.33799455  0.32401090  0.26921484
   0.67202715  0.65594571  0.33748476
   0.00750988 -0.01501976  0.40543795
   0.34541058  0.30917883  0.47240450
  -0.04748706  0.09497412  0.55260065
   0.84093306  0.31813389  0.57188339
Direct configuration=    71
   0.00025003 -0.00050006 -0.00310163
   0.33437375  0.33125250  0.06426978
   0.66919529  0.66160943  0.13258296
   0.00525786 -0.01051573  0.20120719
   0.33820032  0.32359935  0.26901676
   0.67204696  0.65590609  0.33737715
   0.00806314 -0.01612628  0.40557800
   0.34464781  0.31070439  0.47267448
  -0.04886461  0.09772922  0.55241543
   0.84236487  0.31527025  0.57190617
Direct configuration=    72
   0.00027950 -0.00055900 -0.00307538
   0.33440203  0.33119594  0.06428802
   0.66925175  0.66149651  0.13257598
   0.00512355 -0.01024710  0.20116776
   0.33826660  0.32346680  0.26895691
   0.67208804  0.65582392  0.33737776
   0.00823001 -0.01646002  0.40559266
   0.34436262  0.31127477  0.47277288
  -0.04914480  0.09828961  0.55230596
   0.84267613  0.31464774  0.57196374
Direct configuration=    73
   0.00031346 -0.00062692 -0.00304513
   0.33443461  0.33113079  0.06430902
   0.66931679  0.66136643  0.13256793
   0.00496882 -0.00993764  0.20112233
   0.33834295  0.32331410  0.26888797
   0.67213537  0.65572926  0.33737847
   0.00842225 -0.01684450  0.40560955
   0.34403407  0.31193187  0.47288624
  -0.04946759  0.09893519  0.55217984
   0.84303471  0.31393058  0.57203007