  10  10   0   0
  0.2234684E+02  0.3630000E-09  0.2566798E-09  0.2398379E-08  0.5000000E-15
  1.000000000000000E-004
  CAR 
 unknown system                          
     11.73486633    -10.06193301  301      0.80298378      1.00000000
    -10.062  0.0000E+00  0.0000E+00  0.0000E+00  0.0000E+00
     -9.989  0.0000E+00  0.0000E+00  0.0000E+00  0.0000E+00
     -9.917  0.0000E+00  0.0000E+00  0.0000E+00  0.0000E+00
     -9.844  0.0000E+00  0.0000E+00  0.0000E+00  0.0000E+00
     -9.771  0.0000E+00  0.0000E+00  0.0000E+00  0.0000E+00
     -9.699 -0.3626E-31 -0.3626E-31 -0.2635E-32 -0.2635E-32
     -9.626 -0.1157E-28 -0.1157E-28 -0.8433E-30 -0.8433E-30
     -9.553 -0.2835E-26 -0.2835E-26 -0.2068E-27 -0.2068E-27
     -9.481 -0.5321E-24 -0.5321E-24 -0.3887E-25 -0.3887E-25
     -9.408 -0.7648E-22 -0.7648E-22 -0.5596E-23 -0.5596E-23
     -9.335 -0.8413E-20 -0.8413E-20 -0.6168E-21 -0.6168E-21
     -9.263 -0.7080E-18 -0.7080E-18 -0.5205E-19 -0.5205E-19
     -9.190 -0.4417E-16 -0.4417E-16 -0.3261E-17 -0.3261E-17
     -9.117 -0.2159E-14 -0.2159E-14 -0.1602E-15 -0.1602E-15
     -9.045 -0.8055E-13 -0.8055E-13 -0.6013E-14 -0.6013E-14
     -8.972 -0.2287E-11 -0.2287E-11 -0.1722E-12 -0.1722E-12
     -8.899 -0.4932E-10 -0.4932E-10 -0.3756E-11 -0.3756E-11
     -8.827 -0.8055E-09 -0.8055E-09 -0.6228E-10 -0.6228E-10
     -8.754 -0.9920E-08 -0.9920E-08 -0.7830E-09 -0.7830E-09
     -8.681 -0.9155E-07 -0.9155E-07 -0.7435E-08 -0.7435E-08
     -8.609 -0.6269E-06 -0.6269E-06 -0.5299E-07 -0.5299E-07
     -8.536 -0.3132E-05 -0.3132E-05 -0.2805E-06 -0.2805E-06
     -8.464 -0.1104E-04 -0.1104E-04 -0.1082E-05 -0.1082E-05
     -8.391 -0.2528E-04 -0.2528E-04 -0.2919E-05 -0.2919E-05
     -8.318 -0.2673E-04 -0.2673E-04 -0.4861E-05 -0.4861E-05
     -8.246  0.3940E-04  0.3940E-04 -0.1999E-05 -0.1999E-05
     -8.173  0.2212E-03  0.2212E-03  0.1408E-04  0.1408E-04
     -8.100  0.4586E-03  0.4586E-03  0.4739E-04  0.4739E-04
     -8.028  0.5770E-03  0.5770E-03  0.8932E-04  0.8932E-04
     -7.955  0.4697E-03  0.4697E-03  0.1234E-03  0.1234E-03
     -7.882  0.2339E-03  0.2339E-03  0.1404E-03  0.1404E-03
     -7.810  0.4608E-04  0.4608E-04  0.1438E-03  0.1438E-03
     -7.737 -0.2595E-04 -0.2595E-04  0.1419E-03  0.1419E-03
     -7.664 -0.2841E-04 -0.2841E-04  0.1398E-03  0.1398E-03
     -7.592 -0.2068E-04 -0.2068E-04  0.1383E-03  0.1383E-03
     -7.519 -0.2597E-04 -0.2597E-04  0.1364E-03  0.1364E-03
     -7.446 -0.3034E-04 -0.3034E-04  0.1342E-03  0.1342E-03
     -7.374  0.1793E-04  0.1793E-04  0.1355E-03  0.1355E-03
     -7.301  0.1743E-03  0.1743E-03  0.1482E-03  0.1482E-03
     -7.228  0.3983E-03  0.3983E-03  0.1771E-03  0.1771E-03
     -7.156  0.5213E-03  0.5213E-03  0.2150E-03  0.2150E-03
     -7.083  0.4322E-03  0.4322E-03  0.2464E-03  0.2464E-03
     -7.010  0.2884E-03  0.2884E-03  0.2674E-03  0.2674E-03
     -6.938  0.3944E-03  0.3944E-03  0.2960E-03  0.2960E-03
     -6.865  0.8282E-03  0.8282E-03  0.3562E-03  0.3562E-03
     -6.792  0.1326E-02  0.1326E-02  0.4525E-03  0.4525E-03
     -6.720  0.1614E-02  0.1614E-02  0.5698E-03  0.5698E-03
     -6.647  0.1682E-02  0.1682E-02  0.6920E-03  0.6920E-03
     -6.574  0.1601E-02  0.1601E-02  0.8083E-03  0.8083E-03
     -6.502  0.1308E-02  0.1308E-02  0.9034E-03  0.9034E-03
     -6.429  0.7999E-03  0.7999E-03  0.9615E-03  0.9615E-03
     -6.356  0.2891E-03  0.2891E-03  0.9825E-03  0.9825E-03
     -6.284 -0.1055E-04 -0.1055E-04  0.9817E-03  0.9817E-03
     -6.211 -0.1042E-03 -0.1042E-03  0.9742E-03  0.9742E-03
     -6.139 -0.1182E-03 -0.1182E-03  0.9656E-03  0.9656E-03
     -6.066 -0.9468E-04 -0.9468E-04  0.9587E-03  0.9587E-03
     -5.993  0.7315E-04  0.7315E-04  0.9640E-03  0.9640E-03
     -5.921  0.5093E-03  0.5093E-03  0.1001E-02  0.1001E-02
     -5.848  0.1141E-02  0.1141E-02  0.1084E-02  0.1084E-02
     -5.775  0.1700E-02  0.1700E-02  0.1207E-02  0.1207E-02
     -5.703  0.2058E-02  0.2058E-02  0.1357E-02  0.1357E-02
     -5.630  0.2442E-02  0.2442E-02  0.1534E-02  0.1534E-02
     -5.557  0.3075E-02  0.3075E-02  0.1758E-02  0.1758E-02
     -5.485  0.3634E-02  0.3634E-02  0.2022E-02  0.2022E-02
     -5.412  0.3449E-02  0.3449E-02  0.2272E-02  0.2272E-02
     -5.339  0.2359E-02  0.2359E-02  0.2444E-02  0.2444E-02
     -5.267  0.9959E-03  0.9959E-03  0.2516E-02  0.2516E-02
     -5.194  0.5986E-04  0.5986E-04  0.2521E-02  0.2521E-02
     -5.121 -0.3210E-03 -0.3210E-03  0.2497E-02  0.2497E-02
     -5.049 -0.3388E-03 -0.3388E-03  0.2473E-02  0.2473E-02
     -4.976  0.7384E-04  0.7384E-04  0.2478E-02  0.2478E-02
     -4.903  0.1237E-02  0.1237E-02  0.2568E-02  0.2568E-02
     -4.831  0.3000E-02  0.3000E-02  0.2786E-02  0.2786E-02
     -4.758  0.4312E-02  0.4312E-02  0.3099E-02  0.3099E-02
     -4.685  0.4095E-02  0.4095E-02  0.3397E-02  0.3397E-02
     -4.613  0.2530E-02  0.2530E-02  0.3580E-02  0.3580E-02
     -4.540  0.8338E-03  0.8338E-03  0.3641E-02  0.3641E-02
     -4.467 -0.1355E-03 -0.1355E-03  0.3631E-02  0.3631E-02
     -4.395 -0.4392E-03 -0.4392E-03  0.3599E-02  0.3599E-02
     -4.322 -0.3620E-03 -0.3620E-03  0.3573E-02  0.3573E-02
     -4.249  0.2701E-03  0.2701E-03  0.3593E-02  0.3593E-02
     -4.177  0.1839E-02  0.1839E-02  0.3726E-02  0.3726E-02
     -4.104  0.4023E-02  0.4023E-02  0.4019E-02  0.4019E-02
     -4.031  0.5505E-02  0.5505E-02  0.4419E-02  0.4419E-02
     -3.959  0.5169E-02  0.5169E-02  0.4794E-02  0.4794E-02
     -3.886  0.3460E-02  0.3460E-02  0.5045E-02  0.5045E-02
     -3.814  0.1952E-02  0.1952E-02  0.5187E-02  0.5187E-02
     -3.741  0.1648E-02  0.1648E-02  0.5307E-02  0.5307E-02
     -3.668  0.2279E-02  0.2279E-02  0.5473E-02  0.5473E-02
     -3.596  0.3197E-02  0.3197E-02  0.5705E-02  0.5705E-02
     -3.523  0.4242E-02  0.4242E-02  0.6013E-02  0.6013E-02
     -3.450  0.5453E-02  0.5453E-02  0.6409E-02  0.6409E-02
     -3.378  0.6559E-02  0.6559E-02  0.6886E-02  0.6886E-02
     -3.305  0.7300E-02  0.7300E-02  0.7416E-02  0.7416E-02
     -3.232  0.7911E-02  0.7911E-02  0.7991E-02  0.7991E-02
     -3.160  0.8777E-02  0.8777E-02  0.8629E-02  0.8629E-02
     -3.087  0.9876E-02  0.9876E-02  0.9346E-02  0.9346E-02
     -3.014  0.1094E-01  0.1094E-01  0.1014E-01  0.1014E-01
     -2.942  0.1169E-01  0.1169E-01  0.1099E-01  0.1099E-01
     -2.869  0.1168E-01  0.1168E-01  0.1184E-01  0.1184E-01
     -2.796  0.1058E-01  0.1058E-01  0.1261E-01  0.1261E-01
     -2.724  0.8995E-02  0.8995E-02  0.1326E-01  0.1326E-01
     -2.651  0.8274E-02  0.8274E-02  0.1386E-01  0.1386E-01
     -2.578  0.9081E-02  0.9081E-02  0.1452E-01  0.1452E-01
     -2.506  0.1058E-01  0.1058E-01  0.1529E-01  0.1529E-01
     -2.433  0.1171E-01  0.1171E-01  0.1614E-01  0.1614E-01
     -2.360  0.1258E-01  0.1258E-01  0.1706E-01  0.1706E-01
     -2.288  0.1372E-01  0.1372E-01  0.1805E-01  0.1805E-01
     -2.215  0.1460E-01  0.1460E-01  0.1911E-01  0.1911E-01
     -2.142  0.1471E-01  0.1471E-01  0.2018E-01  0.2018E-01
     -2.070  0.1520E-01  0.1520E-01  0.2129E-01  0.2129E-01
     -1.997  0.1750E-01  0.1750E-01  0.2256E-01  0.2256E-01
     -1.924  0.2059E-01  0.2059E-01  0.2405E-01  0.2405E-01
     -1.852  0.2175E-01  0.2175E-01  0.2563E-01  0.2563E-01
     -1.779  0.2002E-01  0.2002E-01  0.2709E-01  0.2709E-01
     -1.706  0.1727E-01  0.1727E-01  0.2834E-01  0.2834E-01
     -1.634  0.1551E-01  0.1551E-01  0.2947E-01  0.2947E-01
     -1.561  0.1469E-01  0.1469E-01  0.3054E-01  0.3054E-01
     -1.489  0.1347E-01  0.1347E-01  0.3152E-01  0.3152E-01
     -1.416  0.1156E-01  0.1156E-01  0.3236E-01  0.3236E-01
     -1.343  0.1050E-01  0.1050E-01  0.3312E-01  0.3312E-01
     -1.271  0.1207E-01  0.1207E-01  0.3400E-01  0.3400E-01
     -1.198  0.1631E-01  0.1631E-01  0.3518E-01  0.3518E-01
     -1.125  0.2145E-01  0.2145E-01  0.3674E-01  0.3674E-01
     -1.053  0.2517E-01  0.2517E-01  0.3857E-01  0.3857E-01
     -0.980  0.2573E-01  0.2573E-01  0.4044E-01  0.4044E-01
     -0.907  0.2333E-01  0.2333E-01  0.4213E-01  0.4213E-01
     -0.835  0.2060E-01  0.2060E-01  0.4363E-01  0.4363E-01
     -0.762  0.2021E-01  0.2021E-01  0.4510E-01  0.4510E-01
     -0.689  0.2189E-01  0.2189E-01  0.4669E-01  0.4669E-01
     -0.617  0.2323E-01  0.2323E-01  0.4838E-01  0.4838E-01
     -0.544  0.2270E-01  0.2270E-01  0.5003E-01  0.5003E-01
     -0.471  0.2040E-01  0.2040E-01  0.5151E-01  0.5151E-01
     -0.399  0.1681E-01  0.1681E-01  0.5273E-01  0.5273E-01
     -0.326  0.1259E-01  0.1259E-01  0.5364E-01  0.5364E-01
     -0.253  0.8700E-02  0.8700E-02  0.5428E-01  0.5428E-01
     -0.181  0.5824E-02  0.5824E-02  0.5470E-01  0.5470E-01
     -0.108  0.3766E-02  0.3766E-02  0.5497E-01  0.5497E-01
     -0.035  0.2060E-02  0.2060E-02  0.5512E-01  0.5512E-01
      0.037  0.7027E-03  0.7027E-03  0.5517E-01  0.5517E-01
      0.110 -0.7374E-04 -0.7374E-04  0.5517E-01  0.5517E-01
      0.183 -0.3122E-03 -0.3122E-03  0.5515E-01  0.5515E-01
      0.255 -0.2525E-03 -0.2525E-03  0.5513E-01  0.5513E-01
      0.328  0.3118E-04  0.3118E-04  0.5513E-01  0.5513E-01
      0.401  0.6280E-03  0.6280E-03  0.5517E-01  0.5517E-01
      0.473  0.1484E-02  0.1484E-02  0.5528E-01  0.5528E-01
      0.546  0.2342E-02  0.2342E-02  0.5545E-01  0.5545E-01
      0.618  0.3018E-02  0.3018E-02  0.5567E-01  0.5567E-01
      0.691  0.3396E-02  0.3396E-02  0.5592E-01  0.5592E-01
      0.764  0.3192E-02  0.3192E-02  0.5615E-01  0.5615E-01
      0.836  0.2255E-02  0.2255E-02  0.5631E-01  0.5631E-01
      0.909  0.1076E-02  0.1076E-02  0.5639E-01  0.5639E-01
      0.982  0.4410E-03  0.4410E-03  0.5642E-01  0.5642E-01
      1.054  0.5619E-03  0.5619E-03  0.5647E-01  0.5647E-01
      1.127  0.9240E-03  0.9240E-03  0.5653E-01  0.5653E-01
      1.200  0.9614E-03  0.9614E-03  0.5660E-01  0.5660E-01
      1.272  0.6911E-03  0.6911E-03  0.5665E-01  0.5665E-01
      1.345  0.5558E-03  0.5558E-03  0.5669E-01  0.5669E-01
      1.418  0.7429E-03  0.7429E-03  0.5675E-01  0.5675E-01
      1.490  0.9655E-03  0.9655E-03  0.5682E-01  0.5682E-01
      1.563  0.1026E-02  0.1026E-02  0.5689E-01  0.5689E-01
      1.636  0.1213E-02  0.1213E-02  0.5698E-01  0.5698E-01
      1.708  0.1756E-02  0.1756E-02  0.5711E-01  0.5711E-01
      1.781  0.2193E-02  0.2193E-02  0.5727E-01  0.5727E-01
      1.854  0.1892E-02  0.1892E-02  0.5740E-01  0.5740E-01
      1.926  0.1014E-02  0.1014E-02  0.5748E-01  0.5748E-01
      1.999  0.4291E-03  0.4291E-03  0.5751E-01  0.5751E-01
      2.072  0.7293E-03  0.7293E-03  0.5756E-01  0.5756E-01
      2.144  0.1597E-02  0.1597E-02  0.5768E-01  0.5768E-01
      2.217  0.2166E-02  0.2166E-02  0.5784E-01  0.5784E-01
      2.290  0.2022E-02  0.2022E-02  0.5798E-01  0.5798E-01
      2.362  0.1625E-02  0.1625E-02  0.5810E-01  0.5810E-01
      2.435  0.1510E-02  0.1510E-02  0.5821E-01  0.5821E-01
      2.508  0.1604E-02  0.1604E-02  0.5833E-01  0.5833E-01
      2.580  0.1704E-02  0.1704E-02  0.5845E-01  0.5845E-01
      2.653  0.1924E-02  0.1924E-02  0.5859E-01  0.5859E-01
      2.726  0.2233E-02  0.2233E-02  0.5875E-01  0.5875E-01
      2.798  0.2299E-02  0.2299E-02  0.5892E-01  0.5892E-01
      2.871  0.2106E-02  0.2106E-02  0.5907E-01  0.5907E-01
      2.943  0.2015E-02  0.2015E-02  0.5922E-01  0.5922E-01
      3.016  0.2113E-02  0.2113E-02  0.5937E-01  0.5937E-01
      3.089  0.2077E-02  0.2077E-02  0.5952E-01  0.5952E-01
      3.161  0.1649E-02  0.1649E-02  0.5964E-01  0.5964E-01
      3.234  0.9499E-03  0.9499E-03  0.5971E-01  0.5971E-01
      3.307  0.3210E-03  0.3210E-03  0.5974E-01  0.5974E-01
      3.379 -0.1321E-04 -0.1321E-04  0.5973E-01  0.5973E-01
      3.452 -0.8898E-04 -0.8898E-04  0.5973E-01  0.5973E-01
      3.525 -0.6433E-04 -0.6433E-04  0.5972E-01  0.5972E-01
      3.597 -0.5497E-04 -0.5497E-04  0.5972E-01  0.5972E-01
      3.670 -0.1072E-03 -0.1072E-03  0.5971E-01  0.5971E-01
      3.743 -0.1986E-03 -0.1986E-03  0.5970E-01  0.5970E-01
      3.815 -0.1461E-03 -0.1461E-03  0.5969E-01  0.5969E-01
      3.888  0.4378E-03  0.4378E-03  0.5972E-01  0.5972E-01
      3.961  0.1823E-02  0.1823E-02  0.5985E-01  0.5985E-01
      4.033  0.3597E-02  0.3597E-02  0.6011E-01  0.6011E-01
      4.106  0.4723E-02  0.4723E-02  0.6046E-01  0.6046E-01
      4.179  0.4530E-02  0.4530E-02  0.6078E-01  0.6078E-01
      4.251  0.3454E-02  0.3454E-02  0.6104E-01  0.6104E-01
      4.324  0.2455E-02  0.2455E-02  0.6121E-01  0.6121E-01
      4.397  0.1978E-02  0.1978E-02  0.6136E-01  0.6136E-01
      4.469  0.1799E-02  0.1799E-02  0.6149E-01  0.6149E-01
      4.542  0.1589E-02  0.1589E-02  0.6160E-01  0.6160E-01
      4.615  0.1257E-02  0.1257E-02  0.6170E-01  0.6170E-01
      4.687  0.8481E-03  0.8480E-03  0.6176E-01  0.6176E-01
      4.760  0.4359E-03  0.4360E-03  0.6179E-01  0.6179E-01
      4.833  0.1735E-03  0.1736E-03  0.6180E-01  0.6180E-01
      4.905  0.2556E-03  0.2556E-03  0.6182E-01  0.6182E-01
      4.978  0.7053E-03  0.7053E-03  0.6187E-01  0.6187E-01
      5.051  0.1274E-02  0.1274E-02  0.6196E-01  0.6196E-01
      5.123  0.1630E-02  0.1630E-02  0.6208E-01  0.6208E-01
      5.196  0.1585E-02  0.1585E-02  0.6220E-01  0.6220E-01
      5.268  0.1168E-02  0.1168E-02  0.6228E-01  0.6228E-01
      5.341  0.6898E-03  0.6898E-03  0.6233E-01  0.6233E-01
      5.414  0.6541E-03  0.6540E-03  0.6238E-01  0.6238E-01
      5.486  0.1296E-02  0.1296E-02  0.6247E-01  0.6247E-01
      5.559  0.2276E-02  0.2276E-02  0.6264E-01  0.6264E-01
      5.632  0.3097E-02  0.3097E-02  0.6286E-01  0.6286E-01
      5.704  0.3597E-02  0.3597E-02  0.6313E-01  0.6313E-01
      5.777  0.3801E-02  0.3801E-02  0.6340E-01  0.6340E-01
      5.850  0.3713E-02  0.3713E-02  0.6367E-01  0.6367E-01
      5.922  0.3541E-02  0.3541E-02  0.6393E-01  0.6393E-01
      5.995  0.3674E-02  0.3675E-02  0.6420E-01  0.6420E-01
      6.068  0.4099E-02  0.4099E-02  0.6449E-01  0.6449E-01
      6.140  0.4118E-02  0.4118E-02  0.6479E-01  0.6479E-01
      6.213  0.3140E-02  0.3140E-02  0.6502E-01  0.6502E-01
      6.286  0.1571E-02  0.1571E-02  0.6514E-01  0.6514E-01
      6.358  0.4093E-03  0.4093E-03  0.6516E-01  0.6516E-01
      6.431  0.1620E-03  0.1620E-03  0.6518E-01  0.6518E-01
      6.504  0.6341E-03  0.6341E-03  0.6522E-01  0.6522E-01
      6.576  0.1498E-02  0.1498E-02  0.6533E-01  0.6533E-01
      6.649  0.2571E-02  0.2571E-02  0.6552E-01  0.6552E-01
      6.722  0.3505E-02  0.3505E-02  0.6577E-01  0.6577E-01
      6.794  0.3718E-02  0.3718E-02  0.6604E-01  0.6604E-01
      6.867  0.3102E-02  0.3102E-02  0.6627E-01  0.6627E-01
      6.940  0.2472E-02  0.2472E-02  0.6645E-01  0.6645E-01
      7.012  0.2665E-02  0.2665E-02  0.6664E-01  0.6664E-01
      7.085  0.3486E-02  0.3486E-02  0.6689E-01  0.6689E-01
      7.158  0.4052E-02  0.4052E-02  0.6719E-01  0.6719E-01
      7.230  0.3770E-02  0.3770E-02  0.6746E-01  0.6746E-01
      7.303  0.2707E-02  0.2707E-02  0.6766E-01  0.6766E-01
      7.376  0.1435E-02  0.1435E-02  0.6776E-01  0.6776E-01
      7.448  0.6412E-03  0.6410E-03  0.6781E-01  0.6781E-01
      7.521  0.5455E-03  0.5454E-03  0.6785E-01  0.6785E-01
      7.593  0.7409E-03  0.7409E-03  0.6790E-01  0.6790E-01
      7.666  0.8443E-03  0.8442E-03  0.6797E-01  0.6797E-01
      7.739  0.1153E-02  0.1153E-02  0.6805E-01  0.6805E-01
      7.811  0.2230E-02  0.2230E-02  0.6821E-01  0.6821E-01
      7.884  0.3901E-02  0.3900E-02  0.6849E-01  0.6849E-01
      7.957  0.5207E-02  0.5207E-02  0.6887E-01  0.6887E-01
      8.029  0.5433E-02  0.5433E-02  0.6927E-01  0.6927E-01
      8.102  0.4755E-02  0.4756E-02  0.6961E-01  0.6961E-01
      8.175  0.3940E-02  0.3940E-02  0.6990E-01  0.6990E-01
      8.247  0.3611E-02  0.3611E-02  0.7016E-01  0.7016E-01
      8.320  0.3655E-02  0.3655E-02  0.7043E-01  0.7043E-01
      8.393  0.3437E-02  0.3437E-02  0.7068E-01  0.7068E-01
      8.465  0.2709E-02  0.2709E-02  0.7087E-01  0.7087E-01
      8.538  0.1914E-02  0.1914E-02  0.7101E-01  0.7101E-01
      8.611  0.1490E-02  0.1489E-02  0.7112E-01  0.7112E-01
      8.683  0.1378E-02  0.1378E-02  0.7122E-01  0.7122E-01
      8.756  0.1371E-02  0.1371E-02  0.7132E-01  0.7132E-01
      8.829  0.1518E-02  0.1518E-02  0.7143E-01  0.7143E-01
      8.901  0.1929E-02  0.1929E-02  0.7157E-01  0.7157E-01
      8.974  0.2389E-02  0.2389E-02  0.7175E-01  0.7175E-01
      9.047  0.2545E-02  0.2545E-02  0.7193E-01  0.7193E-01
      9.119  0.2435E-02  0.2435E-02  0.7211E-01  0.7211E-01
      9.192  0.2424E-02  0.2424E-02  0.7228E-01  0.7228E-01
      9.265  0.2658E-02  0.2658E-02  0.7248E-01  0.7248E-01
      9.337  0.3025E-02  0.3025E-02  0.7270E-01  0.7270E-01
      9.410  0.3419E-02  0.3419E-02  0.7294E-01  0.7294E-01
      9.483  0.3768E-02  0.3768E-02  0.7322E-01  0.7322E-01
      9.555  0.4166E-02  0.4166E-02  0.7352E-01  0.7352E-01
      9.628  0.4860E-02  0.4859E-02  0.7387E-01  0.7387E-01
      9.700  0.5565E-02  0.5565E-02  0.7428E-01  0.7428E-01
      9.773  0.5294E-02  0.5294E-02  0.7466E-01  0.7466E-01
      9.846  0.3621E-02  0.3621E-02  0.7493E-01  0.7493E-01
      9.918  0.1495E-02  0.1496E-02  0.7503E-01  0.7503E-01
      9.991  0.1207E-03  0.1208E-03  0.7504E-01  0.7504E-01
     10.064 -0.2809E-03 -0.2809E-03  0.7502E-01  0.7502E-01
     10.136 -0.2078E-03 -0.2079E-03  0.7501E-01  0.7501E-01
     10.209 -0.8261E-04 -0.8261E-04  0.7500E-01  0.7500E-01
     10.282 -0.2197E-04 -0.2197E-04  0.7500E-01  0.7500E-01
     10.354 -0.4168E-05 -0.4169E-05  0.7500E-01  0.7500E-01
     10.427 -0.5799E-06 -0.5800E-06  0.7500E-01  0.7500E-01
     10.500 -0.6007E-07 -0.6007E-07  0.7500E-01  0.7500E-01
     10.572 -0.4672E-08 -0.4673E-08  0.7500E-01  0.7500E-01
     10.645 -0.2745E-09 -0.2745E-09  0.7500E-01  0.7500E-01
     10.718 -0.1223E-10 -0.1223E-10  0.7500E-01  0.7500E-01
     10.790 -0.4142E-12 -0.4142E-12  0.7500E-01  0.7500E-01
     10.863 -0.1069E-13 -0.1069E-13  0.7500E-01  0.7500E-01
     10.936 -0.2105E-15 -0.2105E-15  0.7500E-01  0.7500E-01
     11.008 -0.3396E-17 -0.3396E-17  0.7500E-01  0.7500E-01
     11.081  0.0000E+00  0.0000E+00  0.7500E-01  0.7500E-01
     11.154  0.0000E+00  0.0000E+00  0.7500E-01  0.7500E-01
     11.226  0.0000E+00  0.0000E+00  0.7500E-01  0.7500E-01
     11.299  0.0000E+00  0.0000E+00  0.7500E-01  0.7500E-01
     11.372  0.0000E+00  0.0000E+00  0.7500E-01  0.7500E-01
     11.444  0.0000E+00  0.0000E+00  0.7500E-01  0.7500E-01
     11.517  0.0000E+00  0.0000E+00  0.7500E-01  0.7500E-01
     11.590  0.0000E+00  0.0000E+00  0.7500E-01  0.7500E-01
     11.662  0.0000E+00  0.0000E+00  0.7500E-01  0.7500E-01
     11.735  0.0000E+00  0.0000E+00  0.7500E-01  0.7500E-01
