 vasp.6.3.2 27Jun22 (build Aug 17 2022 15:43:34) complex                        
  
 executed on           tv2STDVTST date 2025.02.04  13:55:01
 running   20 mpi-ranks, with    1 threads/rank
 distrk:  each k-point on   20 cores,    1 groups
 distr:  one band on NCORE=   5 cores,    4 groups


--------------------------------------------------------------------------------------------------------


 -----------------------------------------------------------------------------
|                                                                             |
|           W    W    AA    RRRRR   N    N  II  N    N   GGGG   !!!           |
|           W    W   A  A   R    R  NN   N  II  NN   N  G    G  !!!           |
|           W    W  A    A  R    R  N N  N  II  N N  N  G       !!!           |
|           W WW W  AAAAAA  RRRRR   N  N N  II  N  N N  G  GGG   !            |
|           WW  WW  A    A  R   R   N   NN  II  N   NN  G    G                |
|           W    W  A    A  R    R  N    N  II  N    N   GGGG   !!!           |
|                                                                             |
|     Found issues when parsing the INCAR file                                |
|     In line 61: Tagname --- R W I G S contains invalid characters.          |
|     Please check if the interpretation in the OUTCAR file is correct.       |
|                                                                             |
 -----------------------------------------------------------------------------

 INCAR:
    = \=\=\=\=\=\=\=\=\=\=\=\=\=\=\=\=\=\=\=\=\=\=\=\=\=\=\=\=\=\=\=\=\=\=\=\=\=\=\=\=\=\=\=\=\=\=\=\=\=\=\=\=\=\=\=\=\=\=\=\=\=\=\=\=\=\=\=\=\=\=\=\=
    = \=\=\=\=\=\=\=\=\=\=\=\=\=\=\=\=\=\=\=\=\=\=\=\=\=\=\=\=\=\=\=\=\=\=\=\=\=\=\=\=\=\=\=\=\=\=\=\=\=\=\=\=\=\=\=\=\=\=\=\=\=\=\=\=\=\=\=\=\=\=\=\=
   ISTART = 0
   ICHARG = 2
   IPIPOL = 3
   IVDW = 11
    = \=\=\=\=\=\=\=\=\=\=\=\=\=\=\=\=\=\=\=\=\=\=\=\=\=\=\=\=\=\=\=\=\=\=\=\=\=\=\=\=\=\=\=\=\=\=\=\=\=\=\=\=\=\=\=\=\=\=\=\=\=\=\=\=\=\=\=\=\=\=\=\=
    = \=\=\=\=\=\=\=\=\=\=\=\=\=\=\=\=\=\=\=\=\=\=\=\=\=\=\=\=\=\=\=\=\=\=\=\=\=\=\=\=\=\=\=\=\=\=\=\=\=\=\=\=\=\=\=\=\=\=\=\=\=\=\=\=\=\=\=\=\=\=\=\=
   ISPIN = 2
    = \=\=\=\=\=\=\=\=\=\=\=\=\=\=\=\=\=\=\=\=\=\=\=\=\=\=\=\=\=\=\=\=\=\=\=\=\=\=\=\=\=\=\=\=\=\=\=\=\=\=\=\=\=\=\=\=\=\=\=\=\=\=\=\=\=\=\=\=\=\=\=\=
    = \=\=\=\=\=\=\=\=\=\=\=\=\=\=\=\=\=\=\=\=\=\=\=\=\=\=\=\=\=\=\=\=\=\=\=\=\=\=\=\=\=\=\=\=\=\=\=\=\=\=\=\=\=\=\=\=\=\=\=\=\=\=\=\=\=\=\=\=\=\=\=\=
   ENCUT = 400
   PREC = Normal
   EDIFF = 2E-04
   GGA = PE
   ISMEAR = 1
   SIGMA = 0.2
   LREAL = .FALSE.
    = \=\=\=\=\=\=\=\=\=\=\=\=\=\=\=\=\=\=\=\=\=\=\=\=\=\=\=\=\=\=\=\=\=\=\=\=\=\=\=\=\=\=\=\=\=\=\=\=\=\=\=\=\=\=\=\=\=\=\=\=\=\=\=\=\=\=\=\=\=\=\=\=
    = \=\=\=\=\=\=\=\=\=\=\=\=\=\=\=\=\=\=\=\=\=\=\=\=\=\=\=\=\=\=\=\=\=\=\=\=\=\=\=\=\=\=\=\=\=\=\=\=\=\=\=\=\=\=\=\=\=\=\=\=\=\=\=\=\=\=\=\=\=\=\=\=
   ISYM = 1
   NSW = 800
   IBRION = 2
   POTIM = 0.5
   ISIF = 2
   EDIFFG = -.03
    = \=\=\=\=\=\=\=\=\=\=\=\=\=\=\=\=\=\=\=\=\=\=\=\=\=\=\=\=\=\=\=\=\=\=\=\=\=\=\=\=\=\=\=\=\=\=\=\=\=\=\=\=\=\=\=\=\=\=\=\=\=\=\=\=\=\=\=\=\=\=\=\=
    = \=\=\=\=\=\=\=\=\=\=\=\=\=\=\=\=\=\=\=\=\=\=\=\=\=\=\=\=\=\=\=\=\=\=\=\=\=\=\=\=\=\=\=\=\=\=\=\=\=\=\=\=\=\=\=\=\=\=\=\=\=\=\=\=\=\=\=\=\=\=\=\=
   NPAR = 4
   LWAVE = .FALSE.
   LCHARG = .FALSE.

 POTCAR:    PAW_PBE Cu 22Jun2005                  
 POTCAR:    PAW_PBE H 15Jun2001                   
 -----------------------------------------------------------------------------
|                                                                             |
|           W    W    AA    RRRRR   N    N  II  N    N   GGGG   !!!           |
|           W    W   A  A   R    R  NN   N  II  NN   N  G    G  !!!           |
|           W    W  A    A  R    R  N N  N  II  N N  N  G       !!!           |
|           W WW W  AAAAAA  RRRRR   N  N N  II  N  N N  G  GGG   !            |
|           WW  WW  A    A  R   R   N   NN  II  N   NN  G    G                |
|           W    W  A    A  R    R  N    N  II  N    N   GGGG   !!!           |
|                                                                             |
|     You use a magnetic or noncollinear calculation, but did not specify     |
|     the initial magnetic moment with the MAGMOM tag. Note that a            |
|     default of 1 will be used for all atoms. This ferromagnetic setup       |
|     may break the symmetry of the crystal, in particular it may rule        |
|     out finding an antiferromagnetic solution. Thence, we recommend         |
|     setting the initial magnetic moment manually or verifying carefully     |
|     that this magnetic setup is desired.                                    |
|                                                                             |
 -----------------------------------------------------------------------------

 POTCAR:    PAW_PBE Cu 22Jun2005                  
   SHA256 =  0e71e558f37a4e8407882b4609ceaae59938afaad9ced71dfe8490308a0ab630 Cu/POTCAR             
   COPYR  = (c) Copyright 22Jun2005 Georg Kresse                                                    
   COPYR  = This file is part of the software VASP. Any use, copying, and all other rights are regul
   COPYR  = If you do not have a valid VASP license, you may not use, copy or distribute this file. 
   VRHFIN =Cu: d10 p1                                                                               
   LEXCH  = PE                                                                                      
   EATOM  =  1390.9808 eV,  102.2342 Ry                                                             
                                                                                                    
   TITEL  = PAW_PBE Cu 22Jun2005                                                                    
   LULTRA =        F    use ultrasoft PP ?                                                          
   IUNSCR =        1    unscreen: 0-lin 1-nonlin 2-no                                               
   RPACOR =    2.000    partial core radius                                                         
   POMASS =   63.546; ZVAL   =   11.000    mass and valenz                                          
   RCORE  =    2.300    outmost cutoff radius                                                       
   RWIGS  =    2.200; RWIGS  =    1.164    wigner-seitz radius (au A)                               
   ENMAX  =  295.446; ENMIN  =  221.585 eV                                                          
   ICORE  =        3    local potential                                                             
   LCOR   =        T    correct aug charges                                                         
   LPAW   =        T    paw PP                                                                      
   EAUG   =  586.980                                                                                
   DEXC   =    0.000                                                                                
   RMAX   =    2.344    core radius for proj-oper                                                   
   RAUG   =    1.300    factor for augmentation sphere                                              
   RDEP   =    2.302    radius for radial grids                                                     
   RDEPT  =    1.771    core radius for aug-charge                                                  
                                                                                                    
   Atomic configuration                                                                             
    9 entries                                                                                       
     n  l   j            E        occ.                                                              
     1  0  0.50     -8850.2468   2.0000                                                             
     2  0  0.50     -1062.3498   2.0000                                                             
     2  1  1.50      -916.8226   6.0000                                                             
     3  0  0.50      -114.6929   2.0000                                                             
     3  1  1.50       -72.1325   6.0000                                                             
     3  2  2.50        -5.0394  10.0000                                                             
     4  0  0.50        -4.6097   1.0000                                                             
     4  1  0.50        -4.0817   0.0000                                                             
     4  3  2.50        -1.3606   0.0000                                                             
   Description                                                                                      
     l       E           TYP  RCUT    TYP  RCUT                                                     
     2     -5.0393973     23  2.200                                                                 
     2     10.8846608     23  2.200                                                                 
     0     -4.6097109     23  2.200                                                                 
     0      8.2520465     23  2.200                                                                 
     1     -2.7211652     23  2.200                                                                 
     1     21.7055443     23  2.200                                                                 
     3      2.7211652     23  2.300                                                                 
  local pseudopotential read in
  partial core-charges read in
  partial kinetic energy density read in
  atomic valenz-charges read in
  non local Contribution for L=           2  read in
    real space projection operators read in
  non local Contribution for L=           2  read in
    real space projection operators read in
  non local Contribution for L=           0  read in
    real space projection operators read in
  non local Contribution for L=           0  read in
    real space projection operators read in
  non local Contribution for L=           1  read in
    real space projection operators read in
  non local Contribution for L=           1  read in
    real space projection operators read in
    PAW grid and wavefunctions read in
 
   number of l-projection  operators is LMAX  =           6
   number of lm-projection operators is LMMAX =          18
 
 POTCAR:    PAW_PBE H 15Jun2001                   
   SHA256 =  030f79b5d3ab3cf0e668861823c8fb652ff669f3e15e46930bd03bfd63a607b6 H/POTCAR              
   COPYR  = (c) Copyright 15Jun2001 Georg Kresse                                                    
   COPYR  = This file is part of the software VASP. Any use, copying, and all other rights are regul
   COPYR  = If you do not have a valid VASP license, you may not use, copy or distribute this file. 
   VRHFIN =H: ultrasoft test                                                                        
   LEXCH  = PE                                                                                      
   EATOM  =    12.4884 eV,    0.9179 Ry                                                             
                                                                                                    
   TITEL  = PAW_PBE H 15Jun2001                                                                     
   LULTRA =        F    use ultrasoft PP ?                                                          
   IUNSCR =        0    unscreen: 0-lin 1-nonlin 2-no                                               
   RPACOR =    0.000    partial core radius                                                         
   POMASS =    1.000; ZVAL   =    1.000    mass and valenz                                          
   RCORE  =    1.100    outmost cutoff radius                                                       
   RWIGS  =    0.700; RWIGS  =    0.370    wigner-seitz radius (au A)                               
   ENMAX  =  250.000; ENMIN  =  200.000 eV                                                          
   RCLOC  =    0.701    cutoff for local pot                                                        
   LCOR   =        T    correct aug charges                                                         
   LPAW   =        T    paw PP                                                                      
   EAUG   =  400.000                                                                                
   RMAX   =    1.123    core radius for proj-oper                                                   
   RAUG   =    1.200    factor for augmentation sphere                                              
   RDEP   =    1.112    radius for radial grids                                                     
   RDEPT  =    0.926    core radius for aug-charge                                                  
                                                                                                    
   Atomic configuration                                                                             
    2 entries                                                                                       
     n  l   j            E        occ.                                                              
     1  0  0.50        -6.4927   1.0000                                                             
     2  1  0.50        -3.4015   0.0000                                                             
   Description                                                                                      
     l       E           TYP  RCUT    TYP  RCUT                                                     
     0     -6.4927494     23  1.100                                                                 
     0      6.8029130     23  1.100                                                                 
     1     -4.0817478     23  1.100                                                                 
  local pseudopotential read in
  atomic valenz-charges read in
  non local Contribution for L=           0  read in
    real space projection operators read in
  non local Contribution for L=           0  read in
    real space projection operators read in
  non local Contribution for L=           1  read in
    real space projection operators read in
    PAW grid and wavefunctions read in
 
   number of l-projection  operators is LMAX  =           3
   number of lm-projection operators is LMMAX =           5
 
  PAW_PBE Cu 22Jun2005                  :
 energy of atom  1       EATOM=-1390.9808
 kinetic energy error for atom=    0.0232 (will be added to EATOM!!)
  PAW_PBE H 15Jun2001                   :
 energy of atom  2       EATOM=  -12.4884
 kinetic energy error for atom=    0.0098 (will be added to EATOM!!)
 
 
 POSCAR: FCC Cu
  positions in cartesian coordinates
  No initial velocities read in
 exchange correlation table for  LEXCH =        8
   RHO(1)=    0.500       N(1)  =     2000
   RHO(2)=  100.500       N(2)  =     4000

 VTST: version 4.2, (08/11/21)

 CHAIN: initializing optimizer
 
 OPT: Using VASP Conjugate-Gradient optimizer
 CHAIN: Read ICHAIN            0
 
 POSCAR: FCC Cu
  positions in cartesian coordinates
  No initial velocities read in
 


--------------------------------------------------------------------------------------------------------


 ion  position               nearest neighbor table
   1  0.000  0.000  0.000-   3 2.51   2 2.57   2 2.57   2 2.57   2 2.57
   2  0.500  0.500  0.054-   4 2.50   3 2.54   3 2.54   3 2.54   3 2.54   1 2.57   1 2.57   1 2.57
                             1 2.57
   3  0.000  0.000  0.105-   1 2.51   2 2.54   2 2.54   2 2.54   2 2.54   5 2.54   4 2.56   4 2.56
                             4 2.56   4 2.56
   4  0.500  0.500  0.158-   2 2.50   6 2.52   5 2.56   5 2.56   5 2.56   5 2.56   3 2.56   3 2.56
                             3 2.56   3 2.56
   5  0.000  0.000  0.211-   3 2.54   6 2.55   6 2.55   6 2.55   6 2.55   7 2.55   4 2.56   4 2.56
                             4 2.56   4 2.56
   6  0.500  0.500  0.263-   8 2.44   4 2.52   5 2.55   5 2.55   5 2.55   5 2.55   7 2.58   7 2.58
                             7 2.58   7 2.58
   7  0.000  0.000  0.317-   8 2.50   8 2.50   8 2.50   8 2.50   5 2.55   6 2.58   6 2.58   6 2.58
                             6 2.58
   8  0.500  0.500  0.365-   9 1.49   6 2.44   7 2.50   7 2.50   7 2.50   7 2.50
   9  0.500  0.500  0.427-  10 0.75   8 1.49
  10  0.500  0.500  0.458-   9 0.75
 
  LATTYP: Found a simple orthorhombic cell.
 ALAT       =     2.5667977333
 B/A-ratio  =     1.4142135422
 C/A-ratio  =     9.3438571494
  
  Lattice vectors:
  
 A1 = (   0.0000000000,  -2.5667977333,   0.0000000000)
 A2 = (   3.6300001144,   0.0000000000,   0.0000000000)
 A3 = (   0.0000000000,   0.0000000000,  23.9837913513)


Analysis of symmetry for initial positions (statically):
=====================================================================
 Subroutine PRICEL returns:
 Original cell was already a primitive cell.
 

 Routine SETGRP: Setting up the symmetry group for a 
 simple orthorhombic supercell.


 Subroutine GETGRP returns: Found  4 space group operations
 (whereof  4 operations were pure point group operations)
 out of a pool of  8 trial point group operations.


The static configuration has the point symmetry C_2v.


Analysis of symmetry for dynamics (positions and initial velocities):
=====================================================================
 Subroutine PRICEL returns:
 Original cell was already a primitive cell.
 

 Routine SETGRP: Setting up the symmetry group for a 
 simple orthorhombic supercell.


 Subroutine GETGRP returns: Found  4 space group operations
 (whereof  4 operations were pure point group operations)
 out of a pool of  8 trial point group operations.


The dynamic configuration has the point symmetry C_2v.


Analysis of structural, dynamic, and magnetic symmetry:
=====================================================================
 Subroutine PRICEL returns:
 Original cell was already a primitive cell.
 

 Routine SETGRP: Setting up the symmetry group for a 
 simple orthorhombic supercell.


 Subroutine GETGRP returns: Found  4 space group operations
 (whereof  4 operations were pure point group operations)
 out of a pool of  8 trial point group operations.


The overall configuration has the point symmetry C_2v.


 Subroutine INISYM returns: Found  4 space group operations
 (whereof  4 operations are pure point group operations),
 and found     1 'primitive' translations


----------------------------------------------------------------------------------------

                                     Primitive cell                                     

  volume of cell :     223.4684

  direct lattice vectors                    reciprocal lattice vectors
     3.630000114  0.000000000  0.000000000     0.275482085  0.000000000  0.000000000
     0.000000000  2.566797733  0.000000000     0.000000000  0.389590495  0.000000000
     0.000000000  0.000000000 23.983791351     0.000000000  0.000000000  0.041694826

  length of vectors
     3.630000114  2.566797733 23.983791351     0.275482085  0.389590495  0.041694826

  position of ions in fractional coordinates (direct lattice)
     0.000000000  0.000000000  0.000000000
     0.500000000  0.500000000  0.053511090
     0.000000000  0.000000000  0.104681476
     0.500000000  0.500000000  0.157929955
     0.000000000  0.000000000  0.210708991
     0.500000000  0.500000000  0.262890478
     0.000000000  0.000000000  0.317115916
     0.500000000  0.500000000  0.364675901
     0.500000000  0.500000000  0.426907920
     0.500000000  0.500000000  0.458012260

  ion indices of the primitive-cell ions
   primitive index   ion index
                 1           1
                 2           2
                 3           3
                 4           4
                 5           5
                 6           6
                 7           7
                 8           8
                 9           9
                10          10

----------------------------------------------------------------------------------------

 
 
 KPOINTS: Auto-mesh                               

Automatic generation of k-mesh.
 Grid dimensions read from file:
 generate k-points for:    3    3    1

 Generating k-lattice:

  Cartesian coordinates                     Fractional coordinates (reciprocal lattice)
     0.091827362  0.000000000  0.000000000     0.333333333  0.000000000  0.000000000
     0.000000000  0.129863498  0.000000000     0.000000000  0.333333333  0.000000000
     0.000000000  0.000000000  0.041694826     0.000000000  0.000000000  1.000000000

  Length of vectors
     0.091827362  0.129863498  0.041694826

  Shift w.r.t. Gamma in fractional coordinates (k-lattice)
     0.000000000  0.000000000  0.000000000

 
 Subroutine IBZKPT returns following result:
 ===========================================
 
 Found      4 irreducible k-points:
 
 Following reciprocal coordinates:
            Coordinates               Weight
  0.000000  0.000000  0.000000      1.000000
  0.333333  0.000000  0.000000      2.000000
  0.000000  0.333333  0.000000      2.000000
  0.333333  0.333333  0.000000      4.000000
 
 Following cartesian coordinates:
            Coordinates               Weight
  0.000000  0.000000  0.000000      1.000000
  0.091827  0.000000  0.000000      2.000000
  0.000000  0.129863  0.000000      2.000000
  0.091827  0.129863  0.000000      4.000000
 


--------------------------------------------------------------------------------------------------------




 Dimension of arrays:
   k-points           NKPTS =      4   k-points in BZ     NKDIM =      4   number of bands    NBANDS=     60
   number of dos      NEDOS =    301   number of ions     NIONS =     10
   non local maximal  LDIM  =      6   non local SUM 2l+1 LMDIM =     18
   total plane-waves  NPLWV =  30240
   max r-space proj   IRMAX =      1   max aug-charges    IRDMAX=   4119
   dimension x,y,z NGX =    18 NGY =   14 NGZ =  120
   dimension x,y,z NGXF=    36 NGYF=   28 NGZF=  240
   support grid    NGXF=    36 NGYF=   28 NGZF=  240
   ions per type =               8   2
   NGX,Y,Z   is equivalent  to a cutoff of   8.24,  9.07,  8.32 a.u.
   NGXF,Y,Z  is equivalent  to a cutoff of  16.49, 18.13, 16.64 a.u.

 SYSTEM =  unknown system                          
 POSCAR =  FCC Cu                                  

 Startparameter for this run:
   NWRITE =      2    write-flag & timer
   PREC   = normal    normal or accurate (medium, high low for compatibility)
   ISTART =      0    job   : 0-new  1-cont  2-samecut
   ICHARG =      2    charge: 1-file 2-atom 10-const
   ISPIN  =      2    spin polarized calculation?
   LNONCOLLINEAR =      F non collinear calculations
   LSORBIT =      F    spin-orbit coupling
   INIWAV =      1    electr: 0-lowe 1-rand  2-diag
   LASPH  =      F    aspherical Exc in radial PAW
 Electronic Relaxation 1
   ENCUT  =  400.0 eV  29.40 Ry    5.42 a.u.   5.92  4.19 39.11*2*pi/ulx,y,z
   ENINI  =  400.0     initial cutoff
   ENAUG  =  587.0 eV  augmentation charge cutoff
   NELM   =     60;   NELMIN=  2; NELMDL= -5     # of ELM steps 
   EDIFF  = 0.2E-03   stopping-criterion for ELM
   LREAL  =      F    real-space projection
   NLSPLINE    = F    spline interpolate recip. space projectors
   LCOMPAT=      F    compatible to vasp.4.4
   GGA_COMPAT  = T    GGA compatible to vasp.4.4-vasp.4.6
   LMAXPAW     = -100 max onsite density
   LMAXMIX     =    2 max onsite mixed and CHGCAR
   VOSKOWN=      0    Vosko Wilk Nusair interpolation
   ROPT   =    0.00000   0.00000
 Ionic relaxation
   EDIFFG = -.3E-01   stopping-criterion for IOM
   NSW    =    800    number of steps for IOM
   NBLOCK =      1;   KBLOCK =    800    inner block; outer block 
   IBRION =      2    ionic relax: 0-MD 1-quasi-New 2-CG
   NFREE  =      1    steps in history (QN), initial steepest desc. (CG)
   ISIF   =      2    stress and relaxation
   IWAVPR =     11    prediction:  0-non 1-charg 2-wave 3-comb
   ISYM   =      1    0-nonsym 1-usesym 2-fastsym
   LCORR  =      T    Harris-Foulkes like correction to forces

   POTIM  = 0.5000    time-step for ionic-motion
   TEIN   =    0.0    initial temperature
   TEBEG  =    0.0;   TEEND  =   0.0 temperature during run
   SMASS  =  -3.00    Nose mass-parameter (am)
   estimated Nose-frequenzy (Omega)   =  0.10E-29 period in steps = 0.13E+47 mass=  -0.301E-27a.u.
   SCALEE = 1.0000    scale energy and forces
   NPACO  =    256;   APACO  = 10.0  distance and # of slots for P.C.
   PSTRESS=    0.0 pullay stress

  Mass of Ions in am
   POMASS =  63.55  1.00
  Ionic Valenz
   ZVAL   =  11.00  1.00
  Atomic Wigner-Seitz radii
   RWIGS  =  -1.00 -1.00
  virtual crystal weights 
   VCA    =   1.00  1.00
   NELECT =      90.0000    total number of electrons
   NUPDOWN=      -1.0000    fix difference up-down

 DOS related values:
   EMIN   =  10.00;   EMAX   =-10.00  energy-range for DOS
   EFERMI =   0.00
   ISMEAR =     1;   SIGMA  =   0.20  broadening in eV -4-tet -1-fermi 0-gaus

 Electronic relaxation 2 (details)
   IALGO  =     38    algorithm
   LDIAG  =      T    sub-space diagonalisation (order eigenvalues)
   LSUBROT=      F    optimize rotation matrix (better conditioning)
   TURBO    =      0    0=normal 1=particle mesh
   IRESTART =      0    0=no restart 2=restart with 2 vectors
   NREBOOT  =      0    no. of reboots
   NMIN     =      0    reboot dimension
   EREF     =   0.00    reference energy to select bands
   IMIX   =      4    mixing-type and parameters
     AMIX     =   0.40;   BMIX     =  1.00
     AMIX_MAG =   1.60;   BMIX_MAG =  1.00
     AMIN     =   0.10
     WC   =   100.;   INIMIX=   1;  MIXPRE=   1;  MAXMIX= -45

 Intra band minimization:
   WEIMIN = 0.0010     energy-eigenvalue tresh-hold
   EBREAK =  0.83E-06  absolut break condition
   DEPER  =   0.30     relativ break condition  

   TIME   =   0.40     timestep for ELM

  volume/ion in A,a.u.               =      22.35       150.80
  Fermi-wavevector in a.u.,A,eV,Ry     =   1.208974  2.284630 19.886522  1.461618
  Thomas-Fermi vector in A             =   2.344566
 
 Write flags
   LWAVE        =      F    write WAVECAR
   LDOWNSAMPLE  =      F    k-point downsampling of WAVECAR
   LCHARG       =      F    write CHGCAR
   LVTOT        =      F    write LOCPOT, total local potential
   LVHAR        =      F    write LOCPOT, Hartree potential only
   LELF         =      F    write electronic localiz. function (ELF)
   LORBIT       =      0    0 simple, 1 ext, 2 COOP (PROOUT), +10 PAW based schemes


 Dipole corrections
   LMONO  =      F    monopole corrections only (constant potential shift)
   LDIPOL =      F    correct potential (dipole corrections)
   IDIPOL =      0    1-x, 2-y, 3-z, 4-all directions 
   EPSILON=  1.0000000 bulk dielectric constant

 Exchange correlation treatment:
   GGA     =    PE    GGA type
   LEXCH   =     8    internal setting for exchange type
   LIBXC   =     F    Libxc                    
   VOSKOWN =     0    Vosko Wilk Nusair interpolation
   LHFCALC =     F    Hartree Fock is set to
   LHFONE  =     F    Hartree Fock one center treatment
   AEXX    =    0.0000 exact exchange contribution

 Linear response parameters
   LEPSILON=     F    determine dielectric tensor
   LRPA    =     F    only Hartree local field effects (RPA)
   LNABLA  =     F    use nabla operator in PAW spheres
   LVEL    =     F    velocity operator in full k-point grid
   CSHIFT  =0.1000    complex shift for real part using Kramers Kronig
   OMEGAMAX=  -1.0    maximum frequency
   DEG_THRESHOLD= 0.2000000E-02 threshold for treating states as degnerate
   RTIME   =   -0.100 relaxation time in fs
  (WPLASMAI=    0.000 imaginary part of plasma frequency in eV, 0.658/RTIME)
   DFIELD  = 0.0000000 0.0000000 0.0000000 field for delta impulse in time
 
  Optional k-point grid parameters
   LKPOINTS_OPT  =     F    use optional k-point grid
   KPOINTS_OPT_MODE=     1    mode for optional k-point grid
 
 Orbital magnetization related:
   ORBITALMAG=     F  switch on orbital magnetization
   LCHIMAG   =     F  perturbation theory with respect to B field
   DQ        =  0.001000  dq finite difference perturbation B field
   LLRAUG    =     F  two centre corrections for induced B field



--------------------------------------------------------------------------------------------------------


 conjugate gradient relaxation of ions
 charge density and potential will be updated during run
 spin polarized calculation
 Variant of blocked Davidson
 Davidson routine will perform the subspace rotation
 perform sub-space diagonalisation
    after iterative eigenvector-optimisation
 modified Broyden-mixing scheme, WC =      100.0
 initial mixing is a Kerker type mixing with AMIX =  0.4000 and BMIX =      1.0000
 Hartree-type preconditioning will be used
 using additional bands           15
 reciprocal scheme for non local part
 use partial core corrections
 calculate Harris-corrections to forces 
   (improved forces if not selfconsistent)
 use gradient corrections 
 use of overlap-Matrix (Vanderbilt PP)
 Methfessel and Paxton  Order N= 1 SIGMA  =   0.20


--------------------------------------------------------------------------------------------------------


  energy-cutoff  :      400.00
  volume of cell :      223.47
      direct lattice vectors                 reciprocal lattice vectors
     3.630000114  0.000000000  0.000000000     0.275482085  0.000000000  0.000000000
     0.000000000  2.566797733  0.000000000     0.000000000  0.389590495  0.000000000
     0.000000000  0.000000000 23.983791351     0.000000000  0.000000000  0.041694826

  length of vectors
     3.630000114  2.566797733 23.983791351     0.275482085  0.389590495  0.041694826


 
 k-points in units of 2pi/SCALE and weight: Auto-mesh                               
   0.00000000  0.00000000  0.00000000       0.111
   0.09182736  0.00000000  0.00000000       0.222
   0.00000000  0.12986350  0.00000000       0.222
   0.09182736  0.12986350  0.00000000       0.444
 
 k-points in reciprocal lattice and weights: Auto-mesh                               
   0.00000000  0.00000000  0.00000000       0.111
   0.33333333  0.00000000  0.00000000       0.222
   0.00000000  0.33333333  0.00000000       0.222
   0.33333333  0.33333333  0.00000000       0.444
 
 position of ions in fractional coordinates (direct lattice) 
   0.00000000  0.00000000  0.00000000
   0.50000000  0.50000000  0.05351109
   0.00000000  0.00000000  0.10468148
   0.50000000  0.50000000  0.15792996
   0.00000000  0.00000000  0.21070899
   0.50000000  0.50000000  0.26289048
   0.00000000  0.00000000  0.31711592
   0.50000000  0.50000000  0.36467590
   0.50000000  0.50000000  0.42690792
   0.50000000  0.50000000  0.45801226
 
 position of ions in cartesian coordinates  (Angst):
   0.00000000  0.00000000  0.00000000
   1.81500006  1.28339887  1.28339883
   0.00000000  0.00000000  2.51065868
   1.81500006  1.28339887  3.78775910
   0.00000000  0.00000000  5.05360047
   1.81500006  1.28339887  6.30511038
   0.00000000  0.00000000  7.60564196
   1.81500006  1.28339887  8.74631073
   1.81500006  1.28339887 10.23887049
   1.81500006  1.28339887 10.98487049
 


--------------------------------------------------------------------------------------------------------


 k-point   1 :   0.0000 0.0000 0.0000  plane waves:    4037
 k-point   2 :   0.3333 0.0000 0.0000  plane waves:    4064
 k-point   3 :   0.0000 0.3333 0.0000  plane waves:    4032
 k-point   4 :   0.3333 0.3333 0.0000  plane waves:    4072

 maximum and minimum number of plane-waves per node :       827      778

 maximum number of plane-waves:      4072
 maximum index in each direction: 
   IXMAX=    5   IYMAX=    4   IZMAX=   39
   IXMIN=   -6   IYMIN=   -4   IZMIN=  -39


 parallel 3D FFT for wavefunctions:
    minimum data exchange during FFTs selected (reduces bandwidth)
 parallel 3D FFT for charge:
    minimum data exchange during FFTs selected (reduces bandwidth)


 total amount of memory used by VASP MPI-rank0    35069. kBytes
=======================================================================

   base      :      30000. kBytes
   nonl-proj :       1086. kBytes
   fftplans  :        642. kBytes
   grid      :       1621. kBytes
   one-center:         62. kBytes
   wavefun   :       1658. kBytes
 
     INWAV:  cpu time      0.0000: real time      0.0003
 Broyden mixing: mesh for mixing (old mesh)
   NGX = 11   NGY =  9   NGZ = 79
  (NGX  = 36   NGY  = 28   NGZ  =240)
  gives a total of   7821 points

 initial charge density was supplied:
 charge density of overlapping atoms calculated
 number of electron      90.0000000 magnetization      10.0000000
 keeping initial charge density in first step


--------------------------------------------------------------------------------------------------------


 Maximum index for augmentation-charges          309 (set IRDMAX)


--------------------------------------------------------------------------------------------------------


 First call to EWALD:  gamma=   0.292
 Maximum number of real-space cells 4x 6x 1
 Maximum number of reciprocal cells 2x 1x 9

    FEWALD:  cpu time      0.0019: real time      0.0019


--------------------------------------- Iteration      1(   1)  ---------------------------------------


    POTLOK:  cpu time      0.0192: real time      0.0195
    SETDIJ:  cpu time      0.0066: real time      0.0066
     EDDAV:  cpu time      0.3166: real time      0.3194
       DOS:  cpu time      0.0013: real time      0.0013
    --------------------------------------------
      LOOP:  cpu time      0.3436: real time      0.3467

 eigenvalue-minimisations  :   960
 total energy-change (2. order) : 0.7730538E+03  (-0.3324245E+04)
 number of electron      90.0000000 magnetization      10.0000000
 augmentation part       90.0000000 magnetization      10.0000000

 Free energy of the ion-electron system (eV)
  ---------------------------------------------------
  alpha Z        PSCENC =       216.17040255
  Ewald energy   TEWEN  =     42221.86545264
  -Hartree energ DENC   =    -53040.35535883
  -exchange      EXHF   =         0.00000000
  -V(xc)+E(xc)   XCENC  =       371.55953435
  PAW double counting   =      9828.36862813   -10674.97285505
  entropy T*S    EENTRO =        -0.01590687
  eigenvalues    EBANDS =       697.81547540
  atomic energy  EATOM  =     11152.61838693
  Solvation  Ediel_sol  =         0.00000000
  ---------------------------------------------------
  free energy    TOTEN  =       773.05375924 eV

  energy without entropy =      773.06966611  energy(sigma->0) =      773.05906153


--------------------------------------------------------------------------------------------------------




--------------------------------------- Iteration      1(   2)  ---------------------------------------


     EDDAV:  cpu time      0.3165: real time      0.3207
       DOS:  cpu time      0.0009: real time      0.0009
    --------------------------------------------
      LOOP:  cpu time      0.3174: real time      0.3216

 eigenvalue-minimisations  :   960
 total energy-change (2. order) :-0.7144982E+03  (-0.6863397E+03)
 number of electron      90.0000000 magnetization      10.0000000
 augmentation part       90.0000000 magnetization      10.0000000

 Free energy of the ion-electron system (eV)
  ---------------------------------------------------
  alpha Z        PSCENC =       216.17040255
  Ewald energy   TEWEN  =     42221.86545264
  -Hartree energ DENC   =    -53040.35535883
  -exchange      EXHF   =         0.00000000
  -V(xc)+E(xc)   XCENC  =       371.55953435
  PAW double counting   =      9828.36862813   -10674.97285505
  entropy T*S    EENTRO =         0.00083264
  eigenvalues    EBANDS =       -16.69943966
  atomic energy  EATOM  =     11152.61838693
  Solvation  Ediel_sol  =         0.00000000
  ---------------------------------------------------
  free energy    TOTEN  =        58.55558369 eV

  energy without entropy =       58.55475105  energy(sigma->0) =       58.55530614


--------------------------------------------------------------------------------------------------------




--------------------------------------- Iteration      1(   3)  ---------------------------------------


     EDDAV:  cpu time      0.3123: real time      0.3151
       DOS:  cpu time      0.0009: real time      0.0009
    --------------------------------------------
      LOOP:  cpu time      0.3132: real time      0.3160

 eigenvalue-minimisations  :  1004
 total energy-change (2. order) :-0.9026734E+02  (-0.8420815E+02)
 number of electron      90.0000000 magnetization      10.0000000
 augmentation part       90.0000000 magnetization      10.0000000

 Free energy of the ion-electron system (eV)
  ---------------------------------------------------
  alpha Z        PSCENC =       216.17040255
  Ewald energy   TEWEN  =     42221.86545264
  -Hartree energ DENC   =    -53040.35535883
  -exchange      EXHF   =         0.00000000
  -V(xc)+E(xc)   XCENC  =       371.55953435
  PAW double counting   =      9828.36862813   -10674.97285505
  entropy T*S    EENTRO =         0.01494655
  eigenvalues    EBANDS =      -106.98089734
  atomic energy  EATOM  =     11152.61838693
  Solvation  Ediel_sol  =         0.00000000
  ---------------------------------------------------
  free energy    TOTEN  =       -31.71176008 eV

  energy without entropy =      -31.72670663  energy(sigma->0) =      -31.71674226


--------------------------------------------------------------------------------------------------------




--------------------------------------- Iteration      1(   4)  ---------------------------------------


     EDDAV:  cpu time      0.3522: real time      0.3553
       DOS:  cpu time      0.0009: real time      0.0009
    --------------------------------------------
      LOOP:  cpu time      0.3531: real time      0.3562

 eigenvalue-minimisations  :  1112
 total energy-change (2. order) :-0.3800891E+01  (-0.3767024E+01)
 number of electron      90.0000000 magnetization      10.0000000
 augmentation part       90.0000000 magnetization      10.0000000

 Free energy of the ion-electron system (eV)
  ---------------------------------------------------
  alpha Z        PSCENC =       216.17040255
  Ewald energy   TEWEN  =     42221.86545264
  -Hartree energ DENC   =    -53040.35535883
  -exchange      EXHF   =         0.00000000
  -V(xc)+E(xc)   XCENC  =       371.55953435
  PAW double counting   =      9828.36862813   -10674.97285505
  entropy T*S    EENTRO =         0.01470809
  eigenvalues    EBANDS =      -110.78155029
  atomic energy  EATOM  =     11152.61838693
  Solvation  Ediel_sol  =         0.00000000
  ---------------------------------------------------
  free energy    TOTEN  =       -35.51265149 eV

  energy without entropy =      -35.52735958  energy(sigma->0) =      -35.51755419


--------------------------------------------------------------------------------------------------------




--------------------------------------- Iteration      1(   5)  ---------------------------------------


     EDDAV:  cpu time      0.3445: real time      0.3473
       DOS:  cpu time      0.0009: real time      0.0009
    CHARGE:  cpu time      0.0563: real time      0.0565
    MIXING:  cpu time      0.0005: real time      0.0005
    --------------------------------------------
      LOOP:  cpu time      0.4023: real time      0.4053

 eigenvalue-minimisations  :  1144
 total energy-change (2. order) :-0.8998187E-01  (-0.8991806E-01)
 number of electron      90.0000817 magnetization       9.0961991
 augmentation part       52.1510482 magnetization       8.8271974

 Broyden mixing:
  rms(total) = 0.27595E+01    rms(broyden)= 0.27593E+01
  rms(prec ) = 0.28413E+01
  weight for this iteration     100.00

 Free energy of the ion-electron system (eV)
  ---------------------------------------------------
  alpha Z        PSCENC =       216.17040255
  Ewald energy   TEWEN  =     42221.86545264
  -Hartree energ DENC   =    -53040.35535883
  -exchange      EXHF   =         0.00000000
  -V(xc)+E(xc)   XCENC  =       371.55953435
  PAW double counting   =      9828.36862813   -10674.97285505
  entropy T*S    EENTRO =         0.01475040
  eigenvalues    EBANDS =      -110.87157448
  atomic energy  EATOM  =     11152.61838693
  Solvation  Ediel_sol  =         0.00000000
  ---------------------------------------------------
  free energy    TOTEN  =       -35.60263337 eV

  energy without entropy =      -35.61738377  energy(sigma->0) =      -35.60755017


--------------------------------------------------------------------------------------------------------




--------------------------------------- Iteration      1(   6)  ---------------------------------------


    POTLOK:  cpu time      0.0175: real time      0.0177
    SETDIJ:  cpu time      0.0060: real time      0.0060
     EDDAV:  cpu time      0.3390: real time      0.3417
       DOS:  cpu time      0.0010: real time      0.0010
    CHARGE:  cpu time      0.0524: real time      0.0526
    MIXING:  cpu time      0.0007: real time      0.0007
    --------------------------------------------
      LOOP:  cpu time      0.4167: real time      0.4199

 eigenvalue-minimisations  :  1124
 total energy-change (2. order) : 0.7720286E+01  (-0.9656329E+01)
 number of electron      90.0000913 magnetization       8.5345743
 augmentation part       58.6768718 magnetization       6.4450020

 Broyden mixing:
  rms(total) = 0.14005E+01    rms(broyden)= 0.14002E+01
  rms(prec ) = 0.14714E+01
  weight for this iteration     100.00

 eigenvalues of (default mixing * dielectric matrix)
  average eigenvalue GAMMA=   0.7943
  0.7943

 Free energy of the ion-electron system (eV)
  ---------------------------------------------------
  alpha Z        PSCENC =       216.17040255
  Ewald energy   TEWEN  =     42221.86545264
  -Hartree energ DENC   =    -52829.27901906
  -exchange      EXHF   =         0.00000000
  -V(xc)+E(xc)   XCENC  =       366.14297021
  PAW double counting   =      9986.03679263   -10790.21757884
  entropy T*S    EENTRO =        -0.00318595
  eigenvalues    EBANDS =      -351.21656883
  atomic energy  EATOM  =     11152.61838693
  Solvation  Ediel_sol  =         0.00000000
  ---------------------------------------------------
  free energy    TOTEN  =       -27.88234772 eV

  energy without entropy =      -27.87916177  energy(sigma->0) =      -27.88128574


--------------------------------------------------------------------------------------------------------




--------------------------------------- Iteration      1(   7)  ---------------------------------------


    POTLOK:  cpu time      0.0163: real time      0.0166
    SETDIJ:  cpu time      0.0058: real time      0.0058
     EDDAV:  cpu time      0.3460: real time      0.3494
       DOS:  cpu time      0.0009: real time      0.0009
    CHARGE:  cpu time      0.0502: real time      0.0504
    MIXING:  cpu time      0.0008: real time      0.0008
    --------------------------------------------
      LOOP:  cpu time      0.4200: real time      0.4238

 eigenvalue-minimisations  :  1152
 total energy-change (2. order) : 0.2343632E+01  (-0.2358087E+01)
 number of electron      90.0000882 magnetization       7.9726313
 augmentation part       56.3611583 magnetization       5.8943815

 Broyden mixing:
  rms(total) = 0.80172E+00    rms(broyden)= 0.80160E+00
  rms(prec ) = 0.83967E+00
  weight for this iteration     100.00

 eigenvalues of (default mixing * dielectric matrix)
  average eigenvalue GAMMA=   0.8055
  0.9977  0.6134

 Free energy of the ion-electron system (eV)
  ---------------------------------------------------
  alpha Z        PSCENC =       216.17040255
  Ewald energy   TEWEN  =     42221.86545264
  -Hartree energ DENC   =    -52958.71797149
  -exchange      EXHF   =         0.00000000
  -V(xc)+E(xc)   XCENC  =       369.59072507
  PAW double counting   =     10208.85509624   -11053.47843068
  entropy T*S    EENTRO =        -0.00035650
  eigenvalues    EBANDS =      -182.44202051
  atomic energy  EATOM  =     11152.61838693
  Solvation  Ediel_sol  =         0.00000000
  ---------------------------------------------------
  free energy    TOTEN  =       -25.53871577 eV

  energy without entropy =      -25.53835927  energy(sigma->0) =      -25.53859693


--------------------------------------------------------------------------------------------------------




--------------------------------------- Iteration      1(   8)  ---------------------------------------


    POTLOK:  cpu time      0.0162: real time      0.0165
    SETDIJ:  cpu time      0.0057: real time      0.0058
     EDDAV:  cpu time      0.3669: real time      0.3700
       DOS:  cpu time      0.0009: real time      0.0009
    CHARGE:  cpu time      0.0502: real time      0.0504
    MIXING:  cpu time      0.0009: real time      0.0009
    --------------------------------------------
      LOOP:  cpu time      0.4408: real time      0.4444

 eigenvalue-minimisations  :  1244
 total energy-change (2. order) : 0.4132106E+00  (-0.6712523E+00)
 number of electron      90.0000877 magnetization       7.1990437
 augmentation part       56.1416111 magnetization       4.9900138

 Broyden mixing:
  rms(total) = 0.70081E+00    rms(broyden)= 0.70074E+00
  rms(prec ) = 0.76160E+00
  weight for this iteration     100.00

 eigenvalues of (default mixing * dielectric matrix)
  average eigenvalue GAMMA=   0.7492
  1.1513  0.6595  0.4369

 Free energy of the ion-electron system (eV)
  ---------------------------------------------------
  alpha Z        PSCENC =       216.17040255
  Ewald energy   TEWEN  =     42221.86545264
  -Hartree energ DENC   =    -52960.88956391
  -exchange      EXHF   =         0.00000000
  -V(xc)+E(xc)   XCENC  =       369.81729977
  PAW double counting   =     10328.15834702   -11181.45250375
  entropy T*S    EENTRO =        -0.01416283
  eigenvalues    EBANDS =      -171.39916353
  atomic energy  EATOM  =     11152.61838693
  Solvation  Ediel_sol  =         0.00000000
  ---------------------------------------------------
  free energy    TOTEN  =       -25.12550512 eV

  energy without entropy =      -25.11134229  energy(sigma->0) =      -25.12078417


--------------------------------------------------------------------------------------------------------




--------------------------------------- Iteration      1(   9)  ---------------------------------------


    POTLOK:  cpu time      0.0162: real time      0.0164
    SETDIJ:  cpu time      0.0056: real time      0.0056
     EDDAV:  cpu time      0.3758: real time      0.3791
       DOS:  cpu time      0.0009: real time      0.0009
    CHARGE:  cpu time      0.0503: real time      0.0505
    MIXING:  cpu time      0.0009: real time      0.0009
    --------------------------------------------
      LOOP:  cpu time      0.4496: real time      0.4534

 eigenvalue-minimisations  :  1284
 total energy-change (2. order) :-0.8983690E-01  (-0.4352838E+00)
 number of electron      90.0000877 magnetization       6.3919630
 augmentation part       56.0528917 magnetization       4.2804654

 Broyden mixing:
  rms(total) = 0.59535E+00    rms(broyden)= 0.59529E+00
  rms(prec ) = 0.62717E+00
  weight for this iteration     100.00

 eigenvalues of (default mixing * dielectric matrix)
  average eigenvalue GAMMA=   0.7938
  1.2654  0.7847  0.7847  0.3405

 Free energy of the ion-electron system (eV)
  ---------------------------------------------------
  alpha Z        PSCENC =       216.17040255
  Ewald energy   TEWEN  =     42221.86545264
  -Hartree energ DENC   =    -52981.38910191
  -exchange      EXHF   =         0.00000000
  -V(xc)+E(xc)   XCENC  =       369.32066615
  PAW double counting   =     10463.51601399   -11324.26387795
  entropy T*S    EENTRO =        -0.00042723
  eigenvalues    EBANDS =      -143.05285718
  atomic energy  EATOM  =     11152.61838693
  Solvation  Ediel_sol  =         0.00000000
  ---------------------------------------------------
  free energy    TOTEN  =       -25.21534202 eV

  energy without entropy =      -25.21491479  energy(sigma->0) =      -25.21519961


--------------------------------------------------------------------------------------------------------




--------------------------------------- Iteration      1(  10)  ---------------------------------------


    POTLOK:  cpu time      0.0161: real time      0.0163
    SETDIJ:  cpu time      0.0056: real time      0.0056
     EDDAV:  cpu time      0.4624: real time      0.4662
       DOS:  cpu time      0.0009: real time      0.0009
    CHARGE:  cpu time      0.0519: real time      0.0521
    MIXING:  cpu time      0.0011: real time      0.0011
    --------------------------------------------
      LOOP:  cpu time      0.5379: real time      0.5422

 eigenvalue-minimisations  :  1584
 total energy-change (2. order) :-0.6721238E+00  (-0.2282732E+00)
 number of electron      90.0000878 magnetization       4.8956232
 augmentation part       56.1245473 magnetization       2.8962324

 Broyden mixing:
  rms(total) = 0.50321E+00    rms(broyden)= 0.50318E+00
  rms(prec ) = 0.51179E+00
  weight for this iteration     100.00

 eigenvalues of (default mixing * dielectric matrix)
  average eigenvalue GAMMA=   0.9524
  1.9915  1.2359  0.7124  0.5026  0.3196

 Free energy of the ion-electron system (eV)
  ---------------------------------------------------
  alpha Z        PSCENC =       216.17040255
  Ewald energy   TEWEN  =     42221.86545264
  -Hartree energ DENC   =    -52990.31714129
  -exchange      EXHF   =         0.00000000
  -V(xc)+E(xc)   XCENC  =       368.42105623
  PAW double counting   =     10551.78450422   -11415.30438154
  entropy T*S    EENTRO =        -0.00382665
  eigenvalues    EBANDS =      -131.12191893
  atomic energy  EATOM  =     11152.61838693
  Solvation  Ediel_sol  =         0.00000000
  ---------------------------------------------------
  free energy    TOTEN  =       -25.88746585 eV

  energy without entropy =      -25.88363920  energy(sigma->0) =      -25.88619030


--------------------------------------------------------------------------------------------------------




--------------------------------------- Iteration      1(  11)  ---------------------------------------


    POTLOK:  cpu time      0.0169: real time      0.0171
    SETDIJ:  cpu time      0.0059: real time      0.0059
     EDDAV:  cpu time      0.4110: real time      0.4147
       DOS:  cpu time      0.0009: real time      0.0009
    CHARGE:  cpu time      0.0522: real time      0.0524
    MIXING:  cpu time      0.0009: real time      0.0009
    --------------------------------------------
      LOOP:  cpu time      0.4878: real time      0.4919

 eigenvalue-minimisations  :  1432
 total energy-change (2. order) :-0.1738762E+01  (-0.1127623E+00)
 number of electron      90.0000880 magnetization       3.3595146
 augmentation part       56.3755515 magnetization       1.6536152

 Broyden mixing:
  rms(total) = 0.38943E+00    rms(broyden)= 0.38941E+00
  rms(prec ) = 0.39266E+00
  weight for this iteration     100.00

 eigenvalues of (default mixing * dielectric matrix)
  average eigenvalue GAMMA=   1.1480
  3.3549  1.1974  0.7772  0.7772  0.4631  0.3185

 Free energy of the ion-electron system (eV)
  ---------------------------------------------------
  alpha Z        PSCENC =       216.17040255
  Ewald energy   TEWEN  =     42221.86545264
  -Hartree energ DENC   =    -52991.37329733
  -exchange      EXHF   =         0.00000000
  -V(xc)+E(xc)   XCENC  =       366.84274908
  PAW double counting   =     10650.05787537   -11515.02538076
  entropy T*S    EENTRO =        -0.00812214
  eigenvalues    EBANDS =      -128.77429463
  atomic energy  EATOM  =     11152.61838693
  Solvation  Ediel_sol  =         0.00000000
  ---------------------------------------------------
  free energy    TOTEN  =       -27.62622831 eV

  energy without entropy =      -27.61810617  energy(sigma->0) =      -27.62352093


--------------------------------------------------------------------------------------------------------




--------------------------------------- Iteration      1(  12)  ---------------------------------------


    POTLOK:  cpu time      0.0161: real time      0.0164
    SETDIJ:  cpu time      0.0056: real time      0.0057
     EDDAV:  cpu time      0.3773: real time      0.3811
       DOS:  cpu time      0.0009: real time      0.0009
    CHARGE:  cpu time      0.0522: real time      0.0524
    MIXING:  cpu time      0.0009: real time      0.0009
    --------------------------------------------
      LOOP:  cpu time      0.4532: real time      0.4574

 eigenvalue-minimisations  :  1288
 total energy-change (2. order) :-0.1979703E+01  (-0.1126024E+00)
 number of electron      90.0000877 magnetization       1.5739867
 augmentation part       56.2237797 magnetization       0.2182458

 Broyden mixing:
  rms(total) = 0.30067E+00    rms(broyden)= 0.30065E+00
  rms(prec ) = 0.30940E+00
  weight for this iteration     100.00

 eigenvalues of (default mixing * dielectric matrix)
  average eigenvalue GAMMA=   1.4416
  5.2907  1.6129  1.0290  0.7580  0.6070  0.4723  0.3214

 Free energy of the ion-electron system (eV)
  ---------------------------------------------------
  alpha Z        PSCENC =       216.17040255
  Ewald energy   TEWEN  =     42221.86545264
  -Hartree energ DENC   =    -53011.62115599
  -exchange      EXHF   =         0.00000000
  -V(xc)+E(xc)   XCENC  =       365.87986758
  PAW double counting   =     10689.12568883   -11556.97907440
  entropy T*S    EENTRO =        -0.01483984
  eigenvalues    EBANDS =      -106.65065968
  atomic energy  EATOM  =     11152.61838693
  Solvation  Ediel_sol  =         0.00000000
  ---------------------------------------------------
  free energy    TOTEN  =       -29.60593139 eV

  energy without entropy =      -29.59109155  energy(sigma->0) =      -29.60098478


--------------------------------------------------------------------------------------------------------




--------------------------------------- Iteration      1(  13)  ---------------------------------------


    POTLOK:  cpu time      0.0161: real time      0.0164
    SETDIJ:  cpu time      0.0057: real time      0.0057
     EDDAV:  cpu time      0.3619: real time      0.3650
       DOS:  cpu time      0.0009: real time      0.0009
    CHARGE:  cpu time      0.0495: real time      0.0497
    MIXING:  cpu time      0.0010: real time      0.0010
    --------------------------------------------
      LOOP:  cpu time      0.4351: real time      0.4388

 eigenvalue-minimisations  :  1220
 total energy-change (2. order) :-0.2713902E+01  (-0.2196354E+00)
 number of electron      90.0000874 magnetization       0.9455022
 augmentation part       55.9975013 magnetization      -0.0458396

 Broyden mixing:
  rms(total) = 0.18201E+00    rms(broyden)= 0.18195E+00
  rms(prec ) = 0.20185E+00
  weight for this iteration     100.00

 eigenvalues of (default mixing * dielectric matrix)
  average eigenvalue GAMMA=   1.7768
  8.3298  2.1667  0.9288  0.7659  0.7659  0.3212  0.4902  0.4455

 Free energy of the ion-electron system (eV)
  ---------------------------------------------------
  alpha Z        PSCENC =       216.17040255
  Ewald energy   TEWEN  =     42221.86545264
  -Hartree energ DENC   =    -53019.66684437
  -exchange      EXHF   =         0.00000000
  -V(xc)+E(xc)   XCENC  =       364.43985671
  PAW double counting   =     10643.31426545   -11510.32827161
  entropy T*S    EENTRO =        -0.00729108
  eigenvalues    EBANDS =      -100.72579019
  atomic energy  EATOM  =     11152.61838693
  Solvation  Ediel_sol  =         0.00000000
  ---------------------------------------------------
  free energy    TOTEN  =       -32.31983298 eV

  energy without entropy =      -32.31254190  energy(sigma->0) =      -32.31740262


--------------------------------------------------------------------------------------------------------




--------------------------------------- Iteration      1(  14)  ---------------------------------------


    POTLOK:  cpu time      0.0160: real time      0.0163
    SETDIJ:  cpu time      0.0056: real time      0.0056
     EDDAV:  cpu time      0.3466: real time      0.3492
       DOS:  cpu time      0.0010: real time      0.0010
    CHARGE:  cpu time      0.0516: real time      0.0518
    MIXING:  cpu time      0.0011: real time      0.0011
    --------------------------------------------
      LOOP:  cpu time      0.4219: real time      0.4250

 eigenvalue-minimisations  :  1156
 total energy-change (2. order) :-0.1327307E+01  (-0.1631159E+00)
 number of electron      90.0000875 magnetization       0.6948979
 augmentation part       56.0938144 magnetization       0.1326933

 Broyden mixing:
  rms(total) = 0.94084E-01    rms(broyden)= 0.94035E-01
  rms(prec ) = 0.10092E+00
  weight for this iteration     100.00

 eigenvalues of (default mixing * dielectric matrix)
  average eigenvalue GAMMA=   1.7635
  9.2146  2.2280  0.9459  0.7720  0.7720  0.7028  0.3202  0.4837  0.4320

 Free energy of the ion-electron system (eV)
  ---------------------------------------------------
  alpha Z        PSCENC =       216.17040255
  Ewald energy   TEWEN  =     42221.86545264
  -Hartree energ DENC   =    -53005.17089011
  -exchange      EXHF   =         0.00000000
  -V(xc)+E(xc)   XCENC  =       363.43998254
  PAW double counting   =     10576.15183886   -11438.79834940
  entropy T*S    EENTRO =        -0.01343745
  eigenvalues    EBANDS =      -119.91052653
  atomic energy  EATOM  =     11152.61838693
  Solvation  Ediel_sol  =         0.00000000
  ---------------------------------------------------
  free energy    TOTEN  =       -33.64713998 eV

  energy without entropy =      -33.63370253  energy(sigma->0) =      -33.64266083


--------------------------------------------------------------------------------------------------------




--------------------------------------- Iteration      1(  15)  ---------------------------------------


    POTLOK:  cpu time      0.0160: real time      0.0163
    SETDIJ:  cpu time      0.0055: real time      0.0056
     EDDAV:  cpu time      0.3252: real time      0.3279
       DOS:  cpu time      0.0009: real time      0.0009
    CHARGE:  cpu time      0.0502: real time      0.0504
    MIXING:  cpu time      0.0012: real time      0.0012
    --------------------------------------------
      LOOP:  cpu time      0.3991: real time      0.4024

 eigenvalue-minimisations  :  1072
 total energy-change (2. order) :-0.4900984E+00  (-0.5700037E-01)
 number of electron      90.0000876 magnetization       0.5089706
 augmentation part       56.1858218 magnetization       0.1846973

 Broyden mixing:
  rms(total) = 0.75416E-01    rms(broyden)= 0.75388E-01
  rms(prec ) = 0.80032E-01
  weight for this iteration     100.00

 eigenvalues of (default mixing * dielectric matrix)
  average eigenvalue GAMMA=   1.7435
  9.7730  2.2911  0.8635  0.8635  0.9008  0.9008  0.6218  0.3206  0.4578  0.4419

 Free energy of the ion-electron system (eV)
  ---------------------------------------------------
  alpha Z        PSCENC =       216.17040255
  Ewald energy   TEWEN  =     42221.86545264
  -Hartree energ DENC   =    -52995.87359332
  -exchange      EXHF   =         0.00000000
  -V(xc)+E(xc)   XCENC  =       363.04839323
  PAW double counting   =     10563.03225561   -11424.66149377
  entropy T*S    EENTRO =        -0.00530158
  eigenvalues    EBANDS =      -130.33174065
  atomic energy  EATOM  =     11152.61838693
  Solvation  Ediel_sol  =         0.00000000
  ---------------------------------------------------
  free energy    TOTEN  =       -34.13723836 eV

  energy without entropy =      -34.13193678  energy(sigma->0) =      -34.13547117


--------------------------------------------------------------------------------------------------------




--------------------------------------- Iteration      1(  16)  ---------------------------------------


    POTLOK:  cpu time      0.0160: real time      0.0162
    SETDIJ:  cpu time      0.0056: real time      0.0056
     EDDAV:  cpu time      0.3596: real time      0.3628
       DOS:  cpu time      0.0009: real time      0.0009
    CHARGE:  cpu time      0.0549: real time      0.0551
    MIXING:  cpu time      0.0015: real time      0.0015
    --------------------------------------------
      LOOP:  cpu time      0.4385: real time      0.4422

 eigenvalue-minimisations  :  1168
 total energy-change (2. order) :-0.2449625E+00  (-0.1662823E-01)
 number of electron      90.0000876 magnetization       0.3207978
 augmentation part       56.1961003 magnetization       0.1094173

 Broyden mixing:
  rms(total) = 0.55518E-01    rms(broyden)= 0.55498E-01
  rms(prec ) = 0.59713E-01
  weight for this iteration     100.00

 eigenvalues of (default mixing * dielectric matrix)
  average eigenvalue GAMMA=   1.7732
 10.5273  2.2670  1.4079  1.0242  1.0242  0.8628  0.6953  0.3206  0.5136  0.4508
  0.4120

 Free energy of the ion-electron system (eV)
  ---------------------------------------------------
  alpha Z        PSCENC =       216.17040255
  Ewald energy   TEWEN  =     42221.86545264
  -Hartree energ DENC   =    -52990.94224976
  -exchange      EXHF   =         0.00000000
  -V(xc)+E(xc)   XCENC  =       362.87256047
  PAW double counting   =     10552.73318801   -11414.22246896
  entropy T*S    EENTRO =        -0.00006861
  eigenvalues    EBANDS =      -135.47740415
  atomic energy  EATOM  =     11152.61838693
  Solvation  Ediel_sol  =         0.00000000
  ---------------------------------------------------
  free energy    TOTEN  =       -34.38220090 eV

  energy without entropy =      -34.38213228  energy(sigma->0) =      -34.38217802


--------------------------------------------------------------------------------------------------------




--------------------------------------- Iteration      1(  17)  ---------------------------------------


    POTLOK:  cpu time      0.0171: real time      0.0174
    SETDIJ:  cpu time      0.0061: real time      0.0061
     EDDAV:  cpu time      0.3599: real time      0.3629
       DOS:  cpu time      0.0009: real time      0.0009
    CHARGE:  cpu time      0.0487: real time      0.0490
    MIXING:  cpu time      0.0014: real time      0.0014
    --------------------------------------------
      LOOP:  cpu time      0.4342: real time      0.4377

 eigenvalue-minimisations  :  1212
 total energy-change (2. order) :-0.1999195E+00  (-0.1250081E-01)
 number of electron      90.0000875 magnetization       0.2516982
 augmentation part       56.1777476 magnetization       0.1351181

 Broyden mixing:
  rms(total) = 0.32759E-01    rms(broyden)= 0.32736E-01
  rms(prec ) = 0.36828E-01
  weight for this iteration     100.00

 eigenvalues of (default mixing * dielectric matrix)
  average eigenvalue GAMMA=   1.7801
 10.9449  2.2230  2.2230  1.0409  1.0409  0.7903  0.7903  0.6704  0.3205  0.4830
  0.4415  0.3928

 Free energy of the ion-electron system (eV)
  ---------------------------------------------------
  alpha Z        PSCENC =       216.17040255
  Ewald energy   TEWEN  =     42221.86545264
  -Hartree energ DENC   =    -52983.83677317
  -exchange      EXHF   =         0.00000000
  -V(xc)+E(xc)   XCENC  =       362.74878677
  PAW double counting   =     10542.96689777   -11404.90176969
  entropy T*S    EENTRO =         0.00147107
  eigenvalues    EBANDS =      -142.21497528
  atomic energy  EATOM  =     11152.61838693
  Solvation  Ediel_sol  =         0.00000000
  ---------------------------------------------------
  free energy    TOTEN  =       -34.58212041 eV

  energy without entropy =      -34.58359148  energy(sigma->0) =      -34.58261077


--------------------------------------------------------------------------------------------------------




--------------------------------------- Iteration      1(  18)  ---------------------------------------


    POTLOK:  cpu time      0.0159: real time      0.0162
    SETDIJ:  cpu time      0.0057: real time      0.0057
     EDDAV:  cpu time      0.3506: real time      0.3536
       DOS:  cpu time      0.0009: real time      0.0009
    CHARGE:  cpu time      0.0484: real time      0.0487
    MIXING:  cpu time      0.0014: real time      0.0015
    --------------------------------------------
      LOOP:  cpu time      0.4230: real time      0.4265

 eigenvalue-minimisations  :  1176
 total energy-change (2. order) :-0.7407388E-01  (-0.4195996E-02)
 number of electron      90.0000875 magnetization       0.2255672
 augmentation part       56.1709989 magnetization       0.1396167

 Broyden mixing:
  rms(total) = 0.22063E-01    rms(broyden)= 0.22056E-01
  rms(prec ) = 0.24548E-01
  weight for this iteration     100.00

 eigenvalues of (default mixing * dielectric matrix)
  average eigenvalue GAMMA=   1.7847
 11.2353  2.6808  2.3803  1.1307  0.9074  0.9074  0.9098  0.7756  0.6535  0.3205
  0.4772  0.4387  0.3835

 Free energy of the ion-electron system (eV)
  ---------------------------------------------------
  alpha Z        PSCENC =       216.17040255
  Ewald energy   TEWEN  =     42221.86545264
  -Hartree energ DENC   =    -52979.48576698
  -exchange      EXHF   =         0.00000000
  -V(xc)+E(xc)   XCENC  =       362.67709735
  PAW double counting   =     10542.48832771   -11404.73850578
  entropy T*S    EENTRO =        -0.00023355
  eigenvalues    EBANDS =      -146.25135516
  atomic energy  EATOM  =     11152.61838693
  Solvation  Ediel_sol  =         0.00000000
  ---------------------------------------------------
  free energy    TOTEN  =       -34.65619430 eV

  energy without entropy =      -34.65596075  energy(sigma->0) =      -34.65611645


--------------------------------------------------------------------------------------------------------




--------------------------------------- Iteration      1(  19)  ---------------------------------------


    POTLOK:  cpu time      0.0159: real time      0.0162
    SETDIJ:  cpu time      0.0056: real time      0.0056
     EDDAV:  cpu time      0.3289: real time      0.3314
       DOS:  cpu time      0.0009: real time      0.0009
    CHARGE:  cpu time      0.0502: real time      0.0505
    MIXING:  cpu time      0.0015: real time      0.0015
    --------------------------------------------
      LOOP:  cpu time      0.4030: real time      0.4060

 eigenvalue-minimisations  :  1088
 total energy-change (2. order) :-0.6252178E-01  (-0.1979916E-02)
 number of electron      90.0000875 magnetization       0.2046670
 augmentation part       56.1842463 magnetization       0.1418669

 Broyden mixing:
  rms(total) = 0.18091E-01    rms(broyden)= 0.18087E-01
  rms(prec ) = 0.19171E-01
  weight for this iteration     100.00

 eigenvalues of (default mixing * dielectric matrix)
  average eigenvalue GAMMA=   1.7405
 11.3380  2.8365  2.4109  1.3732  1.0532  0.8382  0.8382  0.7353  0.7353  0.5947
  0.3205  0.4729  0.4393  0.3807

 Free energy of the ion-electron system (eV)
  ---------------------------------------------------
  alpha Z        PSCENC =       216.17040255
  Ewald energy   TEWEN  =     42221.86545264
  -Hartree energ DENC   =    -52974.67537644
  -exchange      EXHF   =         0.00000000
  -V(xc)+E(xc)   XCENC  =       362.59228746
  PAW double counting   =     10537.75172750   -11399.70987460
  entropy T*S    EENTRO =        -0.00131005
  eigenvalues    EBANDS =      -151.33041207
  atomic energy  EATOM  =     11152.61838693
  Solvation  Ediel_sol  =         0.00000000
  ---------------------------------------------------
  free energy    TOTEN  =       -34.71871608 eV

  energy without entropy =      -34.71740603  energy(sigma->0) =      -34.71827939


--------------------------------------------------------------------------------------------------------




--------------------------------------- Iteration      1(  20)  ---------------------------------------


    POTLOK:  cpu time      0.0159: real time      0.0163
    SETDIJ:  cpu time      0.0056: real time      0.0056
     EDDAV:  cpu time      0.3389: real time      0.3419
       DOS:  cpu time      0.0009: real time      0.0009
    CHARGE:  cpu time      0.0489: real time      0.0491
    MIXING:  cpu time      0.0016: real time      0.0017
    --------------------------------------------
      LOOP:  cpu time      0.4119: real time      0.4155

 eigenvalue-minimisations  :  1124
 total energy-change (2. order) :-0.3598266E-01  (-0.4868842E-03)
 number of electron      90.0000875 magnetization       0.1504534
 augmentation part       56.1841251 magnetization       0.0955032

 Broyden mixing:
  rms(total) = 0.14804E-01    rms(broyden)= 0.14802E-01
  rms(prec ) = 0.15711E-01
  weight for this iteration     100.00

 eigenvalues of (default mixing * dielectric matrix)
  average eigenvalue GAMMA=   1.7364
 11.4413  2.9097  2.7249  1.6866  1.1685  0.9285  0.9285  0.7768  0.7768  0.6442
  0.3205  0.4849  0.4375  0.4375  0.3800

 Free energy of the ion-electron system (eV)
  ---------------------------------------------------
  alpha Z        PSCENC =       216.17040255
  Ewald energy   TEWEN  =     42221.86545264
  -Hartree energ DENC   =    -52973.14351002
  -exchange      EXHF   =         0.00000000
  -V(xc)+E(xc)   XCENC  =       362.55473337
  PAW double counting   =     10538.53783610   -11400.52019705
  entropy T*S    EENTRO =        -0.00213971
  eigenvalues    EBANDS =      -152.83566354
  atomic energy  EATOM  =     11152.61838693
  Solvation  Ediel_sol  =         0.00000000
  ---------------------------------------------------
  free energy    TOTEN  =       -34.75469873 eV

  energy without entropy =      -34.75255902  energy(sigma->0) =      -34.75398550


--------------------------------------------------------------------------------------------------------




--------------------------------------- Iteration      1(  21)  ---------------------------------------


    POTLOK:  cpu time      0.0160: real time      0.0163
    SETDIJ:  cpu time      0.0057: real time      0.0058
     EDDAV:  cpu time      0.3389: real time      0.3416
       DOS:  cpu time      0.0009: real time      0.0010
    CHARGE:  cpu time      0.0486: real time      0.0488
    MIXING:  cpu time      0.0017: real time      0.0017
    --------------------------------------------
      LOOP:  cpu time      0.4118: real time      0.4151

 eigenvalue-minimisations  :  1132
 total energy-change (2. order) :-0.4396142E-01  (-0.5281258E-03)
 number of electron      90.0000875 magnetization       0.0836443
 augmentation part       56.1803802 magnetization       0.0465497

 Broyden mixing:
  rms(total) = 0.11387E-01    rms(broyden)= 0.11385E-01
  rms(prec ) = 0.12051E-01
  weight for this iteration     100.00

 eigenvalues of (default mixing * dielectric matrix)
  average eigenvalue GAMMA=   1.7545
 11.5658  3.6475  2.7644  1.8924  1.2244  0.9759  0.9759  0.8123  0.8123  0.7102
  0.6459  0.3205  0.4797  0.3798  0.4324  0.4324

 Free energy of the ion-electron system (eV)
  ---------------------------------------------------
  alpha Z        PSCENC =       216.17040255
  Ewald energy   TEWEN  =     42221.86545264
  -Hartree energ DENC   =    -52970.57829180
  -exchange      EXHF   =         0.00000000
  -V(xc)+E(xc)   XCENC  =       362.50976173
  PAW double counting   =     10540.97320057   -11403.12005513
  entropy T*S    EENTRO =        -0.00291638
  eigenvalues    EBANDS =      -155.23460125
  atomic energy  EATOM  =     11152.61838693
  Solvation  Ediel_sol  =         0.00000000
  ---------------------------------------------------
  free energy    TOTEN  =       -34.79866015 eV

  energy without entropy =      -34.79574377  energy(sigma->0) =      -34.79768803


--------------------------------------------------------------------------------------------------------




--------------------------------------- Iteration      1(  22)  ---------------------------------------


    POTLOK:  cpu time      0.0161: real time      0.0163
    SETDIJ:  cpu time      0.0056: real time      0.0056
     EDDAV:  cpu time      0.3381: real time      0.3409
       DOS:  cpu time      0.0009: real time      0.0009
    CHARGE:  cpu time      0.0489: real time      0.0491
    MIXING:  cpu time      0.0017: real time      0.0017
    --------------------------------------------
      LOOP:  cpu time      0.4113: real time      0.4145

 eigenvalue-minimisations  :  1128
 total energy-change (2. order) :-0.3765626E-01  (-0.4018434E-03)
 number of electron      90.0000875 magnetization       0.0821602
 augmentation part       56.1859376 magnetization       0.0679640

 Broyden mixing:
  rms(total) = 0.88683E-02    rms(broyden)= 0.88658E-02
  rms(prec ) = 0.92903E-02
  weight for this iteration     100.00

 eigenvalues of (default mixing * dielectric matrix)
  average eigenvalue GAMMA=   1.7673
 11.5860  3.5981  3.5981  1.9078  1.5298  0.9398  0.9398  0.8912  0.8912  0.7947
  0.6933  0.6364  0.3205  0.4764  0.3801  0.4387  0.4217

 Free energy of the ion-electron system (eV)
  ---------------------------------------------------
  alpha Z        PSCENC =       216.17040255
  Ewald energy   TEWEN  =     42221.86545264
  -Hartree energ DENC   =    -52966.70594474
  -exchange      EXHF   =         0.00000000
  -V(xc)+E(xc)   XCENC  =       362.45819750
  PAW double counting   =     10540.64130609   -11402.76598635
  entropy T*S    EENTRO =        -0.00319615
  eigenvalues    EBANDS =      -159.11493488
  atomic energy  EATOM  =     11152.61838693
  Solvation  Ediel_sol  =         0.00000000
  ---------------------------------------------------
  free energy    TOTEN  =       -34.83631641 eV

  energy without entropy =      -34.83312027  energy(sigma->0) =      -34.83525103


--------------------------------------------------------------------------------------------------------




--------------------------------------- Iteration      1(  23)  ---------------------------------------


    POTLOK:  cpu time      0.0159: real time      0.0162
    SETDIJ:  cpu time      0.0056: real time      0.0056
     EDDAV:  cpu time      0.3209: real time      0.3237
       DOS:  cpu time      0.0009: real time      0.0009
    CHARGE:  cpu time      0.0489: real time      0.0491
    MIXING:  cpu time      0.0019: real time      0.0019
    --------------------------------------------
      LOOP:  cpu time      0.3941: real time      0.3973

 eigenvalue-minimisations  :  1048
 total energy-change (2. order) :-0.3623238E-01  (-0.1477435E-03)
 number of electron      90.0000875 magnetization       0.0450111
 augmentation part       56.1831096 magnetization       0.0247990

 Broyden mixing:
  rms(total) = 0.74213E-02    rms(broyden)= 0.74204E-02
  rms(prec ) = 0.79389E-02
  weight for this iteration     100.00

 eigenvalues of (default mixing * dielectric matrix)
  average eigenvalue GAMMA=   1.8095
 11.6412  5.2175  3.0674  2.3805  1.3678  1.3678  0.8897  0.8897  0.8297  0.8297
  0.8056  0.6531  0.5978  0.3205  0.4719  0.3802  0.4413  0.4193

 Free energy of the ion-electron system (eV)
  ---------------------------------------------------
  alpha Z        PSCENC =       216.17040255
  Ewald energy   TEWEN  =     42221.86545264
  -Hartree energ DENC   =    -52966.69751671
  -exchange      EXHF   =         0.00000000
  -V(xc)+E(xc)   XCENC  =       362.42711145
  PAW double counting   =     10541.89355298   -11404.00792972
  entropy T*S    EENTRO =        -0.00358941
  eigenvalues    EBANDS =      -159.13841949
  atomic energy  EATOM  =     11152.61838693
  Solvation  Ediel_sol  =         0.00000000
  ---------------------------------------------------
  free energy    TOTEN  =       -34.87254879 eV

  energy without entropy =      -34.86895938  energy(sigma->0) =      -34.87135232


--------------------------------------------------------------------------------------------------------




--------------------------------------- Iteration      1(  24)  ---------------------------------------


    POTLOK:  cpu time      0.0160: real time      0.0162
    SETDIJ:  cpu time      0.0056: real time      0.0056
     EDDAV:  cpu time      0.3302: real time      0.3327
       DOS:  cpu time      0.0009: real time      0.0009
    CHARGE:  cpu time      0.0505: real time      0.0507
    MIXING:  cpu time      0.0019: real time      0.0019
    --------------------------------------------
      LOOP:  cpu time      0.4051: real time      0.4081

 eigenvalue-minimisations  :  1088
 total energy-change (2. order) :-0.3899856E-01  (-0.2169275E-03)
 number of electron      90.0000875 magnetization       0.0253880
 augmentation part       56.1865866 magnetization       0.0160855

 Broyden mixing:
  rms(total) = 0.44416E-02    rms(broyden)= 0.44404E-02
  rms(prec ) = 0.46764E-02
  weight for this iteration     100.00

 eigenvalues of (default mixing * dielectric matrix)
  average eigenvalue GAMMA=   1.8888
 11.7517  6.9246  2.9742  2.7494  1.8353  1.2408  0.9873  0.9873  0.8618  0.8618
  0.7470  0.7470  0.6383  0.3205  0.5498  0.4702  0.3802  0.4418  0.4187

 Free energy of the ion-electron system (eV)
  ---------------------------------------------------
  alpha Z        PSCENC =       216.17040255
  Ewald energy   TEWEN  =     42221.86545264
  -Hartree energ DENC   =    -52963.80586315
  -exchange      EXHF   =         0.00000000
  -V(xc)+E(xc)   XCENC  =       362.38173467
  PAW double counting   =     10539.75948668   -11401.76434015
  entropy T*S    EENTRO =        -0.00370462
  eigenvalues    EBANDS =      -162.13310289
  atomic energy  EATOM  =     11152.61838693
  Solvation  Ediel_sol  =         0.00000000
  ---------------------------------------------------
  free energy    TOTEN  =       -34.91154735 eV

  energy without entropy =      -34.90784273  energy(sigma->0) =      -34.91031248


--------------------------------------------------------------------------------------------------------




--------------------------------------- Iteration      1(  25)  ---------------------------------------


    POTLOK:  cpu time      0.0159: real time      0.0161
    SETDIJ:  cpu time      0.0056: real time      0.0056
     EDDAV:  cpu time      0.2684: real time      0.2705
       DOS:  cpu time      0.0009: real time      0.0009
    CHARGE:  cpu time      0.0497: real time      0.0503
    MIXING:  cpu time      0.0022: real time      0.0022
    --------------------------------------------
      LOOP:  cpu time      0.3427: real time      0.3456

 eigenvalue-minimisations  :   800
 total energy-change (2. order) :-0.1915499E-01  (-0.5310878E-04)
 number of electron      90.0000875 magnetization       0.0117728
 augmentation part       56.1854697 magnetization       0.0059262

 Broyden mixing:
  rms(total) = 0.26595E-02    rms(broyden)= 0.26587E-02
  rms(prec ) = 0.28942E-02
  weight for this iteration     100.00

 eigenvalues of (default mixing * dielectric matrix)
  average eigenvalue GAMMA=   1.9530
 11.9861  8.6443  3.2662  2.6591  2.0429  1.2156  1.2156  0.8990  0.8990  0.8103
  0.8103  0.7223  0.7223  0.6288  0.3205  0.5088  0.3803  0.4683  0.4426  0.4184

 Free energy of the ion-electron system (eV)
  ---------------------------------------------------
  alpha Z        PSCENC =       216.17040255
  Ewald energy   TEWEN  =     42221.86545264
  -Hartree energ DENC   =    -52962.98064527
  -exchange      EXHF   =         0.00000000
  -V(xc)+E(xc)   XCENC  =       362.36375021
  PAW double counting   =     10539.51622200   -11401.53448385
  entropy T*S    EENTRO =        -0.00388197
  eigenvalues    EBANDS =      -162.94590558
[...]
     14      -2.5670      1.00000
     15      -2.5584      1.00000
     16      -2.4614      1.00000
     17      -2.2839      1.00000
     18      -2.0368      1.00000
     19      -1.9610      1.00000
     20      -1.8842      1.00000
     21      -1.7465      1.00000
     22      -1.6115      1.00000
     23      -1.3716      1.00000
     24      -1.2913      1.00000
     25      -1.2589      1.00000
     26      -1.1872      1.00000
     27      -1.1742      1.00000
     28      -1.0674      1.00000
     29      -1.0406      1.00000
     30      -0.9924      1.00000
     31      -0.9683      1.00000
     32      -0.9402      1.00000
     33      -0.8216      1.00000
     34      -0.7910      1.00000
     35      -0.7441      1.00000
     36      -0.7158      1.00000
     37      -0.6934      1.00000
     38      -0.6207      1.00000
     39      -0.5696      1.00000
     40      -0.4945      1.00000
     41      -0.4848      1.00000
     42      -0.4331      1.00000
     43      -0.4027      1.00000
     44      -0.3918      1.00000
     45       0.5657      1.03522
     46       2.4661     -0.00000
     47       4.2881     -0.00000
     48       4.4247     -0.00000
     49       5.0385     -0.00000
     50       5.8795     -0.00000
     51       6.6179      0.00000
     52       7.1339      0.00000
     53       7.2599      0.00000
     54       7.8610      0.00000
     55       8.1087      0.00000
     56       8.4302      0.00000
     57       9.2025      0.00000
     58       9.5242      0.00000
     59       9.5443      0.00000
     60       9.7084      0.00000

 k-point     4 :       0.3333    0.3333    0.0000
  band No.  band energies     occupation 
      1      -5.4405      1.00000
      2      -4.7607      1.00000
      3      -4.0355      1.00000
      4      -3.4913      1.00000
      5      -3.4086      1.00000
      6      -3.1315      1.00000
      7      -3.0755      1.00000
      8      -2.9560      1.00000
      9      -2.9356      1.00000
     10      -2.7720      1.00000
     11      -2.7521      1.00000
     12      -2.5217      1.00000
     13      -2.4572      1.00000
     14      -2.3438      1.00000
     15      -2.2701      1.00000
     16      -2.2330      1.00000
     17      -2.1830      1.00000
     18      -2.1193      1.00000
     19      -1.9946      1.00000
     20      -1.9224      1.00000
     21      -1.9087      1.00000
     22      -1.8807      1.00000
     23      -1.8421      1.00000
     24      -1.7207      1.00000
     25      -1.6258      1.00000
     26      -1.5000      1.00000
     27      -1.4800      1.00000
     28      -1.2253      1.00000
     29      -1.1701      1.00000
     30      -1.1521      1.00000
     31      -1.0712      1.00000
     32      -1.0329      1.00000
     33      -0.9576      1.00000
     34      -0.9372      1.00000
     35      -0.8251      1.00000
     36      -0.7368      1.00000
     37      -0.7026      1.00000
     38      -0.6564      1.00000
     39      -0.6282      1.00000
     40      -0.5705      1.00000
     41      -0.5270      1.00000
     42      -0.4801      1.00000
     43      -0.1355      1.00000
     44       0.7231      0.81004
     45       1.7631     -0.00000
     46       2.1862     -0.00000
     47       2.7242     -0.00000
     48       4.0279     -0.00000
     49       4.1297     -0.00000
     50       5.5531     -0.00000
     51       5.7348     -0.00000
     52       6.1334     -0.00000
     53       6.7549      0.00000
     54       7.0385      0.00000
     55       7.9046      0.00000
     56       8.0358      0.00000
     57       8.3068      0.00000
     58       8.9905      0.00000
     59       9.4067      0.00000
     60       9.7250      0.00000


--------------------------------------------------------------------------------------------------------


 soft charge-density along one line, spin component           1
         0         1         2         3         4         5         6         7         8         9
 total charge-density along one line
 
 soft charge-density along one line, spin component           2
         0         1         2         3         4         5         6         7         8         9
 total charge-density along one line
 
 pseudopotential strength for first ion, spin component:           1
 -7.227  -0.000   0.000   0.000   0.000  -1.461   0.000  -0.000
 -0.000  -7.210   0.000  -0.000  -0.000   0.000  -1.475  -0.000
  0.000   0.000  -7.231  -0.000   0.004  -0.000  -0.000  -1.462
  0.000  -0.000  -0.000  -7.223  -0.000  -0.000   0.000   0.000
  0.000  -0.000   0.004  -0.000  -7.222  -0.000   0.000  -0.002
 -1.461   0.000  -0.000  -0.000  -0.000   8.018  -0.000   0.000
  0.000  -1.475  -0.000   0.000   0.000  -0.000   8.030   0.000
 -0.000  -0.000  -1.462   0.000  -0.002   0.000   0.000   8.022
 -0.000   0.000   0.000  -1.467   0.000   0.000  -0.000  -0.000
 -0.000   0.000  -0.002   0.000  -1.464   0.000  -0.000   0.000
  0.000  -0.000  -0.004   0.000  -0.000   0.000  -0.000   0.004
  0.000  -0.000  -0.007   0.000  -0.001   0.000  -0.000   0.008
  0.000  -0.017   0.000  -0.000   0.000  -0.000   0.013  -0.000
 -0.000  -0.000  -0.017   0.000   0.001  -0.000   0.000   0.012
 -0.000  -0.000  -0.000  -0.015   0.000  -0.000  -0.000   0.000
  0.000  -0.018   0.000   0.000   0.000   0.000   0.015   0.000
  0.000  -0.000  -0.018   0.000   0.001  -0.000  -0.000   0.013
 -0.000   0.000  -0.000  -0.016   0.000  -0.000  -0.000  -0.000
 pseudopotential strength for first ion, spin component:           2
 -7.227  -0.000   0.000   0.000   0.000  -1.461   0.000  -0.000
 -0.000  -7.210   0.000  -0.000  -0.000   0.000  -1.475  -0.000
  0.000   0.000  -7.231  -0.000   0.004  -0.000  -0.000  -1.462
  0.000  -0.000  -0.000  -7.223  -0.000  -0.000   0.000   0.000
  0.000  -0.000   0.004  -0.000  -7.222  -0.000   0.000  -0.002
 -1.461   0.000  -0.000  -0.000  -0.000   8.018  -0.000   0.000
  0.000  -1.475  -0.000   0.000   0.000  -0.000   8.030   0.000
 -0.000  -0.000  -1.462   0.000  -0.002   0.000   0.000   8.022
 -0.000   0.000   0.000  -1.467   0.000   0.000  -0.000  -0.000
 -0.000   0.000  -0.002   0.000  -1.464   0.000  -0.000   0.000
  0.000  -0.000  -0.004   0.000  -0.000   0.000  -0.000   0.004
  0.000  -0.000  -0.007   0.000  -0.001   0.000  -0.000   0.008
  0.000  -0.017   0.000  -0.000   0.000  -0.000   0.013  -0.000
 -0.000  -0.000  -0.017   0.000   0.001  -0.000   0.000   0.012
 -0.000  -0.000  -0.000  -0.015   0.000  -0.000  -0.000   0.000
  0.000  -0.018   0.000   0.000   0.000   0.000   0.015   0.000
  0.000  -0.000  -0.018   0.000   0.001  -0.000  -0.000   0.013
 -0.000   0.000  -0.000  -0.016   0.000  -0.000  -0.000  -0.000
 total augmentation occupancy for first ion, spin component:           1
  1.920   0.000   0.000   0.000   0.000  -0.012   0.000   0.000   0.000   0.000   0.000   0.000   0.000   0.000   0.000   0.000
  0.000   1.946   0.000   0.000   0.000   0.000  -0.028   0.000   0.000   0.000   0.000   0.000   0.021   0.000   0.000  -0.020
  0.000   0.000   1.928   0.000   0.002   0.000   0.000  -0.014   0.000   0.005  -0.015   0.015   0.000   0.066   0.000   0.000
  0.000   0.000   0.000   1.942   0.000   0.000   0.000   0.000  -0.025   0.000   0.000   0.000   0.000   0.000   0.064   0.000
  0.000   0.000   0.002   0.000   1.926   0.000   0.000   0.005   0.000  -0.017  -0.050   0.010   0.000   0.022   0.000   0.000
 -0.012   0.000   0.000   0.000   0.000   0.010   0.000   0.000   0.000   0.000   0.000   0.000   0.000   0.000   0.000   0.000
  0.000  -0.028   0.000   0.000   0.000   0.000   0.010   0.000   0.000   0.000   0.000   0.000   0.021   0.000   0.000  -0.001
  0.000   0.000  -0.014   0.000   0.005   0.000   0.000   0.011   0.000   0.001  -0.016  -0.000   0.000   0.020   0.000   0.000
  0.000   0.000   0.000  -0.025   0.000   0.000   0.000   0.000   0.012   0.000   0.000   0.000   0.000   0.000   0.031   0.000
  0.000   0.000   0.005   0.000  -0.017   0.000   0.000   0.001   0.000   0.010  -0.006   0.001   0.000   0.003   0.000   0.000
  0.000   0.000  -0.015   0.000  -0.050   0.000   0.000  -0.016   0.000  -0.006   1.697  -0.128   0.000   0.227   0.000   0.000
  0.000   0.000   0.015   0.000   0.010   0.000   0.000  -0.000   0.000   0.001  -0.128   0.016   0.000  -0.028   0.000   0.000
  0.000   0.021   0.000   0.000   0.000   0.000   0.021   0.000   0.000   0.000   0.000   0.000   0.213   0.000   0.000  -0.013
  0.000   0.000   0.066   0.000   0.022   0.000   0.000   0.020   0.000   0.003   0.227  -0.028   0.000   0.110   0.000   0.000
  0.000   0.000   0.000   0.064   0.000   0.000   0.000   0.000   0.031   0.000   0.000   0.000   0.000   0.000   0.150   0.000
  0.000  -0.020   0.000   0.000   0.000   0.000  -0.001   0.000   0.000   0.000   0.000   0.000  -0.013   0.000   0.000   0.001
  0.000   0.000  -0.025   0.000  -0.001   0.000   0.000  -0.001   0.000  -0.000  -0.029   0.003   0.000  -0.010   0.000   0.000
  0.000   0.000   0.000  -0.024   0.000   0.000   0.000   0.000  -0.002   0.000   0.000   0.000   0.000   0.000  -0.010   0.000
 total augmentation occupancy for first ion, spin component:           2
  0.000   0.000   0.000   0.000   0.000   0.000   0.000   0.000   0.000   0.000   0.000   0.000   0.000   0.000   0.000   0.000
  0.000  -0.000   0.000   0.000   0.000   0.000   0.000   0.000   0.000   0.000   0.000   0.000  -0.000   0.000   0.000   0.000
  0.000   0.000   0.000   0.000   0.000   0.000   0.000   0.000   0.000  -0.000   0.000  -0.000   0.000  -0.000   0.000   0.000
  0.000   0.000   0.000  -0.000   0.000   0.000   0.000   0.000   0.000   0.000   0.000   0.000   0.000   0.000  -0.000   0.000
  0.000   0.000   0.000   0.000  -0.000   0.000   0.000  -0.000   0.000   0.000   0.000   0.000   0.000   0.000   0.000   0.000
  0.000   0.000   0.000   0.000   0.000   0.000   0.000   0.000   0.000   0.000   0.000   0.000   0.000   0.000   0.000   0.000
  0.000   0.000   0.000   0.000   0.000   0.000  -0.000   0.000   0.000   0.000   0.000   0.000  -0.000   0.000   0.000  -0.000
  0.000   0.000   0.000   0.000  -0.000   0.000   0.000  -0.000   0.000  -0.000   0.000   0.000   0.000   0.000   0.000   0.000
  0.000   0.000   0.000   0.000   0.000   0.000   0.000   0.000  -0.000   0.000   0.000   0.000   0.000   0.000   0.000   0.000
  0.000   0.000  -0.000   0.000   0.000   0.000   0.000  -0.000   0.000   0.000  -0.000  -0.000   0.000   0.000   0.000   0.000
  0.000   0.000   0.000   0.000   0.000   0.000   0.000   0.000   0.000  -0.000   0.000  -0.000   0.000  -0.000   0.000   0.000
  0.000   0.000  -0.000   0.000   0.000   0.000   0.000   0.000   0.000  -0.000  -0.000   0.000   0.000   0.000   0.000   0.000
  0.000  -0.000   0.000   0.000   0.000   0.000  -0.000   0.000   0.000   0.000   0.000   0.000   0.000   0.000   0.000  -0.000
  0.000   0.000  -0.000   0.000   0.000   0.000   0.000   0.000   0.000   0.000  -0.000   0.000   0.000   0.000   0.000   0.000
  0.000   0.000   0.000  -0.000   0.000   0.000   0.000   0.000   0.000   0.000   0.000   0.000   0.000   0.000   0.000   0.000
  0.000   0.000   0.000   0.000   0.000   0.000  -0.000   0.000   0.000   0.000   0.000   0.000  -0.000   0.000   0.000   0.000
  0.000   0.000   0.000   0.000  -0.000   0.000   0.000  -0.000   0.000   0.000   0.000  -0.000   0.000   0.000   0.000   0.000
  0.000   0.000   0.000  -0.000   0.000   0.000   0.000   0.000  -0.000   0.000   0.000   0.000   0.000   0.000  -0.000   0.000


------------------------ aborting loop because EDIFF is reached ----------------------------------------


    CHARGE:  cpu time      0.0515: real time      0.0518
    FORLOC:  cpu time      0.0012: real time      0.0012
    FORNL :  cpu time      0.1421: real time      0.1426
    STRESS:  cpu time      0.1621: real time      0.1628
    FORCOR:  cpu time      0.0160: real time      0.0161
    FORHAR:  cpu time      0.0028: real time      0.0028
    MIXING:  cpu time      0.0004: real time      0.0005
    OFIELD:  cpu time      0.0000: real time      0.0000

 ---------------------------------------------------------------------------------------------

         DFTD3 V3.0 Rev 1        
 Edisp (eV)   -3.17458

 E6    (eV) :    -1.3009
 E8    (eV) :    -1.8737
 % E8        : 59.02
    FORVDW:  cpu time      0.0494: real time      0.0496

  FORCE on cell =-STRESS in cart. coord.  units (eV):
  Direction    XX          YY          ZZ          XY          YZ          ZX
  --------------------------------------------------------------------------------------
  Alpha Z   216.17040   216.17040   216.17040
  Ewald   47808.86482 47967.88394-53651.38935     0.00000    -0.00000     0.00000
  Hartree 50893.79671 51013.22808-49051.12670    -0.00000    -0.00000    -0.00000
  E(xc)    -520.42522  -520.23398  -520.49351    -0.00000     0.00000    -0.00000
  Local  -99714.14674************101697.29372    -0.00000     0.00000    -0.00000
  n-local  -179.58883  -175.17796  -180.31431     6.76696     0.00000     0.00000
  augment   755.47571   758.64391   757.69456     0.00000     0.00000    -0.00000
  Kinetic   738.68840   740.00109   734.53132     6.58346     0.00000    -0.00000
  Fock        0.00000     0.00000     0.00000     0.00000     0.00000     0.00000
  vdW        -3.87647    -3.89121    -2.82310    -0.00000     0.00000    -0.00000
  -------------------------------------------------------------------------------------
  Total      -5.04122    -4.55177    -0.45697     0.00000     0.00000     0.00000
  in kB     -36.14347   -32.63435    -3.27627     0.00000     0.00000     0.00000
  external pressure =      -24.02 kB  Pullay stress =        0.00 kB


 VOLUME and BASIS-vectors are now :
 -----------------------------------------------------------------------------
  energy-cutoff  :      400.00
  volume of cell :      223.47
      direct lattice vectors                 reciprocal lattice vectors
     3.630000114  0.000000000  0.000000000     0.275482085  0.000000000  0.000000000
     0.000000000  2.566797733  0.000000000     0.000000000  0.389590495  0.000000000
     0.000000000  0.000000000 23.983791351     0.000000000  0.000000000  0.041694826

  length of vectors
     3.630000114  2.566797733 23.983791351     0.275482085  0.389590495  0.041694826


 FORCES acting on ions
    electron-ion (+dipol)            ewald-force                    non-local-force                 convergence-correction
 -----------------------------------------------------------------------------------------------
   -.364E-13 0.147E-11 0.459E+04   -.746E-07 0.321E-07 -.458E+04   0.000E+00 0.000E+00 -.617E+01   0.641E-10 -.298E-10 0.686E-01
   0.737E-06 -.131E-05 0.351E+04   0.134E-06 -.569E-07 -.352E+04   0.000E+00 0.000E+00 0.153E+01   -.212E-10 0.253E-10 -.160E-01
   -.513E-13 0.984E-12 0.208E+04   -.124E-06 0.519E-07 -.208E+04   0.000E+00 0.000E+00 -.101E+01   -.574E-11 0.345E-11 0.304E-01
   0.753E-06 -.132E-05 0.771E+03   0.128E-06 -.536E-07 -.771E+03   0.000E+00 0.000E+00 0.312E+00   -.101E-10 0.450E-11 0.782E-02
   -.677E-13 0.171E-11 -.582E+03   -.128E-06 0.534E-07 0.582E+03   0.000E+00 0.000E+00 -.139E+00   0.559E-10 -.285E-10 0.228E-02
   0.760E-06 -.132E-05 -.189E+04   0.124E-06 -.520E-07 0.189E+04   0.000E+00 0.000E+00 0.117E+01   0.344E-10 -.209E-10 -.414E-01
   -.540E-13 0.156E-11 -.333E+04   -.135E-06 0.571E-07 0.333E+04   0.000E+00 0.000E+00 -.152E+01   -.167E-09 0.766E-10 0.729E-01
   0.805E-06 -.134E-05 -.439E+04   0.809E-07 -.301E-07 0.439E+04   0.000E+00 0.000E+00 0.638E+01   0.134E-09 -.151E-09 0.112E+00
   0.555E-07 -.404E-08 -.387E+03   -.435E-08 -.177E-08 0.383E+03   0.000E+00 0.000E+00 0.444E+01   -.415E-11 0.258E-11 -.136E-01
   0.500E-07 -.378E-08 -.372E+03   -.101E-08 -.232E-09 0.377E+03   0.000E+00 0.000E+00 -.471E+01   -.105E-10 0.113E-11 -.675E-02
 -----------------------------------------------------------------------------------------------
   0.316E-05 -.531E-05 -.449E+00   0.318E-13 0.674E-13 -.250E-11   0.000E+00 0.000E+00 0.272E+00   0.690E-10 -.117E-09 0.216E+00
 
 
 POSITION                                       TOTAL-FORCE (eV/Angst)
 -----------------------------------------------------------------------------------
      0.00000      0.00000     -0.01594         0.000000      0.000000     -0.025813
      1.81500      1.28340      1.11664         0.000000      0.000000      0.017717
      0.00000      0.00000      2.42159         0.000000      0.000000      0.002345
      1.81500      1.28340      3.67203         0.000000      0.000000      0.006984
      0.00000      0.00000      4.93899         0.000000      0.000000     -0.001795
      1.81500      1.28340      6.19402         0.000000      0.000000      0.010314
      0.00000      0.00000      7.49226         0.000000      0.000000     -0.006811
      1.81500      1.28340      8.62577         0.000000      0.000000     -0.026123
      1.81500      1.28340     10.65253         0.000000      0.000000      0.026135
      1.81500      1.28340     11.41833         0.000000      0.000000     -0.002954
 -----------------------------------------------------------------------------------
    total drift:                                0.000003     -0.000005      0.039041


--------------------------------------------------------------------------------------------------------



  FREE ENERGIE OF THE ION-ELECTRON SYSTEM (eV)
  ---------------------------------------------------
  free  energy   TOTEN  =       -38.54264409 eV

  energy  without entropy=      -38.53635625  energy(sigma->0) =      -38.54054815
 
 d Force = 0.8017124E-04[-0.373E-04, 0.198E-03]  d Energy = 0.1698271E-03-0.897E-04
 d Force = 0.8624476E+00[ 0.860E+00, 0.865E+00]  d Ewald  = 0.8624471E+00 0.506E-06


--------------------------------------------------------------------------------------------------------


    POTLOK:  cpu time      0.0250: real time      0.0251


--------------------------------------------------------------------------------------------------------


 stress matrix after NEB project (eV)
     -5.04122      0.00000      0.00000
      0.00000     -4.55177      0.00000
      0.00000      0.00000     -0.45697
  FORCES: max atom, RMS     0.026135    0.016014
  FORCE total and by dimension    0.050642    0.026135
  Stress total and by dimension    6.807445    5.041217
 Conjugate gradient step on ions:
 trial-energy change:   -0.000170  1 .order   -0.000080   -0.000198    0.000037
  (g-gl).g = 0.361E-03      g.g   = 0.354E-03  gl.gl    = 0.285E-03
 g(Force)  = 0.354E-03   g(Stress)= 0.000E+00 ortho     =-0.208E-04
 gamma     =   1.26839
 trial     =   0.60355
 opt step  =   0.50764  (harmonic =   0.50764) maximal distance =0.00218939
 next E    =   -38.542557   (d E  =  -0.00008)


--------------------------------------------------------------------------------------------------------


  
 reached required accuracy - stopping structural energy minimisation
     LOOP+:  cpu time      1.1824: real time      1.1994
    4ORBIT:  cpu time      0.0000: real time      0.0000

 total amount of memory used by VASP MPI-rank0    35069. kBytes
=======================================================================

   base      :      30000. kBytes
   nonl-proj :       1086. kBytes
   fftplans  :        642. kBytes
   grid      :       1621. kBytes
   one-center:         62. kBytes
   wavefun   :       1658. kBytes
 
  
  
 General timing and accounting informations for this job:
 ========================================================
  
                  Total CPU time used (sec):       79.853
                            User time (sec):       79.457
                          System time (sec):        0.396
                         Elapsed time (sec):       82.148
  
                   Maximum memory used (kb):      232192.
                   Average memory used (kb):          N/A
  
                          Minor page faults:       108850
                          Major page faults:         6630
                 Voluntary context switches:         2928
