<?xml version="1.0" encoding="ISO-8859-1"?>
<modeling>
 <generator>
  <i name="program" type="string">vasp </i>
  <i name="version" type="string">6.3.2  </i>
  <i name="subversion" type="string">27Jun22 (build Aug 17 2022 15:43:34) complex                          parallel </i>
  <i name="platform" type="string">tv2STDVTST </i>
  <i name="date" type="string">2025 02 04 </i>
  <i name="time" type="string">13:55:01 </i>
 </generator>
 <incar>
  <i type="int" name="ISTART">     0</i>
  <i type="string" name="PREC">Normal</i>
  <i type="int" name="ISPIN">     2</i>
  <i type="int" name="ICHARG">     2</i>
  <i type="int" name="IBRION">     2</i>
  <i name="EDIFF">      0.00020000</i>
  <i name="EDIFFG">     -0.03000000</i>
  <i type="int" name="NSW">   800</i>
  <i type="int" name="ISIF">     2</i>
  <i type="int" name="ISYM">     1</i>
  <i name="ENCUT">    400.00000000</i>
  <i name="POTIM">      0.50000000</i>
  <i type="logical" name="LREAL"> F  </i>
  <i type="int" name="ISMEAR">     1</i>
  <i name="SIGMA">      0.20000000</i>
  <i type="logical" name="LWAVE"> F  </i>
  <i type="logical" name="LCHARG"> F  </i>
  <i type="string" name="GGA">PE</i>
  <i type="int" name="IVDW">    11</i>
 </incar>
 <primitive_cell>
  <structure name="primitive_cell" >
   <crystal>
    <varray name="basis" >
     <v>       3.63000011       0.00000000       0.00000000 </v>
     <v>       0.00000000       2.56679773       0.00000000 </v>
     <v>       0.00000000       0.00000000      23.98379135 </v>
    </varray>
    <i name="volume">    223.46840188 </i>
    <varray name="rec_basis" >
     <v>       0.27548208       0.00000000       0.00000000 </v>
     <v>       0.00000000       0.38959050       0.00000000 </v>
     <v>       0.00000000       0.00000000       0.04169483 </v>
    </varray>
   </crystal>
   <varray name="positions" >
    <v>       0.00000000       0.00000000       0.00000000 </v>
    <v>       0.50000000       0.50000000       0.05351109 </v>
    <v>       0.00000000       0.00000000       0.10468148 </v>
    <v>       0.50000000       0.50000000       0.15792996 </v>
    <v>       0.00000000       0.00000000       0.21070899 </v>
    <v>       0.50000000       0.50000000       0.26289048 </v>
    <v>       0.00000000       0.00000000       0.31711592 </v>
    <v>       0.50000000       0.50000000       0.36467590 </v>
    <v>       0.50000000       0.50000000       0.42690792 </v>
    <v>       0.50000000       0.50000000       0.45801226 </v>
   </varray>
  </structure>
  <varray name="primitive_index" >
   <v type="int" >        1 </v>
   <v type="int" >        2 </v>
   <v type="int" >        3 </v>
   <v type="int" >        4 </v>
   <v type="int" >        5 </v>
   <v type="int" >        6 </v>
   <v type="int" >        7 </v>
   <v type="int" >        8 </v>
   <v type="int" >        9 </v>
   <v type="int" >       10 </v>
  </varray>
 </primitive_cell>
 <kpoints>
  <generation param="Monkhorst-Pack">
   <v type="int" name="divisions">       3        3        1 </v>
   <v name="usershift">      0.00000000       0.00000000       0.00000000 </v>
   <v name="genvec1">      0.33333333       0.00000000       0.00000000 </v>
   <v name="genvec2">      0.00000000       0.33333333       0.00000000 </v>
   <v name="genvec3">      0.00000000       0.00000000       1.00000000 </v>
   <v name="shift">      0.00000000       0.00000000       0.00000000 </v>
  </generation>
  <varray name="kpointlist" >
   <v>       0.00000000       0.00000000       0.00000000 </v>
   <v>       0.33333333       0.00000000       0.00000000 </v>
   <v>       0.00000000       0.33333333       0.00000000 </v>
   <v>       0.33333333       0.33333333       0.00000000 </v>
  </varray>
  <varray name="weights" >
   <v>       0.11111111 </v>
   <v>       0.22222222 </v>
   <v>       0.22222222 </v>
   <v>       0.44444444 </v>
  </varray>
 </kpoints>
 <parameters>
  <separator name="general" >
   <i type="string" name="SYSTEM">unknown system</i>
   <i type="logical" name="LCOMPAT"> F  </i>
  </separator>
  <separator name="electronic" >
   <i type="string" name="PREC">normal</i>
   <i name="ENMAX">    400.00000000</i>
   <i name="ENAUG">    586.98000000</i>
   <i name="EDIFF">      0.00020000</i>
   <i type="int" name="IALGO">    38</i>
   <i type="int" name="IWAVPR">    11</i>
   <i type="int" name="NBANDS">    60</i>
   <i type="int" name="NBANDSLOW">    -1</i>
   <i type="int" name="NBANDSHIGH">    -1</i>
   <i name="NELECT">     90.00000000</i>
   <i type="int" name="TURBO">     0</i>
   <i type="int" name="IRESTART">     0</i>
   <i type="int" name="NREBOOT">     0</i>
   <i type="int" name="NMIN">     0</i>
   <i name="EREF">      0.00000000</i>
   <separator name="electronic smearing" >
    <i type="int" name="ISMEAR">     1</i>
    <i name="SIGMA">      0.20000000</i>
    <i name="KSPACING">      0.50000000</i>
    <i type="logical" name="KGAMMA"> T  </i>
    <i type="logical" name="KBLOWUP"> T  </i>
   </separator>
   <separator name="electronic projectors" >
    <i type="logical" name="LREAL"> F  </i>
    <v name="ROPT">      0.00000000      0.00000000</v>
    <i type="int" name="LMAXPAW">  -100</i>
    <i type="int" name="LMAXMIX">     2</i>
    <i type="logical" name="NLSPLINE"> F  </i>
   </separator>
   <separator name="electronic startup" >
    <i type="int" name="ISTART">     0</i>
    <i type="int" name="ICHARG">     2</i>
    <i type="int" name="INIWAV">     1</i>
   </separator>
   <separator name="electronic spin" >
    <i type="int" name="ISPIN">     2</i>
    <i type="logical" name="LNONCOLLINEAR"> F  </i>
    <v name="MAGMOM">      1.00000000      1.00000000      1.00000000      1.00000000      1.00000000      1.00000000      1.00000000      1.00000000      1.00000000      1.00000000</v>
    <i name="NUPDOWN">     -1.00000000</i>
    <i type="logical" name="LSORBIT"> F  </i>
    <v name="SAXIS">      0.00000000      0.00000000      1.00000000</v>
    <i type="logical" name="LSPIRAL"> F  </i>
    <v name="QSPIRAL">      0.00000000      0.00000000      0.00000000</v>
    <i type="logical" name="LZEROZ"> F  </i>
   </separator>
   <separator name="electronic exchange-correlation" >
    <i type="logical" name="LASPH"> F  </i>
    <i type="logical" name="LMETAGGA"> F  </i>
   </separator>
   <separator name="electronic convergence" >
    <i type="int" name="NELM">    60</i>
    <i type="int" name="NELMDL">    -5</i>
    <i type="int" name="NELMIN">     2</i>
    <i name="ENINI">    400.00000000</i>
    <separator name="electronic convergence detail" >
     <i type="logical" name="LDIAG"> T  </i>
     <i type="logical" name="LSUBROT"> F  </i>
     <i name="WEIMIN">      0.00100000</i>
     <i name="EBREAK">      0.00000083</i>
     <i name="DEPER">      0.30000000</i>
     <i type="int" name="NRMM">     4</i>
     <i name="TIME">      0.40000000</i>
    </separator>
   </separator>
   <separator name="electronic mixer" >
    <i name="AMIX">      0.40000000</i>
    <i name="BMIX">      1.00000000</i>
    <i name="AMIN">      0.10000000</i>
    <i name="AMIX_MAG">      1.60000000</i>
    <i name="BMIX_MAG">      1.00000000</i>
    <separator name="electronic mixer details" >
     <i type="int" name="IMIX">     4</i>
     <i type="logical" name="MIXFIRST"> F  </i>
     <i type="int" name="MAXMIX">   -45</i>
     <i name="WC">    100.00000000</i>
     <i type="int" name="INIMIX">     1</i>
     <i type="int" name="MIXPRE">     1</i>
     <i type="int" name="MREMOVE">     5</i>
    </separator>
   </separator>
   <separator name="electronic dipolcorrection" >
    <i type="logical" name="LDIPOL"> F  </i>
    <i type="logical" name="LMONO"> F  </i>
    <i type="int" name="IDIPOL">     0</i>
    <i name="EPSILON">      1.00000000</i>
    <v name="DIPOL">   -100.00000000   -100.00000000   -100.00000000</v>
    <i name="EFIELD">      0.00000000</i>
   </separator>
  </separator>
  <separator name="grids" >
   <i type="int" name="NGX">    18</i>
   <i type="int" name="NGY">    14</i>
   <i type="int" name="NGZ">   120</i>
   <i type="int" name="NGXF">    36</i>
   <i type="int" name="NGYF">    28</i>
   <i type="int" name="NGZF">   240</i>
   <i type="logical" name="ADDGRID"> F  </i>
  </separator>
  <separator name="ionic" >
   <i type="int" name="NSW">   800</i>
   <i type="int" name="IBRION">     2</i>
   <i type="int" name="MDALGO">     0</i>
   <i type="int" name="ISIF">     2</i>
   <i name="PSTRESS">      0.00000000</i>
   <i name="EDIFFG">     -0.03000000</i>
   <i type="int" name="NFREE">     1</i>
   <i name="POTIM">      0.50000000</i>
   <i name="SMASS">     -3.00000000</i>
   <i name="SCALEE">      1.00000000</i>
  </separator>
  <separator name="ionic md" >
   <i name="TEBEG">      0.00010000</i>
   <i name="TEEND">      0.00010000</i>
   <i type="int" name="NBLOCK">     1</i>
   <i type="int" name="KBLOCK">   800</i>
   <i type="int" name="NPACO">   256</i>
   <i name="APACO">     10.00000000</i>
  </separator>
  <separator name="symmetry" >
   <i type="int" name="ISYM">     1</i>
   <i name="SYMPREC">      0.00001000</i>
  </separator>
  <separator name="dos" >
   <i type="int" name="LORBIT">     0</i>
   <v name="RWIGS">     -1.00000000     -1.00000000</v>
   <i type="int" name="NEDOS">   301</i>
   <i name="EMIN">     10.00000000</i>
   <i name="EMAX">    -10.00000000</i>
   <i name="EFERMI">      0.00000000</i>
  </separator>
  <separator name="writing" >
   <i type="int" name="NWRITE">     2</i>
   <i type="logical" name="LWAVE"> F  </i>
   <i type="logical" name="LDOWNSAMPLE"> F  </i>
   <i type="logical" name="LCHARG"> F  </i>
   <i type="logical" name="LPARD"> F  </i>
   <i type="logical" name="LVTOT"> F  </i>
   <i type="logical" name="LVHAR"> F  </i>
   <i type="logical" name="LELF"> F  </i>
   <i type="logical" name="LOPTICS"> F  </i>
   <v name="STM">      0.00000000      0.00000000      0.00000000      0.00000000      0.00000000      0.00000000      0.00000000</v>
  </separator>
  <separator name="performance" >
   <i type="int" name="NPAR">     4</i>
   <i type="int" name="NSIM">     4</i>
   <i type="int" name="NBLK">    -1</i>
   <i type="logical" name="LPLANE"> T  </i>
   <i type="logical" name="LSCALAPACK"> T  </i>
   <i type="logical" name="LSCAAWARE"> F  </i>
   <i type="logical" name="LSCALU"> F  </i>
   <i type="logical" name="LASYNC"> F  </i>
   <i type="logical" name="LORBITALREAL"> F  </i>
  </separator>
  <separator name="miscellaneous" >
   <i type="int" name="IDIOT">     3</i>
   <i type="int" name="PHON_NSTRUCT">    -1</i>
   <i type="logical" name="LMUSIC"> F  </i>
   <v name="POMASS">     63.54600000      1.00000000</v>
   <v name="DARWINR">      0.00000000      0.00000000</v>
   <v name="DARWINV">      1.00000000      1.00000000</v>
   <i type="logical" name="LCORR"> T  </i>
  </separator>
  <i type="logical" name="GGA_COMPAT"> T  </i>
  <i type="logical" name="LBERRY"> F  </i>
  <i type="int" name="ICORELEVEL">     0</i>
  <i type="logical" name="LDAU"> F  </i>
  <i type="int" name="I_CONSTRAINED_M">     0</i>
  <separator name="electronic exchange-correlation" >
   <i type="string" name="GGA">PE</i>
   <i type="int" name="VOSKOWN">     0</i>
   <i type="logical" name="LHFCALC"> F  </i>
   <i type="string" name="PRECFOCK"></i>
   <i type="logical" name="LSYMGRAD"> F  </i>
   <i type="logical" name="LHFONE"> F  </i>
   <i type="logical" name="LRHFCALC"> F  </i>
   <i type="logical" name="LTHOMAS"> F  </i>
   <i type="logical" name="LMODELHF"> F  </i>
   <i type="logical" name="LFOCKACE"> F  </i>
   <i name="ENCUT4O">     -1.00000000</i>
   <i type="int" name="EXXOEP">     0</i>
   <i type="int" name="FOURORBIT">     0</i>
   <i name="AEXX">      0.00000000</i>
   <i name="HFALPHA">      0.00000000</i>
   <i name="MCALPHA">      0.00000000</i>
   <i name="ALDAX">      1.00000000</i>
   <i name="AGGAX">      1.00000000</i>
   <i name="ALDAC">      1.00000000</i>
   <i name="AGGAC">      1.00000000</i>
   <i type="int" name="NKREDX">     1</i>
   <i type="int" name="NKREDY">     1</i>
   <i type="int" name="NKREDZ">     1</i>
   <i type="logical" name="SHIFTRED"> F  </i>
   <i type="logical" name="ODDONLY"> F  </i>
   <i type="logical" name="EVENONLY"> F  </i>
   <i type="int" name="LMAXFOCK">     0</i>
   <i type="int" name="NMAXFOCKAE">     0</i>
   <i type="logical" name="LFOCKAEDFT"> F  </i>
   <i name="HFSCREEN">      0.00000000</i>
   <i name="HFSCREENC">      0.00000000</i>
   <i type="int" name="NBANDSGWLOW">     0</i>
  </separator>
  <separator name="vdW DFT" >
   <i type="logical" name="LUSE_VDW"> F  </i>
   <i name="Zab_VDW">     -0.84910000</i>
   <i name="PARAM1">      0.12340000</i>
   <i name="PARAM2">      1.00000000</i>
   <i name="PARAM3">      0.00000000</i>
  </separator>
  <separator name="model GW" >
   <i type="int" name="MODEL_GW">     0</i>
   <i name="MODEL_EPS0">     13.40810411</i>
   <i name="MODEL_ALPHA">      1.00000000</i>
  </separator>
  <separator name="linear response parameters" >
   <i type="logical" name="LEPSILON"> F  </i>
   <i type="logical" name="LRPA"> F  </i>
   <i type="logical" name="LNABLA"> F  </i>
   <i type="logical" name="LVEL"> F  </i>
   <i name="CSHIFT">      0.10000000</i>
   <i name="OMEGAMAX">     -1.00000000</i>
   <i name="DEG_THRESHOLD">      0.00200000</i>
   <i name="RTIME">     -0.10000000</i>
   <i name="WPLASMAI">      0.00000000</i>
   <v name="DFIELD">      0.00000000      0.00000000      0.00000000</v>
   <v name="WPLASMA">      0.00000000      0.00000000      0.00000000      0.00000000      0.00000000      0.00000000      0.00000000      0.00000000      0.00000000</v>
  </separator>
  <separator name="orbital magnetization" >
   <i type="logical" name="NUCIND"> F  </i>
   <v name="MAGPOS">      0.00000000      0.00000000      0.00000000</v>
   <i type="logical" name="LNICSALL"> T  </i>
   <i type="logical" name="ORBITALMAG"> F  </i>
   <i type="logical" name="LMAGBLOCH"> F  </i>
   <i type="logical" name="LCHIMAG"> F  </i>
   <i type="logical" name="LGAUGE"> T  </i>
   <i type="int" name="MAGATOM">     0</i>
   <v name="MAGDIPOL">      0.00000000      0.00000000      0.00000000</v>
   <v name="AVECCONST">      0.00000000      0.00000000      0.00000000</v>
  </separator>
  <separator name="response functions" >
   <i type="logical" name="LFINITE_TEMPERATURE"> F  </i>
   <i type="logical" name="LADDER"> F  </i>
   <i type="logical" name="LRPAFORCE"> F  </i>
   <i type="logical" name="LFXC"> F  </i>
   <i type="logical" name="LHARTREE"> T  </i>
   <i type="int" name="IBSE">     0</i>
   <v type="int" name="KPOINT">    -1     0     0     0</v>
   <i type="logical" name="LTCTC"> F  </i>
   <i type="logical" name="LTCTE"> F  </i>
   <i type="logical" name="LTETE"> F  </i>
   <i type="logical" name="LTRIPLET"> F  </i>
   <i type="logical" name="LFXCEPS"> F  </i>
   <i type="logical" name="LFXHEG"> F  </i>
   <i type="int" name="NATURALO">     2</i>
   <i type="logical" name="LHOLEGF"> F  </i>
   <i type="logical" name="L2ORDER"> F  </i>
   <i type="logical" name="LDMP1"> F  </i>
   <i type="logical" name="LMP2LT"> F  </i>
   <i type="logical" name="LSMP2LT"> F  </i>
   <i type="logical" name="LGWLF"> F  </i>
   <i name="ENCUTGW">     -2.00000000</i>
   <i name="ENCUTGWSOFT">     -2.00000000</i>
   <i name="ENCUTLF">     -1.00000000</i>
   <i type="logical" name="LESF_SPLINES"> F  </i>
   <i type="int" name="LMAXMP2">    -1</i>
   <i name="SCISSOR">      0.00000000</i>
   <i type="int" name="NOMEGA">     0</i>
   <i type="int" name="NOMEGAR">     0</i>
   <i type="int" name="NBANDSGW">    -1</i>
   <i type="int" name="NBANDSO">    -1</i>
   <i type="int" name="NBANDSV">    -1</i>
   <i type="int" name="NELMGW">     1</i>
   <i type="int" name="NELMHF">     1</i>
   <i type="int" name="DIM">     3</i>
   <i type="int" name="IESPILON">     4</i>
   <i type="int" name="ANTIRES">     0</i>
   <i name="OMEGAMAX">    -30.00000000</i>
   <i name="OMEGAMIN">    -30.00000000</i>
   <i name="OMEGATL">   -200.00000000</i>
   <i type="int" name="OMEGAGRID">     0</i>
   <i name="CSHIFT">     -0.10000000</i>
   <i type="logical" name="LSELFENERGY"> F  </i>
   <i type="logical" name="LSPECTRAL"> F  </i>
   <i type="logical" name="LSPECTRALGW"> F  </i>
   <i type="logical" name="LSINGLES"> F  </i>
   <i type="logical" name="LFERMIGW"> F  </i>
   <i type="logical" name="ODDONLYGW"> F  </i>
   <i type="logical" name="EVENONLYGW"> F  </i>
   <i type="int" name="NKREDLFX">     1</i>
   <i type="int" name="NKREDLFY">     1</i>
   <i type="int" name="NKREDLFZ">     1</i>
   <i type="int" name="MAXMEM">  2800</i>
   <i type="int" name="TELESCOPE">     0</i>
   <i type="int" name="NTAUPAR">    -1</i>
   <i type="int" name="NOMEGAPAR">    -1</i>
   <i name="DAMP_NEWTON">      0.80000001</i>
   <i name="LAMBDA">      1.00000000</i>
  </separator>
  <separator name="External order field" >
   <i name="OFIELD_KAPPA">      0.00000000</i>
   <v name="OFIELD_K">      0.00000000      0.00000000      0.00000000</v>
   <i name="OFIELD_Q6_NEAR">      0.00000000</i>
   <i name="OFIELD_Q6_FAR">      0.00000000</i>
   <i name="OFIELD_A">      0.00000000</i>
  </separator>
  <separator name="optional k-points parameters" >
   <i type="int" name="KPOINTS_OPT_MODE">     1</i>
   <i type="logical" name="LKPOINTS_OPT"> F  </i>
  </separator>
 </parameters>
 <atominfo>
  <atoms>      10 </atoms>
  <types>       2 </types>
  <array name="atoms" >
   <dimension dim="1">ion</dimension>
   <field type="string">element</field>
   <field type="int">atomtype</field>
   <set>
    <rc><c>Cu</c><c>   1</c></rc>
    <rc><c>Cu</c><c>   1</c></rc>
    <rc><c>Cu</c><c>   1</c></rc>
    <rc><c>Cu</c><c>   1</c></rc>
    <rc><c>Cu</c><c>   1</c></rc>
    <rc><c>Cu</c><c>   1</c></rc>
    <rc><c>Cu</c><c>   1</c></rc>
    <rc><c>Cu</c><c>   1</c></rc>
    <rc><c>H </c><c>   2</c></rc>
    <rc><c>H </c><c>   2</c></rc>
   </set>
  </array>
  <array name="atomtypes" >
   <dimension dim="1">type</dimension>
   <field type="int">atomspertype</field>
   <field type="string">element</field>
   <field>mass</field>
   <field>valence</field>
   <field type="string">pseudopotential</field>
   <set>
    <rc><c>   8</c><c>Cu</c><c>     63.54600000</c><c>     11.00000000</c><c>  PAW_PBE Cu 22Jun2005                  </c></rc>
    <rc><c>   2</c><c>H </c><c>      1.00000000</c><c>      1.00000000</c><c>  PAW_PBE H 15Jun2001                   </c></rc>
   </set>
  </array>
 </atominfo>
 <structure name="initialpos" >
  <crystal>
   <varray name="basis" >
    <v>       3.63000011       0.00000000       0.00000000 </v>
    <v>       0.00000000       2.56679773       0.00000000 </v>
    <v>       0.00000000       0.00000000      23.98379135 </v>
   </varray>
   <i name="volume">    223.46840188 </i>
   <varray name="rec_basis" >
    <v>       0.27548208       0.00000000       0.00000000 </v>
    <v>       0.00000000       0.38959050       0.00000000 </v>
    <v>       0.00000000       0.00000000       0.04169483 </v>
   </varray>
  </crystal>
  <varray name="positions" >
   <v>       0.00000000       0.00000000       0.00000000 </v>
   <v>       0.50000000       0.50000000       0.05351109 </v>
   <v>       0.00000000       0.00000000       0.10468148 </v>
   <v>       0.50000000       0.50000000       0.15792996 </v>
   <v>       0.00000000       0.00000000       0.21070899 </v>
   <v>       0.50000000       0.50000000       0.26289048 </v>
   <v>       0.00000000       0.00000000       0.31711592 </v>
   <v>       0.50000000       0.50000000       0.36467590 </v>
   <v>       0.50000000       0.50000000       0.42690792 </v>
   <v>       0.50000000       0.50000000       0.45801226 </v>
  </varray>
 </structure>
 <calculation>
  <scstep>
   <time name="dav">    0.32    0.32</time>
   <time name="total">    0.34    0.35</time>
   <energy>
    <i name="alphaZ">    216.17040255 </i>
    <i name="ewald">  42221.86545264 </i>
    <i name="hartreedc"> -53040.35535883 </i>
    <i name="XCdc">    371.55953435 </i>
    <i name="pawpsdc">   9828.36862813 </i>
    <i name="pawaedc"> -10674.97285505 </i>
    <i name="eentropy">     -0.01590687 </i>
    <i name="bandstr">    697.81547540 </i>
    <i name="atom">  11152.61838693 </i>
    <i name="e_fr_energy">    773.05375924 </i>
    <i name="e_wo_entrp">    773.06966611 </i>
    <i name="e_0_energy">    773.05906153 </i>
   </energy>
  </scstep>
  <scstep>
   <time name="dav">    0.32    0.32</time>
   <time name="total">    0.32    0.32</time>
   <energy>
    <i name="e_fr_energy">     58.55558369 </i>
    <i name="e_wo_entrp">     58.55475105 </i>
    <i name="e_0_energy">     58.55530614 </i>
   </energy>
  </scstep>
  <scstep>
   <time name="dav">    0.31    0.32</time>
   <time name="total">    0.31    0.32</time>
   <energy>
    <i name="e_fr_energy">    -31.71176008 </i>
    <i name="e_wo_entrp">    -31.72670663 </i>
    <i name="e_0_energy">    -31.71674226 </i>
   </energy>
  </scstep>
  <scstep>
   <time name="dav">    0.35    0.36</time>
   <time name="total">    0.35    0.36</time>
   <energy>
    <i name="e_fr_energy">    -35.51265149 </i>
    <i name="e_wo_entrp">    -35.52735958 </i>
    <i name="e_0_energy">    -35.51755419 </i>
   </energy>
  </scstep>
  <scstep>
   <time name="dav">    0.34    0.35</time>
   <time name="total">    0.40    0.41</time>
   <energy>
    <i name="e_fr_energy">    -35.60263337 </i>
    <i name="e_wo_entrp">    -35.61738377 </i>
    <i name="e_0_energy">    -35.60755017 </i>
   </energy>
  </scstep>
  <scstep>
   <time name="dav">    0.34    0.34</time>
   <time name="total">    0.42    0.42</time>
   <energy>
    <i name="e_fr_energy">    -27.88234772 </i>
    <i name="e_wo_entrp">    -27.87916177 </i>
    <i name="e_0_energy">    -27.88128574 </i>
   </energy>
  </scstep>
  <scstep>
   <time name="dav">    0.35    0.35</time>
   <time name="total">    0.42    0.42</time>
   <energy>
    <i name="e_fr_energy">    -25.53871577 </i>
    <i name="e_wo_entrp">    -25.53835927 </i>
    <i name="e_0_energy">    -25.53859693 </i>
   </energy>
  </scstep>
  <scstep>
   <time name="dav">    0.37    0.37</time>
   <time name="total">    0.44    0.44</time>
   <energy>
    <i name="e_fr_energy">    -25.12550512 </i>
    <i name="e_wo_entrp">    -25.11134229 </i>
    <i name="e_0_energy">    -25.12078417 </i>
   </energy>
  </scstep>
  <scstep>
   <time name="dav">    0.38    0.38</time>
   <time name="total">    0.45    0.45</time>
   <energy>
    <i name="e_fr_energy">    -25.21534202 </i>
    <i name="e_wo_entrp">    -25.21491479 </i>
    <i name="e_0_energy">    -25.21519961 </i>
   </energy>
  </scstep>
  <scstep>
   <time name="dav">    0.46    0.47</time>
   <time name="total">    0.54    0.54</time>
   <energy>
    <i name="e_fr_energy">    -25.88746585 </i>
    <i name="e_wo_entrp">    -25.88363920 </i>
    <i name="e_0_energy">    -25.88619030 </i>
   </energy>
  </scstep>
  <scstep>
   <time name="dav">    0.41    0.41</time>
   <time name="total">    0.49    0.49</time>
   <energy>
    <i name="e_fr_energy">    -27.62622831 </i>
    <i name="e_wo_entrp">    -27.61810617 </i>
    <i name="e_0_energy">    -27.62352093 </i>
   </energy>
  </scstep>
  <scstep>
   <time name="dav">    0.38    0.38</time>
   <time name="total">    0.45    0.46</time>
   <energy>
    <i name="e_fr_energy">    -29.60593139 </i>
    <i name="e_wo_entrp">    -29.59109155 </i>
    <i name="e_0_energy">    -29.60098478 </i>
   </energy>
  </scstep>
  <scstep>
   <time name="dav">    0.36    0.37</time>
   <time name="total">    0.44    0.44</time>
   <energy>
    <i name="e_fr_energy">    -32.31983298 </i>
    <i name="e_wo_entrp">    -32.31254190 </i>
    <i name="e_0_energy">    -32.31740262 </i>
   </energy>
  </scstep>
  <scstep>
   <time name="dav">    0.35    0.35</time>
   <time name="total">    0.42    0.42</time>
   <energy>
    <i name="e_fr_energy">    -33.64713998 </i>
    <i name="e_wo_entrp">    -33.63370253 </i>
    <i name="e_0_energy">    -33.64266083 </i>
   </energy>
  </scstep>
  <scstep>
   <time name="dav">    0.33    0.33</time>
   <time name="total">    0.40    0.40</time>
   <energy>
    <i name="e_fr_energy">    -34.13723836 </i>
    <i name="e_wo_entrp">    -34.13193678 </i>
    <i name="e_0_energy">    -34.13547117 </i>
   </energy>
  </scstep>
  <scstep>
   <time name="dav">    0.36    0.36</time>
   <time name="total">    0.44    0.44</time>
   <energy>
    <i name="e_fr_energy">    -34.38220090 </i>
    <i name="e_wo_entrp">    -34.38213228 </i>
    <i name="e_0_energy">    -34.38217802 </i>
   </energy>
  </scstep>
  <scstep>
   <time name="dav">    0.36    0.36</time>
   <time name="total">    0.43    0.44</time>
   <energy>
    <i name="e_fr_energy">    -34.58212041 </i>
    <i name="e_wo_entrp">    -34.58359148 </i>
    <i name="e_0_energy">    -34.58261077 </i>
   </energy>
  </scstep>
  <scstep>
   <time name="dav">    0.35    0.35</time>
   <time name="total">    0.42    0.43</time>
   <energy>
    <i name="e_fr_energy">    -34.65619430 </i>
    <i name="e_wo_entrp">    -34.65596075 </i>
    <i name="e_0_energy">    -34.65611645 </i>
   </energy>
  </scstep>
  <scstep>
   <time name="dav">    0.33    0.33</time>
   <time name="total">    0.40    0.41</time>
   <energy>
    <i name="e_fr_energy">    -34.71871608 </i>
    <i name="e_wo_entrp">    -34.71740603 </i>
    <i name="e_0_energy">    -34.71827939 </i>
   </energy>
  </scstep>
  <scstep>
   <time name="dav">    0.34    0.34</time>
   <time name="total">    0.41    0.42</time>
   <energy>
    <i name="e_fr_energy">    -34.75469873 </i>
    <i name="e_wo_entrp">    -34.75255902 </i>
    <i name="e_0_energy">    -34.75398550 </i>
   </energy>
  </scstep>
  <scstep>
   <time name="dav">    0.34    0.34</time>
   <time name="total">    0.41    0.42</time>
   <energy>
    <i name="e_fr_energy">    -34.79866015 </i>
    <i name="e_wo_entrp">    -34.79574377 </i>
    <i name="e_0_energy">    -34.79768803 </i>
   </energy>
  </scstep>
  <scstep>
   <time name="dav">    0.34    0.34</time>
   <time name="total">    0.41    0.41</time>
   <energy>
    <i name="e_fr_energy">    -34.83631641 </i>
    <i name="e_wo_entrp">    -34.83312027 </i>
    <i name="e_0_energy">    -34.83525103 </i>
   </energy>
  </scstep>
  <scstep>
   <time name="dav">    0.32    0.32</time>
   <time name="total">    0.39    0.40</time>
   <energy>
    <i name="e_fr_energy">    -34.87254879 </i>
    <i name="e_wo_entrp">    -34.86895938 </i>
    <i name="e_0_energy">    -34.87135232 </i>
   </energy>
  </scstep>
  <scstep>
   <time name="dav">    0.33    0.33</time>
   <time name="total">    0.41    0.41</time>
   <energy>
    <i name="e_fr_energy">    -34.91154735 </i>
    <i name="e_wo_entrp">    -34.90784273 </i>
    <i name="e_0_energy">    -34.91031248 </i>
   </energy>
  </scstep>
  <scstep>
   <time name="dav">    0.27    0.27</time>
   <time name="total">    0.34    0.35</time>
   <energy>
    <i name="e_fr_energy">    -34.93070235 </i>
    <i name="e_wo_entrp">    -34.92682038 </i>
    <i name="e_0_energy">    -34.92940836 </i>
   </energy>
  </scstep>
  <scstep>
   <time name="dav">    0.28    0.28</time>
   <time name="total">    0.35    0.36</time>
   <energy>
    <i name="e_fr_energy">    -34.93742593 </i>
    <i name="e_wo_entrp">    -34.93342656 </i>
    <i name="e_0_energy">    -34.93609280 </i>
   </energy>
  </scstep>
  <scstep>
   <time name="dav">    0.25    0.25</time>
   <time name="total">    0.33    0.33</time>
   <energy>
    <i name="e_fr_energy">    -34.93851055 </i>
    <i name="e_wo_entrp">    -34.93450153 </i>
    <i name="e_0_energy">    -34.93717421 </i>
   </energy>
  </scstep>
  <scstep>
   <time name="dav">    0.24    0.25</time>
   <time name="total">    0.32    0.32</time>
   <energy>
    <i name="e_fr_energy">    -34.93871565 </i>
    <i name="e_wo_entrp">    -34.93469861 </i>
    <i name="e_0_energy">    -34.93737664 </i>
   </energy>
  </scstep>
  <scstep>
   <time name="dav">    0.24    0.24</time>
   <time name="total">    0.26    0.26</time>
   <energy>
    <i name="alphaZ">    216.17040255 </i>
    <i name="ewald">  42221.86545264 </i>
    <i name="hartreedc"> -52962.26244337 </i>
    <i name="XCdc">    362.35554544 </i>
    <i name="pawpsdc">  10539.85818101 </i>
    <i name="pawaedc"> -11401.92075014 </i>
    <i name="eentropy">     -0.00402702 </i>
    <i name="bandstr">   -163.61951515 </i>
    <i name="atom">  11152.61838693 </i>
    <i name="e_fr_energy">    -34.93876712 </i>
    <i name="e_wo_entrp">    -34.93474010 </i>
    <i name="e_0_energy">    -34.93742478 </i>
   </energy>
  </scstep>
  <structure>
   <crystal>
    <varray name="basis" >
     <v>       3.63000011       0.00000000       0.00000000 </v>
     <v>       0.00000000       2.56679773       0.00000000 </v>
     <v>       0.00000000       0.00000000      23.98379135 </v>
    </varray>
    <i name="volume">    223.46840188 </i>
    <varray name="rec_basis" >
     <v>       0.27548208       0.00000000       0.00000000 </v>
     <v>       0.00000000       0.38959050       0.00000000 </v>
     <v>       0.00000000       0.00000000       0.04169483 </v>
    </varray>
   </crystal>
   <varray name="positions" >
    <v>       0.00000000       0.00000000       0.00000000 </v>
    <v>       0.50000000       0.50000000       0.05351109 </v>
    <v>       0.00000000       0.00000000       0.10468148 </v>
    <v>       0.50000000       0.50000000       0.15792996 </v>
    <v>       0.00000000       0.00000000       0.21070899 </v>
    <v>       0.50000000       0.50000000       0.26289048 </v>
    <v>       0.00000000       0.00000000       0.31711592 </v>
    <v>       0.50000000       0.50000000       0.36467590 </v>
    <v>       0.50000000       0.50000000       0.42690792 </v>
    <v>       0.50000000       0.50000000       0.45801226 </v>
   </varray>
  </structure>
  <varray name="forces" >
   <v>       0.00000000       0.00000000       0.51525286 </v>
   <v>       0.00000000       0.00000000      -0.50068439 </v>
   <v>       0.00000000       0.00000000       0.02203249 </v>
   <v>       0.00000000       0.00000000       0.06231474 </v>
   <v>       0.00000000       0.00000000      -0.16717481 </v>
   <v>       0.00000000       0.00000000       0.07269625 </v>
   <v>       0.00000000       0.00000000      -0.09594000 </v>
   <v>       0.00000000       0.00000000      -1.98881979 </v>
   <v>       0.00000000       0.00000000       0.80148683 </v>
   <v>       0.00000000       0.00000000       1.27883583 </v>
  </varray>
  <varray name="stress" >
   <v>     -40.04245375       0.00000000       0.00000000 </v>
   <v>       0.00000000     -33.11388528       0.00000000 </v>
   <v>       0.00000000       0.00000000      20.08807537 </v>
  </varray>
  <energy>
   <i name="e_fr_energy">    -38.14606725 </i>
   <i name="e_wo_entrp">    -38.14204023 </i>
   <i name="e_0_energy">    -38.14472491 </i>
  </energy>
  <time name="totalsc">   12.01   12.18</time>
 </calculation>
 <calculation>
  <scstep>
   <time name="dav">    0.33    0.33</time>
   <time name="total">    0.40    0.40</time>
   <energy>
    <i name="alphaZ">    216.17040255 </i>
    <i name="ewald">  42645.87001994 </i>
    <i name="hartreedc"> -53387.06297628 </i>
    <i name="XCdc">    362.42533488 </i>
    <i name="pawpsdc">  10539.84430629 </i>
    <i name="pawaedc"> -11401.90475372 </i>
    <i name="eentropy">     -0.00591140 </i>
    <i name="bandstr">   -162.97946512 </i>
    <i name="atom">  11152.61838693 </i>
    <i name="e_fr_energy">    -35.02465594 </i>
    <i name="e_wo_entrp">    -35.01874454 </i>
    <i name="e_0_energy">    -35.02268547 </i>
   </energy>
  </scstep>
  <scstep>
   <time name="dav">    0.41    0.41</time>
   <time name="total">    0.48    0.48</time>
   <energy>
    <i name="e_fr_energy">    -35.14966511 </i>
    <i name="e_wo_entrp">    -35.14375156 </i>
    <i name="e_0_energy">    -35.14769393 </i>
   </energy>
  </scstep>
  <scstep>
   <time name="dav">    0.34    0.35</time>
   <time name="total">    0.42    0.42</time>
   <energy>
    <i name="e_fr_energy">    -35.13865223 </i>
    <i name="e_wo_entrp">    -35.13353866 </i>
    <i name="e_0_energy">    -35.13694771 </i>
   </energy>
  </scstep>
  <scstep>
   <time name="dav">    0.38    0.39</time>
   <time name="total">    0.46    0.46</time>
   <energy>
    <i name="e_fr_energy">    -35.13743679 </i>
    <i name="e_wo_entrp">    -35.13235339 </i>
    <i name="e_0_energy">    -35.13574232 </i>
   </energy>
  </scstep>
  <scstep>
   <time name="dav">    0.40    0.40</time>
   <time name="total">    0.47    0.48</time>
   <energy>
    <i name="e_fr_energy">    -35.13691393 </i>
    <i name="e_wo_entrp">    -35.13228780 </i>
    <i name="e_0_energy">    -35.13537189 </i>
   </energy>
  </scstep>
  <scstep>
   <time name="dav">    0.36    0.36</time>
   <time name="total">    0.44    0.44</time>
   <energy>
    <i name="e_fr_energy">    -35.13569097 </i>
    <i name="e_wo_entrp">    -35.13116870 </i>
    <i name="e_0_energy">    -35.13418355 </i>
   </energy>
  </scstep>
  <scstep>
   <time name="dav">    0.40    0.40</time>
   <time name="total">    0.47    0.48</time>
   <energy>
    <i name="e_fr_energy">    -35.13560133 </i>
    <i name="e_wo_entrp">    -35.13088554 </i>
    <i name="e_0_energy">    -35.13402940 </i>
   </energy>
  </scstep>
  <scstep>
   <time name="dav">    0.31    0.31</time>
   <time name="total">    0.33    0.33</time>
   <energy>
    <i name="alphaZ">    216.17040255 </i>
    <i name="ewald">  42645.87001994 </i>
    <i name="hartreedc"> -53381.54750623 </i>
    <i name="XCdc">    362.34891704 </i>
    <i name="pawpsdc">  10551.37586977 </i>
    <i name="pawaedc"> -11413.74068714 </i>
    <i name="eentropy">     -0.00471037 </i>
    <i name="bandstr">   -168.22635920 </i>
    <i name="atom">  11152.61838693 </i>
    <i name="e_fr_energy">    -35.13566673 </i>
    <i name="e_wo_entrp">    -35.13095636 </i>
    <i name="e_0_energy">    -35.13409661 </i>
   </energy>
  </scstep>
  <structure>
   <crystal>
    <varray name="basis" >
     <v>       3.63000011       0.00000000       0.00000000 </v>
     <v>       0.00000000       2.56679773       0.00000000 </v>
     <v>       0.00000000       0.00000000      23.98379135 </v>
    </varray>
    <i name="volume">    223.46840188 </i>
    <varray name="rec_basis" >
     <v>       0.27548208       0.00000000       0.00000000 </v>
     <v>       0.00000000       0.38959050       0.00000000 </v>
     <v>       0.00000000       0.00000000       0.04169483 </v>
    </varray>
   </crystal>
   <varray name="positions" >
    <v>       0.00000000       0.00000000       0.00103642 </v>
    <v>       0.50000000       0.50000000       0.05250398 </v>
    <v>       0.00000000       0.00000000       0.10472579 </v>
    <v>       0.50000000       0.50000000       0.15805530 </v>
    <v>       0.00000000       0.00000000       0.21037272 </v>
    <v>       0.50000000       0.50000000       0.26303670 </v>
    <v>       0.00000000       0.00000000       0.31692294 </v>
    <v>       0.50000000       0.50000000       0.36067545 </v>
    <v>       0.50000000       0.50000000       0.42852009 </v>
    <v>       0.50000000       0.50000000       0.46058460 </v>
   </varray>
  </structure>
  <varray name="forces" >
   <v>       0.00000000       0.00000000       0.35242970 </v>
   <v>       0.00000000       0.00000000      -0.30070072 </v>
   <v>       0.00000000       0.00000000       0.02571952 </v>
   <v>       0.00000000       0.00000000      -0.01343354 </v>
   <v>       0.00000000       0.00000000      -0.12689140 </v>
   <v>       0.00000000       0.00000000      -0.38548222 </v>
   <v>       0.00000000       0.00000000      -0.22341654 </v>
   <v>       0.00000000       0.00000000      -0.33442230 </v>
   <v>       0.00000000       0.00000000       0.62663737 </v>
   <v>       0.00000000       0.00000000       0.37956011 </v>
  </varray>
  <varray name="stress" >
   <v>     -34.85778479       0.00000000       0.00000000 </v>
   <v>       0.00000000     -31.44721067       0.00000000 </v>
   <v>       0.00000000       0.00000000      13.75661134 </v>
  </varray>
  <energy>
   <i name="e_fr_energy">    -38.35254928 </i>
   <i name="e_wo_entrp">    -38.34783891 </i>
   <i name="e_0_energy">    -38.35097916 </i>
  </energy>
  <time name="totalsc">    3.96    4.02</time>
 </calculation>
 <calculation>
  <scstep>
   <time name="dav">    0.31    0.32</time>
   <time name="total">    0.39    0.39</time>
   <energy>
    <i name="alphaZ">    216.17040255 </i>
    <i name="ewald">  42876.27447080 </i>
    <i name="hartreedc"> -53612.04607418 </i>
    <i name="XCdc">    362.40378160 </i>
    <i name="pawpsdc">  10551.57152457 </i>
    <i name="pawaedc"> -11413.95026772 </i>
    <i name="eentropy">     -0.00630840 </i>
    <i name="bandstr">   -168.15753228 </i>
    <i name="atom">  11152.61838693 </i>
    <i name="e_fr_energy">    -35.12161613 </i>
    <i name="e_wo_entrp">    -35.11530773 </i>
    <i name="e_0_energy">    -35.11951333 </i>
   </energy>
  </scstep>
  <scstep>
   <time name="dav">    0.40    0.40</time>
   <time name="total">    0.47    0.48</time>
   <energy>
    <i name="e_fr_energy">    -35.15841802 </i>
    <i name="e_wo_entrp">    -35.15214684 </i>
    <i name="e_0_energy">    -35.15632763 </i>
   </energy>
  </scstep>
  <scstep>
   <time name="dav">    0.33    0.33</time>
   <time name="total">    0.40    0.41</time>
   <energy>
    <i name="e_fr_energy">    -35.15559995 </i>
    <i name="e_wo_entrp">    -35.14977959 </i>
    <i name="e_0_energy">    -35.15365983 </i>
   </energy>
  </scstep>
  <scstep>
   <time name="dav">    0.37    0.37</time>
   <time name="total">    0.44    0.44</time>
   <energy>
    <i name="e_fr_energy">    -35.15519766 </i>
    <i name="e_wo_entrp">    -35.14940071 </i>
    <i name="e_0_energy">    -35.15326534 </i>
   </energy>
  </scstep>
  <scstep>
   <time name="dav">    0.35    0.36</time>
   <time name="total">    0.43    0.43</time>
   <energy>
    <i name="e_fr_energy">    -35.15467646 </i>
    <i name="e_wo_entrp">    -35.14917340 </i>
    <i name="e_0_energy">    -35.15284211 </i>
   </energy>
  </scstep>
  <scstep>
   <time name="dav">    0.32    0.32</time>
   <time name="total">    0.39    0.39</time>
   <energy>
    <i name="e_fr_energy">    -35.15473848 </i>
    <i name="e_wo_entrp">    -35.14924845 </i>
    <i name="e_0_energy">    -35.15290847 </i>
   </energy>
  </scstep>
  <scstep>
   <time name="dav">    0.24    0.24</time>
   <time name="total">    0.26    0.27</time>
   <energy>
    <i name="alphaZ">    216.17040255 </i>
    <i name="ewald">  42876.27447080 </i>
    <i name="hartreedc"> -53609.21365036 </i>
    <i name="XCdc">    362.36413572 </i>
    <i name="pawpsdc">  10562.42372487 </i>
    <i name="pawaedc"> -11425.04688132 </i>
    <i name="eentropy">     -0.00554607 </i>
    <i name="bandstr">   -170.73969277 </i>
    <i name="atom">  11152.61838693 </i>
    <i name="e_fr_energy">    -35.15464965 </i>
    <i name="e_wo_entrp">    -35.14910358 </i>
    <i name="e_0_energy">    -35.15280096 </i>
   </energy>
  </scstep>
  <structure>
   <crystal>
    <varray name="basis" >
     <v>       3.63000011       0.00000000       0.00000000 </v>
     <v>       0.00000000       2.56679773       0.00000000 </v>
     <v>       0.00000000       0.00000000      23.98379135 </v>
    </varray>
    <i name="volume">    223.46840188 </i>
    <varray name="rec_basis" >
     <v>       0.27548208       0.00000000       0.00000000 </v>
     <v>       0.00000000       0.38959050       0.00000000 </v>
     <v>       0.00000000       0.00000000       0.04169483 </v>
    </varray>
   </crystal>
   <varray name="positions" >
    <v>       0.00000000       0.00000000       0.00159480 </v>
    <v>       0.50000000       0.50000000       0.05196139 </v>
    <v>       0.00000000       0.00000000       0.10474967 </v>
    <v>       0.50000000       0.50000000       0.15812283 </v>
    <v>       0.00000000       0.00000000       0.21019156 </v>
    <v>       0.50000000       0.50000000       0.26311549 </v>
    <v>       0.00000000       0.00000000       0.31681897 </v>
    <v>       0.50000000       0.50000000       0.35852016 </v>
    <v>       0.50000000       0.50000000       0.42938866 </v>
    <v>       0.50000000       0.50000000       0.46197048 </v>
   </varray>
  </structure>
  <varray name="forces" >
   <v>       0.00000000       0.00000000       0.26527874 </v>
   <v>       0.00000000       0.00000000      -0.20122984 </v>
   <v>       0.00000000       0.00000000       0.03793614 </v>
   <v>       0.00000000       0.00000000      -0.04763158 </v>
   <v>       0.00000000       0.00000000      -0.11696696 </v>
   <v>       0.00000000       0.00000000      -0.72475640 </v>
   <v>       0.00000000       0.00000000      -0.29302918 </v>
   <v>       0.00000000       0.00000000       0.41372616 </v>
   <v>       0.00000000       0.00000000       0.71374968 </v>
   <v>       0.00000000       0.00000000      -0.04707674 </v>
  </varray>
  <varray name="stress" >
   <v>     -30.09169594       0.00000000       0.00000000 </v>
   <v>       0.00000000     -28.94963581       0.00000000 </v>
   <v>       0.00000000       0.00000000      15.01646400 </v>
  </varray>
  <energy>
   <i name="e_fr_energy">    -38.37751066 </i>
   <i name="e_wo_entrp">    -38.37196458 </i>
   <i name="e_0_energy">    -38.37566196 </i>
  </energy>
  <time name="totalsc">    3.27    3.33</time>
 </calculation>
 <calculation>
  <scstep>
   <time name="dav">    0.31    0.31</time>
   <time name="total">    0.38    0.39</time>
   <energy>
    <i name="alphaZ">    216.17040255 </i>
    <i name="ewald">  43026.88666633 </i>
    <i name="hartreedc"> -53759.69497117 </i>
    <i name="XCdc">    362.39060254 </i>
    <i name="pawpsdc">  10562.52659439 </i>
    <i name="pawaedc"> -11425.15437549 </i>
    <i name="eentropy">     -0.00432183 </i>
    <i name="bandstr">   -170.91018153 </i>
    <i name="atom">  11152.61838693 </i>
    <i name="e_fr_energy">    -35.17119729 </i>
    <i name="e_wo_entrp">    -35.16687546 </i>
    <i name="e_0_energy">    -35.16975668 </i>
   </energy>
  </scstep>
  <scstep>
   <time name="dav">    0.38    0.38</time>
   <time name="total">    0.45    0.45</time>
   <energy>
    <i name="e_fr_energy">    -35.20171880 </i>
    <i name="e_wo_entrp">    -35.19737323 </i>
    <i name="e_0_energy">    -35.20027028 </i>
   </energy>
  </scstep>
  <scstep>
   <time name="dav">    0.36    0.36</time>
   <time name="total">    0.43    0.43</time>
   <energy>
    <i name="e_fr_energy">    -35.20009193 </i>
    <i name="e_wo_entrp">    -35.19590555 </i>
    <i name="e_0_energy">    -35.19869647 </i>
   </energy>
  </scstep>
  <scstep>
   <time name="dav">    0.35    0.36</time>
   <time name="total">    0.43    0.43</time>
   <energy>
    <i name="e_fr_energy">    -35.19914430 </i>
    <i name="e_wo_entrp">    -35.19505527 </i>
    <i name="e_0_energy">    -35.19778129 </i>
   </energy>
  </scstep>
  <scstep>
   <time name="dav">    0.43    0.44</time>
   <time name="total">    0.51    0.51</time>
   <energy>
    <i name="e_fr_energy">    -35.19874615 </i>
    <i name="e_wo_entrp">    -35.19481318 </i>
    <i name="e_0_energy">    -35.19743516 </i>
   </energy>
  </scstep>
  <scstep>
   <time name="dav">    0.33    0.33</time>
   <time name="total">    0.40    0.41</time>
   <energy>
    <i name="e_fr_energy">    -35.19864327 </i>
    <i name="e_wo_entrp">    -35.19454848 </i>
    <i name="e_0_energy">    -35.19727834 </i>
   </energy>
  </scstep>
  <scstep>
   <time name="dav">    0.25    0.25</time>
   <time name="total">    0.27    0.28</time>
   <energy>
    <i name="alphaZ">    216.17040255 </i>
    <i name="ewald">  43026.88666633 </i>
    <i name="hartreedc"> -53760.65804873 </i>
    <i name="XCdc">    362.43373170 </i>
    <i name="pawpsdc">  10564.60926831 </i>
    <i name="pawaedc"> -11427.25028628 </i>
    <i name="eentropy">     -0.00413551 </i>
    <i name="bandstr">   -170.00450454 </i>
    <i name="atom">  11152.61838693 </i>
    <i name="e_fr_energy">    -35.19851924 </i>
    <i name="e_wo_entrp">    -35.19438373 </i>
    <i name="e_0_energy">    -35.19714074 </i>
   </energy>
  </scstep>
  <structure>
   <crystal>
    <varray name="basis" >
     <v>       3.63000011       0.00000000       0.00000000 </v>
     <v>       0.00000000       2.56679773       0.00000000 </v>
     <v>       0.00000000       0.00000000      23.98379135 </v>
    </varray>
    <i name="volume">    223.46840188 </i>
    <varray name="rec_basis" >
     <v>       0.27548208       0.00000000       0.00000000 </v>
     <v>       0.00000000       0.38959050       0.00000000 </v>
     <v>       0.00000000       0.00000000       0.04169483 </v>
    </varray>
   </crystal>
   <varray name="positions" >
    <v>       0.00000000       0.00000000       0.00243978 </v>
    <v>       0.50000000       0.50000000       0.05126630 </v>
    <v>       0.00000000       0.00000000       0.10484506 </v>
    <v>       0.50000000       0.50000000       0.15804740 </v>
    <v>       0.00000000       0.00000000       0.20984855 </v>
    <v>       0.50000000       0.50000000       0.26153640 </v>
    <v>       0.00000000       0.00000000       0.31611876 </v>
    <v>       0.50000000       0.50000000       0.35846205 </v>
    <v>       0.50000000       0.50000000       0.43137397 </v>
    <v>       0.50000000       0.50000000       0.46249572 </v>
   </varray>
  </structure>
  <varray name="forces" >
   <v>       0.00000000       0.00000000       0.13850182 </v>
   <v>       0.00000000       0.00000000      -0.08288301 </v>
   <v>       0.00000000       0.00000000       0.01113889 </v>
   <v>       0.00000000       0.00000000      -0.16356068 </v>
   <v>       0.00000000       0.00000000      -0.14346199 </v>
   <v>       0.00000000       0.00000000      -0.30084910 </v>
   <v>       0.00000000       0.00000000      -0.24005879 </v>
   <v>       0.00000000       0.00000000       0.25993405 </v>
   <v>       0.00000000       0.00000000      -0.37173542 </v>
   <v>       0.00000000       0.00000000       0.89297423 </v>
  </varray>
  <varray name="stress" >
   <v>     -30.86731410       0.00000000       0.00000000 </v>
   <v>       0.00000000     -30.28550561       0.00000000 </v>
   <v>       0.00000000       0.00000000      16.46163472 </v>
  </varray>
  <energy>
   <i name="e_fr_energy">    -38.42336812 </i>
   <i name="e_wo_entrp">    -38.41923261 </i>
   <i name="e_0_energy">    -38.42198962 </i>
  </energy>
  <time name="totalsc">    3.36    3.45</time>
 </calculation>
 <calculation>
  <scstep>
   <time name="dav">    0.31    0.31</time>
   <time name="total">    0.38    0.39</time>
   <energy>
    <i name="alphaZ">    216.17040255 </i>
    <i name="ewald">  43058.08725067 </i>
    <i name="hartreedc"> -53791.81009944 </i>
    <i name="XCdc">    362.43895896 </i>
    <i name="pawpsdc">  10564.59570083 </i>
    <i name="pawaedc"> -11427.22597123 </i>
    <i name="eentropy">     -0.00395563 </i>
    <i name="bandstr">   -170.06937216 </i>
    <i name="atom">  11152.61838693 </i>
    <i name="e_fr_energy">    -35.19869853 </i>
    <i name="e_wo_entrp">    -35.19474290 </i>
    <i name="e_0_energy">    -35.19737999 </i>
   </energy>
  </scstep>
  <scstep>
   <time name="dav">    0.37    0.37</time>
   <time name="total">    0.44    0.44</time>
   <energy>
    <i name="e_fr_energy">    -35.19988061 </i>
    <i name="e_wo_entrp">    -35.19593648 </i>
    <i name="e_0_energy">    -35.19856590 </i>
   </energy>
  </scstep>
  <scstep>
   <time name="dav">    0.30    0.31</time>
   <time name="total">    0.33    0.33</time>
   <energy>
    <i name="alphaZ">    216.17040255 </i>
    <i name="ewald">  43058.08725067 </i>
    <i name="hartreedc"> -53791.94157540 </i>
    <i name="XCdc">    362.44551982 </i>
    <i name="pawpsdc">  10564.69998236 </i>
    <i name="pawaedc"> -11427.32285575 </i>
    <i name="eentropy">     -0.00392025 </i>
    <i name="bandstr">   -169.95303208 </i>
    <i name="atom">  11152.61838693 </i>
    <i name="e_fr_energy">    -35.19984116 </i>
    <i name="e_wo_entrp">    -35.19592091 </i>
    <i name="e_0_energy">    -35.19853441 </i>
   </energy>
  </scstep>
  <structure>
   <crystal>
    <varray name="basis" >
     <v>       3.63000011       0.00000000       0.00000000 </v>
     <v>       0.00000000       2.56679773       0.00000000 </v>
     <v>       0.00000000       0.00000000      23.98379135 </v>
    </varray>
    <i name="volume">    223.46840188 </i>
    <varray name="rec_basis" >
     <v>       0.27548208       0.00000000       0.00000000 </v>
     <v>       0.00000000       0.38959050       0.00000000 </v>
     <v>       0.00000000       0.00000000       0.04169483 </v>
    </varray>
   </crystal>
   <varray name="positions" >
    <v>       0.00000000       0.00000000       0.00261417 </v>
    <v>       0.50000000       0.50000000       0.05112284 </v>
    <v>       0.00000000       0.00000000       0.10486474 </v>
    <v>       0.50000000       0.50000000       0.15803183 </v>
    <v>       0.00000000       0.00000000       0.20977776 </v>
    <v>       0.50000000       0.50000000       0.26121049 </v>
    <v>       0.00000000       0.00000000       0.31597425 </v>
    <v>       0.50000000       0.50000000       0.35845006 </v>
    <v>       0.50000000       0.50000000       0.43178371 </v>
    <v>       0.50000000       0.50000000       0.46260412 </v>
   </varray>
  </structure>
  <varray name="forces" >
   <v>       0.00000000       0.00000000       0.10396685 </v>
   <v>       0.00000000       0.00000000      -0.06656929 </v>
   <v>       0.00000000       0.00000000       0.00273858 </v>
   <v>       0.00000000       0.00000000      -0.19620562 </v>
   <v>       0.00000000       0.00000000      -0.14698652 </v>
   <v>       0.00000000       0.00000000      -0.20834224 </v>
   <v>       0.00000000       0.00000000      -0.22899599 </v>
   <v>       0.00000000       0.00000000       0.23191269 </v>
   <v>       0.00000000       0.00000000      -0.61300381 </v>
   <v>       0.00000000       0.00000000       1.12148536 </v>
  </varray>
  <varray name="stress" >
   <v>     -28.64771074       0.00000000       0.00000000 </v>
   <v>       0.00000000     -28.16685177       0.00000000 </v>
   <v>       0.00000000       0.00000000      19.66757505 </v>
  </varray>
  <energy>
   <i name="e_fr_energy">    -38.42527602 </i>
   <i name="e_wo_entrp">    -38.42135577 </i>
   <i name="e_0_energy">    -38.42396927 </i>
  </energy>
  <time name="totalsc">    1.64    1.71</time>
 </calculation>
 <calculation>
  <scstep>
   <time name="dav">    0.31    0.31</time>
   <time name="total">    0.38    0.39</time>
   <energy>
    <i name="alphaZ">    216.17040255 </i>
    <i name="ewald">  43132.23887884 </i>
    <i name="hartreedc"> -53866.58742349 </i>
    <i name="XCdc">    362.43838176 </i>
    <i name="pawpsdc">  10564.90419539 </i>
    <i name="pawaedc"> -11427.54116717 </i>
    <i name="eentropy">     -0.00466387 </i>
    <i name="bandstr">   -169.45381948 </i>
    <i name="atom">  11152.61838693 </i>
    <i name="e_fr_energy">    -35.21682853 </i>
    <i name="e_wo_entrp">    -35.21216467 </i>
    <i name="e_0_energy">    -35.21527391 </i>
   </energy>
  </scstep>
  <scstep>
   <time name="dav">    0.39    0.39</time>
   <time name="total">    0.46    0.46</time>
   <energy>
    <i name="e_fr_energy">    -35.22650172 </i>
    <i name="e_wo_entrp">    -35.22207915 </i>
    <i name="e_0_energy">    -35.22502753 </i>
   </energy>
  </scstep>
  <scstep>
   <time name="dav">    0.32    0.32</time>
   <time name="total">    0.40    0.40</time>
   <energy>
    <i name="e_fr_energy">    -35.22599826 </i>
    <i name="e_wo_entrp">    -35.22154847 </i>
    <i name="e_0_energy">    -35.22451500 </i>
   </energy>
  </scstep>
  <scstep>
   <time name="dav">    0.33    0.33</time>
   <time name="total">    0.40    0.41</time>
   <energy>
    <i name="e_fr_energy">    -35.22574820 </i>
    <i name="e_wo_entrp">    -35.22146127 </i>
    <i name="e_0_energy">    -35.22431922 </i>
   </energy>
  </scstep>
  <scstep>
   <time name="dav">    0.28    0.29</time>
   <time name="total">    0.36    0.36</time>
   <energy>
    <i name="e_fr_energy">    -35.22568731 </i>
    <i name="e_wo_entrp">    -35.22145189 </i>
    <i name="e_0_energy">    -35.22427550 </i>
   </energy>
  </scstep>
  <scstep>
   <time name="dav">    0.26    0.26</time>
   <time name="total">    0.28    0.28</time>
   <energy>
    <i name="alphaZ">    216.17040255 </i>
    <i name="ewald">  43132.23887884 </i>
    <i name="hartreedc"> -53864.95046640 </i>
    <i name="XCdc">    362.41598728 </i>
    <i name="pawpsdc">  10564.38728161 </i>
    <i name="pawaedc"> -11427.01429731 </i>
    <i name="eentropy">     -0.00425371 </i>
    <i name="bandstr">   -171.08741379 </i>
    <i name="atom">  11152.61838693 </i>
    <i name="e_fr_energy">    -35.22549400 </i>
    <i name="e_wo_entrp">    -35.22124030 </i>
    <i name="e_0_energy">    -35.22407610 </i>
   </energy>
  </scstep>
  <structure>
   <crystal>
    <varray name="basis" >
     <v>       3.63000011       0.00000000       0.00000000 </v>
     <v>       0.00000000       2.56679773       0.00000000 </v>
     <v>       0.00000000       0.00000000      23.98379135 </v>
    </varray>
    <i name="volume">    223.46840188 </i>
    <varray name="rec_basis" >
     <v>       0.27548208       0.00000000       0.00000000 </v>
     <v>       0.00000000       0.38959050       0.00000000 </v>
     <v>       0.00000000       0.00000000       0.04169483 </v>
    </varray>
   </crystal>
   <varray name="positions" >
    <v>       0.00000000       0.00000000       0.00309565 </v>
    <v>       0.50000000       0.50000000       0.05074129 </v>
    <v>       0.00000000       0.00000000       0.10491220 </v>
    <v>       0.50000000       0.50000000       0.15784566 </v>
    <v>       0.00000000       0.00000000       0.20950205 </v>
    <v>       0.50000000       0.50000000       0.26029996 </v>
    <v>       0.00000000       0.00000000       0.31546584 </v>
    <v>       0.50000000       0.50000000       0.35860009 </v>
    <v>       0.50000000       0.50000000       0.43225820 </v>
    <v>       0.50000000       0.50000000       0.46371305 </v>
   </varray>
  </structure>
  <varray name="forces" >
   <v>       0.00000000       0.00000000       0.02812820 </v>
   <v>       0.00000000       0.00000000       0.01241991 </v>
   <v>       0.00000000       0.00000000      -0.00872006 </v>
   <v>       0.00000000       0.00000000      -0.24135880 </v>
   <v>       0.00000000       0.00000000      -0.14820449 </v>
   <v>       0.00000000       0.00000000      -0.01283358 </v>
   <v>       0.00000000       0.00000000      -0.20029696 </v>
   <v>       0.00000000       0.00000000       0.10537230 </v>
   <v>       0.00000000       0.00000000      -0.15966322 </v>
   <v>       0.00000000       0.00000000       0.62515669 </v>
  </varray>
  <varray name="stress" >
   <v>     -27.11948832       0.00000000       0.00000000 </v>
   <v>       0.00000000     -26.83223389       0.00000000 </v>
   <v>       0.00000000       0.00000000      17.74375826 </v>
  </varray>
  <energy>
   <i name="e_fr_energy">    -38.45342439 </i>
   <i name="e_wo_entrp">    -38.44917068 </i>
   <i name="e_0_energy">    -38.45200648 </i>
  </energy>
  <time name="totalsc">    2.76    2.81</time>
 </calculation>
 <calculation>
  <scstep>
   <time name="dav">    0.31    0.31</time>
   <time name="total">    0.38    0.39</time>
   <energy>
    <i name="alphaZ">    216.17040255 </i>
    <i name="ewald">  43235.75506911 </i>
    <i name="hartreedc"> -53969.01265569 </i>
    <i name="XCdc">    362.40732127 </i>
    <i name="pawpsdc">  10564.52765370 </i>
    <i name="pawaedc"> -11427.16897040 </i>
    <i name="eentropy">     -0.00531979 </i>
    <i name="bandstr">   -170.51148288 </i>
    <i name="atom">  11152.61838693 </i>
    <i name="e_fr_energy">    -35.21959521 </i>
    <i name="e_wo_entrp">    -35.21427542 </i>
    <i name="e_0_energy">    -35.21782195 </i>
   </energy>
  </scstep>
  <scstep>
   <time name="dav">    0.39    0.40</time>
   <time name="total">    0.47    0.47</time>
   <energy>
    <i name="e_fr_energy">    -35.23897945 </i>
    <i name="e_wo_entrp">    -35.23392479 </i>
    <i name="e_0_energy">    -35.23729457 </i>
   </energy>
  </scstep>
  <scstep>
   <time name="dav">    0.34    0.34</time>
   <time name="total">    0.41    0.42</time>
   <energy>
    <i name="e_fr_energy">    -35.23799213 </i>
    <i name="e_wo_entrp">    -35.23295179 </i>
    <i name="e_0_energy">    -35.23631202 </i>
   </energy>
  </scstep>
  <scstep>
   <time name="dav">    0.35    0.36</time>
   <time name="total">    0.43    0.43</time>
   <energy>
    <i name="e_fr_energy">    -35.23754864 </i>
    <i name="e_wo_entrp">    -35.23270757 </i>
    <i name="e_0_energy">    -35.23593495 </i>
   </energy>
  </scstep>
  <scstep>
   <time name="dav">    0.38    0.39</time>
   <time name="total">    0.46    0.46</time>
   <energy>
    <i name="e_fr_energy">    -35.23722449 </i>
    <i name="e_wo_entrp">    -35.23247648 </i>
    <i name="e_0_energy">    -35.23564182 </i>
   </energy>
  </scstep>
  <scstep>
   <time name="dav">    0.25    0.25</time>
   <time name="total">    0.27    0.28</time>
   <energy>
    <i name="alphaZ">    216.17040255 </i>
    <i name="ewald">  43235.75506911 </i>
    <i name="hartreedc"> -53966.58735436 </i>
    <i name="XCdc">    362.37921792 </i>
    <i name="pawpsdc">  10564.81227668 </i>
    <i name="pawaedc"> -11427.48910617 </i>
    <i name="eentropy">     -0.00475285 </i>
    <i name="bandstr">   -172.89138323 </i>
    <i name="atom">  11152.61838693 </i>
    <i name="e_fr_energy">    -35.23724342 </i>
    <i name="e_wo_entrp">    -35.23249058 </i>
    <i name="e_0_energy">    -35.23565914 </i>
   </energy>
  </scstep>
  <structure>
   <crystal>
    <varray name="basis" >
     <v>       3.63000011       0.00000000       0.00000000 </v>
     <v>       0.00000000       2.56679773       0.00000000 </v>
     <v>       0.00000000       0.00000000      23.98379135 </v>
    </varray>
    <i name="volume">    223.46840188 </i>
    <varray name="rec_basis" >
     <v>       0.27548208       0.00000000       0.00000000 </v>
     <v>       0.00000000       0.38959050       0.00000000 </v>
     <v>       0.00000000       0.00000000       0.04169483 </v>
    </varray>
   </crystal>
   <varray name="positions" >
    <v>       0.00000000       0.00000000       0.00376457 </v>
    <v>       0.50000000       0.50000000       0.05021120 </v>
    <v>       0.00000000       0.00000000       0.10497814 </v>
    <v>       0.50000000       0.50000000       0.15758699 </v>
    <v>       0.00000000       0.00000000       0.20911899 </v>
    <v>       0.50000000       0.50000000       0.25903493 </v>
    <v>       0.00000000       0.00000000       0.31475949 </v>
    <v>       0.50000000       0.50000000       0.35880853 </v>
    <v>       0.50000000       0.50000000       0.43291743 </v>
    <v>       0.50000000       0.50000000       0.46525371 </v>
   </varray>
  </structure>
  <varray name="forces" >
   <v>       0.00000000       0.00000000      -0.05426260 </v>
   <v>       0.00000000       0.00000000       0.09432606 </v>
   <v>       0.00000000       0.00000000      -0.02298550 </v>
   <v>       0.00000000       0.00000000      -0.32398411 </v>
   <v>       0.00000000       0.00000000      -0.15591743 </v>
   <v>       0.00000000       0.00000000       0.25344959 </v>
   <v>       0.00000000       0.00000000      -0.17241654 </v>
   <v>       0.00000000       0.00000000      -0.02288212 </v>
   <v>       0.00000000       0.00000000       0.39494115 </v>
   <v>       0.00000000       0.00000000       0.00973150 </v>
  </varray>
  <varray name="stress" >
   <v>     -28.17539335       0.00000000       0.00000000 </v>
   <v>       0.00000000     -28.37422365       0.00000000 </v>
   <v>       0.00000000       0.00000000      12.70997549 </v>
  </varray>
  <energy>
   <i name="e_fr_energy">    -38.46913770 </i>
   <i name="e_wo_entrp">    -38.46438485 </i>
   <i name="e_0_energy">    -38.46755341 </i>
  </energy>
  <time name="totalsc">    2.91    2.97</time>
 </calculation>
 <calculation>
  <scstep>
   <time name="dav">    0.32    0.32</time>
   <time name="total">    0.40    0.40</time>
   <energy>
    <i name="alphaZ">    216.17040255 </i>
    <i name="ewald">  43248.46814574 </i>
    <i name="hartreedc"> -53979.28103602 </i>
    <i name="XCdc">    362.37817717 </i>
    <i name="pawpsdc">  10564.85972003 </i>
    <i name="pawaedc"> -11427.54051209 </i>
    <i name="eentropy">     -0.00490187 </i>
    <i name="bandstr">   -172.90495588 </i>
    <i name="atom">  11152.61838693 </i>
    <i name="e_fr_energy">    -35.23657345 </i>
    <i name="e_wo_entrp">    -35.23167157 </i>
    <i name="e_0_energy">    -35.23493949 </i>
   </energy>
  </scstep>
  <scstep>
   <time name="dav">    0.40    0.40</time>
   <time name="total">    0.47    0.48</time>
   <energy>
    <i name="e_fr_energy">    -35.23686542 </i>
    <i name="e_wo_entrp">    -35.23199252 </i>
    <i name="e_0_energy">    -35.23524112 </i>
   </energy>
  </scstep>
  <scstep>
   <time name="dav">    0.23    0.23</time>
   <time name="total">    0.25    0.26</time>
   <energy>
    <i name="alphaZ">    216.17040255 </i>
    <i name="ewald">  43248.46814574 </i>
    <i name="hartreedc"> -53979.08390387 </i>
    <i name="XCdc">    362.37464479 </i>
    <i name="pawpsdc">  10564.92659964 </i>
    <i name="pawaedc"> -11427.59970050 </i>
    <i name="eentropy">     -0.00486340 </i>
    <i name="bandstr">   -173.10657162 </i>
    <i name="atom">  11152.61838693 </i>
    <i name="e_fr_energy">    -35.23685974 </i>
    <i name="e_wo_entrp">    -35.23199634 </i>
    <i name="e_0_energy">    -35.23523861 </i>
   </energy>
  </scstep>
  <structure>
   <crystal>
    <varray name="basis" >
     <v>       3.63000011       0.00000000       0.00000000 </v>
     <v>       0.00000000       2.56679773       0.00000000 </v>
     <v>       0.00000000       0.00000000      23.98379135 </v>
    </varray>
    <i name="volume">    223.46840188 </i>
    <varray name="rec_basis" >
     <v>       0.27548208       0.00000000       0.00000000 </v>
     <v>       0.00000000       0.38959050       0.00000000 </v>
     <v>       0.00000000       0.00000000       0.04169483 </v>
    </varray>
   </crystal>
   <varray name="positions" >
    <v>       0.00000000       0.00000000       0.00384648 </v>
    <v>       0.50000000       0.50000000       0.05014630 </v>
    <v>       0.00000000       0.00000000       0.10498621 </v>
    <v>       0.50000000       0.50000000       0.15755532 </v>
    <v>       0.00000000       0.00000000       0.20907209 </v>
    <v>       0.50000000       0.50000000       0.25888004 </v>
    <v>       0.00000000       0.00000000       0.31467301 </v>
    <v>       0.50000000       0.50000000       0.35883405 </v>
    <v>       0.50000000       0.50000000       0.43299814 </v>
    <v>       0.50000000       0.50000000       0.46544235 </v>
   </varray>
  </structure>
  <varray name="forces" >
   <v>       0.00000000       0.00000000      -0.08107172 </v>
   <v>       0.00000000       0.00000000       0.10075121 </v>
   <v>       0.00000000       0.00000000      -0.03304514 </v>
   <v>       0.00000000       0.00000000      -0.33575672 </v>
   <v>       0.00000000       0.00000000      -0.14782369 </v>
   <v>       0.00000000       0.00000000       0.31108294 </v>
   <v>       0.00000000       0.00000000      -0.15892581 </v>
   <v>       0.00000000       0.00000000      -0.05022397 </v>
   <v>       0.00000000       0.00000000       0.45560521 </v>
   <v>       0.00000000       0.00000000      -0.06059232 </v>
  </varray>
  <varray name="stress" >
   <v>     -28.70308069       0.00000000       0.00000000 </v>
   <v>       0.00000000     -28.92441794       0.00000000 </v>
   <v>       0.00000000       0.00000000      11.95994930 </v>
  </varray>
  <energy>
   <i name="e_fr_energy">    -38.46929360 </i>
   <i name="e_wo_entrp">    -38.46443020 </i>
   <i name="e_0_energy">    -38.46767247 </i>
  </energy>
  <time name="totalsc">    1.61    1.66</time>
 </calculation>
 <calculation>
  <scstep>
   <time name="dav">    0.31    0.31</time>
   <time name="total">    0.38    0.39</time>
   <energy>
    <i name="alphaZ">    216.17040255 </i>
    <i name="ewald">  43284.58026327 </i>
    <i name="hartreedc"> -54015.15237018 </i>
    <i name="XCdc">    362.37245455 </i>
    <i name="pawpsdc">  10564.97778820 </i>
    <i name="pawaedc"> -11427.64964911 </i>
    <i name="eentropy">     -0.00505352 </i>
    <i name="bandstr">   -173.15628990 </i>
    <i name="atom">  11152.61838693 </i>
    <i name="e_fr_energy">    -35.24406720 </i>
    <i name="e_wo_entrp">    -35.23901368 </i>
    <i name="e_0_energy">    -35.24238270 </i>
   </energy>
  </scstep>
  <scstep>
   <time name="dav">    0.37    0.37</time>
   <time name="total">    0.45    0.45</time>
   <energy>
    <i name="e_fr_energy">    -35.24763648 </i>
    <i name="e_wo_entrp">    -35.24267229 </i>
    <i name="e_0_energy">    -35.24598175 </i>
   </energy>
  </scstep>
  <scstep>
   <time name="dav">    0.35    0.36</time>
   <time name="total">    0.38    0.38</time>
   <energy>
    <i name="alphaZ">    216.17040255 </i>
    <i name="ewald">  43284.58026327 </i>
    <i name="hartreedc"> -54014.82570243 </i>
    <i name="XCdc">    362.37413626 </i>
    <i name="pawpsdc">  10564.85554070 </i>
    <i name="pawaedc"> -11427.49713950 </i>
    <i name="eentropy">     -0.00495876 </i>
    <i name="bandstr">   -173.51839429 </i>
    <i name="atom">  11152.61838693 </i>
    <i name="e_fr_energy">    -35.24746527 </i>
    <i name="e_wo_entrp">    -35.24250651 </i>
    <i name="e_0_energy">    -35.24581235 </i>
   </energy>
  </scstep>
  <structure>
   <crystal>
    <varray name="basis" >
     <v>       3.63000011       0.00000000       0.00000000 </v>
     <v>       0.00000000       2.56679773       0.00000000 </v>
     <v>       0.00000000       0.00000000      23.98379135 </v>
    </varray>
    <i name="volume">    223.46840188 </i>
    <varray name="rec_basis" >
     <v>       0.27548208       0.00000000       0.00000000 </v>
     <v>       0.00000000       0.38959050       0.00000000 </v>
     <v>       0.00000000       0.00000000       0.04169483 </v>
    </varray>
   </crystal>
   <varray name="positions" >
    <v>       0.00000000       0.00000000       0.00403796 </v>
    <v>       0.50000000       0.50000000       0.05003125 </v>
    <v>       0.00000000       0.00000000       0.10497990 </v>
    <v>       0.50000000       0.50000000       0.15711233 </v>
    <v>       0.00000000       0.00000000       0.20876721 </v>
    <v>       0.50000000       0.50000000       0.25867649 </v>
    <v>       0.00000000       0.00000000       0.31422506 </v>
    <v>       0.50000000       0.50000000       0.35886863 </v>
    <v>       0.50000000       0.50000000       0.43372503 </v>
    <v>       0.50000000       0.50000000       0.46601013 </v>
   </varray>
  </structure>
  <varray name="forces" >
   <v>       0.00000000       0.00000000      -0.12871765 </v>
   <v>       0.00000000       0.00000000       0.10339643 </v>
   <v>       0.00000000       0.00000000      -0.06128336 </v>
   <v>       0.00000000       0.00000000      -0.26846932 </v>
   <v>       0.00000000       0.00000000      -0.12587137 </v>
   <v>       0.00000000       0.00000000       0.28624834 </v>
   <v>       0.00000000       0.00000000      -0.11757581 </v>
   <v>       0.00000000       0.00000000      -0.06672043 </v>
   <v>       0.00000000       0.00000000       0.36049986 </v>
   <v>       0.00000000       0.00000000       0.01849331 </v>
  </varray>
  <varray name="stress" >
   <v>     -25.63072109       0.00000000       0.00000000 </v>
   <v>       0.00000000     -25.82508309       0.00000000 </v>
   <v>       0.00000000       0.00000000      15.57460560 </v>
  </varray>
  <energy>
   <i name="e_fr_energy">    -38.47984351 </i>
   <i name="e_wo_entrp">    -38.47488475 </i>
   <i name="e_0_energy">    -38.47819059 </i>
  </energy>
  <time name="totalsc">    1.69    1.74</time>
 </calculation>
 <calculation>
  <scstep>
   <time name="dav">    0.31    0.31</time>
   <time name="total">    0.38    0.38</time>
   <energy>
    <i name="alphaZ">    216.17040255 </i>
    <i name="ewald">  43393.47107472 </i>
    <i name="hartreedc"> -54123.71903890 </i>
    <i name="XCdc">    362.38413757 </i>
    <i name="pawpsdc">  10565.04894812 </i>
    <i name="pawaedc"> -11427.72351336 </i>
    <i name="eentropy">     -0.00535095 </i>
    <i name="bandstr">   -173.47898127 </i>
    <i name="atom">  11152.61838693 </i>
    <i name="e_fr_energy">    -35.23393460 </i>
    <i name="e_wo_entrp">    -35.22858365 </i>
    <i name="e_0_energy">    -35.23215095 </i>
   </energy>
  </scstep>
  <scstep>
   <time name="dav">    0.37    0.37</time>
   <time name="total">    0.44    0.44</time>
   <energy>
    <i name="e_fr_energy">    -35.26909682 </i>
    <i name="e_wo_entrp">    -35.26373720 </i>
    <i name="e_0_energy">    -35.26731028 </i>
   </energy>
  </scstep>
  <scstep>
   <time name="dav">    0.35    0.35</time>
   <time name="total">    0.42    0.43</time>
   <energy>
    <i name="e_fr_energy">    -35.26699562 </i>
    <i name="e_wo_entrp">    -35.26178159 </i>
    <i name="e_0_energy">    -35.26525761 </i>
   </energy>
  </scstep>
  <scstep>
   <time name="dav">    0.36    0.36</time>
   <time name="total">    0.43    0.43</time>
   <energy>
    <i name="e_fr_energy">    -35.26589171 </i>
    <i name="e_wo_entrp">    -35.26080433 </i>
    <i name="e_0_energy">    -35.26419591 </i>
   </energy>
  </scstep>
  <scstep>
   <time name="dav">    0.48    0.48</time>
   <time name="total">    0.55    0.56</time>
   <energy>
    <i name="e_fr_energy">    -35.26522214 </i>
    <i name="e_wo_entrp">    -35.26037805 </i>
    <i name="e_0_energy">    -35.26360745 </i>
   </energy>
  </scstep>
  <scstep>
   <time name="dav">    0.39    0.39</time>
   <time name="total">    0.46    0.47</time>
   <energy>
    <i name="e_fr_energy">    -35.26452547 </i>
    <i name="e_wo_entrp">    -35.25950531 </i>
    <i name="e_0_energy">    -35.26285209 </i>
   </energy>
  </scstep>
  <scstep>
   <time name="dav">    0.30    0.30</time>
   <time name="total">    0.32    0.32</time>
   <energy>
    <i name="alphaZ">    216.17040255 </i>
    <i name="ewald">  43393.47107472 </i>
    <i name="hartreedc"> -54122.78068958 </i>
    <i name="XCdc">    362.40246266 </i>
    <i name="pawpsdc">  10566.84843758 </i>
    <i name="pawaedc"> -11429.57047643 </i>
    <i name="eentropy">     -0.00504114 </i>
    <i name="bandstr">   -174.41909096 </i>
    <i name="atom">  11152.61838693 </i>
    <i name="e_fr_energy">    -35.26453367 </i>
    <i name="e_wo_entrp">    -35.25949253 </i>
    <i name="e_0_energy">    -35.26285329 </i>
   </energy>
  </scstep>
  <structure>
   <crystal>
    <varray name="basis" >
     <v>       3.63000011       0.00000000       0.00000000 </v>
     <v>       0.00000000       2.56679773       0.00000000 </v>
     <v>       0.00000000       0.00000000      23.98379135 </v>
    </varray>
    <i name="volume">    223.46840188 </i>
    <varray name="rec_basis" >
     <v>       0.27548208       0.00000000       0.00000000 </v>
     <v>       0.00000000       0.38959050       0.00000000 </v>
     <v>       0.00000000       0.00000000       0.04169483 </v>
    </varray>
   </crystal>
   <varray name="positions" >
    <v>       0.00000000       0.00000000       0.00461239 </v>
    <v>       0.50000000       0.50000000       0.04968611 </v>
    <v>       0.00000000       0.00000000       0.10496099 </v>
    <v>       0.50000000       0.50000000       0.15578336 </v>
    <v>       0.00000000       0.00000000       0.20785259 </v>
    <v>       0.50000000       0.50000000       0.25806581 </v>
    <v>       0.00000000       0.00000000       0.31288121 </v>
    <v>       0.50000000       0.50000000       0.35897237 </v>
    <v>       0.50000000       0.50000000       0.43590569 </v>
    <v>       0.50000000       0.50000000       0.46771346 </v>
   </varray>
  </structure>
  <varray name="forces" >
   <v>       0.00000000       0.00000000      -0.23854627 </v>
   <v>       0.00000000       0.00000000       0.11760456 </v>
   <v>       0.00000000       0.00000000      -0.13069763 </v>
   <v>       0.00000000       0.00000000      -0.10050704 </v>
   <v>       0.00000000       0.00000000      -0.05267701 </v>
   <v>       0.00000000       0.00000000       0.27352667 </v>
   <v>       0.00000000       0.00000000      -0.00417594 </v>
   <v>       0.00000000       0.00000000      -0.11128721 </v>
   <v>       0.00000000       0.00000000      -0.02698421 </v>
   <v>       0.00000000       0.00000000       0.27374408 </v>
  </varray>
  <varray name="stress" >
   <v>     -28.99659773       0.00000000       0.00000000 </v>
   <v>       0.00000000     -29.16808135       0.00000000 </v>
   <v>       0.00000000       0.00000000      13.99647125 </v>
  </varray>
  <energy>
   <i name="e_fr_energy">    -38.49715979 </i>
   <i name="e_wo_entrp">    -38.49211865 </i>
   <i name="e_0_energy">    -38.49547941 </i>
  </energy>
  <time name="totalsc">    3.50    3.59</time>
 </calculation>
 <calculation>
  <scstep>
   <time name="dav">    0.31    0.31</time>
   <time name="total">    0.38    0.38</time>
   <energy>
    <i name="alphaZ">    216.17040255 </i>
    <i name="ewald">  43422.25724318 </i>
    <i name="hartreedc"> -54151.65500478 </i>
    <i name="XCdc">    362.40183360 </i>
    <i name="pawpsdc">  10566.86840185 </i>
    <i name="pawaedc"> -11429.58139270 </i>
    <i name="eentropy">     -0.00519464 </i>
    <i name="bandstr">   -174.33820176 </i>
    <i name="atom">  11152.61838693 </i>
    <i name="e_fr_energy">    -35.26352578 </i>
    <i name="e_wo_entrp">    -35.25833114 </i>
    <i name="e_0_energy">    -35.26179424 </i>
   </energy>
  </scstep>
  <scstep>
   <time name="dav">    0.36    0.37</time>
   <time name="total">    0.44    0.44</time>
   <energy>
    <i name="e_fr_energy">    -35.26583639 </i>
    <i name="e_wo_entrp">    -35.26069443 </i>
    <i name="e_0_energy">    -35.26412240 </i>
   </energy>
  </scstep>
  <scstep>
   <time name="dav">    0.35    0.35</time>
   <time name="total">    0.37    0.37</time>
   <energy>
    <i name="alphaZ">    216.17040255 </i>
    <i name="ewald">  43422.25724318 </i>
    <i name="hartreedc"> -54151.49199003 </i>
    <i name="XCdc">    362.40354126 </i>
    <i name="pawpsdc">  10566.96111292 </i>
    <i name="pawaedc"> -11429.65365890 </i>
    <i name="eentropy">     -0.00513604 </i>
    <i name="bandstr">   -174.52565836 </i>
    <i name="atom">  11152.61838693 </i>
    <i name="e_fr_energy">    -35.26575650 </i>
    <i name="e_wo_entrp">    -35.26062046 </i>
    <i name="e_0_energy">    -35.26404449 </i>
   </energy>
  </scstep>
  <structure>
   <crystal>
    <varray name="basis" >
     <v>       3.63000011       0.00000000       0.00000000 </v>
     <v>       0.00000000       2.56679773       0.00000000 </v>
     <v>       0.00000000       0.00000000      23.98379135 </v>
    </varray>
    <i name="volume">    223.46840188 </i>
    <varray name="rec_basis" >
     <v>       0.27548208       0.00000000       0.00000000 </v>
     <v>       0.00000000       0.38959050       0.00000000 </v>
     <v>       0.00000000       0.00000000       0.04169483 </v>
    </varray>
   </crystal>
   <varray name="positions" >
    <v>       0.00000000       0.00000000       0.00476352 </v>
    <v>       0.50000000       0.50000000       0.04959530 </v>
    <v>       0.00000000       0.00000000       0.10495601 </v>
    <v>       0.50000000       0.50000000       0.15543372 </v>
    <v>       0.00000000       0.00000000       0.20761196 </v>
    <v>       0.50000000       0.50000000       0.25790515 </v>
    <v>       0.00000000       0.00000000       0.31252766 </v>
    <v>       0.50000000       0.50000000       0.35899967 </v>
    <v>       0.50000000       0.50000000       0.43647941 </v>
    <v>       0.50000000       0.50000000       0.46816159 </v>
   </varray>
  </structure>
  <varray name="forces" >
   <v>       0.00000000       0.00000000      -0.27792027 </v>
   <v>       0.00000000       0.00000000       0.11364863 </v>
   <v>       0.00000000       0.00000000      -0.15328290 </v>
   <v>       0.00000000       0.00000000      -0.05754048 </v>
   <v>       0.00000000       0.00000000      -0.03869705 </v>
   <v>       0.00000000       0.00000000       0.26187931 </v>
   <v>       0.00000000       0.00000000       0.03456372 </v>
   <v>       0.00000000       0.00000000      -0.13451957 </v>
   <v>       0.00000000       0.00000000      -0.09788932 </v>
   <v>       0.00000000       0.00000000       0.34975793 </v>
  </varray>
  <varray name="stress" >
   <v>     -26.57956741       0.00000000       0.00000000 </v>
   <v>       0.00000000     -26.76686894       0.00000000 </v>
   <v>       0.00000000       0.00000000      17.07408414 </v>
  </varray>
  <energy>
   <i name="e_fr_energy">    -38.49854386 </i>
   <i name="e_wo_entrp">    -38.49340782 </i>
   <i name="e_0_energy">    -38.49683185 </i>
  </energy>
  <time name="totalsc">    1.67    1.74</time>
 </calculation>
 <calculation>
  <scstep>
   <time name="dav">    0.31    0.31</time>
   <time name="total">    0.38    0.39</time>
   <energy>
    <i name="alphaZ">    216.17040255 </i>
    <i name="ewald">  43399.12594337 </i>
    <i name="hartreedc"> -54128.69028399 </i>
    <i name="XCdc">    362.37603245 </i>
    <i name="pawpsdc">  10567.17433588 </i>
    <i name="pawaedc"> -11429.88555849 </i>
    <i name="eentropy">     -0.00578256 </i>
    <i name="bandstr">   -174.15571143 </i>
    <i name="atom">  11152.61838693 </i>
    <i name="e_fr_energy">    -35.27223530 </i>
    <i name="e_wo_entrp">    -35.26645274 </i>
    <i name="e_0_energy">    -35.27030778 </i>
   </energy>
  </scstep>
  <scstep>
   <time name="dav">    0.37    0.38</time>
   <time name="total">    0.45    0.45</time>
   <energy>
    <i name="e_fr_energy">    -35.27719559 </i>
    <i name="e_wo_entrp">    -35.27146099 </i>
    <i name="e_0_energy">    -35.27528405 </i>
   </energy>
  </scstep>
  <scstep>
   <time name="dav">    0.35    0.35</time>
   <time name="total">    0.42    0.43</time>
   <energy>
    <i name="e_fr_energy">    -35.27687648 </i>
    <i name="e_wo_entrp">    -35.27119234 </i>
    <i name="e_0_energy">    -35.27498177 </i>
   </energy>
  </scstep>
  <scstep>
   <time name="dav">    0.35    0.35</time>
   <time name="total">    0.42    0.42</time>
   <energy>
    <i name="e_fr_energy">    -35.27682725 </i>
    <i name="e_wo_entrp">    -35.27120906 </i>
    <i name="e_0_energy">    -35.27495452 </i>
   </energy>
  </scstep>
  <scstep>
   <time name="dav">    0.27    0.27</time>
   <time name="total">    0.34    0.34</time>
   <energy>
    <i name="e_fr_energy">    -35.27664495 </i>
    <i name="e_wo_entrp">    -35.27096868 </i>
    <i name="e_0_energy">    -35.27475286 </i>
   </energy>
  </scstep>
  <scstep>
   <time name="dav">    0.25    0.25</time>
   <time name="total">    0.27    0.27</time>
   <energy>
    <i name="alphaZ">    216.17040255 </i>
    <i name="ewald">  43399.12594337 </i>
    <i name="hartreedc"> -54127.59524415 </i>
    <i name="XCdc">    362.36193953 </i>
    <i name="pawpsdc">  10565.24998658 </i>
    <i name="pawaedc"> -11427.92968325 </i>
    <i name="eentropy">     -0.00564408 </i>
    <i name="bandstr">   -175.27267820 </i>
    <i name="atom">  11152.61838693 </i>
    <i name="e_fr_energy">    -35.27659071 </i>
    <i name="e_wo_entrp">    -35.27094663 </i>
[...]
       <r>     6.0677     3.2792    51.5948 </r>
       <r>     6.1404     3.2944    51.8342 </r>
       <r>     6.2130     2.5118    52.0167 </r>
       <r>     6.2857     1.2571    52.1080 </r>
       <r>     6.3583     0.3275    52.1318 </r>
       <r>     6.4310     0.1296    52.1412 </r>
       <r>     6.5036     0.5073    52.1781 </r>
       <r>     6.5763     1.1987    52.2652 </r>
       <r>     6.6489     2.0569    52.4146 </r>
       <r>     6.7216     2.8043    52.6184 </r>
       <r>     6.7943     2.9745    52.8345 </r>
       <r>     6.8669     2.4815    53.0148 </r>
       <r>     6.9396     1.9775    53.1584 </r>
       <r>     7.0122     2.1318    53.3133 </r>
       <r>     7.0849     2.7887    53.5160 </r>
       <r>     7.1575     3.2415    53.7515 </r>
       <r>     7.2302     3.0161    53.9706 </r>
       <r>     7.3029     2.1653    54.1279 </r>
       <r>     7.3755     1.1480    54.2113 </r>
       <r>     7.4482     0.5129    54.2486 </r>
       <r>     7.5208     0.4364    54.2803 </r>
       <r>     7.5935     0.5927    54.3234 </r>
       <r>     7.6661     0.6754    54.3724 </r>
       <r>     7.7388     0.9224    54.4395 </r>
       <r>     7.8114     1.7843    54.5691 </r>
       <r>     7.8841     3.1204    54.7958 </r>
       <r>     7.9568     4.1655    55.0985 </r>
       <r>     8.0294     4.3466    55.4143 </r>
       <r>     8.1021     3.8043    55.6907 </r>
       <r>     8.1747     3.1522    55.9197 </r>
       <r>     8.2474     2.8888    56.1296 </r>
       <r>     8.3200     2.9241    56.3421 </r>
       <r>     8.3927     2.7497    56.5418 </r>
       <r>     8.4653     2.1672    56.6993 </r>
       <r>     8.5380     1.5310    56.8105 </r>
       <r>     8.6107     1.1916    56.8971 </r>
       <r>     8.6833     1.1024    56.9772 </r>
       <r>     8.7560     1.0967    57.0569 </r>
       <r>     8.8286     1.2146    57.1451 </r>
       <r>     8.9013     1.5434    57.2573 </r>
       <r>     8.9739     1.9116    57.3962 </r>
       <r>     9.0466     2.0357    57.5441 </r>
       <r>     9.1193     1.9479    57.6856 </r>
       <r>     9.1919     1.9391    57.8265 </r>
       <r>     9.2646     2.1263    57.9810 </r>
       <r>     9.3372     2.4201    58.1568 </r>
       <r>     9.4099     2.7353    58.3555 </r>
       <r>     9.4825     3.0145    58.5746 </r>
       <r>     9.5552     3.3330    58.8167 </r>
       <r>     9.6278     3.8876    59.0992 </r>
       <r>     9.7005     4.4520    59.4227 </r>
       <r>     9.7732     4.2351    59.7304 </r>
       <r>     9.8458     2.8967    59.9408 </r>
       <r>     9.9185     1.1964    60.0278 </r>
       <r>     9.9911     0.0966    60.0348 </r>
       <r>    10.0638    -0.2247    60.0184 </r>
       <r>    10.1364    -0.1663    60.0064 </r>
       <r>    10.2091    -0.0661    60.0016 </r>
       <r>    10.2817    -0.0176    60.0003 </r>
       <r>    10.3544    -0.0033    60.0000 </r>
       <r>    10.4271    -0.0005    60.0000 </r>
       <r>    10.4997    -0.0000    60.0000 </r>
       <r>    10.5724    -0.0000    60.0000 </r>
       <r>    10.6450    -0.0000    60.0000 </r>
       <r>    10.7177    -0.0000    60.0000 </r>
       <r>    10.7903    -0.0000    60.0000 </r>
       <r>    10.8630    -0.0000    60.0000 </r>
       <r>    10.9357    -0.0000    60.0000 </r>
       <r>    11.0083    -0.0000    60.0000 </r>
       <r>    11.0810     0.0000    60.0000 </r>
       <r>    11.1536     0.0000    60.0000 </r>
       <r>    11.2263     0.0000    60.0000 </r>
       <r>    11.2989     0.0000    60.0000 </r>
       <r>    11.3716     0.0000    60.0000 </r>
       <r>    11.4442     0.0000    60.0000 </r>
       <r>    11.5169     0.0000    60.0000 </r>
       <r>    11.5896     0.0000    60.0000 </r>
       <r>    11.6622     0.0000    60.0000 </r>
       <r>    11.7349     0.0000    60.0000 </r>
      </set>
      <set comment="spin 2">
       <r>   -10.0619     0.0000     0.0000 </r>
       <r>    -9.9893     0.0000     0.0000 </r>
       <r>    -9.9166     0.0000     0.0000 </r>
       <r>    -9.8440     0.0000     0.0000 </r>
       <r>    -9.7713     0.0000     0.0000 </r>
       <r>    -9.6987    -0.0000    -0.0000 </r>
       <r>    -9.6260    -0.0000    -0.0000 </r>
       <r>    -9.5533    -0.0000    -0.0000 </r>
       <r>    -9.4807    -0.0000    -0.0000 </r>
       <r>    -9.4080    -0.0000    -0.0000 </r>
       <r>    -9.3354    -0.0000    -0.0000 </r>
       <r>    -9.2627    -0.0000    -0.0000 </r>
       <r>    -9.1901    -0.0000    -0.0000 </r>
       <r>    -9.1174    -0.0000    -0.0000 </r>
       <r>    -9.0447    -0.0000    -0.0000 </r>
       <r>    -8.9721    -0.0000    -0.0000 </r>
       <r>    -8.8994    -0.0000    -0.0000 </r>
       <r>    -8.8268    -0.0000    -0.0000 </r>
       <r>    -8.7541    -0.0000    -0.0000 </r>
       <r>    -8.6815    -0.0001    -0.0000 </r>
       <r>    -8.6088    -0.0005    -0.0000 </r>
       <r>    -8.5362    -0.0025    -0.0002 </r>
       <r>    -8.4635    -0.0088    -0.0009 </r>
       <r>    -8.3908    -0.0202    -0.0023 </r>
       <r>    -8.3182    -0.0214    -0.0039 </r>
       <r>    -8.2455     0.0315    -0.0016 </r>
       <r>    -8.1729     0.1770     0.0113 </r>
       <r>    -8.1002     0.3669     0.0379 </r>
       <r>    -8.0276     0.4616     0.0715 </r>
       <r>    -7.9549     0.3758     0.0988 </r>
       <r>    -7.8823     0.1871     0.1123 </r>
       <r>    -7.8096     0.0369     0.1150 </r>
       <r>    -7.7369    -0.0208     0.1135 </r>
       <r>    -7.6643    -0.0227     0.1119 </r>
       <r>    -7.5916    -0.0165     0.1107 </r>
       <r>    -7.5190    -0.0208     0.1092 </r>
       <r>    -7.4463    -0.0243     0.1074 </r>
       <r>    -7.3737     0.0143     0.1084 </r>
       <r>    -7.3010     0.1394     0.1186 </r>
       <r>    -7.2283     0.3187     0.1417 </r>
       <r>    -7.1557     0.4171     0.1720 </r>
       <r>    -7.0830     0.3457     0.1971 </r>
       <r>    -7.0104     0.2307     0.2139 </r>
       <r>    -6.9377     0.3155     0.2368 </r>
       <r>    -6.8651     0.6625     0.2850 </r>
       <r>    -6.7924     1.0608     0.3620 </r>
       <r>    -6.7198     1.2911     0.4558 </r>
       <r>    -6.6471     1.3457     0.5536 </r>
       <r>    -6.5744     1.2805     0.6467 </r>
       <r>    -6.5018     1.0466     0.7227 </r>
       <r>    -6.4291     0.6399     0.7692 </r>
       <r>    -6.3565     0.2313     0.7860 </r>
       <r>    -6.2838    -0.0084     0.7854 </r>
       <r>    -6.2112    -0.0833     0.7793 </r>
       <r>    -6.1385    -0.0946     0.7725 </r>
       <r>    -6.0659    -0.0757     0.7669 </r>
       <r>    -5.9932     0.0585     0.7712 </r>
       <r>    -5.9205     0.4074     0.8008 </r>
       <r>    -5.8479     0.9128     0.8671 </r>
       <r>    -5.7752     1.3601     0.9659 </r>
       <r>    -5.7026     1.6463     1.0856 </r>
       <r>    -5.6299     1.9538     1.2275 </r>
       <r>    -5.5573     2.4601     1.4063 </r>
       <r>    -5.4846     2.9074     1.6175 </r>
       <r>    -5.4119     2.7595     1.8180 </r>
       <r>    -5.3393     1.8874     1.9551 </r>
       <r>    -5.2666     0.7968     2.0130 </r>
       <r>    -5.1940     0.0479     2.0165 </r>
       <r>    -5.1213    -0.2568     1.9978 </r>
       <r>    -5.0487    -0.2710     1.9781 </r>
       <r>    -4.9760     0.0591     1.9824 </r>
       <r>    -4.9034     0.9892     2.0543 </r>
       <r>    -4.8307     2.4002     2.2287 </r>
       <r>    -4.7580     3.4497     2.4793 </r>
       <r>    -4.6854     3.2759     2.7173 </r>
       <r>    -4.6127     2.0237     2.8644 </r>
       <r>    -4.5401     0.6670     2.9128 </r>
       <r>    -4.4674    -0.1084     2.9050 </r>
       <r>    -4.3948    -0.3514     2.8794 </r>
       <r>    -4.3221    -0.2896     2.8584 </r>
       <r>    -4.2495     0.2161     2.8741 </r>
       <r>    -4.1768     1.4714     2.9810 </r>
       <r>    -4.1041     3.2183     3.2148 </r>
       <r>    -4.0315     4.4038     3.5348 </r>
       <r>    -3.9588     4.1351     3.8352 </r>
       <r>    -3.8862     2.7682     4.0364 </r>
       <r>    -3.8135     1.5615     4.1498 </r>
       <r>    -3.7409     1.3186     4.2456 </r>
       <r>    -3.6682     1.8236     4.3781 </r>
       <r>    -3.5955     2.5574     4.5639 </r>
       <r>    -3.5229     3.3932     4.8105 </r>
       <r>    -3.4502     4.3628     5.1275 </r>
       <r>    -3.3776     5.2472     5.5087 </r>
       <r>    -3.3049     5.8398     5.9330 </r>
       <r>    -3.2323     6.3291     6.3928 </r>
       <r>    -3.1596     7.0216     6.9030 </r>
       <r>    -3.0870     7.9008     7.4770 </r>
       <r>    -3.0143     8.7507     8.1128 </r>
       <r>    -2.9416     9.3515     8.7923 </r>
       <r>    -2.8690     9.3427     9.4711 </r>
       <r>    -2.7963     8.4647    10.0861 </r>
       <r>    -2.7237     7.1960    10.6089 </r>
       <r>    -2.6510     6.6189    11.0898 </r>
       <r>    -2.5784     7.2647    11.6177 </r>
       <r>    -2.5057     8.4670    12.2328 </r>
       <r>    -2.4331     9.3678    12.9135 </r>
       <r>    -2.3604    10.0677    13.6449 </r>
       <r>    -2.2877    10.9722    14.4421 </r>
       <r>    -2.2151    11.6783    15.2906 </r>
       <r>    -2.1424    11.7714    16.1459 </r>
       <r>    -2.0698    12.1597    17.0294 </r>
       <r>    -1.9971    13.9967    18.0463 </r>
       <r>    -1.9245    16.4756    19.2434 </r>
       <r>    -1.8518    17.3996    20.5075 </r>
       <r>    -1.7791    16.0179    21.6713 </r>
       <r>    -1.7065    13.8166    22.6752 </r>
       <r>    -1.6338    12.4050    23.5765 </r>
       <r>    -1.5612    11.7486    24.4301 </r>
       <r>    -1.4885    10.7798    25.2133 </r>
       <r>    -1.4159     9.2456    25.8851 </r>
       <r>    -1.3432     8.3970    26.4952 </r>
       <r>    -1.2706     9.6578    27.1969 </r>
       <r>    -1.1979    13.0474    28.1448 </r>
       <r>    -1.1252    17.1607    29.3917 </r>
       <r>    -1.0526    20.1379    30.8548 </r>
       <r>    -0.9799    20.5863    32.3505 </r>
       <r>    -0.9073    18.6636    33.7065 </r>
       <r>    -0.8346    16.4802    34.9039 </r>
       <r>    -0.7620    16.1689    36.0787 </r>
       <r>    -0.6893    17.5103    37.3509 </r>
       <r>    -0.6167    18.5804    38.7009 </r>
       <r>    -0.5440    18.1617    40.0205 </r>
       <r>    -0.4713    16.3175    41.2060 </r>
       <r>    -0.3987    13.4505    42.1833 </r>
       <r>    -0.3260    10.0703    42.9150 </r>
       <r>    -0.2534     6.9604    43.4207 </r>
       <r>    -0.1807     4.6592    43.7592 </r>
       <r>    -0.1081     3.0125    43.9781 </r>
       <r>    -0.0354     1.6482    44.0978 </r>
       <r>     0.0373     0.5622    44.1387 </r>
       <r>     0.1099    -0.0590    44.1344 </r>
       <r>     0.1826    -0.2498    44.1162 </r>
       <r>     0.2552    -0.2020    44.1016 </r>
       <r>     0.3279     0.0249    44.1034 </r>
       <r>     0.4005     0.5024    44.1399 </r>
       <r>     0.4732     1.1869    44.2261 </r>
       <r>     0.5458     1.8737    44.3622 </r>
       <r>     0.6185     2.4143    44.5377 </r>
       <r>     0.6912     2.7166    44.7350 </r>
       <r>     0.7638     2.5536    44.9206 </r>
       <r>     0.8365     1.8037    45.0516 </r>
       <r>     0.9091     0.8611    45.1142 </r>
       <r>     0.9818     0.3528    45.1398 </r>
       <r>     1.0544     0.4495    45.1725 </r>
       <r>     1.1271     0.7392    45.2262 </r>
       <r>     1.1997     0.7692    45.2821 </r>
       <r>     1.2724     0.5529    45.3222 </r>
       <r>     1.3451     0.4446    45.3545 </r>
       <r>     1.4177     0.5943    45.3977 </r>
       <r>     1.4904     0.7724    45.4538 </r>
       <r>     1.5630     0.8205    45.5135 </r>
       <r>     1.6357     0.9706    45.5840 </r>
       <r>     1.7083     1.4049    45.6860 </r>
       <r>     1.7810     1.7546    45.8135 </r>
       <r>     1.8537     1.5134    45.9235 </r>
       <r>     1.9263     0.8110    45.9824 </r>
       <r>     1.9990     0.3433    46.0074 </r>
       <r>     2.0716     0.5835    46.0497 </r>
       <r>     2.1443     1.2776    46.1426 </r>
       <r>     2.2169     1.7329    46.2685 </r>
       <r>     2.2896     1.6180    46.3860 </r>
       <r>     2.3622     1.2997    46.4805 </r>
       <r>     2.4349     1.2079    46.5682 </r>
       <r>     2.5076     1.2831    46.6615 </r>
       <r>     2.5802     1.3629    46.7605 </r>
       <r>     2.6529     1.5392    46.8723 </r>
       <r>     2.7255     1.7863    47.0021 </r>
       <r>     2.7982     1.8393    47.1357 </r>
       <r>     2.8708     1.6851    47.2582 </r>
       <r>     2.9435     1.6117    47.3753 </r>
       <r>     3.0161     1.6905    47.4981 </r>
       <r>     3.0888     1.6617    47.6188 </r>
       <r>     3.1615     1.3195    47.7147 </r>
       <r>     3.2341     0.7599    47.7699 </r>
       <r>     3.3068     0.2568    47.7886 </r>
       <r>     3.3794    -0.0106    47.7878 </r>
       <r>     3.4521    -0.0712    47.7826 </r>
       <r>     3.5247    -0.0515    47.7789 </r>
       <r>     3.5974    -0.0440    47.7757 </r>
       <r>     3.6701    -0.0858    47.7695 </r>
       <r>     3.7427    -0.1589    47.7579 </r>
       <r>     3.8154    -0.1169    47.7494 </r>
       <r>     3.8880     0.3503    47.7749 </r>
       <r>     3.9607     1.4580    47.8808 </r>
       <r>     4.0333     2.8777    48.0899 </r>
       <r>     4.1060     3.7784    48.3644 </r>
       <r>     4.1786     3.6241    48.6277 </r>
       <r>     4.2513     2.7635    48.8285 </r>
       <r>     4.3240     1.9640    48.9712 </r>
       <r>     4.3966     1.5820    49.0862 </r>
       <r>     4.4693     1.4390    49.1907 </r>
       <r>     4.5419     1.2715    49.2831 </r>
       <r>     4.6146     1.0057    49.3562 </r>
       <r>     4.6872     0.6784    49.4055 </r>
       <r>     4.7599     0.3488    49.4308 </r>
       <r>     4.8325     0.1388    49.4409 </r>
       <r>     4.9052     0.2045    49.4557 </r>
       <r>     4.9779     0.5643    49.4967 </r>
       <r>     5.0505     1.0191    49.5708 </r>
       <r>     5.1232     1.3038    49.6655 </r>
       <r>     5.1958     1.2678    49.7576 </r>
       <r>     5.2685     0.9347    49.8255 </r>
       <r>     5.3411     0.5518    49.8656 </r>
       <r>     5.4138     0.5232    49.9036 </r>
       <r>     5.4865     1.0372    49.9790 </r>
       <r>     5.5591     1.8211    50.1113 </r>
       <r>     5.6318     2.4773    50.2913 </r>
       <r>     5.7044     2.8776    50.5004 </r>
       <r>     5.7771     3.0409    50.7213 </r>
       <r>     5.8497     2.9705    50.9372 </r>
       <r>     5.9224     2.8327    51.1430 </r>
       <r>     5.9950     2.9397    51.3565 </r>
       <r>     6.0677     3.2794    51.5948 </r>
       <r>     6.1404     3.2944    51.8342 </r>
       <r>     6.2130     2.5118    52.0167 </r>
       <r>     6.2857     1.2571    52.1080 </r>
       <r>     6.3583     0.3274    52.1318 </r>
       <r>     6.4310     0.1296    52.1412 </r>
       <r>     6.5036     0.5073    52.1781 </r>
       <r>     6.5763     1.1987    52.2652 </r>
       <r>     6.6489     2.0568    52.4146 </r>
       <r>     6.7216     2.8043    52.6183 </r>
       <r>     6.7943     2.9745    52.8345 </r>
       <r>     6.8669     2.4815    53.0148 </r>
       <r>     6.9396     1.9776    53.1584 </r>
       <r>     7.0122     2.1319    53.3133 </r>
       <r>     7.0849     2.7888    53.5160 </r>
       <r>     7.1575     3.2416    53.7515 </r>
       <r>     7.2302     3.0161    53.9706 </r>
       <r>     7.3029     2.1652    54.1279 </r>
       <r>     7.3755     1.1479    54.2113 </r>
       <r>     7.4482     0.5128    54.2486 </r>
       <r>     7.5208     0.4363    54.2803 </r>
       <r>     7.5935     0.5927    54.3234 </r>
       <r>     7.6661     0.6754    54.3724 </r>
       <r>     7.7388     0.9223    54.4394 </r>
       <r>     7.8114     1.7842    54.5691 </r>
       <r>     7.8841     3.1203    54.7958 </r>
       <r>     7.9568     4.1656    55.0984 </r>
       <r>     8.0294     4.3467    55.4143 </r>
       <r>     8.1021     3.8045    55.6907 </r>
       <r>     8.1747     3.1523    55.9197 </r>
       <r>     8.2474     2.8889    56.1296 </r>
       <r>     8.3200     2.9242    56.3421 </r>
       <r>     8.3927     2.7498    56.5419 </r>
       <r>     8.4653     2.1672    56.6993 </r>
       <r>     8.5380     1.5310    56.8105 </r>
       <r>     8.6107     1.1916    56.8971 </r>
       <r>     8.6833     1.1023    56.9772 </r>
       <r>     8.7560     1.0967    57.0569 </r>
       <r>     8.8286     1.2145    57.1451 </r>
       <r>     8.9013     1.5432    57.2573 </r>
       <r>     8.9739     1.9114    57.3961 </r>
       <r>     9.0466     2.0357    57.5440 </r>
       <r>     9.1193     1.9480    57.6856 </r>
       <r>     9.1919     1.9392    57.8265 </r>
       <r>     9.2646     2.1264    57.9810 </r>
       <r>     9.3372     2.4202    58.1568 </r>
       <r>     9.4099     2.7354    58.3556 </r>
       <r>     9.4825     3.0145    58.5746 </r>
       <r>     9.5552     3.3328    58.8167 </r>
       <r>     9.6278     3.8875    59.0992 </r>
       <r>     9.7005     4.4519    59.4226 </r>
       <r>     9.7732     4.2352    59.7303 </r>
       <r>     9.8458     2.8969    59.9408 </r>
       <r>     9.9185     1.1965    60.0277 </r>
       <r>     9.9911     0.0966    60.0348 </r>
       <r>    10.0638    -0.2247    60.0184 </r>
       <r>    10.1364    -0.1663    60.0064 </r>
       <r>    10.2091    -0.0661    60.0016 </r>
       <r>    10.2817    -0.0176    60.0003 </r>
       <r>    10.3544    -0.0033    60.0000 </r>
       <r>    10.4271    -0.0005    60.0000 </r>
       <r>    10.4997    -0.0000    60.0000 </r>
       <r>    10.5724    -0.0000    60.0000 </r>
       <r>    10.6450    -0.0000    60.0000 </r>
       <r>    10.7177    -0.0000    60.0000 </r>
       <r>    10.7903    -0.0000    60.0000 </r>
       <r>    10.8630    -0.0000    60.0000 </r>
       <r>    10.9357    -0.0000    60.0000 </r>
       <r>    11.0083    -0.0000    60.0000 </r>
       <r>    11.0810     0.0000    60.0000 </r>
       <r>    11.1536     0.0000    60.0000 </r>
       <r>    11.2263     0.0000    60.0000 </r>
       <r>    11.2989     0.0000    60.0000 </r>
       <r>    11.3716     0.0000    60.0000 </r>
       <r>    11.4442     0.0000    60.0000 </r>
       <r>    11.5169     0.0000    60.0000 </r>
       <r>    11.5896     0.0000    60.0000 </r>
       <r>    11.6622     0.0000    60.0000 </r>
       <r>    11.7349     0.0000    60.0000 </r>
      </set>
     </set>
    </array>
   </total>
  </dos>
 </calculation>
 <structure name="finalpos" >
  <crystal>
   <varray name="basis" >
    <v>       3.63000011       0.00000000       0.00000000 </v>
    <v>       0.00000000       2.56679773       0.00000000 </v>
    <v>       0.00000000       0.00000000      23.98379135 </v>
   </varray>
   <i name="volume">    223.46840188 </i>
   <varray name="rec_basis" >
    <v>       0.27548208       0.00000000       0.00000000 </v>
    <v>       0.00000000       0.38959050       0.00000000 </v>
    <v>       0.00000000       0.00000000       0.04169483 </v>
   </varray>
  </crystal>
  <varray name="positions" >
   <v>       0.00000000       0.00000000      -0.00066465 </v>
   <v>       0.50000000       0.50000000       0.04655793 </v>
   <v>       0.00000000       0.00000000       0.10096782 </v>
   <v>       0.50000000       0.50000000       0.15310478 </v>
   <v>       0.00000000       0.00000000       0.20593047 </v>
   <v>       0.50000000       0.50000000       0.25825845 </v>
   <v>       0.00000000       0.00000000       0.31238856 </v>
   <v>       0.50000000       0.50000000       0.35964988 </v>
   <v>       0.50000000       0.50000000       0.44415543 </v>
   <v>       0.50000000       0.50000000       0.47608533 </v>
  </varray>
 </structure>
</modeling>
