unknown system                          
           1
     3.630000    0.000000    0.000000
     0.000000    2.566798    0.000000
     0.000000    0.000000   23.983791
   Cu   H 
     8     2
Direct configuration=     1
   0.00000000  0.00000000  0.00000000
   0.50000000  0.50000000  0.05351109
   0.00000000  0.00000000  0.10468148
   0.50000000  0.50000000  0.15792996
   0.00000000  0.00000000  0.21070899
   0.50000000  0.50000000  0.26289048
   0.00000000  0.00000000  0.31711592
   0.50000000  0.50000000  0.36467590
   0.50000000  0.50000000  0.42690792
   0.50000000  0.50000000  0.45801226
Direct configuration=     2
   0.00000000  0.00000000  0.00103642
   0.50000000  0.50000000  0.05250398
   0.00000000  0.00000000  0.10472579
   0.50000000  0.50000000  0.15805530
   0.00000000  0.00000000  0.21037272
   0.50000000  0.50000000  0.26303670
   0.00000000  0.00000000  0.31692294
   0.50000000  0.50000000  0.36067545
   0.50000000  0.50000000  0.42852009
   0.50000000  0.50000000  0.46058460
Direct configuration=     3
   0.00000000  0.00000000  0.00159480
   0.50000000  0.50000000  0.05196139
   0.00000000  0.00000000  0.10474967
   0.50000000  0.50000000  0.15812283
   0.00000000  0.00000000  0.21019156
   0.50000000  0.50000000  0.26311549
   0.00000000  0.00000000  0.31681897
   0.50000000  0.50000000  0.35852016
   0.50000000  0.50000000  0.42938866
   0.50000000  0.50000000  0.46197048
Direct configuration=     4
   0.00000000  0.00000000  0.00243978
   0.50000000  0.50000000  0.05126630
   0.00000000  0.00000000  0.10484506
   0.50000000  0.50000000  0.15804740
   0.00000000  0.00000000  0.20984855
   0.50000000  0.50000000  0.26153640
   0.00000000  0.00000000  0.31611876
   0.50000000  0.50000000  0.35846205
   0.50000000  0.50000000  0.43137397
   0.50000000  0.50000000  0.46249572
Direct configuration=     5
   0.00000000  0.00000000  0.00261417
   0.50000000  0.50000000  0.05112284
   0.00000000  0.00000000  0.10486474
   0.50000000  0.50000000  0.15803183
   0.00000000  0.00000000  0.20977776
   0.50000000  0.50000000  0.26121049
   0.00000000  0.00000000  0.31597425
   0.50000000  0.50000000  0.35845006
   0.50000000  0.50000000  0.43178371
   0.50000000  0.50000000  0.46260412
Direct configuration=     6
   0.00000000  0.00000000  0.00309565
   0.50000000  0.50000000  0.05074129
   0.00000000  0.00000000  0.10491220
   0.50000000  0.50000000  0.15784566
   0.00000000  0.00000000  0.20950205
   0.50000000  0.50000000  0.26029996
   0.00000000  0.00000000  0.31546584
   0.50000000  0.50000000  0.35860009
   0.50000000  0.50000000  0.43225820
   0.50000000  0.50000000  0.46371305
Direct configuration=     7
   0.00000000  0.00000000  0.00376457
   0.50000000  0.50000000  0.05021120
   0.00000000  0.00000000  0.10497814
   0.50000000  0.50000000  0.15758699
   0.00000000  0.00000000  0.20911899
   0.50000000  0.50000000  0.25903493
   0.00000000  0.00000000  0.31475949
   0.50000000  0.50000000  0.35880853
   0.50000000  0.50000000  0.43291743
   0.50000000  0.50000000  0.46525371
Direct configuration=     8
   0.00000000  0.00000000  0.00384648
   0.50000000  0.50000000  0.05014630
   0.00000000  0.00000000  0.10498621
   0.50000000  0.50000000  0.15755532
   0.00000000  0.00000000  0.20907209
   0.50000000  0.50000000  0.25888004
   0.00000000  0.00000000  0.31467301
   0.50000000  0.50000000  0.35883405
   0.50000000  0.50000000  0.43299814
   0.50000000  0.50000000  0.46544235
Direct configuration=     9
   0.00000000  0.00000000  0.00403796
   0.50000000  0.50000000  0.05003125
   0.00000000  0.00000000  0.10497990
   0.50000000  0.50000000  0.15711233
   0.00000000  0.00000000  0.20876721
   0.50000000  0.50000000  0.25867649
   0.00000000  0.00000000  0.31422506
   0.50000000  0.50000000  0.35886863
   0.50000000  0.50000000  0.43372503
   0.50000000  0.50000000  0.46601013
Direct configuration=    10
   0.00000000  0.00000000  0.00461239
   0.50000000  0.50000000  0.04968611
   0.00000000  0.00000000  0.10496099
   0.50000000  0.50000000  0.15578336
   0.00000000  0.00000000  0.20785259
   0.50000000  0.50000000  0.25806581
   0.00000000  0.00000000  0.31288121
   0.50000000  0.50000000  0.35897237
   0.50000000  0.50000000  0.43590569
   0.50000000  0.50000000  0.46771346
Direct configuration=    11
   0.00000000  0.00000000  0.00476352
   0.50000000  0.50000000  0.04959530
   0.00000000  0.00000000  0.10495601
   0.50000000  0.50000000  0.15543372
   0.00000000  0.00000000  0.20761196
   0.50000000  0.50000000  0.25790515
   0.00000000  0.00000000  0.31252766
   0.50000000  0.50000000  0.35899967
   0.50000000  0.50000000  0.43647941
   0.50000000  0.50000000  0.46816159
Direct configuration=    12
   0.00000000  0.00000000  0.00444987
   0.50000000  0.50000000  0.04968953
   0.00000000  0.00000000  0.10467937
   0.50000000  0.50000000  0.15492179
   0.00000000  0.00000000  0.20726123
   0.50000000  0.50000000  0.25817928
   0.00000000  0.00000000  0.31217384
   0.50000000  0.50000000  0.35879404
   0.50000000  0.50000000  0.43697969
   0.50000000  0.50000000  0.46930536
Direct configuration=    13
   0.00000000  0.00000000  0.00436592
   0.50000000  0.50000000  0.04971475
   0.00000000  0.00000000  0.10460532
   0.50000000  0.50000000  0.15478476
   0.00000000  0.00000000  0.20716735
   0.50000000  0.50000000  0.25825265
   0.00000000  0.00000000  0.31207914
   0.50000000  0.50000000  0.35873900
   0.50000000  0.50000000  0.43711359
   0.50000000  0.50000000  0.46961150
Direct configuration=    14
   0.00000000  0.00000000  0.00373466
   0.50000000  0.50000000  0.04982140
   0.00000000  0.00000000  0.10414808
   0.50000000  0.50000000  0.15450365
   0.00000000  0.00000000  0.20689831
   0.50000000  0.50000000  0.25855961
   0.00000000  0.00000000  0.31191123
   0.50000000  0.50000000  0.35854047
   0.50000000  0.50000000  0.43814053
   0.50000000  0.50000000  0.47017604
Direct configuration=    15
   0.00000000  0.00000000  0.00337674
   0.50000000  0.50000000  0.04988187
   0.00000000  0.00000000  0.10388882
   0.50000000  0.50000000  0.15434427
   0.00000000  0.00000000  0.20674576
   0.50000000  0.50000000  0.25873366
   0.00000000  0.00000000  0.31181603
   0.50000000  0.50000000  0.35842790
   0.50000000  0.50000000  0.43872280
   0.50000000  0.50000000  0.47049613
Direct configuration=    16
   0.00000000  0.00000000  0.00272108
   0.50000000  0.50000000  0.04975829
   0.00000000  0.00000000  0.10344224
   0.50000000  0.50000000  0.15444339
   0.00000000  0.00000000  0.20662636
   0.50000000  0.50000000  0.25863847
   0.00000000  0.00000000  0.31186125
   0.50000000  0.50000000  0.35847034
   0.50000000  0.50000000  0.43926001
   0.50000000  0.50000000  0.47121255
Direct configuration=    17
   0.00000000  0.00000000  0.00138191
   0.50000000  0.50000000  0.04950588
   0.00000000  0.00000000  0.10253012
   0.50000000  0.50000000  0.15464585
   0.00000000  0.00000000  0.20638247
   0.50000000  0.50000000  0.25844405
   0.00000000  0.00000000  0.31195363
   0.50000000  0.50000000  0.35855701
   0.50000000  0.50000000  0.44035724
   0.50000000  0.50000000  0.47267583
Direct configuration=    18
   0.00000000  0.00000000  0.00078991
   0.50000000  0.50000000  0.04919560
   0.00000000  0.00000000  0.10216387
   0.50000000  0.50000000  0.15464442
   0.00000000  0.00000000  0.20629672
   0.50000000  0.50000000  0.25831256
   0.00000000  0.00000000  0.31203458
   0.50000000  0.50000000  0.35871377
   0.50000000  0.50000000  0.44120275
   0.50000000  0.50000000  0.47307980
Direct configuration=    19
   0.00000000  0.00000000  0.00060144
   0.50000000  0.50000000  0.04909683
   0.00000000  0.00000000  0.10204727
   0.50000000  0.50000000  0.15464396
   0.00000000  0.00000000  0.20626942
   0.50000000  0.50000000  0.25827070
   0.00000000  0.00000000  0.31206036
   0.50000000  0.50000000  0.35876368
   0.50000000  0.50000000  0.44147192
   0.50000000  0.50000000  0.47320841
Direct configuration=    20
   0.00000000  0.00000000  0.00021170
   0.50000000  0.50000000  0.04865925
   0.00000000  0.00000000  0.10183009
   0.50000000  0.50000000  0.15449564
   0.00000000  0.00000000  0.20622814
   0.50000000  0.50000000  0.25820758
   0.00000000  0.00000000  0.31214604
   0.50000000  0.50000000  0.35894797
   0.50000000  0.50000000  0.44195973
   0.50000000  0.50000000  0.47374785
Direct configuration=    21
   0.00000000  0.00000000 -0.00095753
   0.50000000  0.50000000  0.04734653
   0.00000000  0.00000000  0.10117854
   0.50000000  0.50000000  0.15405067
   0.00000000  0.00000000  0.20610428
   0.50000000  0.50000000  0.25801825
   0.00000000  0.00000000  0.31240310
   0.50000000  0.50000000  0.35950085
   0.50000000  0.50000000  0.44342315
   0.50000000  0.50000000  0.47536614
Direct configuration=    22
   0.00000000  0.00000000 -0.00088285
   0.50000000  0.50000000  0.04704986
   0.00000000  0.00000000  0.10110554
   0.50000000  0.50000000  0.15366836
   0.00000000  0.00000000  0.20606678
   0.50000000  0.50000000  0.25821522
   0.00000000  0.00000000  0.31240164
   0.50000000  0.50000000  0.35952001
   0.50000000  0.50000000  0.44368756
   0.50000000  0.50000000  0.47560187
Direct configuration=    23
   0.00000000  0.00000000 -0.00085283
   0.50000000  0.50000000  0.04693064
   0.00000000  0.00000000  0.10107621
   0.50000000  0.50000000  0.15351472
   0.00000000  0.00000000  0.20605170
   0.50000000  0.50000000  0.25829437
   0.00000000  0.00000000  0.31240105
   0.50000000  0.50000000  0.35952771
   0.50000000  0.50000000  0.44379382
   0.50000000  0.50000000  0.47569660
Direct configuration=    24
   0.00000000  0.00000000 -0.00079280
   0.50000000  0.50000000  0.04669219
   0.00000000  0.00000000  0.10101754
   0.50000000  0.50000000  0.15320743
   0.00000000  0.00000000  0.20602156
   0.50000000  0.50000000  0.25845269
   0.00000000  0.00000000  0.31239988
   0.50000000  0.50000000  0.35954311
   0.50000000  0.50000000  0.44400633
   0.50000000  0.50000000  0.47588607
Direct configuration=    25
   0.00000000  0.00000000 -0.00079901
   0.50000000  0.50000000  0.04671683
   0.00000000  0.00000000  0.10102360
   0.50000000  0.50000000  0.15323918
   0.00000000  0.00000000  0.20602467
   0.50000000  0.50000000  0.25843633
   0.00000000  0.00000000  0.31240000
   0.50000000  0.50000000  0.35954152
   0.50000000  0.50000000  0.44398437
   0.50000000  0.50000000  0.47586649
Direct configuration=    26
   0.00000000  0.00000000 -0.00079442
   0.50000000  0.50000000  0.04669860
   0.00000000  0.00000000  0.10101912
   0.50000000  0.50000000  0.15321569
   0.00000000  0.00000000  0.20602237
   0.50000000  0.50000000  0.25844843
   0.00000000  0.00000000  0.31239991
   0.50000000  0.50000000  0.35954270
   0.50000000  0.50000000  0.44400062
   0.50000000  0.50000000  0.47588098
Direct configuration=    27
   0.00000000  0.00000000 -0.00079671
   0.50000000  0.50000000  0.04670771
   0.00000000  0.00000000  0.10102136
   0.50000000  0.50000000  0.15322744
   0.00000000  0.00000000  0.20602352
   0.50000000  0.50000000  0.25844238
   0.00000000  0.00000000  0.31239995
   0.50000000  0.50000000  0.35954211
   0.50000000  0.50000000  0.44399250
   0.50000000  0.50000000  0.47587374
Direct configuration=    28
   0.00000000  0.00000000 -0.00079457
   0.50000000  0.50000000  0.04669922
   0.00000000  0.00000000  0.10101927
   0.50000000  0.50000000  0.15321649
   0.00000000  0.00000000  0.20602244
   0.50000000  0.50000000  0.25844802
   0.00000000  0.00000000  0.31239991
   0.50000000  0.50000000  0.35954266
   0.50000000  0.50000000  0.44400007
   0.50000000  0.50000000  0.47588049
Direct configuration=    29
   0.00000000  0.00000000 -0.00079564
   0.50000000  0.50000000  0.04670346
   0.00000000  0.00000000  0.10102031
   0.50000000  0.50000000  0.15322196
   0.00000000  0.00000000  0.20602298
   0.50000000  0.50000000  0.25844520
   0.00000000  0.00000000  0.31239993
   0.50000000  0.50000000  0.35954238
   0.50000000  0.50000000  0.44399628
   0.50000000  0.50000000  0.47587711
Direct configuration=    30
   0.00000000  0.00000000 -0.00079522
   0.50000000  0.50000000  0.04670178
   0.00000000  0.00000000  0.10101990
   0.50000000  0.50000000  0.15321979
   0.00000000  0.00000000  0.20602277
   0.50000000  0.50000000  0.25844632
   0.00000000  0.00000000  0.31239992
   0.50000000  0.50000000  0.35954249
   0.50000000  0.50000000  0.44399778
   0.50000000  0.50000000  0.47587845
Direct configuration=    31
   0.00000000  0.00000000 -0.00071035
   0.50000000  0.50000000  0.04660055
   0.00000000  0.00000000  0.10098753
   0.50000000  0.50000000  0.15313877
   0.00000000  0.00000000  0.20597226
   0.50000000  0.50000000  0.25834673
   0.00000000  0.00000000  0.31239695
   0.50000000  0.50000000  0.35960741
   0.50000000  0.50000000  0.44404801
   0.50000000  0.50000000  0.47604614
Direct configuration=    32
   0.00000000  0.00000000 -0.00071697
   0.50000000  0.50000000  0.04660845
   0.00000000  0.00000000  0.10099005
   0.50000000  0.50000000  0.15314510
   0.00000000  0.00000000  0.20597620
   0.50000000  0.50000000  0.25835450
   0.00000000  0.00000000  0.31239718
   0.50000000  0.50000000  0.35960234
   0.50000000  0.50000000  0.44404409
   0.50000000  0.50000000  0.47603305
Direct configuration=    33
   0.00000000  0.00000000 -0.00071051
   0.50000000  0.50000000  0.04660074
   0.00000000  0.00000000  0.10098758
   0.50000000  0.50000000  0.15313892
   0.00000000  0.00000000  0.20597235
   0.50000000  0.50000000  0.25834691
   0.00000000  0.00000000  0.31239696
   0.50000000  0.50000000  0.35960729
   0.50000000  0.50000000  0.44404792
   0.50000000  0.50000000  0.47604583
Direct configuration=    34
   0.00000000  0.00000000 -0.00071374
   0.50000000  0.50000000  0.04660459
   0.00000000  0.00000000  0.10098882
   0.50000000  0.50000000  0.15314201
   0.00000000  0.00000000  0.20597428
   0.50000000  0.50000000  0.25835070
   0.00000000  0.00000000  0.31239707
   0.50000000  0.50000000  0.35960481
   0.50000000  0.50000000  0.44404601
   0.50000000  0.50000000  0.47603944
Direct configuration=    35
   0.00000000  0.00000000 -0.00071223
   0.50000000  0.50000000  0.04660280
   0.00000000  0.00000000  0.10098824
   0.50000000  0.50000000  0.15314057
   0.00000000  0.00000000  0.20597338
   0.50000000  0.50000000  0.25834894
   0.00000000  0.00000000  0.31239702
   0.50000000  0.50000000  0.35960597
   0.50000000  0.50000000  0.44404690
   0.50000000  0.50000000  0.47604242
Direct configuration=    36
   0.00000000  0.00000000 -0.00066465
   0.50000000  0.50000000  0.04655793
   0.00000000  0.00000000  0.10096782
   0.50000000  0.50000000  0.15310478
   0.00000000  0.00000000  0.20593047
   0.50000000  0.50000000  0.25825845
   0.00000000  0.00000000  0.31238856
   0.50000000  0.50000000  0.35964988
   0.50000000  0.50000000  0.44415543
   0.50000000  0.50000000  0.47608533
