  63  63   0   0
  0.2247639E+02  0.7700393E-09  0.7700393E-09  0.2757469E-08  0.5000000E-15
  1.000000000000000E-004
  CAR 
 unknown system                          
     13.20388929     -9.50092405  301      1.75574162      1.00000000
     -9.501  0.0000E+00  0.0000E+00  0.0000E+00  0.0000E+00
     -9.425  0.0000E+00  0.0000E+00  0.0000E+00  0.0000E+00
     -9.350  0.0000E+00  0.0000E+00  0.0000E+00  0.0000E+00
     -9.274  0.0000E+00  0.0000E+00  0.0000E+00  0.0000E+00
     -9.198  0.0000E+00  0.0000E+00  0.0000E+00  0.0000E+00
     -9.123 -0.1183E-30 -0.1183E-30 -0.8955E-32 -0.8955E-32
     -9.047 -0.4508E-28 -0.4508E-28 -0.3421E-29 -0.3420E-29
     -8.971 -0.1289E-25 -0.1289E-25 -0.9788E-27 -0.9788E-27
     -8.895 -0.2759E-23 -0.2759E-23 -0.2098E-24 -0.2098E-24
     -8.820 -0.4420E-21 -0.4420E-21 -0.3366E-22 -0.3366E-22
     -8.744 -0.5298E-19 -0.5298E-19 -0.4043E-20 -0.4043E-20
     -8.668 -0.4646E-17 -0.4646E-17 -0.3557E-18 -0.3556E-18
     -8.593 -0.3073E-15 -0.3073E-15 -0.2361E-16 -0.2361E-16
     -8.517 -0.1528E-13 -0.1528E-13 -0.1180E-14 -0.1180E-14
     -8.441 -0.5653E-12 -0.5653E-12 -0.4397E-13 -0.4397E-13
     -8.366 -0.1554E-10 -0.1554E-10 -0.1220E-11 -0.1220E-11
     -8.290 -0.3165E-09 -0.3165E-09 -0.2517E-10 -0.2517E-10
     -8.214 -0.4755E-08 -0.4755E-08 -0.3850E-09 -0.3850E-09
     -8.139 -0.5237E-07 -0.5237E-07 -0.4348E-08 -0.4348E-08
     -8.063 -0.4188E-06 -0.4188E-06 -0.3604E-07 -0.3604E-07
     -7.987 -0.2391E-05 -0.2391E-05 -0.2170E-06 -0.2170E-06
     -7.912 -0.9437E-05 -0.9437E-05 -0.9312E-06 -0.9312E-06
     -7.836 -0.2378E-04 -0.2378E-04 -0.2731E-05 -0.2731E-05
     -7.760 -0.2790E-04 -0.2790E-04 -0.4842E-05 -0.4842E-05
     -7.685  0.3552E-04  0.3552E-04 -0.2154E-05 -0.2154E-05
     -7.609  0.2154E-03  0.2154E-03  0.1414E-04  0.1414E-04
     -7.533  0.4246E-03  0.4246E-03  0.4628E-04  0.4628E-04
     -7.457  0.4470E-03  0.4470E-03  0.8011E-04  0.8011E-04
     -7.382  0.2511E-03  0.2511E-03  0.9911E-04  0.9911E-04
     -7.306  0.2757E-03  0.2757E-03  0.1200E-03  0.1200E-03
     -7.230  0.1104E-02  0.1104E-02  0.2035E-03  0.2035E-03
     -7.155  0.2592E-02  0.2592E-02  0.3997E-03  0.3997E-03
     -7.079  0.3624E-02  0.3624E-02  0.6739E-03  0.6739E-03
     -7.003  0.3255E-02  0.3255E-02  0.9203E-03  0.9203E-03
     -6.928  0.1839E-02  0.1839E-02  0.1059E-02  0.1059E-02
     -6.852  0.5107E-03  0.5107E-03  0.1098E-02  0.1098E-02
     -6.776  0.1213E-03  0.1213E-03  0.1107E-02  0.1107E-02
     -6.701  0.8996E-03  0.8996E-03  0.1175E-02  0.1175E-02
     -6.625  0.2355E-02  0.2355E-02  0.1354E-02  0.1354E-02
     -6.549  0.3500E-02  0.3500E-02  0.1619E-02  0.1619E-02
     -6.474  0.3871E-02  0.3871E-02  0.1912E-02  0.1912E-02
     -6.398  0.3846E-02  0.3846E-02  0.2203E-02  0.2203E-02
     -6.322  0.3547E-02  0.3547E-02  0.2471E-02  0.2471E-02
     -6.247  0.2699E-02  0.2699E-02  0.2675E-02  0.2675E-02
     -6.171  0.1789E-02  0.1789E-02  0.2811E-02  0.2811E-02
     -6.095  0.1885E-02  0.1885E-02  0.2953E-02  0.2953E-02
     -6.020  0.3282E-02  0.3282E-02  0.3202E-02  0.3202E-02
     -5.944  0.5282E-02  0.5282E-02  0.3601E-02  0.3601E-02
     -5.868  0.6920E-02  0.6920E-02  0.4125E-02  0.4125E-02
     -5.792  0.7269E-02  0.7269E-02  0.4675E-02  0.4675E-02
     -5.717  0.5948E-02  0.5948E-02  0.5125E-02  0.5125E-02
     -5.641  0.4009E-02  0.4009E-02  0.5429E-02  0.5429E-02
     -5.565  0.3056E-02  0.3056E-02  0.5660E-02  0.5660E-02
     -5.490  0.3071E-02  0.3071E-02  0.5893E-02  0.5893E-02
     -5.414  0.2640E-02  0.2640E-02  0.6092E-02  0.6092E-02
     -5.338  0.1338E-02  0.1338E-02  0.6194E-02  0.6194E-02
     -5.263  0.4325E-03  0.4325E-03  0.6226E-02  0.6226E-02
     -5.187  0.1364E-02  0.1364E-02  0.6330E-02  0.6330E-02
     -5.111  0.4341E-02  0.4341E-02  0.6658E-02  0.6658E-02
     -5.036  0.7969E-02  0.7969E-02  0.7261E-02  0.7261E-02
     -4.960  0.1021E-01  0.1021E-01  0.8034E-02  0.8034E-02
     -4.884  0.1024E-01  0.1024E-01  0.8809E-02  0.8809E-02
     -4.809  0.8950E-02  0.8950E-02  0.9486E-02  0.9486E-02
     -4.733  0.7500E-02  0.7500E-02  0.1005E-01  0.1005E-01
     -4.657  0.6815E-02  0.6815E-02  0.1057E-01  0.1057E-01
     -4.582  0.7501E-02  0.7501E-02  0.1114E-01  0.1114E-01
     -4.506  0.8607E-02  0.8607E-02  0.1179E-01  0.1179E-01
     -4.430  0.8103E-02  0.8103E-02  0.1240E-01  0.1240E-01
     -4.354  0.5741E-02  0.5741E-02  0.1284E-01  0.1284E-01
     -4.279  0.3679E-02  0.3679E-02  0.1311E-01  0.1311E-01
     -4.203  0.3730E-02  0.3730E-02  0.1340E-01  0.1340E-01
     -4.127  0.5602E-02  0.5602E-02  0.1382E-01  0.1382E-01
     -4.052  0.8353E-02  0.8353E-02  0.1445E-01  0.1445E-01
     -3.976  0.1153E-01  0.1153E-01  0.1533E-01  0.1533E-01
     -3.900  0.1364E-01  0.1364E-01  0.1636E-01  0.1636E-01
     -3.825  0.1247E-01  0.1247E-01  0.1730E-01  0.1730E-01
     -3.749  0.8965E-02  0.8965E-02  0.1798E-01  0.1798E-01
     -3.673  0.7436E-02  0.7436E-02  0.1854E-01  0.1854E-01
     -3.598  0.9716E-02  0.9716E-02  0.1928E-01  0.1928E-01
     -3.522  0.1296E-01  0.1296E-01  0.2026E-01  0.2026E-01
     -3.446  0.1537E-01  0.1537E-01  0.2142E-01  0.2142E-01
     -3.371  0.1938E-01  0.1938E-01  0.2289E-01  0.2289E-01
     -3.295  0.2670E-01  0.2670E-01  0.2491E-01  0.2491E-01
     -3.219  0.3467E-01  0.3467E-01  0.2753E-01  0.2753E-01
     -3.144  0.3917E-01  0.3917E-01  0.3050E-01  0.3050E-01
     -3.068  0.3795E-01  0.3795E-01  0.3337E-01  0.3337E-01
     -2.992  0.3235E-01  0.3235E-01  0.3582E-01  0.3582E-01
     -2.917  0.2782E-01  0.2782E-01  0.3792E-01  0.3792E-01
     -2.841  0.3061E-01  0.3061E-01  0.4024E-01  0.4024E-01
     -2.765  0.4181E-01  0.4181E-01  0.4341E-01  0.4341E-01
     -2.689  0.5540E-01  0.5540E-01  0.4760E-01  0.4760E-01
     -2.614  0.6403E-01  0.6403E-01  0.5244E-01  0.5244E-01
     -2.538  0.6727E-01  0.6727E-01  0.5753E-01  0.5753E-01
     -2.462  0.7098E-01  0.7098E-01  0.6291E-01  0.6291E-01
     -2.387  0.7793E-01  0.7793E-01  0.6880E-01  0.6880E-01
     -2.311  0.8420E-01  0.8420E-01  0.7518E-01  0.7518E-01
     -2.235  0.8519E-01  0.8519E-01  0.8162E-01  0.8162E-01
     -2.160  0.8003E-01  0.8003E-01  0.8768E-01  0.8768E-01
     -2.084  0.7173E-01  0.7173E-01  0.9311E-01  0.9311E-01
     -2.008  0.6690E-01  0.6690E-01  0.9817E-01  0.9817E-01
     -1.933  0.7132E-01  0.7132E-01  0.1036E+00  0.1036E+00
     -1.857  0.8291E-01  0.8291E-01  0.1098E+00  0.1098E+00
     -1.781  0.9284E-01  0.9284E-01  0.1169E+00  0.1169E+00
     -1.706  0.9579E-01  0.9579E-01  0.1241E+00  0.1241E+00
     -1.630  0.9591E-01  0.9591E-01  0.1314E+00  0.1314E+00
     -1.554  0.1005E+00  0.1005E+00  0.1390E+00  0.1390E+00
     -1.479  0.1104E+00  0.1104E+00  0.1473E+00  0.1473E+00
     -1.403  0.1199E+00  0.1199E+00  0.1564E+00  0.1564E+00
     -1.327  0.1273E+00  0.1273E+00  0.1661E+00  0.1661E+00
     -1.252  0.1383E+00  0.1383E+00  0.1765E+00  0.1765E+00
     -1.176  0.1535E+00  0.1535E+00  0.1881E+00  0.1881E+00
     -1.100  0.1616E+00  0.1616E+00  0.2004E+00  0.2004E+00
     -1.024  0.1546E+00  0.1546E+00  0.2121E+00  0.2121E+00
     -0.949  0.1411E+00  0.1411E+00  0.2227E+00  0.2227E+00
     -0.873  0.1332E+00  0.1332E+00  0.2328E+00  0.2328E+00
     -0.797  0.1330E+00  0.1330E+00  0.2429E+00  0.2429E+00
     -0.722  0.1354E+00  0.1354E+00  0.2531E+00  0.2531E+00
     -0.646  0.1368E+00  0.1368E+00  0.2635E+00  0.2635E+00
     -0.570  0.1370E+00  0.1370E+00  0.2739E+00  0.2739E+00
     -0.495  0.1363E+00  0.1363E+00  0.2842E+00  0.2842E+00
     -0.419  0.1343E+00  0.1343E+00  0.2943E+00  0.2943E+00
     -0.343  0.1340E+00  0.1340E+00  0.3045E+00  0.3045E+00
     -0.268  0.1404E+00  0.1404E+00  0.3151E+00  0.3151E+00
     -0.192  0.1505E+00  0.1505E+00  0.3265E+00  0.3265E+00
     -0.116  0.1574E+00  0.1574E+00  0.3384E+00  0.3384E+00
     -0.041  0.1657E+00  0.1657E+00  0.3509E+00  0.3509E+00
      0.035  0.1842E+00  0.1842E+00  0.3649E+00  0.3649E+00
      0.111  0.2020E+00  0.2020E+00  0.3802E+00  0.3802E+00
      0.186  0.1916E+00  0.1916E+00  0.3947E+00  0.3947E+00
      0.262  0.1417E+00  0.1417E+00  0.4054E+00  0.4054E+00
      0.338  0.7562E-01  0.7562E-01  0.4111E+00  0.4111E+00
      0.414  0.2785E-01  0.2785E-01  0.4132E+00  0.4132E+00
      0.489  0.1134E-01  0.1134E-01  0.4141E+00  0.4141E+00
      0.565  0.1508E-01  0.1508E-01  0.4152E+00  0.4152E+00
      0.641  0.2305E-01  0.2305E-01  0.4170E+00  0.4170E+00
      0.716  0.2660E-01  0.2660E-01  0.4190E+00  0.4190E+00
      0.792  0.2446E-01  0.2446E-01  0.4208E+00  0.4208E+00
      0.868  0.1883E-01  0.1883E-01  0.4223E+00  0.4223E+00
      0.943  0.1271E-01  0.1271E-01  0.4232E+00  0.4232E+00
      1.019  0.9252E-02  0.9252E-02  0.4239E+00  0.4239E+00
      1.095  0.1003E-01  0.1003E-01  0.4247E+00  0.4247E+00
      1.170  0.1269E-01  0.1269E-01  0.4256E+00  0.4256E+00
      1.246  0.1351E-01  0.1351E-01  0.4267E+00  0.4267E+00
      1.322  0.1230E-01  0.1230E-01  0.4276E+00  0.4276E+00
      1.397  0.1120E-01  0.1120E-01  0.4284E+00  0.4284E+00
      1.473  0.1066E-01  0.1066E-01  0.4292E+00  0.4292E+00
      1.549  0.1033E-01  0.1033E-01  0.4300E+00  0.4300E+00
      1.624  0.1161E-01  0.1161E-01  0.4309E+00  0.4309E+00
      1.700  0.1545E-01  0.1545E-01  0.4321E+00  0.4321E+00
      1.776  0.1907E-01  0.1907E-01  0.4335E+00  0.4335E+00
      1.851  0.1857E-01  0.1857E-01  0.4349E+00  0.4349E+00
      1.927  0.1398E-01  0.1398E-01  0.4360E+00  0.4360E+00
      2.003  0.8629E-02  0.8629E-02  0.4366E+00  0.4366E+00
      2.079  0.4736E-02  0.4736E-02  0.4370E+00  0.4370E+00
      2.154  0.2825E-02  0.2825E-02  0.4372E+00  0.4372E+00
      2.230  0.3854E-02  0.3854E-02  0.4375E+00  0.4375E+00
      2.306  0.7962E-02  0.7962E-02  0.4381E+00  0.4381E+00
      2.381  0.1194E-01  0.1194E-01  0.4390E+00  0.4390E+00
      2.457  0.1238E-01  0.1238E-01  0.4399E+00  0.4399E+00
      2.533  0.1111E-01  0.1111E-01  0.4408E+00  0.4408E+00
      2.608  0.1268E-01  0.1268E-01  0.4417E+00  0.4417E+00
      2.684  0.1752E-01  0.1752E-01  0.4431E+00  0.4431E+00
      2.760  0.2175E-01  0.2175E-01  0.4447E+00  0.4447E+00
      2.835  0.2185E-01  0.2185E-01  0.4464E+00  0.4464E+00
      2.911  0.1781E-01  0.1781E-01  0.4477E+00  0.4477E+00
      2.987  0.1353E-01  0.1353E-01  0.4487E+00  0.4487E+00
      3.062  0.1320E-01  0.1320E-01  0.4497E+00  0.4497E+00
      3.138  0.1573E-01  0.1573E-01  0.4509E+00  0.4509E+00
      3.214  0.1577E-01  0.1577E-01  0.4521E+00  0.4521E+00
      3.289  0.1127E-01  0.1127E-01  0.4530E+00  0.4530E+00
      3.365  0.5874E-02  0.5874E-02  0.4534E+00  0.4534E+00
      3.441  0.3263E-02  0.3263E-02  0.4537E+00  0.4537E+00
      3.517  0.3166E-02  0.3166E-02  0.4539E+00  0.4539E+00
      3.592  0.3819E-02  0.3819E-02  0.4542E+00  0.4542E+00
      3.668  0.4841E-02  0.4841E-02  0.4546E+00  0.4546E+00
      3.744  0.7074E-02  0.7074E-02  0.4551E+00  0.4551E+00
      3.819  0.1078E-01  0.1078E-01  0.4559E+00  0.4559E+00
      3.895  0.1390E-01  0.1390E-01  0.4570E+00  0.4570E+00
      3.971  0.1363E-01  0.1363E-01  0.4580E+00  0.4580E+00
      4.046  0.1132E-01  0.1132E-01  0.4589E+00  0.4589E+00
      4.122  0.1221E-01  0.1221E-01  0.4598E+00  0.4598E+00
      4.198  0.1756E-01  0.1756E-01  0.4611E+00  0.4611E+00
      4.273  0.2129E-01  0.2129E-01  0.4627E+00  0.4627E+00
      4.349  0.1788E-01  0.1788E-01  0.4641E+00  0.4641E+00
      4.425  0.9446E-02  0.9446E-02  0.4648E+00  0.4648E+00
      4.500  0.2086E-02  0.2086E-02  0.4649E+00  0.4649E+00
      4.576 -0.8690E-03 -0.8690E-03  0.4649E+00  0.4649E+00
      4.652  0.5433E-03  0.5433E-03  0.4649E+00  0.4649E+00
      4.727  0.4990E-02  0.4990E-02  0.4653E+00  0.4653E+00
      4.803  0.9813E-02  0.9813E-02  0.4660E+00  0.4660E+00
      4.879  0.1171E-01  0.1171E-01  0.4669E+00  0.4669E+00
      4.954  0.9698E-02  0.9698E-02  0.4677E+00  0.4677E+00
      5.030  0.5878E-02  0.5878E-02  0.4681E+00  0.4681E+00
      5.106  0.2594E-02  0.2594E-02  0.4683E+00  0.4683E+00
      5.182  0.6357E-03  0.6357E-03  0.4684E+00  0.4684E+00
      5.257  0.3529E-03  0.3529E-03  0.4684E+00  0.4684E+00
      5.333  0.2745E-02  0.2745E-02  0.4686E+00  0.4686E+00
      5.409  0.7937E-02  0.7937E-02  0.4692E+00  0.4692E+00
      5.484  0.1325E-01  0.1325E-01  0.4702E+00  0.4702E+00
      5.560  0.1540E-01  0.1540E-01  0.4714E+00  0.4714E+00
      5.636  0.1479E-01  0.1479E-01  0.4725E+00  0.4725E+00
      5.711  0.1486E-01  0.1486E-01  0.4736E+00  0.4736E+00
      5.787  0.1690E-01  0.1690E-01  0.4749E+00  0.4749E+00
      5.863  0.1821E-01  0.1821E-01  0.4763E+00  0.4763E+00
      5.938  0.1569E-01  0.1569E-01  0.4774E+00  0.4774E+00
      6.014  0.1001E-01  0.1001E-01  0.4782E+00  0.4782E+00
      6.090  0.5293E-02  0.5292E-02  0.4786E+00  0.4786E+00
      6.165  0.4727E-02  0.4726E-02  0.4790E+00  0.4790E+00
      6.241  0.8049E-02  0.8048E-02  0.4796E+00  0.4796E+00
      6.317  0.1286E-01  0.1286E-01  0.4805E+00  0.4805E+00
      6.392  0.1613E-01  0.1613E-01  0.4818E+00  0.4818E+00
      6.468  0.1538E-01  0.1538E-01  0.4829E+00  0.4829E+00
      6.544  0.1119E-01  0.1119E-01  0.4838E+00  0.4838E+00
      6.619  0.7738E-02  0.7736E-02  0.4844E+00  0.4844E+00
      6.695  0.8200E-02  0.8199E-02  0.4850E+00  0.4850E+00
      6.771  0.1081E-01  0.1081E-01  0.4858E+00  0.4858E+00
      6.847  0.1171E-01  0.1171E-01  0.4867E+00  0.4867E+00
      6.922  0.1104E-01  0.1104E-01  0.4875E+00  0.4875E+00
      6.998  0.1304E-01  0.1303E-01  0.4885E+00  0.4885E+00
      7.074  0.1894E-01  0.1894E-01  0.4899E+00  0.4899E+00
      7.149  0.2385E-01  0.2385E-01  0.4917E+00  0.4917E+00
      7.225  0.2309E-01  0.2309E-01  0.4935E+00  0.4935E+00
      7.301  0.1776E-01  0.1776E-01  0.4948E+00  0.4948E+00
      7.376  0.1176E-01  0.1177E-01  0.4957E+00  0.4957E+00
      7.452  0.7147E-02  0.7147E-02  0.4963E+00  0.4963E+00
      7.528  0.4432E-02  0.4430E-02  0.4966E+00  0.4966E+00
      7.603  0.5183E-02  0.5178E-02  0.4970E+00  0.4970E+00
      7.679  0.1098E-01  0.1098E-01  0.4978E+00  0.4978E+00
      7.755  0.1978E-01  0.1978E-01  0.4993E+00  0.4993E+00
      7.830  0.2622E-01  0.2622E-01  0.5013E+00  0.5013E+00
      7.906  0.2675E-01  0.2675E-01  0.5033E+00  0.5033E+00
      7.982  0.2263E-01  0.2263E-01  0.5050E+00  0.5050E+00
      8.057  0.1735E-01  0.1734E-01  0.5064E+00  0.5064E+00
      8.133  0.1267E-01  0.1267E-01  0.5073E+00  0.5073E+00
      8.209  0.8557E-02  0.8561E-02  0.5080E+00  0.5080E+00
      8.285  0.6054E-02  0.6060E-02  0.5084E+00  0.5084E+00
      8.360  0.7785E-02  0.7789E-02  0.5090E+00  0.5090E+00
      8.436  0.1466E-01  0.1466E-01  0.5101E+00  0.5101E+00
      8.512  0.2327E-01  0.2327E-01  0.5119E+00  0.5119E+00
      8.587  0.2770E-01  0.2769E-01  0.5140E+00  0.5140E+00
      8.663  0.2487E-01  0.2487E-01  0.5159E+00  0.5159E+00
      8.739  0.1772E-01  0.1772E-01  0.5172E+00  0.5172E+00
      8.814  0.1173E-01  0.1173E-01  0.5181E+00  0.5181E+00
      8.890  0.1001E-01  0.1001E-01  0.5188E+00  0.5188E+00
      8.966  0.1259E-01  0.1258E-01  0.5198E+00  0.5198E+00
      9.041  0.1729E-01  0.1728E-01  0.5211E+00  0.5211E+00
      9.117  0.2070E-01  0.2070E-01  0.5227E+00  0.5227E+00
      9.193  0.2129E-01  0.2129E-01  0.5243E+00  0.5243E+00
      9.268  0.2033E-01  0.2034E-01  0.5258E+00  0.5258E+00
      9.344  0.1917E-01  0.1918E-01  0.5273E+00  0.5273E+00
      9.420  0.1836E-01  0.1837E-01  0.5287E+00  0.5287E+00
      9.495  0.1869E-01  0.1869E-01  0.5301E+00  0.5301E+00
      9.571  0.1947E-01  0.1947E-01  0.5316E+00  0.5316E+00
      9.647  0.1862E-01  0.1862E-01  0.5330E+00  0.5330E+00
      9.722  0.1627E-01  0.1627E-01  0.5342E+00  0.5342E+00
      9.798  0.1487E-01  0.1487E-01  0.5353E+00  0.5353E+00
      9.874  0.1524E-01  0.1524E-01  0.5365E+00  0.5365E+00
      9.950  0.1541E-01  0.1541E-01  0.5376E+00  0.5376E+00
     10.025  0.1402E-01  0.1403E-01  0.5387E+00  0.5387E+00
     10.101  0.1275E-01  0.1275E-01  0.5397E+00  0.5397E+00
     10.177  0.1421E-01  0.1420E-01  0.5407E+00  0.5407E+00
     10.252  0.1809E-01  0.1808E-01  0.5421E+00  0.5421E+00
     10.328  0.2181E-01  0.2181E-01  0.5438E+00  0.5438E+00
     10.404  0.2518E-01  0.2518E-01  0.5457E+00  0.5457E+00
     10.479  0.2911E-01  0.2911E-01  0.5479E+00  0.5479E+00
     10.555  0.3053E-01  0.3053E-01  0.5502E+00  0.5502E+00
     10.631  0.2588E-01  0.2589E-01  0.5521E+00  0.5521E+00
     10.706  0.1755E-01  0.1756E-01  0.5535E+00  0.5535E+00
     10.782  0.1076E-01  0.1077E-01  0.5543E+00  0.5543E+00
     10.858  0.7737E-02  0.7747E-02  0.5549E+00  0.5549E+00
     10.933  0.8031E-02  0.8017E-02  0.5555E+00  0.5555E+00
     11.009  0.1072E-01  0.1063E-01  0.5563E+00  0.5563E+00
     11.085  0.1411E-01  0.1394E-01  0.5574E+00  0.5573E+00
     11.160  0.1530E-01  0.1516E-01  0.5585E+00  0.5585E+00
     11.236  0.1239E-01  0.1241E-01  0.5594E+00  0.5594E+00
     11.312  0.6794E-02  0.6959E-02  0.5600E+00  0.5599E+00
     11.388  0.1930E-02  0.2092E-02  0.5601E+00  0.5601E+00
     11.463 -0.3307E-03 -0.2583E-03  0.5601E+00  0.5601E+00
     11.539 -0.6344E-03 -0.6288E-03  0.5600E+00  0.5600E+00
     11.615 -0.3349E-03 -0.3461E-03  0.5600E+00  0.5600E+00
     11.690 -0.1076E-03 -0.1144E-03  0.5600E+00  0.5600E+00
     11.766 -0.2369E-04 -0.2583E-04  0.5600E+00  0.5600E+00
     11.842 -0.3725E-05 -0.4157E-05  0.5600E+00  0.5600E+00
     11.917 -0.4264E-06 -0.4864E-06  0.5600E+00  0.5600E+00
     11.993 -0.3590E-07 -0.4182E-07  0.5600E+00  0.5600E+00
     12.069 -0.2237E-08 -0.2660E-08  0.5600E+00  0.5600E+00
     12.144 -0.1036E-09 -0.1256E-09  0.5600E+00  0.5600E+00
     12.220 -0.3574E-11 -0.4415E-11  0.5600E+00  0.5600E+00
     12.296 -0.9207E-13 -0.1158E-12  0.5600E+00  0.5600E+00
     12.371 -0.1775E-14 -0.2271E-14  0.5600E+00  0.5600E+00
     12.447 -0.2771E-16 -0.3586E-16  0.5600E+00  0.5600E+00
     12.523  0.0000E+00  0.0000E+00  0.5600E+00  0.5600E+00
     12.598  0.0000E+00  0.0000E+00  0.5600E+00  0.5600E+00
     12.674  0.0000E+00  0.0000E+00  0.5600E+00  0.5600E+00
     12.750  0.0000E+00  0.0000E+00  0.5600E+00  0.5600E+00
     12.825  0.0000E+00  0.0000E+00  0.5600E+00  0.5600E+00
     12.901  0.0000E+00  0.0000E+00  0.5600E+00  0.5600E+00
     12.977  0.0000E+00  0.0000E+00  0.5600E+00  0.5600E+00
     13.053  0.0000E+00  0.0000E+00  0.5600E+00  0.5600E+00
     13.128  0.0000E+00  0.0000E+00  0.5600E+00  0.5600E+00
     13.204  0.0000E+00  0.0000E+00  0.5600E+00  0.5600E+00
