       N       E                     dE             d eps       ncg     rms          rms(c)
DAV:   1     0.672614614194E+04    0.67261E+04   -0.24574E+05  5376   0.191E+03
DAV:   2     0.942949116395E+03   -0.57832E+04   -0.55377E+04  5376   0.449E+02
DAV:   3    -0.177867531216E+03   -0.11208E+04   -0.10125E+04  5376   0.230E+02
DAV:   4    -0.267734054818E+03   -0.89867E+02   -0.85851E+02  5840   0.917E+01
DAV:   5    -0.270002130492E+03   -0.22681E+01   -0.22580E+01  5920   0.146E+01    0.751E+01
DAV:   6    -0.223546186843E+03    0.46456E+02   -0.62179E+02  5912   0.124E+02    0.387E+01
DAV:   7    -0.194039157213E+03    0.29507E+02   -0.15994E+02  5896   0.632E+01    0.177E+01
DAV:   8    -0.187535188099E+03    0.65040E+01   -0.16220E+01  6760   0.572E+01    0.172E+01
DAV:   9    -0.187919960957E+03   -0.38477E+00   -0.59251E+00  6872   0.467E+01    0.150E+01
DAV:  10    -0.190567765141E+03   -0.26478E+01   -0.56813E+00  8056   0.369E+01    0.128E+01
DAV:  11    -0.195036763751E+03   -0.44690E+01   -0.80837E+00  7840   0.442E+01    0.958E+00
DAV:  12    -0.197544517326E+03   -0.25078E+01   -0.54123E+00  7296   0.516E+01    0.856E+00
DAV:  13    -0.199911008686E+03   -0.23665E+01   -0.39460E+00  8072   0.364E+01    0.482E+00
DAV:  14    -0.212685070732E+03   -0.12774E+02   -0.12345E+01  7496   0.202E+01    0.367E+00
DAV:  15    -0.214933608881E+03   -0.22485E+01   -0.35298E+00  6032   0.936E+00    0.276E+00
DAV:  16    -0.216827921866E+03   -0.18943E+01   -0.13441E+00  6576   0.747E+00    0.203E+00
DAV:  17    -0.218541232833E+03   -0.17133E+01   -0.10277E+00  7088   0.465E+00    0.169E+00
DAV:  18    -0.219738627082E+03   -0.11974E+01   -0.63414E-01  7016   0.308E+00    0.147E+00
DAV:  19    -0.220866473741E+03   -0.11278E+01   -0.37203E-01  6400   0.372E+00    0.135E+00
DAV:  20    -0.221905919688E+03   -0.10394E+01   -0.34667E-01  7440   0.385E+00    0.111E+00
DAV:  21    -0.223497336790E+03   -0.15914E+01   -0.57650E-01  7864   0.404E+00    0.100E+00
DAV:  22    -0.224389516902E+03   -0.89218E+00   -0.13825E-01  6408   0.223E+00    0.687E-01
DAV:  23    -0.225391496119E+03   -0.10020E+01   -0.74757E-02  6496   0.201E+00    0.593E-01
DAV:  24    -0.226312529880E+03   -0.92103E+00   -0.44440E-02  6928   0.209E+00    0.573E-01
DAV:  25    -0.226606636211E+03   -0.29411E+00   -0.21024E-02  7168   0.107E+00    0.290E-01
DAV:  26    -0.226745484304E+03   -0.13885E+00   -0.49615E-03  6800   0.512E-01    0.154E-01
DAV:  27    -0.226840905601E+03   -0.95421E-01   -0.34548E-03  6256   0.442E-01    0.665E-02
DAV:  28    -0.226863492735E+03   -0.22587E-01   -0.83818E-04  4600   0.119E-01    0.518E-02
DAV:  29    -0.226868158079E+03   -0.46653E-02   -0.40430E-04  3776   0.134E-01    0.232E-02
DAV:  30    -0.226868975951E+03   -0.81787E-03   -0.16085E-04  3712   0.396E-02    0.107E-02
DAV:  31    -0.226869010961E+03   -0.35010E-04   -0.54098E-05  3568   0.249E-02
   1 F= -.25252993E+03 E0= -.25248745E+03  d E =-.252530E+03  mag=     0.0019
       N       E                     dE             d eps       ncg     rms          rms(c)
DAV:   1    -0.226864008861E+03    0.49671E-02   -0.37502E+00  5928   0.286E+00    0.137E-01
DAV:   2    -0.226870451063E+03   -0.64422E-02   -0.63316E-02  8400   0.127E+00    0.217E-01
DAV:   3    -0.226870192388E+03    0.25867E-03   -0.78078E-03  6032   0.124E+00    0.123E-01
DAV:   4    -0.226870098208E+03    0.94180E-04   -0.19705E-03  5448   0.532E-01
   2 F= -.25254281E+03 E0= -.25250052E+03  d E =-.128853E-01  mag=     0.0019
       N       E                     dE             d eps       ncg     rms          rms(c)
DAV:   1    -0.226805704030E+03    0.64488E-01   -0.33920E+01  5888   0.861E+00    0.480E-01
DAV:   2    -0.226870863051E+03   -0.65159E-01   -0.64667E-01  8752   0.452E+00    0.751E-01
DAV:   3    -0.226865779191E+03    0.50839E-02   -0.84031E-02  7048   0.421E+00    0.435E-01
DAV:   4    -0.226863614942E+03    0.21642E-02   -0.15826E-02  6336   0.166E+00    0.372E-01
DAV:   5    -0.226863859987E+03   -0.24504E-03   -0.10726E-02  5928   0.107E+00    0.360E-01
DAV:   6    -0.226862700591E+03    0.11594E-02   -0.10985E-02  6104   0.139E+00    0.234E-01
DAV:   7    -0.226862540616E+03    0.15997E-03   -0.77471E-03  8000   0.101E+00    0.124E-01
DAV:   8    -0.226862194279E+03    0.34634E-03   -0.16537E-03  5000   0.604E-01    0.689E-02
DAV:   9    -0.226862133665E+03    0.60614E-04   -0.68113E-04  4432   0.229E-01
   3 F= -.25257039E+03 E0= -.25252852E+03  d E =-.404652E-01  mag=     0.0014
       N       E                     dE             d eps       ncg     rms          rms(c)
DAV:   1    -0.226538532056E+03    0.32366E+00   -0.13739E+02  5920   0.177E+01    0.107E+00
DAV:   2    -0.226847467197E+03   -0.30894E+00   -0.30322E+00  8992   0.106E+01    0.169E+00
DAV:   3    -0.226813781684E+03    0.33686E-01   -0.33087E-01  8528   0.921E+00    0.814E-01
DAV:   4    -0.226801678144E+03    0.12104E-01   -0.59318E-02  7920   0.370E+00    0.703E-01
DAV:   5    -0.226801899596E+03   -0.22145E-03   -0.29483E-02  6160   0.172E+00    0.648E-01
DAV:   6    -0.226798641631E+03    0.32580E-02   -0.23495E-02  6088   0.187E+00    0.454E-01
DAV:   7    -0.226796716123E+03    0.19255E-02   -0.26312E-02  8176   0.167E+00    0.193E-01
DAV:   8    -0.226796023680E+03    0.69244E-03   -0.60713E-03  7872   0.876E-01    0.138E-01
DAV:   9    -0.226795861386E+03    0.16229E-03   -0.24261E-03  5648   0.460E-01    0.724E-02
DAV:  10    -0.226795881489E+03   -0.20103E-04   -0.10291E-03  5192   0.208E-01
   4 F= -.25257652E+03 E0= -.25253580E+03  d E =-.465892E-01  mag=     0.0009
       N       E                     dE             d eps       ncg     rms          rms(c)
DAV:   1    -0.226787585618E+03    0.82758E-02   -0.26018E+01  5904   0.751E+00    0.318E-01
DAV:   2    -0.226836451646E+03   -0.48866E-01   -0.49953E-01  7816   0.179E+00    0.387E-01
DAV:   3    -0.226835719042E+03    0.73260E-03   -0.20711E-02  6128   0.176E+00    0.375E-01
DAV:   4    -0.226834843311E+03    0.87573E-03   -0.49598E-03  6080   0.116E+00    0.292E-01
DAV:   5    -0.226834109502E+03    0.73381E-03   -0.34269E-03  7000   0.777E-01    0.220E-01
DAV:   6    -0.226833376619E+03    0.73288E-03   -0.41752E-03  7648   0.109E+00    0.145E-01
DAV:   7    -0.226833445378E+03   -0.68759E-04   -0.24468E-03  6472   0.690E-01    0.126E-01
DAV:   8    -0.226833208018E+03    0.23736E-03   -0.18855E-03  5792   0.629E-01    0.379E-02
DAV:   9    -0.226833216661E+03   -0.86431E-05   -0.38598E-04  3488   0.170E-01
   5 F= -.25258186E+03 E0= -.25254059E+03  d E =-.519373E-01  mag=     0.0006
       N       E                     dE             d eps       ncg     rms          rms(c)
DAV:   1    -0.226806388001E+03    0.26820E-01   -0.12396E+01  5896   0.535E+00    0.223E-01
DAV:   2    -0.226827239955E+03   -0.20852E-01   -0.21324E-01  7904   0.172E+00    0.319E-01
DAV:   3    -0.226826900778E+03    0.33918E-03   -0.14719E-02  5856   0.157E+00    0.223E-01
DAV:   4    -0.226826559794E+03    0.34098E-03   -0.34190E-03  5840   0.799E-01    0.200E-01
DAV:   5    -0.226826529137E+03    0.30657E-04   -0.20472E-03  5712   0.770E-01    0.187E-01
DAV:   6    -0.226825910795E+03    0.61834E-03   -0.33822E-03  9088   0.639E-01    0.593E-02
DAV:   7    -0.226825856789E+03    0.54005E-04   -0.60188E-04  4488   0.403E-01
   6 F= -.25259808E+03 E0= -.25255698E+03  d E =-.162105E-01  mag=     0.0004
       N       E                     dE             d eps       ncg     rms          rms(c)
DAV:   1    -0.226598316505E+03    0.22759E+00   -0.11222E+02  5936   0.163E+01    0.770E-01
DAV:   2    -0.226810817719E+03   -0.21250E+00   -0.21545E+00  8304   0.654E+00    0.110E+00
DAV:   3    -0.226801288504E+03    0.95292E-02   -0.14667E-01  6440   0.590E+00    0.653E-01
DAV:   4    -0.226795873536E+03    0.54150E-02   -0.41426E-02  6904   0.291E+00    0.609E-01
DAV:   5    -0.226795518715E+03    0.35482E-03   -0.22634E-02  6240   0.203E+00    0.560E-01
DAV:   6    -0.226790174758E+03    0.53440E-02   -0.27012E-02  6936   0.182E+00    0.235E-01
DAV:   7    -0.226790135885E+03    0.38872E-04   -0.14935E-02  7880   0.138E+00    0.154E-01
DAV:   8    -0.226789861364E+03    0.27452E-03   -0.33426E-03  6920   0.702E-01    0.607E-02
DAV:   9    -0.226789976370E+03   -0.11501E-03   -0.22338E-03  5576   0.307E-01    0.498E-02
DAV:  10    -0.226789974340E+03    0.20297E-05   -0.45673E-04  3992   0.138E-01
   7 F= -.25263364E+03 E0= -.25259319E+03  d E =-.517736E-01  mag=     0.0003
       N       E                     dE             d eps       ncg     rms          rms(c)
DAV:   1    -0.225816897164E+03    0.97308E+00   -0.45890E+02  5984   0.344E+01    0.169E+00
DAV:   2    -0.226772482633E+03   -0.95559E+00   -0.95274E+00  8784   0.169E+01    0.262E+00
DAV:   3    -0.226702636689E+03    0.69846E-01   -0.85553E-01  8136   0.143E+01    0.135E+00
DAV:   4    -0.226673780934E+03    0.28856E-01   -0.16356E-01  7368   0.583E+00    0.129E+00
DAV:   5    -0.226674449974E+03   -0.66904E-03   -0.11532E-01  6080   0.369E+00    0.119E+00
DAV:   6    -0.226653610181E+03    0.20840E-01   -0.10182E-01  6184   0.347E+00    0.574E-01
DAV:   7    -0.226650838852E+03    0.27713E-02   -0.73470E-02  9392   0.245E+00    0.352E-01
DAV:   8    -0.226649045349E+03    0.17935E-02   -0.13167E-02  6328   0.170E+00    0.178E-01
DAV:   9    -0.226648975336E+03    0.70012E-04   -0.69589E-03  5808   0.806E-01    0.926E-02
DAV:  10    -0.226649185314E+03   -0.20998E-03   -0.31355E-03  5720   0.313E-01    0.805E-02
DAV:  11    -0.226649177434E+03    0.78794E-05   -0.64473E-04  4368   0.225E-01
   8 F= -.25263917E+03 E0= -.25259895E+03  d E =-.573043E-01  mag=     0.0002
       N       E                     dE             d eps       ncg     rms          rms(c)
DAV:   1    -0.226569036996E+03    0.80148E-01   -0.91210E+01  5896   0.146E+01    0.599E-01
DAV:   2    -0.226738504969E+03   -0.16947E+00   -0.17340E+00  7792   0.350E+00    0.740E-01
DAV:   3    -0.226733425736E+03    0.50792E-02   -0.41525E-02  6232   0.182E+00    0.609E-01
DAV:   4    -0.226732458182E+03    0.96755E-03   -0.14062E-02  6128   0.188E+00    0.517E-01
DAV:   5    -0.226729853337E+03    0.26048E-02   -0.12213E-02  8856   0.188E+00    0.462E-01
DAV:   6    -0.226726937406E+03    0.29159E-02   -0.16544E-02 10064   0.216E+00    0.265E-01
DAV:   7    -0.226725633661E+03    0.13037E-02   -0.85962E-03  9600   0.157E+00    0.179E-01
DAV:   8    -0.226724853366E+03    0.78029E-03   -0.29209E-03  8184   0.912E-01    0.822E-02
DAV:   9    -0.226724956507E+03   -0.10314E-03   -0.23298E-03  5840   0.297E-01    0.565E-02
DAV:  10    -0.226724970299E+03   -0.13792E-04   -0.56369E-04  4224   0.140E-01
   9 F= -.25264836E+03 E0= -.25260819E+03  d E =-.664920E-01  mag=     0.0001
       N       E                     dE             d eps       ncg     rms          rms(c)
DAV:   1    -0.226665537487E+03    0.59419E-01   -0.28399E+01  5896   0.816E+00    0.342E-01
DAV:   2    -0.226715345705E+03   -0.49808E-01   -0.50282E-01  8408   0.307E+00    0.513E-01
DAV:   3    -0.226713502340E+03    0.18434E-02   -0.44701E-02  6272   0.286E+00    0.340E-01
DAV:   4    -0.226712788806E+03    0.71353E-03   -0.10635E-02  6088   0.127E+00    0.310E-01
DAV:   5    -0.226712591960E+03    0.19685E-03   -0.54736E-03  6200   0.105E+00    0.288E-01
DAV:   6    -0.226711312752E+03    0.12792E-02   -0.98203E-03  7352   0.105E+00    0.135E-01
DAV:   7    -0.226711393070E+03   -0.80318E-04   -0.30264E-03  7072   0.498E-01    0.106E-01
DAV:   8    -0.226711250231E+03    0.14284E-03   -0.12834E-03  5496   0.352E-01
  10 F= -.25266584E+03 E0= -.25262585E+03  d E =-.174857E-01  mag=     0.0001
       N       E                     dE             d eps       ncg     rms          rms(c)
DAV:   1    -0.226515993523E+03    0.19540E+00   -0.92036E+01  5888   0.148E+01    0.657E-01
DAV:   2    -0.226686474909E+03   -0.17048E+00   -0.17060E+00  8608   0.600E+00    0.970E-01
DAV:   3    -0.226678498551E+03    0.79764E-02   -0.13848E-01  6672   0.562E+00    0.611E-01
DAV:   4    -0.226674657496E+03    0.38411E-02   -0.32612E-02  6408   0.257E+00    0.554E-01
DAV:   5    -0.226674202565E+03    0.45493E-03   -0.21230E-02  6056   0.175E+00    0.508E-01
DAV:   6    -0.226670034344E+03    0.41682E-02   -0.28152E-02  6768   0.187E+00    0.246E-01
DAV:   7    -0.226670482415E+03   -0.44807E-03   -0.12239E-02  7976   0.101E+00    0.165E-01
DAV:   8    -0.226670015697E+03    0.46672E-03   -0.33105E-03  5760   0.809E-01    0.447E-02
DAV:   9    -0.226670029404E+03   -0.13707E-04   -0.77460E-04  4464   0.238E-01
  11 F= -.25268096E+03 E0= -.25264099E+03  d E =-.326003E-01  mag=     0.0000
       N       E                     dE             d eps       ncg     rms          rms(c)
DAV:   1    -0.226617443867E+03    0.52572E-01   -0.30100E+01  5904   0.845E+00    0.349E-01
DAV:   2    -0.226669332141E+03   -0.51888E-01   -0.53247E-01  7984   0.231E+00    0.445E-01
DAV:   3    -0.226668639091E+03    0.69305E-03   -0.23980E-02  5872   0.206E+00    0.339E-01
DAV:   4    -0.226667676915E+03    0.96218E-03   -0.62912E-03  6448   0.136E+00    0.297E-01
DAV:   5    -0.226667046482E+03    0.63043E-03   -0.43230E-03  8208   0.101E+00    0.238E-01
DAV:   6    -0.226665981042E+03    0.10654E-02   -0.51963E-03  9856   0.967E-01    0.968E-02
DAV:   7    -0.226665880821E+03    0.10022E-03   -0.14499E-03  5864   0.716E-01
  12 F= -.25270051E+03 E0= -.25266057E+03  d E =-.195549E-01  mag=     0.0000
       N       E                     dE             d eps       ncg     rms          rms(c)
DAV:   1    -0.226159387693E+03    0.50659E+00   -0.27360E+02  5904   0.262E+01    0.114E+00
DAV:   2    -0.226666359252E+03   -0.50697E+00   -0.52181E+00  8264   0.802E+00    0.152E+00
DAV:   3    -0.226651666750E+03    0.14693E-01   -0.21616E-01  6032   0.696E+00    0.102E+00
DAV:   4    -0.226641884872E+03    0.97819E-02   -0.74649E-02  6920   0.428E+00    0.934E-01
DAV:   5    -0.226634386641E+03    0.74982E-02   -0.39672E-02  8064   0.262E+00    0.751E-01
DAV:   6    -0.226624283682E+03    0.10103E-01   -0.43796E-02  8744   0.271E+00    0.339E-01
DAV:   7    -0.226623100262E+03    0.11834E-02   -0.24956E-02  6912   0.269E+00    0.202E-01
DAV:   8    -0.226622982506E+03    0.11776E-03   -0.92940E-03  6760   0.104E+00    0.852E-02
DAV:   9    -0.226623272828E+03   -0.29032E-03   -0.49267E-03  5600   0.454E-01    0.828E-02
DAV:  10    -0.226623285594E+03   -0.12766E-04   -0.11520E-03  5216   0.184E-01
  13 F= -.25272987E+03 E0= -.25269027E+03  d E =-.489112E-01  mag=     0.0000
       N       E                     dE             d eps       ncg     rms          rms(c)
DAV:   1    -0.226609573411E+03    0.13699E-01   -0.35567E+00  5896   0.290E+00    0.119E-01
DAV:   2    -0.226615580482E+03   -0.60071E-02   -0.61213E-02  7880   0.784E-01    0.147E-01
DAV:   3    -0.226615512491E+03    0.67991E-04   -0.30784E-03  5616   0.763E-01    0.115E-01
DAV:   4    -0.226615401530E+03    0.11096E-03   -0.80567E-04  3776   0.514E-01
  14 F= -.25273031E+03 E0= -.25269068E+03  d E =-.493514E-01  mag=     0.0000
       N       E                     dE             d eps       ncg     rms          rms(c)
DAV:   1    -0.226617753099E+03   -0.22406E-02   -0.73974E-01  5984   0.137E+00    0.819E-02
DAV:   2    -0.226619271675E+03   -0.15186E-02   -0.12459E-02  9528   0.879E-01    0.960E-02
DAV:   3    -0.226619090151E+03    0.18152E-03   -0.32222E-03  5664   0.100E+00    0.815E-02
DAV:   4    -0.226618983143E+03    0.10701E-03   -0.88194E-04  4368   0.482E-01
  15 F= -.25273007E+03 E0= -.25269042E+03  d E =-.491109E-01  mag=     0.0000
       N       E                     dE             d eps       ncg     rms          rms(c)
DAV:   1    -0.226617813808E+03    0.12763E-02   -0.64139E-02  6064   0.432E-01    0.280E-02
DAV:   2    -0.226617902152E+03   -0.88344E-04   -0.81161E-04  4536   0.208E-01
  16 F= -.25273009E+03 E0= -.25269046E+03  d E =-.491365E-01  mag=     0.0000
       N       E                     dE             d eps       ncg     rms          rms(c)
DAV:   1    -0.226618532487E+03   -0.71868E-03   -0.17921E-02  8056   0.362E-01    0.200E-02
DAV:   2    -0.226618770817E+03   -0.23833E-03   -0.90500E-04  3480   0.635E-01    0.669E-02
DAV:   3    -0.226618523424E+03    0.24739E-03   -0.61401E-04  3432   0.502E-01    0.343E-03
DAV:   4    -0.226618536730E+03   -0.13306E-04   -0.13355E-04  3288   0.440E-02
  17 F= -.25273014E+03 E0= -.25269052E+03  d E =-.491799E-01  mag=     0.0000
       N       E                     dE             d eps       ncg     rms          rms(c)
DAV:   1    -0.226618167052E+03    0.35637E-03   -0.69967E-03  5728   0.133E-01    0.815E-03
DAV:   2    -0.226618172740E+03   -0.56883E-05   -0.63532E-05  3176   0.432E-02
  18 F= -.25273015E+03 E0= -.25269052E+03  d E =-.491905E-01  mag=     0.0000
       N       E                     dE             d eps       ncg     rms          rms(c)
DAV:   1    -0.226596777697E+03    0.21389E-01   -0.68124E+00  5912   0.401E+00    0.155E-01
DAV:   2    -0.226608374392E+03   -0.11597E-01   -0.11894E-01  7872   0.114E+00    0.210E-01
DAV:   3    -0.226608248167E+03    0.12622E-03   -0.62861E-03  5760   0.100E+00    0.164E-01
DAV:   4    -0.226608102546E+03    0.14562E-03   -0.13770E-03  5320   0.606E-01
  19 F= -.25273230E+03 E0= -.25269258E+03  d E =-.215636E-02  mag=     0.0000
