 vasp.6.3.2 27Jun22 (build Aug 17 2022 15:43:34) complex                        
  
 executed on           tv2STDVTST date 2025.01.24  21:50:22
 running   20 mpi-ranks, with    1 threads/rank
 distrk:  each k-point on   20 cores,    1 groups
 distr:  one band on NCORE=   5 cores,    4 groups


--------------------------------------------------------------------------------------------------------


 -----------------------------------------------------------------------------
|                                                                             |
|           W    W    AA    RRRRR   N    N  II  N    N   GGGG   !!!           |
|           W    W   A  A   R    R  NN   N  II  NN   N  G    G  !!!           |
|           W    W  A    A  R    R  N N  N  II  N N  N  G       !!!           |
|           W WW W  AAAAAA  RRRRR   N  N N  II  N  N N  G  GGG   !            |
|           WW  WW  A    A  R   R   N   NN  II  N   NN  G    G                |
|           W    W  A    A  R    R  N    N  II  N    N   GGGG   !!!           |
|                                                                             |
|     Found issues when parsing the INCAR file                                |
|     In line 64: Tagname --- R W I G S contains invalid characters.          |
|     Please check if the interpretation in the OUTCAR file is correct.       |
|                                                                             |
 -----------------------------------------------------------------------------

 INCAR:
    = \=\=\=\=\=\=\=\=\=\=\=\=\=\=\=\=\=\=\=\=\=\=\=\=\=\=\=\=\=\=\=\=\=\=\=\=\=\=\=\=\=\=\=\=\=\=\=\=\=\=\=\=\=\=\=\=\=\=\=\=\=\=\=\=\=\=\=\=\=\=\=\=
    = \=\=\=\=\=\=\=\=\=\=\=\=\=\=\=\=\=\=\=\=\=\=\=\=\=\=\=\=\=\=\=\=\=\=\=\=\=\=\=\=\=\=\=\=\=\=\=\=\=\=\=\=\=\=\=\=\=\=\=\=\=\=\=\=\=\=\=\=\=\=\=\=
   ISTART = 0
   ICHARG = 2
   IPIPOL = 3
   IVDW = 11
   IDIPOL = 3
   IVDW = 11
    = \=\=\=\=\=\=\=\=\=\=\=\=\=\=\=\=\=\=\=\=\=\=\=\=\=\=\=\=\=\=\=\=\=\=\=\=\=\=\=\=\=\=\=\=\=\=\=\=\=\=\=\=\=\=\=\=\=\=\=\=\=\=\=\=\=\=\=\=\=\=\=\=
    = \=\=\=\=\=\=\=\=\=\=\=\=\=\=\=\=\=\=\=\=\=\=\=\=\=\=\=\=\=\=\=\=\=\=\=\=\=\=\=\=\=\=\=\=\=\=\=\=\=\=\=\=\=\=\=\=\=\=\=\=\=\=\=\=\=\=\=\=\=\=\=\=
   ISPIN = 2
    = \=\=\=\=\=\=\=\=\=\=\=\=\=\=\=\=\=\=\=\=\=\=\=\=\=\=\=\=\=\=\=\=\=\=\=\=\=\=\=\=\=\=\=\=\=\=\=\=\=\=\=\=\=\=\=\=\=\=\=\=\=\=\=\=\=\=\=\=\=\=\=\=
    = \=\=\=\=\=\=\=\=\=\=\=\=\=\=\=\=\=\=\=\=\=\=\=\=\=\=\=\=\=\=\=\=\=\=\=\=\=\=\=\=\=\=\=\=\=\=\=\=\=\=\=\=\=\=\=\=\=\=\=\=\=\=\=\=\=\=\=\=\=\=\=\=
   ENCUT = 400
   PREC = Normal
   EDIFF = 2E-04
   GGA = PE
   ISMEAR = 1
   SIGMA = 0.2
   LREAL = .FALSE.
    = \=\=\=\=\=\=\=\=\=\=\=\=\=\=\=\=\=\=\=\=\=\=\=\=\=\=\=\=\=\=\=\=\=\=\=\=\=\=\=\=\=\=\=\=\=\=\=\=\=\=\=\=\=\=\=\=\=\=\=\=\=\=\=\=\=\=\=\=\=\=\=\=
    = \=\=\=\=\=\=\=\=\=\=\=\=\=\=\=\=\=\=\=\=\=\=\=\=\=\=\=\=\=\=\=\=\=\=\=\=\=\=\=\=\=\=\=\=\=\=\=\=\=\=\=\=\=\=\=\=\=\=\=\=\=\=\=\=\=\=\=\=\=\=\=\=
   ISYM = 1
   NSW = 800
   IBRION = 2
   POTIM = 0.5
   ISIF = 2
   EDIFFG = -.03
    = \=\=\=\=\=\=\=\=\=\=\=\=\=\=\=\=\=\=\=\=\=\=\=\=\=\=\=\=\=\=\=\=\=\=\=\=\=\=\=\=\=\=\=\=\=\=\=\=\=\=\=\=\=\=\=\=\=\=\=\=\=\=\=\=\=\=\=\=\=\=\=\=
    = \=\=\=\=\=\=\=\=\=\=\=\=\=\=\=\=\=\=\=\=\=\=\=\=\=\=\=\=\=\=\=\=\=\=\=\=\=\=\=\=\=\=\=\=\=\=\=\=\=\=\=\=\=\=\=\=\=\=\=\=\=\=\=\=\=\=\=\=\=\=\=\=
   NPAR = 4
   LWAVE = .FALSE.
   LCHARG = .FALSE.

 POTCAR:    PAW_PBE Cu 22Jun2005                  
 -----------------------------------------------------------------------------
|                                                                             |
|           W    W    AA    RRRRR   N    N  II  N    N   GGGG   !!!           |
|           W    W   A  A   R    R  NN   N  II  NN   N  G    G  !!!           |
|           W    W  A    A  R    R  N N  N  II  N N  N  G       !!!           |
|           W WW W  AAAAAA  RRRRR   N  N N  II  N  N N  G  GGG   !            |
|           WW  WW  A    A  R   R   N   NN  II  N   NN  G    G                |
|           W    W  A    A  R    R  N    N  II  N    N   GGGG   !!!           |
|                                                                             |
|     You use a magnetic or noncollinear calculation, but did not specify     |
|     the initial magnetic moment with the MAGMOM tag. Note that a            |
|     default of 1 will be used for all atoms. This ferromagnetic setup       |
|     may break the symmetry of the crystal, in particular it may rule        |
|     out finding an antiferromagnetic solution. Thence, we recommend         |
|     setting the initial magnetic moment manually or verifying carefully     |
|     that this magnetic setup is desired.                                    |
|                                                                             |
 -----------------------------------------------------------------------------

 POTCAR:    PAW_PBE Cu 22Jun2005                  
   SHA256 =  0e71e558f37a4e8407882b4609ceaae59938afaad9ced71dfe8490308a0ab630 Cu/POTCAR             
   COPYR  = (c) Copyright 22Jun2005 Georg Kresse                                                    
   COPYR  = This file is part of the software VASP. Any use, copying, and all other rights are regul
   COPYR  = If you do not have a valid VASP license, you may not use, copy or distribute this file. 
   VRHFIN =Cu: d10 p1                                                                               
   LEXCH  = PE                                                                                      
   EATOM  =  1390.9808 eV,  102.2342 Ry                                                             
                                                                                                    
   TITEL  = PAW_PBE Cu 22Jun2005                                                                    
   LULTRA =        F    use ultrasoft PP ?                                                          
   IUNSCR =        1    unscreen: 0-lin 1-nonlin 2-no                                               
   RPACOR =    2.000    partial core radius                                                         
   POMASS =   63.546; ZVAL   =   11.000    mass and valenz                                          
   RCORE  =    2.300    outmost cutoff radius                                                       
   RWIGS  =    2.200; RWIGS  =    1.164    wigner-seitz radius (au A)                               
   ENMAX  =  295.446; ENMIN  =  221.585 eV                                                          
   ICORE  =        3    local potential                                                             
   LCOR   =        T    correct aug charges                                                         
   LPAW   =        T    paw PP                                                                      
   EAUG   =  586.980                                                                                
   DEXC   =    0.000                                                                                
   RMAX   =    2.344    core radius for proj-oper                                                   
   RAUG   =    1.300    factor for augmentation sphere                                              
   RDEP   =    2.302    radius for radial grids                                                     
   RDEPT  =    1.771    core radius for aug-charge                                                  
                                                                                                    
   Atomic configuration                                                                             
    9 entries                                                                                       
     n  l   j            E        occ.                                                              
     1  0  0.50     -8850.2468   2.0000                                                             
     2  0  0.50     -1062.3498   2.0000                                                             
     2  1  1.50      -916.8226   6.0000                                                             
     3  0  0.50      -114.6929   2.0000                                                             
     3  1  1.50       -72.1325   6.0000                                                             
     3  2  2.50        -5.0394  10.0000                                                             
     4  0  0.50        -4.6097   1.0000                                                             
     4  1  0.50        -4.0817   0.0000                                                             
     4  3  2.50        -1.3606   0.0000                                                             
   Description                                                                                      
     l       E           TYP  RCUT    TYP  RCUT                                                     
     2     -5.0393973     23  2.200                                                                 
     2     10.8846608     23  2.200                                                                 
     0     -4.6097109     23  2.200                                                                 
     0      8.2520465     23  2.200                                                                 
     1     -2.7211652     23  2.200                                                                 
     1     21.7055443     23  2.200                                                                 
     3      2.7211652     23  2.300                                                                 
  local pseudopotential read in
  partial core-charges read in
  partial kinetic energy density read in
  atomic valenz-charges read in
  non local Contribution for L=           2  read in
    real space projection operators read in
  non local Contribution for L=           2  read in
    real space projection operators read in
  non local Contribution for L=           0  read in
    real space projection operators read in
  non local Contribution for L=           0  read in
    real space projection operators read in
  non local Contribution for L=           1  read in
    real space projection operators read in
  non local Contribution for L=           1  read in
    real space projection operators read in
    PAW grid and wavefunctions read in
 
   number of l-projection  operators is LMAX  =           6
   number of lm-projection operators is LMMAX =          18
 
 -----------------------------------------------------------------------------
|                                                                             |
|               ----> ADVICE to this user running VASP <----                  |
|                                                                             |
|     You have a (more or less) 'large supercell' and for larger cells it     |
|     might be more efficient to use real-space projection operators.         |
|     Therefore, try LREAL= Auto in the INCAR file.                           |
|     Mind: For very accurate calculation, you might also keep the            |
|     reciprocal projection scheme (i.e. LREAL=.FALSE.).                      |
|                                                                             |
 -----------------------------------------------------------------------------

  PAW_PBE Cu 22Jun2005                  :
 energy of atom  1       EATOM=-1390.9808
 kinetic energy error for atom=    0.0232 (will be added to EATOM!!)
 
 
 POSCAR: FCC Cu
  positions in cartesian coordinates
  velocities in cartesian coordinates
  No initial velocities read in
 exchange correlation table for  LEXCH =        8
   RHO(1)=    0.500       N(1)  =     2000
   RHO(2)=  100.500       N(2)  =     4000

 VTST: version 4.2, (08/11/21)

 CHAIN: initializing optimizer
 
 OPT: Using VASP Conjugate-Gradient optimizer
 CHAIN: Read ICHAIN            0
 
 POSCAR: FCC Cu
  positions in cartesian coordinates
  velocities in cartesian coordinates
  No initial velocities read in
 


--------------------------------------------------------------------------------------------------------


 ion  position               nearest neighbor table
   1  0.000  0.000  0.000-   7 2.57   4 2.57   8 2.57   2 2.57   6 2.57   3 2.57  16 2.57  12 2.57
                            10 2.57
   2  0.000  0.333  0.000-   4 2.57   5 2.57   1 2.57   3 2.57   8 2.57   9 2.57  10 2.57  17 2.57
                            11 2.57
   3  1.000  0.667  0.000-   7 2.57   9 2.57   1 2.57   2 2.57   5 2.57   6 2.57  18 2.57  12 2.57
                            11 2.57
   4  0.333  0.000  0.000-   2 2.57   6 2.57   1 2.57   5 2.57   9 2.57   7 2.57  10 2.57  15 2.57
                            13 2.57
   5  0.333  0.333  0.000-   2 2.57   8 2.57   4 2.57   7 2.57   3 2.57   6 2.57  11 2.57  13 2.57
                            14 2.57
   6  0.333  0.667  0.000-   4 2.57   9 2.57   1 2.57   8 2.57   5 2.57   3 2.57  12 2.57  15 2.57
                            14 2.57
   7  0.667  0.000  0.000-   8 2.57   3 2.57   1 2.57   5 2.57   9 2.57   4 2.57  18 2.57  13 2.57
                            16 2.57
   8  0.667  0.333  0.000-   7 2.57   5 2.57   1 2.57   6 2.57   2 2.57   9 2.57  14 2.57  16 2.57
                            17 2.57
   9  0.667  0.667  0.000-   3 2.57   6 2.57   4 2.57   7 2.57   2 2.57   8 2.57  15 2.57  18 2.57
                            17 2.57
  10  0.111  0.111  0.076-  16 2.57  13 2.57  17 2.57  11 2.57  15 2.57  12 2.57   4 2.57   2 2.57
                             1 2.57  19 2.57  21 2.57  25 2.57
  11  0.111  0.444  0.076-  13 2.57  14 2.57  10 2.57  12 2.57  17 2.57  18 2.57   5 2.57   2 2.57
                             3 2.57  20 2.57  19 2.57  26 2.57
  12  0.111  0.778  0.076-  16 2.57  18 2.57  10 2.57  11 2.57  14 2.57  15 2.57   1 2.57   6 2.57
                             3 2.57  21 2.57  20 2.57  27 2.57
  13  0.444  0.111  0.076-  11 2.57  15 2.57  10 2.57  14 2.57  18 2.57  16 2.57   5 2.57   7 2.57
                             4 2.57  22 2.57  24 2.57  19 2.57
  14  0.444  0.444  0.076-  11 2.57  17 2.57  13 2.57  16 2.57  12 2.57  15 2.57   8 2.57   5 2.57
                             6 2.57  23 2.57  22 2.57  20 2.57
  15  0.444  0.778  0.076-  13 2.57  18 2.57  10 2.57  17 2.57  14 2.57  12 2.57   9 2.57   4 2.57
                             6 2.57  24 2.57  23 2.57  21 2.57
  16  0.778  0.111  0.076-  17 2.57  12 2.57  10 2.57  14 2.57  18 2.57  13 2.57   1 2.57   8 2.57
                             7 2.57  25 2.57  27 2.57  22 2.57
  17  0.778  0.444  0.076-  16 2.57  14 2.57  10 2.57  15 2.57  11 2.57  18 2.57   2 2.57   8 2.57
                             9 2.57  26 2.57  25 2.57  23 2.57
  18  0.778  0.778  0.076-  12 2.57  15 2.57  13 2.57  16 2.57  11 2.57  17 2.57  27 2.57   3 2.57
                             7 2.57   9 2.57  24 2.57  26 2.57
  19  0.222  0.222  0.152-  25 2.57  22 2.57  26 2.57  20 2.57  21 2.57  24 2.57  10 2.57  29 2.57
                            11 2.57  31 2.57  13 2.57  32 2.57
  20  0.222  0.556  0.152-  22 2.57  23 2.57  19 2.57  21 2.57  26 2.57  27 2.57  11 2.57  32 2.57
                            14 2.57  12 2.57  30 2.57  33 2.57
  21  0.222  0.889  0.152-  25 2.57  19 2.57  20 2.57  23 2.57  24 2.57  27 2.57  12 2.57  28 2.57
                            33 2.57  10 2.57  31 2.57  15 2.57
  22  0.556  0.222  0.152-  27 2.57  20 2.57  24 2.57  19 2.57  23 2.57  25 2.57  13 2.57  32 2.57
                            14 2.57  34 2.57  35 2.57  16 2.57
  23  0.556  0.556  0.152-  20 2.57  26 2.57  25 2.57  22 2.57  21 2.57  24 2.57  14 2.57  35 2.57
                            33 2.57  17 2.57  15 2.57  36 2.57
  24  0.556  0.889  0.152-  27 2.57  22 2.57  19 2.57  26 2.57  23 2.57  21 2.57  15 2.57  36 2.57
                            13 2.57  18 2.57  34 2.57  31 2.57
  25  0.889  0.222  0.152-  26 2.57  21 2.57  19 2.57  23 2.57  22 2.57  27 2.57  16 2.57  17 2.57
                            28 2.57  10 2.57  29 2.57  35 2.57
  26  0.889  0.556  0.152-  27 2.57  25 2.57  23 2.57  19 2.57  24 2.57  20 2.57  17 2.57  29 2.57
                            36 2.57  30 2.57  18 2.57  11 2.57
  27  0.889  0.889  0.152-  24 2.57  22 2.57  26 2.57  25 2.57  20 2.57  21 2.57  18 2.57  34 2.57
                            30 2.57  16 2.57  12 2.57  28 2.57
  28  0.000  0.000  0.228-  34 2.57  31 2.57  35 2.57  29 2.57  33 2.57  30 2.57  43 2.57  39 2.57
                            37 2.57  21 2.57  25 2.57  27 2.57
  29  0.000  0.333  0.228-  31 2.57  32 2.57  28 2.57  30 2.57  35 2.57  36 2.57  37 2.57  44 2.57
                            38 2.57  19 2.57  26 2.57  25 2.57
  30  1.000  0.667  0.228-  34 2.57  36 2.57  28 2.57  29 2.57  32 2.57  33 2.57  45 2.57  39 2.57
                            38 2.57  27 2.57  26 2.57  20 2.57
  31  0.333  0.000  0.228-  29 2.57  33 2.57  28 2.57  32 2.57  36 2.57  34 2.57  37 2.57  42 2.57
                            40 2.57  19 2.57  24 2.57  21 2.57
  32  0.333  0.333  0.228-  29 2.57  35 2.57  31 2.57  34 2.57  30 2.57  33 2.57  38 2.57  40 2.57
                            41 2.57  22 2.57  20 2.57  19 2.57
  33  0.333  0.667  0.228-  31 2.57  36 2.57  28 2.57  35 2.57  32 2.57  30 2.57  39 2.57  42 2.57
                            41 2.57  21 2.57  23 2.57  20 2.57
  34  0.667  0.000  0.228-  35 2.57  30 2.57  28 2.57  32 2.57  36 2.57  31 2.57  27 2.57  45 2.57
                            40 2.57  43 2.57  22 2.57  24 2.57
  35  0.667  0.333  0.228-  34 2.57  32 2.57  28 2.57  33 2.57  29 2.57  36 2.57  41 2.57  43 2.57
                            44 2.57  23 2.57  25 2.57  22 2.57
  36  0.667  0.667  0.228-  30 2.57  33 2.57  31 2.57  34 2.57  29 2.57  35 2.57  42 2.57  45 2.57
                            44 2.57  24 2.57  26 2.57  23 2.57
  37  0.111  0.111  0.304-  43 2.57  40 2.57  44 2.57  38 2.57  42 2.57  39 2.57  46 2.57  48 2.57
                            52 2.57  31 2.57  29 2.57  28 2.57
  38  0.111  0.444  0.304-  40 2.57  41 2.57  37 2.57  39 2.57  44 2.57  45 2.57  47 2.57  46 2.57
                            53 2.57  32 2.57  29 2.57  30 2.57
  39  0.111  0.778  0.304-  43 2.57  45 2.57  37 2.57  38 2.57  41 2.57  42 2.57  48 2.57  47 2.57
                            54 2.57  28 2.57  33 2.57  30 2.57
  40  0.444  0.111  0.304-  38 2.57  42 2.57  37 2.57  41 2.57  45 2.57  43 2.57  49 2.57  51 2.57
                            46 2.57  32 2.57  34 2.57  31 2.57
  41  0.444  0.444  0.304-  38 2.57  44 2.57  40 2.57  43 2.57  39 2.57  42 2.57  50 2.57  49 2.57
                            47 2.57  35 2.57  32 2.57  33 2.57
  42  0.444  0.778  0.304-  40 2.57  45 2.57  37 2.57  44 2.57  41 2.57  39 2.57  51 2.57  50 2.57
                            48 2.57  36 2.57  31 2.57  33 2.57
  43  0.778  0.111  0.304-  44 2.57  39 2.57  37 2.57  41 2.57  45 2.57  40 2.57  52 2.57  54 2.57
                            49 2.57  28 2.57  35 2.57  34 2.57
  44  0.778  0.444  0.304-  43 2.57  41 2.57  37 2.57  42 2.57  38 2.57  45 2.57  53 2.57  52 2.57
                            50 2.57  29 2.57  35 2.57  36 2.57
  45  0.778  0.778  0.304-  39 2.57  42 2.57  40 2.57  43 2.57  38 2.57  44 2.57  54 2.57  51 2.57
                            53 2.57  30 2.57  34 2.57  36 2.57
  46  0.222  0.222  0.380-  52 2.57  49 2.57  53 2.57  47 2.57  48 2.57  51 2.57  37 2.57  38 2.57
                            40 2.57  56 2.57  58 2.57  59 2.57
  47  0.222  0.556  0.380-  49 2.57  50 2.57  46 2.57  48 2.57  53 2.57  54 2.57  38 2.57  41 2.57
                            39 2.57  59 2.57  57 2.57  60 2.57
  48  0.222  0.889  0.380-  52 2.57  46 2.57  47 2.57  50 2.57  51 2.57  54 2.57  39 2.57  37 2.57
                            42 2.57  55 2.57  60 2.57  58 2.57
  49  0.556  0.222  0.380-  54 2.57  47 2.57  51 2.57  46 2.57  50 2.57  52 2.57  40 2.57  41 2.57
                            43 2.57  59 2.57  61 2.57  62 2.57
  50  0.556  0.556  0.380-  47 2.57  53 2.57  52 2.57  49 2.57  48 2.57  51 2.57  41 2.57  44 2.57
                            42 2.57  62 2.57  60 2.57  63 2.57
  51  0.556  0.889  0.380-  54 2.57  49 2.57  46 2.57  53 2.57  50 2.57  48 2.57  42 2.57  40 2.57
                            45 2.57  63 2.57  61 2.57  58 2.57
  52  0.889  0.222  0.380-  53 2.57  48 2.57  46 2.57  50 2.57  49 2.57  54 2.57  43 2.57  44 2.57
                            37 2.57  55 2.57  56 2.57  62 2.57
  53  0.889  0.556  0.380-  54 2.57  52 2.57  50 2.57  46 2.57  51 2.57  47 2.57  44 2.57  45 2.57
                            38 2.57  56 2.57  63 2.57  57 2.57
  54  0.889  0.889  0.380-  51 2.57  49 2.57  53 2.57  52 2.57  47 2.57  48 2.57  45 2.57  43 2.57
                            39 2.57  61 2.57  57 2.57  55 2.57
  55  0.000  0.000  0.456-  61 2.57  58 2.57  62 2.57  56 2.57  60 2.57  57 2.57  48 2.57  52 2.57
                            54 2.57
  56  0.000  0.333  0.456-  58 2.57  59 2.57  55 2.57  57 2.57  62 2.57  63 2.57  46 2.57  53 2.57
                            52 2.57
  57  1.000  0.667  0.456-  61 2.57  63 2.57  55 2.57  56 2.57  59 2.57  60 2.57  54 2.57  53 2.57
                            47 2.57
  58  0.333  0.000  0.456-  56 2.57  60 2.57  55 2.57  59 2.57  63 2.57  61 2.57  46 2.57  51 2.57
                            48 2.57
  59  0.333  0.333  0.456-  56 2.57  62 2.57  58 2.57  61 2.57  57 2.57  60 2.57  49 2.57  47 2.57
                            46 2.57
  60  0.333  0.667  0.456-  58 2.57  63 2.57  55 2.57  62 2.57  59 2.57  57 2.57  48 2.57  50 2.57
                            47 2.57
  61  0.667  0.000  0.456-  62 2.57  57 2.57  55 2.57  59 2.57  63 2.57  58 2.57  54 2.57  49 2.57
                            51 2.57
  62  0.667  0.333  0.456-  61 2.57  59 2.57  55 2.57  60 2.57  56 2.57  63 2.57  50 2.57  52 2.57
                            49 2.57
  63  0.667  0.667  0.456-  57 2.57  60 2.57  58 2.57  61 2.57  56 2.57  62 2.57  51 2.57  53 2.57
                            50 2.57
 
  LATTYP: Found a hexagonal cell.
 ALAT       =     7.7003932000
 C/A-ratio  =     3.5809456932
  
  Lattice vectors:
  
 A1 = (  -3.8501966000,  -6.6687361303,   0.0000000000)
 A2 = (   7.7003931999,   0.0000000000,   0.0000000000)
 A3 = (   0.0000000000,   0.0000000000,  27.5746898651)


Analysis of symmetry for initial positions (statically):
=====================================================================
 Subroutine PRICEL returns following result:
 
  LATTYP: Found a hexagonal cell.
 ALAT       =     2.5667977331
 C/A-ratio  =    10.7428370804
  
  Lattice vectors:
  
 A1 = (  -1.2833988670,  -2.2229120430,   0.0000000000)
 A2 = (   2.5667977330,   0.0000000000,   0.0000000000)
 A3 = (   0.0000000000,   0.0000000000,  27.5746898651)
 
   9 primitive cells build up your supercell.
 

 Routine SETGRP: Setting up the symmetry group for a 
 hexagonal supercell.


 Subroutine GETGRP returns: Found 12 space group operations
 (whereof  6 operations were pure point group operations)
 out of a pool of 24 trial point group operations.


The static configuration has the point symmetry C_3v.
 The point group associated with its full space group is D_3d.


Analysis of symmetry for dynamics (positions and initial velocities):
=====================================================================
 Subroutine PRICEL returns following result:
 
  LATTYP: Found a hexagonal cell.
 ALAT       =     2.5667977331
 C/A-ratio  =    10.7428370804
  
  Lattice vectors:
  
 A1 = (  -1.2833988670,  -2.2229120430,   0.0000000000)
 A2 = (   2.5667977330,   0.0000000000,   0.0000000000)
 A3 = (   0.0000000000,   0.0000000000,  27.5746898651)
 
   9 primitive cells build up your supercell.
 

 Routine SETGRP: Setting up the symmetry group for a 
 hexagonal supercell.


 Subroutine GETGRP returns: Found 12 space group operations
 (whereof  6 operations were pure point group operations)
 out of a pool of 24 trial point group operations.


The dynamic configuration has the point symmetry C_3v.
 The point group associated with its full space group is D_3d.


Analysis of constrained symmetry for selective dynamics:
=====================================================================
 Subroutine PRICEL returns following result:
 
  LATTYP: Found a hexagonal cell.
 ALAT       =     2.5667977331
 C/A-ratio  =    10.7428370804
  
  Lattice vectors:
  
 A1 = (  -1.2833988670,  -2.2229120430,   0.0000000000)
 A2 = (   2.5667977330,   0.0000000000,   0.0000000000)
 A3 = (   0.0000000000,   0.0000000000,  27.5746898651)
 
   9 primitive cells build up your supercell.
 

 Routine SETGRP: Setting up the symmetry group for a 
 hexagonal supercell.


 Subroutine GETGRP returns: Found  6 space group operations
 (whereof  6 operations were pure point group operations)
 out of a pool of 24 trial point group operations.


The constrained configuration has the point symmetry C_3v.


Analysis of structural, dynamic, and magnetic symmetry:
=====================================================================
 Subroutine PRICEL returns following result:
 
  LATTYP: Found a hexagonal cell.
 ALAT       =     2.5667977331
 C/A-ratio  =    10.7428370804
  
  Lattice vectors:
  
 A1 = (  -1.2833988670,  -2.2229120430,   0.0000000000)
 A2 = (   2.5667977330,   0.0000000000,   0.0000000000)
 A3 = (   0.0000000000,   0.0000000000,  27.5746898651)
 
   9 primitive cells build up your supercell.
 

 Routine SETGRP: Setting up the symmetry group for a 
 hexagonal supercell.


 Subroutine GETGRP returns: Found  6 space group operations
 (whereof  6 operations were pure point group operations)
 out of a pool of 24 trial point group operations.


The overall configuration has the point symmetry C_3v.


 Subroutine INISYM returns: Found  6 space group operations
 (whereof  6 operations are pure point group operations),
 and found     9 'primitive' translations


----------------------------------------------------------------------------------------

                                     Primitive cell                                     

  volume of cell :     157.3347

  direct lattice vectors                    reciprocal lattice vectors
    -1.283398867 -2.222912043  0.000000000     0.000000000 -0.449860355  0.000000000
     2.566797733  0.000000000  0.000000000     0.389590495 -0.224930177  0.000000000
     0.000000000  0.000000000 27.574689865     0.000000000  0.000000000  0.036265140

  length of vectors
     2.566797733  2.566797733 27.574689865     0.449860355  0.449860355  0.036265140

  position of ions in fractional coordinates (direct lattice)
     0.000000000  0.000000000  0.000000000
     0.666666667  0.333333333  0.076003814
     0.333333333  0.666666665  0.152007627
     0.000000000  0.000000000  0.228011441
     0.666666667  0.333333333  0.304015254
     0.333333333  0.666666665  0.380019068
     0.000000000  0.000000000  0.456022881

  ion indices of the primitive-cell ions
   primitive index   ion index
                 1           1
                 2          10
                 3          27
                 4          28
                 5          37
                 6          54
                 7          55

----------------------------------------------------------------------------------------

 
 
 KPOINTS: Auto-mesh                               

Automatic generation of k-mesh.
 Grid dimensions read from file:
 generate k-points for:    3    3    1

 Generating k-lattice:

  Cartesian coordinates                     Fractional coordinates (reciprocal lattice)
     0.043287833 -0.024992242  0.000000000     0.333333333  0.000000000  0.000000000
     0.000000000  0.049984484  0.000000000     0.000000000  0.333333333  0.000000000
     0.000000000  0.000000000  0.036265140     0.000000000  0.000000000  1.000000000

  Length of vectors
     0.049984484  0.049984484  0.036265140

  Shift w.r.t. Gamma in fractional coordinates (k-lattice)
     0.000000000  0.000000000  0.000000000

 
 Subroutine IBZKPT returns following result:
 ===========================================
 
 Found      3 irreducible k-points:
 
 Following reciprocal coordinates:
            Coordinates               Weight
  0.000000  0.000000  0.000000      1.000000
  0.333333  0.000000  0.000000      6.000000
 -0.333333  0.333333  0.000000      2.000000
 
 Following cartesian coordinates:
            Coordinates               Weight
  0.000000  0.000000  0.000000      1.000000
  0.043288 -0.024992  0.000000      6.000000
 -0.043288  0.074977  0.000000      2.000000
 


--------------------------------------------------------------------------------------------------------




 Dimension of arrays:
   k-points           NKPTS =      3   k-points in BZ     NKDIM =      3   number of bands    NBANDS=    448
   number of dos      NEDOS =    301   number of ions     NIONS =     63
   non local maximal  LDIM  =      6   non local SUM 2l+1 LMDIM =     18
   total plane-waves  NPLWV = 224000
   max r-space proj   IRMAX =      1   max aug-charges    IRDMAX=   4781
   dimension x,y,z NGX =    40 NGY =   40 NGZ =  140
   dimension x,y,z NGXF=    80 NGYF=   80 NGZF=  280
   support grid    NGXF=    80 NGYF=   80 NGZF=  280
   ions per type =              63
   NGX,Y,Z   is equivalent  to a cutoff of   8.64,  8.64,  8.44 a.u.
   NGXF,Y,Z  is equivalent  to a cutoff of  17.27, 17.27, 16.88 a.u.

 SYSTEM =  unknown system                          
 POSCAR =  FCC Cu                                  

 Startparameter for this run:
   NWRITE =      2    write-flag & timer
   PREC   = normal    normal or accurate (medium, high low for compatibility)
   ISTART =      0    job   : 0-new  1-cont  2-samecut
   ICHARG =      2    charge: 1-file 2-atom 10-const
   ISPIN  =      2    spin polarized calculation?
   LNONCOLLINEAR =      F non collinear calculations
   LSORBIT =      F    spin-orbit coupling
   INIWAV =      1    electr: 0-lowe 1-rand  2-diag
   LASPH  =      F    aspherical Exc in radial PAW
 Electronic Relaxation 1
   ENCUT  =  400.0 eV  29.40 Ry    5.42 a.u.  12.56 12.56 44.97*2*pi/ulx,y,z
   ENINI  =  400.0     initial cutoff
   ENAUG  =  587.0 eV  augmentation charge cutoff
   NELM   =     60;   NELMIN=  2; NELMDL= -5     # of ELM steps 
   EDIFF  = 0.2E-03   stopping-criterion for ELM
   LREAL  =      F    real-space projection
   NLSPLINE    = F    spline interpolate recip. space projectors
   LCOMPAT=      F    compatible to vasp.4.4
   GGA_COMPAT  = T    GGA compatible to vasp.4.4-vasp.4.6
   LMAXPAW     = -100 max onsite density
   LMAXMIX     =    2 max onsite mixed and CHGCAR
   VOSKOWN=      0    Vosko Wilk Nusair interpolation
   ROPT   =    0.00000
 Ionic relaxation
   EDIFFG = -.3E-01   stopping-criterion for IOM
   NSW    =    800    number of steps for IOM
   NBLOCK =      1;   KBLOCK =    800    inner block; outer block 
   IBRION =      2    ionic relax: 0-MD 1-quasi-New 2-CG
   NFREE  =      1    steps in history (QN), initial steepest desc. (CG)
   ISIF   =      2    stress and relaxation
   IWAVPR =     11    prediction:  0-non 1-charg 2-wave 3-comb
   ISYM   =      1    0-nonsym 1-usesym 2-fastsym
   LCORR  =      T    Harris-Foulkes like correction to forces

   POTIM  = 0.5000    time-step for ionic-motion
   TEIN   =    0.0    initial temperature
   TEBEG  =    0.0;   TEEND  =   0.0 temperature during run
   SMASS  =  -3.00    Nose mass-parameter (am)
   estimated Nose-frequenzy (Omega)   =  0.10E-29 period in steps = 0.13E+47 mass=  -0.136E-26a.u.
   SCALEE = 1.0000    scale energy and forces
   NPACO  =    256;   APACO  = 10.0  distance and # of slots for P.C.
   PSTRESS=    0.0 pullay stress

  Mass of Ions in am
   POMASS =  63.55
  Ionic Valenz
   ZVAL   =  11.00
  Atomic Wigner-Seitz radii
   RWIGS  =  -1.00
  virtual crystal weights 
   VCA    =   1.00
   NELECT =     693.0000    total number of electrons
   NUPDOWN=      -1.0000    fix difference up-down

 DOS related values:
   EMIN   =  10.00;   EMAX   =-10.00  energy-range for DOS
   EFERMI =   0.00
   ISMEAR =     1;   SIGMA  =   0.20  broadening in eV -4-tet -1-fermi 0-gaus

 Electronic relaxation 2 (details)
   IALGO  =     38    algorithm
   LDIAG  =      T    sub-space diagonalisation (order eigenvalues)
   LSUBROT=      F    optimize rotation matrix (better conditioning)
   TURBO    =      0    0=normal 1=particle mesh
   IRESTART =      0    0=no restart 2=restart with 2 vectors
   NREBOOT  =      0    no. of reboots
   NMIN     =      0    reboot dimension
   EREF     =   0.00    reference energy to select bands
   IMIX   =      4    mixing-type and parameters
     AMIX     =   0.40;   BMIX     =  1.00
     AMIX_MAG =   1.60;   BMIX_MAG =  1.00
     AMIN     =   0.10
     WC   =   100.;   INIMIX=   1;  MIXPRE=   1;  MAXMIX= -45

 Intra band minimization:
   WEIMIN = 0.0010     energy-eigenvalue tresh-hold
   EBREAK =  0.11E-06  absolut break condition
   DEPER  =   0.30     relativ break condition  

   TIME   =   0.40     timestep for ELM

  volume/ion in A,a.u.               =      22.48       151.68
  Fermi-wavevector in a.u.,A,eV,Ry     =   1.290120  2.437974 22.645679  1.664410
  Thomas-Fermi vector in A             =   2.421971
 
 Write flags
   LWAVE        =      F    write WAVECAR
   LDOWNSAMPLE  =      F    k-point downsampling of WAVECAR
   LCHARG       =      F    write CHGCAR
   LVTOT        =      F    write LOCPOT, total local potential
   LVHAR        =      F    write LOCPOT, Hartree potential only
   LELF         =      F    write electronic localiz. function (ELF)
   LORBIT       =      0    0 simple, 1 ext, 2 COOP (PROOUT), +10 PAW based schemes


 Dipole corrections
   LMONO  =      F    monopole corrections only (constant potential shift)
   LDIPOL =      F    correct potential (dipole corrections)
   IDIPOL =      3    1-x, 2-y, 3-z, 4-all directions 
   EPSILON=  1.0000000 bulk dielectric constant

 Exchange correlation treatment:
   GGA     =    PE    GGA type
   LEXCH   =     8    internal setting for exchange type
   LIBXC   =     F    Libxc                    
   VOSKOWN =     0    Vosko Wilk Nusair interpolation
   LHFCALC =     F    Hartree Fock is set to
   LHFONE  =     F    Hartree Fock one center treatment
   AEXX    =    0.0000 exact exchange contribution

 Linear response parameters
   LEPSILON=     F    determine dielectric tensor
   LRPA    =     F    only Hartree local field effects (RPA)
   LNABLA  =     F    use nabla operator in PAW spheres
   LVEL    =     F    velocity operator in full k-point grid
   CSHIFT  =0.1000    complex shift for real part using Kramers Kronig
   OMEGAMAX=  -1.0    maximum frequency
   DEG_THRESHOLD= 0.2000000E-02 threshold for treating states as degnerate
   RTIME   =   -0.100 relaxation time in fs
  (WPLASMAI=    0.000 imaginary part of plasma frequency in eV, 0.658/RTIME)
   DFIELD  = 0.0000000 0.0000000 0.0000000 field for delta impulse in time
 
  Optional k-point grid parameters
   LKPOINTS_OPT  =     F    use optional k-point grid
   KPOINTS_OPT_MODE=     1    mode for optional k-point grid
 
 Orbital magnetization related:
   ORBITALMAG=     F  switch on orbital magnetization
   LCHIMAG   =     F  perturbation theory with respect to B field
   DQ        =  0.001000  dq finite difference perturbation B field
   LLRAUG    =     F  two centre corrections for induced B field



--------------------------------------------------------------------------------------------------------


 conjugate gradient relaxation of ions
   using selective dynamics as specified on POSCAR
   WARNING: If single coordinates had been selected the selection of coordinates
            is made according to the corresponding   d i r e c t   coordinates!
            Don't support selection of single cartesian coordinates -- sorry ...
  !
 charge density and potential will be updated during run
 spin polarized calculation
 Variant of blocked Davidson
 Davidson routine will perform the subspace rotation
 perform sub-space diagonalisation
    after iterative eigenvector-optimisation
 modified Broyden-mixing scheme, WC =      100.0
 initial mixing is a Kerker type mixing with AMIX =  0.4000 and BMIX =      1.0000
 Hartree-type preconditioning will be used
 using additional bands          101
 reciprocal scheme for non local part
 use partial core corrections
 calculate Harris-corrections to forces 
   (improved forces if not selfconsistent)
 use gradient corrections 
 use of overlap-Matrix (Vanderbilt PP)
 Methfessel and Paxton  Order N= 1 SIGMA  =   0.20


--------------------------------------------------------------------------------------------------------


  energy-cutoff  :      400.00
  volume of cell :     1416.01
      direct lattice vectors                 reciprocal lattice vectors
     7.700393200  0.000000000  0.000000000     0.129863498 -0.074976726  0.000000000
     3.850196600  6.668736130  0.000000000     0.000000000  0.149953452  0.000000000
     0.000000000  0.000000000 27.574689865     0.000000000  0.000000000  0.036265140

  length of vectors
     7.700393200  7.700393200 27.574689865     0.149953452  0.149953452  0.036265140


 
 k-points in units of 2pi/SCALE and weight: Auto-mesh                               
   0.00000000  0.00000000  0.00000000       0.111
   0.04328783 -0.02499224  0.00000000       0.667
  -0.04328783  0.07497673  0.00000000       0.222
 
 k-points in reciprocal lattice and weights: Auto-mesh                               
   0.00000000  0.00000000  0.00000000       0.111
   0.33333333  0.00000000  0.00000000       0.667
  -0.33333333  0.33333333  0.00000000       0.222
 
 position of ions in fractional coordinates (direct lattice) 
   0.00000000  0.00000000  0.00000000
   0.00000000  0.33333333  0.00000000
   1.00000000  0.66666667  0.00000000
   0.33333333  0.00000000  0.00000000
   0.33333333  0.33333333  0.00000000
   0.33333333  0.66666667  0.00000000
   0.66666667  0.00000000  0.00000000
   0.66666667  0.33333333  0.00000000
   0.66666667  0.66666667  0.00000000
   0.11111111  0.11111111  0.07600381
   0.11111111  0.44444444  0.07600381
   0.11111111  0.77777778  0.07600381
   0.44444444  0.11111111  0.07600381
   0.44444444  0.44444444  0.07600381
   0.44444444  0.77777778  0.07600381
   0.77777778  0.11111111  0.07600381
   0.77777778  0.44444444  0.07600381
   0.77777778  0.77777778  0.07600381
   0.22222222  0.22222222  0.15200763
   0.22222222  0.55555556  0.15200763
   0.22222222  0.88888889  0.15200763
   0.55555556  0.22222222  0.15200763
   0.55555556  0.55555556  0.15200763
   0.55555556  0.88888889  0.15200763
   0.88888889  0.22222222  0.15200763
   0.88888889  0.55555556  0.15200763
   0.88888889  0.88888889  0.15200763
   0.00000000  0.00000000  0.22801144
   0.00000000  0.33333333  0.22801144
   1.00000000  0.66666667  0.22801144
   0.33333333  0.00000000  0.22801144
   0.33333333  0.33333333  0.22801144
   0.33333333  0.66666667  0.22801144
   0.66666667  0.00000000  0.22801144
   0.66666667  0.33333333  0.22801144
   0.66666667  0.66666667  0.22801144
   0.11111111  0.11111111  0.30401525
   0.11111111  0.44444444  0.30401525
   0.11111111  0.77777778  0.30401525
   0.44444444  0.11111111  0.30401525
   0.44444444  0.44444444  0.30401525
   0.44444444  0.77777778  0.30401525
   0.77777778  0.11111111  0.30401525
   0.77777778  0.44444444  0.30401525
   0.77777778  0.77777778  0.30401525
   0.22222222  0.22222222  0.38001907
   0.22222222  0.55555556  0.38001907
   0.22222222  0.88888889  0.38001907
   0.55555556  0.22222222  0.38001907
   0.55555556  0.55555556  0.38001907
   0.55555556  0.88888889  0.38001907
   0.88888889  0.22222222  0.38001907
   0.88888889  0.55555556  0.38001907
   0.88888889  0.88888889  0.38001907
   0.00000000  0.00000000  0.45602288
   0.00000000  0.33333333  0.45602288
   1.00000000  0.66666667  0.45602288
   0.33333333  0.00000000  0.45602288
   0.33333333  0.33333333  0.45602288
   0.33333333  0.66666667  0.45602288
   0.66666667  0.00000000  0.45602288
   0.66666667  0.33333333  0.45602288
   0.66666667  0.66666667  0.45602288
 
 position of ions in cartesian coordinates  (Angst):
   0.00000000  0.00000000  0.00000000
   1.28339887  2.22291204  0.00000000
  10.26719093  4.44582409  0.00000000
   2.56679773  0.00000000  0.00000000
   3.85019660  2.22291204  0.00000000
   5.13359547  4.44582409  0.00000000
   5.13359547  0.00000000  0.00000000
   6.41699433  2.22291204  0.00000000
   7.70039320  4.44582409  0.00000000
   1.28339887  0.74097068  2.09578159
   2.56679773  2.96388272  2.09578159
   3.85019660  5.18679477  2.09578159
   3.85019660  0.74097068  2.09578159
   5.13359547  2.96388272  2.09578159
   6.41699433  5.18679477  2.09578159
   6.41699433  0.74097068  2.09578159
   7.70039320  2.96388272  2.09578159
   8.98379207  5.18679477  2.09578159
   2.56679773  1.48194136  4.19156317
   3.85019660  3.70485341  4.19156317
   5.13359547  5.92776545  4.19156317
   5.13359547  1.48194136  4.19156317
   6.41699433  3.70485341  4.19156317
   7.70039320  5.92776545  4.19156317
   7.70039320  1.48194136  4.19156317
   8.98379207  3.70485341  4.19156317
  10.26719093  5.92776545  4.19156317
   0.00000000  0.00000000  6.28734476
   1.28339887  2.22291204  6.28734476
  10.26719093  4.44582409  6.28734476
   2.56679773  0.00000000  6.28734476
   3.85019660  2.22291204  6.28734476
   5.13359547  4.44582409  6.28734476
   5.13359547  0.00000000  6.28734476
   6.41699433  2.22291204  6.28734476
   7.70039320  4.44582409  6.28734476
   1.28339887  0.74097068  8.38312635
   2.56679773  2.96388272  8.38312635
   3.85019660  5.18679477  8.38312635
   3.85019660  0.74097068  8.38312635
   5.13359547  2.96388272  8.38312635
   6.41699433  5.18679477  8.38312635
   6.41699433  0.74097068  8.38312635
   7.70039320  2.96388272  8.38312635
   8.98379207  5.18679477  8.38312635
   2.56679773  1.48194136 10.47890793
   3.85019660  3.70485341 10.47890793
   5.13359547  5.92776545 10.47890793
   5.13359547  1.48194136 10.47890793
   6.41699433  3.70485341 10.47890793
   7.70039320  5.92776545 10.47890793
   7.70039320  1.48194136 10.47890793
   8.98379207  3.70485341 10.47890793
  10.26719093  5.92776545 10.47890793
   0.00000000  0.00000000 12.57468952
   1.28339887  2.22291204 12.57468952
  10.26719093  4.44582409 12.57468952
   2.56679773  0.00000000 12.57468952
   3.85019660  2.22291204 12.57468952
   5.13359547  4.44582409 12.57468952
   5.13359547  0.00000000 12.57468952
   6.41699433  2.22291204 12.57468952
   7.70039320  4.44582409 12.57468952
 


--------------------------------------------------------------------------------------------------------


 k-point   1 :   0.0000 0.0000 0.0000  plane waves:   25781
 k-point   2 :   0.3333 0.0000 0.0000  plane waves:   25740
 k-point   3 :  -0.3333 0.3333 0.0000  plane waves:   25752

 maximum and minimum number of plane-waves per node :      5170     5139

 maximum number of plane-waves:     25781
 maximum index in each direction: 
   IXMAX=   12   IYMAX=   12   IZMAX=   44
   IXMIN=  -12   IYMIN=  -12   IZMIN=  -44


 parallel 3D FFT for wavefunctions:
    minimum data exchange during FFTs selected (reduces bandwidth)
 parallel 3D FFT for charge:
    minimum data exchange during FFTs selected (reduces bandwidth)


 total amount of memory used by VASP MPI-rank0   110180. kBytes
=======================================================================

   base      :      30000. kBytes
   nonl-proj :       7413. kBytes
   fftplans  :       4394. kBytes
   grid      :      10081. kBytes
   one-center:        404. kBytes
   wavefun   :      57888. kBytes
 
     INWAV:  cpu time      0.0000: real time      0.0004
 Broyden mixing: mesh for mixing (old mesh)
   NGX = 25   NGY = 25   NGZ = 89
  (NGX  = 80   NGY  = 80   NGZ  =280)
  gives a total of  55625 points

 initial charge density was supplied:
 charge density of overlapping atoms calculated
 number of electron     693.0000000 magnetization      63.0000000
 keeping initial charge density in first step


--------------------------------------------------------------------------------------------------------


 Maximum index for augmentation-charges          298 (set IRDMAX)


--------------------------------------------------------------------------------------------------------


 First call to EWALD:  gamma=   0.158
 Maximum number of real-space cells 4x 4x 1
 Maximum number of reciprocal cells 2x 2x 6

    FEWALD:  cpu time      0.0031: real time      0.0031


--------------------------------------- Iteration      1(   1)  ---------------------------------------


    POTLOK:  cpu time      0.1211: real time      0.1361
    SETDIJ:  cpu time      0.0247: real time      0.0249
     EDDAV:  cpu time     30.2271: real time     30.4635
       DOS:  cpu time      0.0031: real time      0.0031
    --------------------------------------------
      LOOP:  cpu time     30.3760: real time     30.6275

 eigenvalue-minimisations  :  5376
 total energy-change (2. order) : 0.6726146E+04  (-0.2457353E+05)
 number of electron     693.0000000 magnetization      63.0000000
 augmentation part      693.0000000 magnetization      63.0000000

 Free energy of the ion-electron system (eV)
  ---------------------------------------------------
  alpha Z        PSCENC =      2049.86967316
  Ewald energy   TEWEN  =    366417.62749252
  -Hartree energ DENC   =   -452629.62041196
  -exchange      EXHF   =         0.00000000
  -V(xc)+E(xc)   XCENC  =      2880.73161964
  PAW double counting   =     77370.14225108   -84037.01868607
  entropy T*S    EENTRO =         0.00589437
  eigenvalues    EBANDS =      7044.07697662
  atomic energy  EATOM  =     87630.33133259
  Solvation  Ediel_sol  =         0.00000000
  ---------------------------------------------------
  free energy    TOTEN  =      6726.14614194 eV

  energy without entropy =     6726.14024758  energy(sigma->0) =     6726.14417716


--------------------------------------------------------------------------------------------------------




--------------------------------------- Iteration      1(   2)  ---------------------------------------


     EDDAV:  cpu time     30.0257: real time     30.2614
       DOS:  cpu time      0.0034: real time      0.0035
    --------------------------------------------
      LOOP:  cpu time     30.0292: real time     30.2649

 eigenvalue-minimisations  :  5376
 total energy-change (2. order) :-0.5783197E+04  (-0.5537666E+04)
 number of electron     693.0000000 magnetization      63.0000000
 augmentation part      693.0000000 magnetization      63.0000000

 Free energy of the ion-electron system (eV)
  ---------------------------------------------------
  alpha Z        PSCENC =      2049.86967316
  Ewald energy   TEWEN  =    366417.62749252
  -Hartree energ DENC   =   -452629.62041196
  -exchange      EXHF   =         0.00000000
  -V(xc)+E(xc)   XCENC  =      2880.73161964
  PAW double counting   =     77370.14225108   -84037.01868607
  entropy T*S    EENTRO =         0.00307485
  eigenvalues    EBANDS =      1260.88277058
  atomic energy  EATOM  =     87630.33133259
  Solvation  Ediel_sol  =         0.00000000
  ---------------------------------------------------
  free energy    TOTEN  =       942.94911639 eV

  energy without entropy =      942.94604154  energy(sigma->0) =      942.94809144


--------------------------------------------------------------------------------------------------------




--------------------------------------- Iteration      1(   3)  ---------------------------------------


     EDDAV:  cpu time     29.9337: real time     30.1680
       DOS:  cpu time      0.0037: real time      0.0037
    --------------------------------------------
      LOOP:  cpu time     29.9374: real time     30.1717

 eigenvalue-minimisations  :  5376
 total energy-change (2. order) :-0.1120817E+04  (-0.1012491E+04)
 number of electron     693.0000000 magnetization      63.0000000
 augmentation part      693.0000000 magnetization      63.0000000

 Free energy of the ion-electron system (eV)
  ---------------------------------------------------
  alpha Z        PSCENC =      2049.86967316
  Ewald energy   TEWEN  =    366417.62749252
  -Hartree energ DENC   =   -452629.62041196
  -exchange      EXHF   =         0.00000000
  -V(xc)+E(xc)   XCENC  =      2880.73161964
  PAW double counting   =     77370.14225108   -84037.01868607
  entropy T*S    EENTRO =         0.03004980
  eigenvalues    EBANDS =       140.03914802
  atomic energy  EATOM  =     87630.33133259
  Solvation  Ediel_sol  =         0.00000000
  ---------------------------------------------------
  free energy    TOTEN  =      -177.86753122 eV

  energy without entropy =     -177.89758102  energy(sigma->0) =     -177.87754782


--------------------------------------------------------------------------------------------------------




--------------------------------------- Iteration      1(   4)  ---------------------------------------


     EDDAV:  cpu time     31.9769: real time     32.2255
       DOS:  cpu time      0.0039: real time      0.0040
    --------------------------------------------
      LOOP:  cpu time     31.9809: real time     32.2294

 eigenvalue-minimisations  :  5840
 total energy-change (2. order) :-0.8986652E+02  (-0.8585129E+02)
 number of electron     693.0000000 magnetization      63.0000000
 augmentation part      693.0000000 magnetization      63.0000000

 Free energy of the ion-electron system (eV)
  ---------------------------------------------------
  alpha Z        PSCENC =      2049.86967316
  Ewald energy   TEWEN  =    366417.62749252
  -Hartree energ DENC   =   -452629.62041196
  -exchange      EXHF   =         0.00000000
  -V(xc)+E(xc)   XCENC  =      2880.73161964
  PAW double counting   =     77370.14225108   -84037.01868607
  entropy T*S    EENTRO =         0.02919442
  eigenvalues    EBANDS =        50.17347980
  atomic energy  EATOM  =     87630.33133259
  Solvation  Ediel_sol  =         0.00000000
  ---------------------------------------------------
  free energy    TOTEN  =      -267.73405482 eV

  energy without entropy =     -267.76324924  energy(sigma->0) =     -267.74378629


--------------------------------------------------------------------------------------------------------




--------------------------------------- Iteration      1(   5)  ---------------------------------------


     EDDAV:  cpu time     32.2226: real time     32.4712
       DOS:  cpu time      0.0039: real time      0.0040
    CHARGE:  cpu time      1.3159: real time      1.3225
    MIXING:  cpu time      0.0078: real time      0.0079
    --------------------------------------------
      LOOP:  cpu time     33.5503: real time     33.8055

 eigenvalue-minimisations  :  5920
 total energy-change (2. order) :-0.2268076E+01  (-0.2257991E+01)
 number of electron     693.0000037 magnetization      58.7461603
 augmentation part      409.0624065 magnetization      58.5862478

 Broyden mixing:
  rms(total) = 0.75089E+01    rms(broyden)= 0.75088E+01
  rms(prec ) = 0.76965E+01
  weight for this iteration     100.00

 Free energy of the ion-electron system (eV)
  ---------------------------------------------------
  alpha Z        PSCENC =      2049.86967316
  Ewald energy   TEWEN  =    366417.62749252
  -Hartree energ DENC   =   -452629.62041196
  -exchange      EXHF   =         0.00000000
  -V(xc)+E(xc)   XCENC  =      2880.73161964
  PAW double counting   =     77370.14225108   -84037.01868607
  entropy T*S    EENTRO =         0.02934535
  eigenvalues    EBANDS =        47.90525319
  atomic energy  EATOM  =     87630.33133259
  Solvation  Ediel_sol  =         0.00000000
  ---------------------------------------------------
  free energy    TOTEN  =      -270.00213049 eV

  energy without entropy =     -270.03147584  energy(sigma->0) =     -270.01191228


--------------------------------------------------------------------------------------------------------




--------------------------------------- Iteration      1(   6)  ---------------------------------------


    POTLOK:  cpu time      0.1238: real time      0.1285
    SETDIJ:  cpu time      0.0246: real time      0.0247
     EDDAV:  cpu time     32.2177: real time     32.4658
       DOS:  cpu time      0.0034: real time      0.0034
    CHARGE:  cpu time      1.3150: real time      1.3216
    MIXING:  cpu time      0.0037: real time      0.0037
    --------------------------------------------
      LOOP:  cpu time     33.6883: real time     33.9477

 eigenvalue-minimisations  :  5912
 total energy-change (2. order) : 0.4645594E+02  (-0.6217910E+02)
 number of electron     693.0000051 magnetization      55.9963679
 augmentation part      463.0059635 magnetization      42.5028251

 Broyden mixing:
  rms(total) = 0.38749E+01    rms(broyden)= 0.38747E+01
  rms(prec ) = 0.39850E+01
  weight for this iteration     100.00

 eigenvalues of (default mixing * dielectric matrix)
  average eigenvalue GAMMA=   0.7829
  0.7829

 Free energy of the ion-electron system (eV)
  ---------------------------------------------------
  alpha Z        PSCENC =      2049.86967316
  Ewald energy   TEWEN  =    366417.62749252
  -Hartree energ DENC   =   -450863.90178665
  -exchange      EXHF   =         0.00000000
  -V(xc)+E(xc)   XCENC  =      2803.60584707
  PAW double counting   =     78302.69408732   -84619.25654338
  entropy T*S    EENTRO =        -0.02736606
  eigenvalues    EBANDS =     -1944.48892340
  atomic energy  EATOM  =     87630.33133259
  Solvation  Ediel_sol  =         0.00000000
  ---------------------------------------------------
  free energy    TOTEN  =      -223.54618684 eV

  energy without entropy =     -223.51882078  energy(sigma->0) =     -223.53706482


--------------------------------------------------------------------------------------------------------




--------------------------------------- Iteration      1(   7)  ---------------------------------------


    POTLOK:  cpu time      0.1236: real time      0.1255
    SETDIJ:  cpu time      0.0234: real time      0.0235
     EDDAV:  cpu time     31.9539: real time     32.2040
       DOS:  cpu time      0.0037: real time      0.0037
    CHARGE:  cpu time      1.2947: real time      1.3017
    MIXING:  cpu time      0.0038: real time      0.0038
    --------------------------------------------
      LOOP:  cpu time     33.4031: real time     33.6623

 eigenvalue-minimisations  :  5896
 total energy-change (2. order) : 0.2950703E+02  (-0.1599363E+02)
 number of electron     693.0000051 magnetization      51.7420736
 augmentation part      442.3658157 magnetization      37.4823912

 Broyden mixing:
  rms(total) = 0.17717E+01    rms(broyden)= 0.17716E+01
  rms(prec ) = 0.17933E+01
  weight for this iteration     100.00

 eigenvalues of (default mixing * dielectric matrix)
  average eigenvalue GAMMA=   0.8943
  1.1381  0.6505

 Free energy of the ion-electron system (eV)
  ---------------------------------------------------
  alpha Z        PSCENC =      2049.86967316
  Ewald energy   TEWEN  =    366417.62749252
  -Hartree energ DENC   =   -451730.36301909
  -exchange      EXHF   =         0.00000000
  -V(xc)+E(xc)   XCENC  =      2839.61887623
  PAW double counting   =     79943.83092582   -86587.68278097
  entropy T*S    EENTRO =         0.06620063
  eigenvalues    EBANDS =      -757.33785811
  atomic energy  EATOM  =     87630.33133259
  Solvation  Ediel_sol  =         0.00000000
  ---------------------------------------------------
  free energy    TOTEN  =      -194.03915721 eV

  energy without entropy =     -194.10535785  energy(sigma->0) =     -194.06122409


--------------------------------------------------------------------------------------------------------




--------------------------------------- Iteration      1(   8)  ---------------------------------------


    POTLOK:  cpu time      0.1142: real time      0.1191
    SETDIJ:  cpu time      0.0231: real time      0.0232
     EDDAV:  cpu time     35.6890: real time     35.9643
       DOS:  cpu time      0.0035: real time      0.0036
    CHARGE:  cpu time      1.3010: real time      1.3075
    MIXING:  cpu time      0.0051: real time      0.0052
    --------------------------------------------
      LOOP:  cpu time     37.1359: real time     37.4228

 eigenvalue-minimisations  :  6760
 total energy-change (2. order) : 0.6503969E+01  (-0.1622048E+01)
 number of electron     693.0000045 magnetization      49.7537916
 augmentation part      441.9329763 magnetization      34.3424871

 Broyden mixing:
  rms(total) = 0.17168E+01    rms(broyden)= 0.17167E+01
  rms(prec ) = 0.18300E+01
  weight for this iteration     100.00

 eigenvalues of (default mixing * dielectric matrix)
  average eigenvalue GAMMA=   0.7186
  1.0971  0.6343  0.4245

 Free energy of the ion-electron system (eV)
  ---------------------------------------------------
  alpha Z        PSCENC =      2049.86967316
  Ewald energy   TEWEN  =    366417.62749252
  -Hartree energ DENC   =   -451619.82690017
  -exchange      EXHF   =         0.00000000
  -V(xc)+E(xc)   XCENC  =      2843.00705939
  PAW double counting   =     81217.05755373   -87941.24664469
  entropy T*S    EENTRO =         0.01731479
  eigenvalues    EBANDS =      -784.37206942
  atomic energy  EATOM  =     87630.33133259
  Solvation  Ediel_sol  =         0.00000000
  ---------------------------------------------------
  free energy    TOTEN  =      -187.53518810 eV

  energy without entropy =     -187.55250289  energy(sigma->0) =     -187.54095969


--------------------------------------------------------------------------------------------------------




--------------------------------------- Iteration      1(   9)  ---------------------------------------


    POTLOK:  cpu time      0.1130: real time      0.1152
    SETDIJ:  cpu time      0.0233: real time      0.0234
     EDDAV:  cpu time     36.2537: real time     37.0864
       DOS:  cpu time      0.0038: real time      0.0038
    CHARGE:  cpu time      1.2964: real time      1.3030
    MIXING:  cpu time      0.0105: real time      0.0105
    --------------------------------------------
      LOOP:  cpu time     37.7006: real time     38.5423

 eigenvalue-minimisations  :  6872
 total energy-change (2. order) :-0.3847729E+00  (-0.5925064E+00)
 number of electron     693.0000047 magnetization      40.9492971
 augmentation part      441.5626353 magnetization      26.4253190

 Broyden mixing:
  rms(total) = 0.14956E+01    rms(broyden)= 0.14955E+01
  rms(prec ) = 0.15191E+01
  weight for this iteration     100.00

 eigenvalues of (default mixing * dielectric matrix)
  average eigenvalue GAMMA=   0.8493
  1.1762  1.1762  0.7051  0.3397

 Free energy of the ion-electron system (eV)
  ---------------------------------------------------
  alpha Z        PSCENC =      2049.86967316
  Ewald energy   TEWEN  =    366417.62749252
  -Hartree energ DENC   =   -451805.58696134
  -exchange      EXHF   =         0.00000000
  -V(xc)+E(xc)   XCENC  =      2840.46085374
  PAW double counting   =     81610.65139313   -88356.69012503
  entropy T*S    EENTRO =         0.05726025
  eigenvalues    EBANDS =      -574.64087998
  atomic energy  EATOM  =     87630.33133259
  Solvation  Ediel_sol  =         0.00000000
  ---------------------------------------------------
  free energy    TOTEN  =      -187.91996096 eV

  energy without entropy =     -187.97722121  energy(sigma->0) =     -187.93904771


--------------------------------------------------------------------------------------------------------




--------------------------------------- Iteration      1(  10)  ---------------------------------------


    POTLOK:  cpu time      0.1146: real time      0.1191
    SETDIJ:  cpu time      0.0321: real time      0.0322
     EDDAV:  cpu time     40.9631: real time     41.2785
       DOS:  cpu time      0.0037: real time      0.0037
    CHARGE:  cpu time      1.2734: real time      1.2804
    MIXING:  cpu time      0.0132: real time      0.0132
    --------------------------------------------
      LOOP:  cpu time     42.4001: real time     42.7272

 eigenvalue-minimisations  :  8056
 total energy-change (2. order) :-0.2647804E+01  (-0.5681265E+00)
 number of electron     693.0000058 magnetization      24.8448221
 augmentation part      442.6226895 magnetization      11.3986873

 Broyden mixing:
  rms(total) = 0.12840E+01    rms(broyden)= 0.12840E+01
  rms(prec ) = 0.13245E+01
  weight for this iteration     100.00

 eigenvalues of (default mixing * dielectric matrix)
  average eigenvalue GAMMA=   1.2987
  3.8353  1.1564  0.6658  0.5002  0.3358

 Free energy of the ion-electron system (eV)
  ---------------------------------------------------
  alpha Z        PSCENC =      2049.86967316
  Ewald energy   TEWEN  =    366417.62749252
  -Hartree energ DENC   =   -451720.20831711
  -exchange      EXHF   =         0.00000000
  -V(xc)+E(xc)   XCENC  =      2832.86228272
  PAW double counting   =     82877.60891211   -89684.38685900
  entropy T*S    EENTRO =         0.06657356
  eigenvalues    EBANDS =      -594.33885568
  atomic energy  EATOM  =     87630.33133259
  Solvation  Ediel_sol  =         0.00000000
  ---------------------------------------------------
  free energy    TOTEN  =      -190.56776514 eV

  energy without entropy =     -190.63433870  energy(sigma->0) =     -190.58995633


--------------------------------------------------------------------------------------------------------




--------------------------------------- Iteration      1(  11)  ---------------------------------------


    POTLOK:  cpu time      0.1314: real time      0.1332
    SETDIJ:  cpu time      0.0231: real time      0.0232
     EDDAV:  cpu time     41.2864: real time     41.5730
       DOS:  cpu time      0.0041: real time      0.0041
    CHARGE:  cpu time      1.2822: real time      1.2883
    MIXING:  cpu time      0.0093: real time      0.0094
    --------------------------------------------
      LOOP:  cpu time     42.7365: real time     43.0312

 eigenvalue-minimisations  :  7840
 total energy-change (2. order) :-0.4468999E+01  (-0.8083696E+00)
 number of electron     693.0000052 magnetization      21.2611424
 augmentation part      443.7883314 magnetization      10.3586966

 Broyden mixing:
  rms(total) = 0.95818E+00    rms(broyden)= 0.95813E+00
  rms(prec ) = 0.11304E+01
  weight for this iteration     100.00

 eigenvalues of (default mixing * dielectric matrix)
  average eigenvalue GAMMA=   1.4476
  5.2825  1.1750  0.7222  0.7222  0.4768  0.3068

 Free energy of the ion-electron system (eV)
  ---------------------------------------------------
  alpha Z        PSCENC =      2049.86967316
  Ewald energy   TEWEN  =    366417.62749252
  -Hartree energ DENC   =   -451956.52817605
  -exchange      EXHF   =         0.00000000
  -V(xc)+E(xc)   XCENC  =      2823.09871151
  PAW double counting   =     84586.96018379   -91476.89562248
  entropy T*S    EENTRO =         0.00571201
  eigenvalues    EBANDS =      -269.50607080
  atomic energy  EATOM  =     87630.33133259
  Solvation  Ediel_sol  =         0.00000000
  ---------------------------------------------------
  free energy    TOTEN  =      -195.03676375 eV

  energy without entropy =     -195.04247576  energy(sigma->0) =     -195.03866775


--------------------------------------------------------------------------------------------------------




--------------------------------------- Iteration      1(  12)  ---------------------------------------


    POTLOK:  cpu time      0.1371: real time      0.1422
    SETDIJ:  cpu time      0.0237: real time      0.0238
     EDDAV:  cpu time     38.0651: real time     38.3097
       DOS:  cpu time      0.0037: real time      0.0037
    CHARGE:  cpu time      1.2981: real time      1.3040
    MIXING:  cpu time      0.0127: real time      0.0127
    --------------------------------------------
      LOOP:  cpu time     39.5403: real time     39.7961

 eigenvalue-minimisations  :  7296
 total energy-change (2. order) :-0.2507754E+01  (-0.5412275E+00)
 number of electron     693.0000046 magnetization      16.6736351
 augmentation part      443.5675292 magnetization       6.7669045

 Broyden mixing:
  rms(total) = 0.85567E+00    rms(broyden)= 0.85561E+00
  rms(prec ) = 0.11819E+01
  weight for this iteration     100.00

 eigenvalues of (default mixing * dielectric matrix)
  average eigenvalue GAMMA=   1.5063
  6.5199  1.2555  0.9422  0.7522  0.4963  0.3063  0.2718

 Free energy of the ion-electron system (eV)
  ---------------------------------------------------
  alpha Z        PSCENC =      2049.86967316
  Ewald energy   TEWEN  =    366417.62749252
  -Hartree energ DENC   =   -451981.34964351
  -exchange      EXHF   =         0.00000000
  -V(xc)+E(xc)   XCENC  =      2823.12474237
  PAW double counting   =     84425.25676298   -91308.68736614
  entropy T*S    EENTRO =         0.03735611
  eigenvalues    EBANDS =      -253.75486740
  atomic energy  EATOM  =     87630.33133259
  Solvation  Ediel_sol  =         0.00000000
  ---------------------------------------------------
  free energy    TOTEN  =      -197.54451733 eV

  energy without entropy =     -197.58187343  energy(sigma->0) =     -197.55696936


--------------------------------------------------------------------------------------------------------




--------------------------------------- Iteration      1(  13)  ---------------------------------------


    POTLOK:  cpu time      0.1142: real time      0.1159
    SETDIJ:  cpu time      0.0233: real time      0.0234
     EDDAV:  cpu time     42.6616: real time     43.1442
       DOS:  cpu time      0.0038: real time      0.0038
    CHARGE:  cpu time      1.3205: real time      1.3290
    MIXING:  cpu time      0.0056: real time      0.0057
    --------------------------------------------
      LOOP:  cpu time     44.1290: real time     44.6221

 eigenvalue-minimisations  :  8072
 total energy-change (2. order) :-0.2366491E+01  (-0.3945979E+00)
 number of electron     693.0000050 magnetization       9.8120983
 augmentation part      443.1826198 magnetization       1.5035766

 Broyden mixing:
  rms(total) = 0.48236E+00    rms(broyden)= 0.48231E+00
  rms(prec ) = 0.53383E+00
  weight for this iteration     100.00

 eigenvalues of (default mixing * dielectric matrix)
  average eigenvalue GAMMA=   1.9263
  9.9691  1.9413  1.0901  0.7484  0.6743  0.4630  0.3127  0.2118

 Free energy of the ion-electron system (eV)
  ---------------------------------------------------
  alpha Z        PSCENC =      2049.86967316
  Ewald energy   TEWEN  =    366417.62749252
  -Hartree energ DENC   =   -451976.13945747
  -exchange      EXHF   =         0.00000000
  -V(xc)+E(xc)   XCENC  =      2823.81475318
  PAW double counting   =     83841.29601114   -90698.48260284
  entropy T*S    EENTRO =         0.00561311
  eigenvalues    EBANDS =      -288.23382408
  atomic energy  EATOM  =     87630.33133259
  Solvation  Ediel_sol  =         0.00000000
  ---------------------------------------------------
  free energy    TOTEN  =      -199.91100869 eV

  energy without entropy =     -199.91662180  energy(sigma->0) =     -199.91287972


--------------------------------------------------------------------------------------------------------




--------------------------------------- Iteration      1(  14)  ---------------------------------------


    POTLOK:  cpu time      0.1298: real time      0.1346
    SETDIJ:  cpu time      0.0233: real time      0.0234
     EDDAV:  cpu time     39.0555: real time     39.3201
       DOS:  cpu time      0.0038: real time      0.0038
    CHARGE:  cpu time      1.2905: real time      1.2967
    MIXING:  cpu time      0.0076: real time      0.0077
    --------------------------------------------
      LOOP:  cpu time     40.5106: real time     40.7862

 eigenvalue-minimisations  :  7496
 total energy-change (2. order) :-0.1277406E+02  (-0.1234466E+01)
 number of electron     693.0000045 magnetization       8.2596230
 augmentation part      441.9714106 magnetization       2.9278104

 Broyden mixing:
  rms(total) = 0.36709E+00    rms(broyden)= 0.36704E+00
  rms(prec ) = 0.38994E+00
  weight for this iteration     100.00

 eigenvalues of (default mixing * dielectric matrix)
  average eigenvalue GAMMA=   2.0167
 11.6196  2.3664  1.0781  0.7360  0.7360  0.6321  0.4577  0.3178  0.2064

 Free energy of the ion-electron system (eV)
  ---------------------------------------------------
  alpha Z        PSCENC =      2049.86967316
  Ewald energy   TEWEN  =    366417.62749252
  -Hartree energ DENC   =   -451963.59160424
  -exchange      EXHF   =         0.00000000
  -V(xc)+E(xc)   XCENC  =      2818.85629667
  PAW double counting   =     82902.79343338   -89714.74031214
  entropy T*S    EENTRO =         0.03126248
  eigenvalues    EBANDS =      -353.86264515
  atomic energy  EATOM  =     87630.33133259
  Solvation  Ediel_sol  =         0.00000000
  ---------------------------------------------------
  free energy    TOTEN  =      -212.68507073 eV

  energy without entropy =     -212.71633321  energy(sigma->0) =     -212.69549156


--------------------------------------------------------------------------------------------------------




--------------------------------------- Iteration      1(  15)  ---------------------------------------


    POTLOK:  cpu time      0.1144: real time      0.1164
    SETDIJ:  cpu time      0.0233: real time      0.0234
     EDDAV:  cpu time     32.4853: real time     32.7039
       DOS:  cpu time      0.0074: real time      0.0075
    CHARGE:  cpu time      1.3174: real time      1.3234
    MIXING:  cpu time      0.0104: real time      0.0105
    --------------------------------------------
      LOOP:  cpu time     33.9584: real time     34.1851

 eigenvalue-minimisations  :  6032
 total energy-change (2. order) :-0.2248538E+01  (-0.3529806E+00)
 number of electron     693.0000047 magnetization       7.3524140
 augmentation part      441.9932148 magnetization       3.1333301

 Broyden mixing:
  rms(total) = 0.27600E+00    rms(broyden)= 0.27596E+00
  rms(prec ) = 0.29621E+00
  weight for this iteration     100.00

 eigenvalues of (default mixing * dielectric matrix)
  average eigenvalue GAMMA=   1.8994
 11.9349  2.4781  1.0250  0.7659  0.7659  0.6098  0.4474  0.4474  0.3119  0.2078

 Free energy of the ion-electron system (eV)
  ---------------------------------------------------
  alpha Z        PSCENC =      2049.86967316
  Ewald energy   TEWEN  =    366417.62749252
  -Hartree energ DENC   =   -451919.15238237
  -exchange      EXHF   =         0.00000000
  -V(xc)+E(xc)   XCENC  =      2817.75402060
  PAW double counting   =     82654.34939494   -89450.99814004
  entropy T*S    EENTRO =         0.02137401
  eigenvalues    EBANDS =      -414.73637430
  atomic energy  EATOM  =     87630.33133259
  Solvation  Ediel_sol  =         0.00000000
  ---------------------------------------------------
  free energy    TOTEN  =      -214.93360888 eV

  energy without entropy =     -214.95498289  energy(sigma->0) =     -214.94073355


--------------------------------------------------------------------------------------------------------




--------------------------------------- Iteration      1(  16)  ---------------------------------------


    POTLOK:  cpu time      0.1142: real time      0.1200
    SETDIJ:  cpu time      0.0233: real time      0.0235
     EDDAV:  cpu time     34.9493: real time     35.1817
       DOS:  cpu time      0.0038: real time      0.0038
    CHARGE:  cpu time      1.3098: real time      1.3156
    MIXING:  cpu time      0.0068: real time      0.0068
    --------------------------------------------
      LOOP:  cpu time     36.4073: real time     36.6514

 eigenvalue-minimisations  :  6576
 total energy-change (2. order) :-0.1894313E+01  (-0.1344123E+00)
 number of electron     693.0000045 magnetization       6.7625652
 augmentation part      442.0804577 magnetization       3.2581932

 Broyden mixing:
  rms(total) = 0.20288E+00    rms(broyden)= 0.20284E+00
  rms(prec ) = 0.21325E+00
  weight for this iteration     100.00

 eigenvalues of (default mixing * dielectric matrix)
  average eigenvalue GAMMA=   1.8543
 12.1431  2.5967  0.9159  0.9159  0.9645  0.7883  0.7044  0.4750  0.2077  0.3157
  0.3703

 Free energy of the ion-electron system (eV)
  ---------------------------------------------------
  alpha Z        PSCENC =      2049.86967316
  Ewald energy   TEWEN  =    366417.62749252
  -Hartree energ DENC   =   -451893.28933871
  -exchange      EXHF   =         0.00000000
  -V(xc)+E(xc)   XCENC  =      2816.62401542
  PAW double counting   =     82455.18941103   -89239.71456808
  entropy T*S    EENTRO =        -0.00530663
  eigenvalues    EBANDS =      -453.46063317
  atomic energy  EATOM  =     87630.33133259
  Solvation  Ediel_sol  =         0.00000000
  ---------------------------------------------------
  free energy    TOTEN  =      -216.82792187 eV

  energy without entropy =     -216.82261524  energy(sigma->0) =     -216.82615299


--------------------------------------------------------------------------------------------------------




--------------------------------------- Iteration      1(  17)  ---------------------------------------


    POTLOK:  cpu time      0.1139: real time      0.1157
    SETDIJ:  cpu time      0.0307: real time      0.0308
     EDDAV:  cpu time     37.7131: real time     38.1428
       DOS:  cpu time      0.0039: real time      0.0039
    CHARGE:  cpu time      1.3173: real time      1.3239
    MIXING:  cpu time      0.0080: real time      0.0080
    --------------------------------------------
      LOOP:  cpu time     39.1870: real time     39.6253

 eigenvalue-minimisations  :  7088
 total energy-change (2. order) :-0.1713311E+01  (-0.1027666E+00)
 number of electron     693.0000045 magnetization       5.9931874
 augmentation part      442.0365078 magnetization       3.1368958

 Broyden mixing:
  rms(total) = 0.16942E+00    rms(broyden)= 0.16939E+00
  rms(prec ) = 0.17580E+00
  weight for this iteration     100.00

 eigenvalues of (default mixing * dielectric matrix)
  average eigenvalue GAMMA=   1.8479
 12.3349  2.9071  1.2324  1.1558  1.1558  0.6888  0.6888  0.6649  0.4702  0.2076
  0.3154  0.3531

 Free energy of the ion-electron system (eV)
  ---------------------------------------------------
  alpha Z        PSCENC =      2049.86967316
  Ewald energy   TEWEN  =    366417.62749252
  -Hartree energ DENC   =   -451868.08626600
  -exchange      EXHF   =         0.00000000
  -V(xc)+E(xc)   XCENC  =      2815.79457642
  PAW double counting   =     82311.58201335   -89089.32890379
  entropy T*S    EENTRO =        -0.03289098
  eigenvalues    EBANDS =      -486.29826011
  atomic energy  EATOM  =     87630.33133259
  Solvation  Ediel_sol  =         0.00000000
  ---------------------------------------------------
  free energy    TOTEN  =      -218.54123283 eV

  energy without entropy =     -218.50834185  energy(sigma->0) =     -218.53026917


--------------------------------------------------------------------------------------------------------




--------------------------------------- Iteration      1(  18)  ---------------------------------------


    POTLOK:  cpu time      0.1197: real time      0.1244
    SETDIJ:  cpu time      0.0234: real time      0.0235
     EDDAV:  cpu time     36.7215: real time     36.9918
       DOS:  cpu time      0.0035: real time      0.0035
    CHARGE:  cpu time      1.2844: real time      1.2908
    MIXING:  cpu time      0.0076: real time      0.0078
    --------------------------------------------
      LOOP:  cpu time     38.1601: real time     38.4418

 eigenvalue-minimisations  :  7016
 total energy-change (2. order) :-0.1197394E+01  (-0.6341365E-01)
 number of electron     693.0000047 magnetization       5.0989479
 augmentation part      442.2481630 magnetization       2.9146211

 Broyden mixing:
  rms(total) = 0.14661E+00    rms(broyden)= 0.14659E+00
  rms(prec ) = 0.15014E+00
  weight for this iteration     100.00

 eigenvalues of (default mixing * dielectric matrix)
  average eigenvalue GAMMA=   1.8167
 12.6147  2.8907  1.8349  1.0878  1.0878  0.7357  0.7357  0.7132  0.5798  0.4634
  0.2076  0.3154  0.3502

 Free energy of the ion-electron system (eV)
  ---------------------------------------------------
  alpha Z        PSCENC =      2049.86967316
  Ewald energy   TEWEN  =    366417.62749252
  -Hartree energ DENC   =   -451795.17650773
  -exchange      EXHF   =         0.00000000
  -V(xc)+E(xc)   XCENC  =      2814.65435923
  PAW double counting   =     82224.66364797   -88999.13764391
  entropy T*S    EENTRO =        -0.06581734
  eigenvalues    EBANDS =      -562.50516357
  atomic energy  EATOM  =     87630.33133259
  Solvation  Ediel_sol  =         0.00000000
  ---------------------------------------------------
  free energy    TOTEN  =      -219.73862708 eV

  energy without entropy =     -219.67280974  energy(sigma->0) =     -219.71668797


--------------------------------------------------------------------------------------------------------




--------------------------------------- Iteration      1(  19)  ---------------------------------------


    POTLOK:  cpu time      0.1253: real time      0.1272
    SETDIJ:  cpu time      0.0235: real time      0.0236
     EDDAV:  cpu time     34.0885: real time     34.3260
       DOS:  cpu time      0.0038: real time      0.0038
    CHARGE:  cpu time      1.3023: real time      1.3082
    MIXING:  cpu time      0.0092: real time      0.0092
    --------------------------------------------
      LOOP:  cpu time     35.5527: real time     35.7981

 eigenvalue-minimisations  :  6400
 total energy-change (2. order) :-0.1127847E+01  (-0.3720297E-01)
 number of electron     693.0000045 magnetization       3.9420993
 augmentation part      442.1587436 magnetization       2.1714254

 Broyden mixing:
  rms(total) = 0.13502E+00    rms(broyden)= 0.13501E+00
  rms(prec ) = 0.14071E+00
  weight for this iteration     100.00

 eigenvalues of (default mixing * dielectric matrix)
  average eigenvalue GAMMA=   1.8277
 12.9420  2.8128  2.8128  1.0523  1.0523  0.8899  0.8899  0.7505  0.6358  0.4683
  0.2076  0.3155  0.4062  0.3523

 Free energy of the ion-electron system (eV)
  ---------------------------------------------------
  alpha Z        PSCENC =      2049.86967316
  Ewald energy   TEWEN  =    366417.62749252
  -Hartree energ DENC   =   -451758.13566658
  -exchange      EXHF   =         0.00000000
  -V(xc)+E(xc)   XCENC  =      2813.64619810
  PAW double counting   =     82292.99637297   -89074.44706890
  entropy T*S    EENTRO =        -0.08367291
  eigenvalues    EBANDS =      -592.67113470
  atomic energy  EATOM  =     87630.33133259
  Solvation  Ediel_sol  =         0.00000000
  ---------------------------------------------------
  free energy    TOTEN  =      -220.86647374 eV

  energy without entropy =     -220.78280083  energy(sigma->0) =     -220.83858277


--------------------------------------------------------------------------------------------------------




--------------------------------------- Iteration      1(  20)  ---------------------------------------


    POTLOK:  cpu time      0.1144: real time      0.1193
    SETDIJ:  cpu time      0.0231: real time      0.0232
     EDDAV:  cpu time     39.6499: real time     40.2140
       DOS:  cpu time      0.0059: real time      0.0059
    CHARGE:  cpu time      1.3068: real time      1.3131
    MIXING:  cpu time      0.0120: real time      0.0120
    --------------------------------------------
      LOOP:  cpu time     41.1121: real time     41.6876

 eigenvalue-minimisations  :  7440
 total energy-change (2. order) :-0.1039446E+01  (-0.3466676E-01)
 number of electron     693.0000046 magnetization       1.9885152
 augmentation part      442.0693348 magnetization       0.6751819

 Broyden mixing:
[...]
 dipol+quadrupol energy correction            0.000019 eV
 added-field ion interaction          0.000000 eV  (added to PSCEN)

 
  *************** adding dipol energy to TOTEN NOW **************** 
    CHARGE:  cpu time      1.3095: real time      1.3155
    FORLOC:  cpu time      0.0383: real time      0.0385
    FORNL :  cpu time     32.9420: real time     33.2146
    STRESS:  cpu time     28.9040: real time     29.0572
    FORCOR:  cpu time      0.1416: real time      0.1424
    FORHAR:  cpu time      0.0396: real time      0.0398
    MIXING:  cpu time      0.0041: real time      0.0042
    OFIELD:  cpu time      0.0000: real time      0.0000

 ---------------------------------------------------------------------------------------------

         DFTD3 V3.0 Rev 1        
 Edisp (eV)  -26.12422

 E6    (eV) :   -10.7894
 E8    (eV) :   -15.3348
 % E8        : 58.70
    FORVDW:  cpu time      0.4331: real time      0.4350

  FORCE on cell =-STRESS in cart. coord.  units (eV):
  Direction    XX          YY          ZZ          XY          YZ          ZX
  --------------------------------------------------------------------------------------
  Alpha Z  2049.86967  2049.86967  2049.86967
  Ewald  429924.78585429924.78585************    -0.00000     0.00000    -0.00000
  Hartree454499.65879454499.65879************     0.00000     0.00000    -0.00000
  E(xc)   -4049.49807 -4049.49729 -4054.15523    -0.00068     0.00001     0.00002
  Local  ************************907877.66682     0.03139    -0.00001    -0.00002
  n-local -1355.00888 -1343.38528 -1351.75042    10.07027    -0.20086     0.33642
  augment  5961.00863  5961.03339  5980.12202    -0.02144     0.00032     0.00054
  Kinetic  5647.47739  5647.91179  5681.07646     0.37783     1.84137    -3.18916
  Fock        0.00000     0.00000     0.00000     0.00000     0.00000     0.00000
  vdW       -31.84710   -31.84710   -25.63859     0.00000    -0.00000     0.00000
  -------------------------------------------------------------------------------------
  Total     -37.35425   -37.35425    -6.13708    -0.00000     0.00000    -0.00000
  in kB     -42.26526   -42.26526    -6.94393    -0.00000     0.00000    -0.00000
  external pressure =      -30.49 kB  Pullay stress =        0.00 kB


 VOLUME and BASIS-vectors are now :
 -----------------------------------------------------------------------------
  energy-cutoff  :      400.00
  volume of cell :     1416.01
      direct lattice vectors                 reciprocal lattice vectors
     7.700393200  0.000000000  0.000000000     0.129863498 -0.074976726  0.000000000
     3.850196600  6.668736130  0.000000000     0.000000000  0.149953452  0.000000000
     0.000000000  0.000000000 27.574689865     0.000000000  0.000000000  0.036265140

  length of vectors
     7.700393200  7.700393200 27.574689865     0.149953452  0.149953452  0.036265140


 FORCES acting on ions
    electron-ion (+dipol)            ewald-force                    non-local-force                 convergence-correction
 -----------------------------------------------------------------------------------------------
   -.449E-07 -.255E-07 0.546E+04   0.805E-07 -.216E-06 -.546E+04   0.108E-16 0.243E-16 -.197E+01   0.434E-08 0.262E-08 0.459E-01
   0.156E-04 0.348E-04 0.546E+04   -.200E-06 0.441E-06 -.546E+04   0.477E-17 0.191E-16 -.197E+01   0.309E-08 -.762E-09 0.459E-01
   -.175E-04 -.323E-04 0.546E+04   0.279E-06 -.310E-06 -.546E+04   0.997E-17 0.173E-16 -.197E+01   0.649E-08 0.527E-08 0.459E-01
   0.383E-04 -.196E-05 0.546E+04   0.189E-06 -.194E-06 -.546E+04   0.477E-17 0.130E-16 -.197E+01   0.995E-09 0.322E-08 0.459E-01
   0.131E-05 0.248E-05 0.546E+04   0.338E-07 0.441E-06 -.546E+04   0.139E-16 0.173E-17 -.197E+01   0.430E-08 0.246E-08 0.459E-01
   0.188E-04 -.328E-04 0.546E+04   -.239E-06 -.235E-06 -.546E+04   0.564E-17 0.781E-17 -.197E+01   0.212E-08 0.516E-08 0.459E-01
   -.384E-04 -.413E-06 0.546E+04   -.248E-06 -.117E-06 -.546E+04   -.304E-17 0.226E-16 -.197E+01   0.774E-08 0.303E-08 0.459E-01
   -.168E-04 0.353E-04 0.546E+04   0.189E-06 0.444E-06 -.546E+04   0.000E+00 0.130E-16 -.197E+01   0.564E-08 -.727E-09 0.459E-01
   -.157E-05 -.127E-05 0.546E+04   -.167E-07 -.286E-06 -.546E+04   0.213E-16 0.147E-16 -.197E+01   0.452E-08 0.258E-08 0.459E-01
   0.325E-04 0.201E-04 0.368E+04   -.920E-07 -.263E-06 -.368E+04   0.000E+00 -.976E-18 -.988E+00   -.292E-07 -.166E-07 -.213E+00
   0.607E-05 -.149E-05 0.368E+04   -.155E-06 0.548E-06 -.368E+04   -.163E-18 0.000E+00 -.988E+00   -.314E-07 -.182E-07 -.213E+00
   0.191E-05 -.395E-04 0.368E+04   0.253E-06 -.298E-06 -.368E+04   0.813E-18 -.184E-17 -.988E+00   -.311E-07 -.201E-07 -.213E+00
   0.966E-06 0.985E-05 0.368E+04   0.814E-07 -.109E-06 -.368E+04   0.114E-17 0.325E-18 -.988E+00   -.308E-07 -.181E-07 -.213E+00
   -.698E-05 -.103E-05 0.368E+04   -.432E-07 0.603E-06 -.368E+04   0.271E-18 0.542E-18 -.988E+00   -.311E-07 -.182E-07 -.213E+00
   0.235E-04 -.170E-04 0.368E+04   -.405E-06 -.322E-06 -.368E+04   -.163E-17 0.434E-18 -.988E+00   -.263E-07 -.204E-07 -.213E+00
   -.360E-04 0.220E-04 0.368E+04   -.808E-08 -.789E-07 -.368E+04   0.596E-18 0.542E-18 -.988E+00   -.336E-07 -.171E-07 -.213E+00
   -.194E-05 0.334E-04 0.368E+04   0.132E-06 0.410E-06 -.368E+04   0.146E-17 0.542E-18 -.988E+00   -.309E-07 -.126E-07 -.213E+00
   -.286E-04 -.156E-04 0.368E+04   -.408E-07 -.496E-06 -.368E+04   0.542E-18 -.434E-18 -.988E+00   -.357E-07 -.199E-07 -.213E+00
   0.309E-04 0.182E-04 0.184E+04   -.725E-07 -.214E-07 -.184E+04   -.434E-18 -.108E-18 0.762E-01   -.159E-05 -.916E-06 -.570E+00
   0.142E-05 -.312E-04 0.184E+04   -.139E-06 0.881E-06 -.184E+04   -.271E-18 -.146E-17 0.762E-01   -.158E-05 -.908E-06 -.570E+00
   0.381E-04 -.210E-04 0.184E+04   -.435E-06 -.471E-06 -.184E+04   0.434E-18 -.271E-18 0.762E-01   -.158E-05 -.913E-06 -.570E+00
   -.263E-04 0.194E-04 0.184E+04   0.241E-06 0.374E-06 -.184E+04   -.119E-17 -.163E-18 0.762E-01   -.158E-05 -.916E-06 -.570E+00
   0.646E-05 0.585E-05 0.184E+04   -.123E-06 0.437E-06 -.184E+04   -.488E-18 -.163E-18 0.762E-01   -.158E-05 -.913E-06 -.570E+00
   -.720E-06 -.687E-05 0.184E+04   -.917E-06 -.340E-06 -.184E+04   -.211E-17 -.217E-18 0.762E-01   -.158E-05 -.912E-06 -.570E+00
   -.116E-05 0.428E-04 0.184E+04   -.209E-06 -.355E-06 -.184E+04   -.922E-18 -.434E-18 0.762E-01   -.158E-05 -.912E-06 -.570E+00
   -.453E-05 0.601E-05 0.184E+04   0.222E-06 -.276E-07 -.184E+04   -.173E-17 -.125E-17 0.762E-01   -.158E-05 -.913E-06 -.570E+00
   -.227E-04 -.196E-04 0.184E+04   0.178E-05 -.384E-06 -.184E+04   -.136E-17 0.325E-18 0.762E-01   -.158E-05 -.913E-06 -.570E+00
   -.890E-07 -.514E-07 0.538E+01   0.671E-07 -.434E-06 -.479E+01   -.617E-18 -.542E-19 0.249E+00   -.275E-05 -.159E-05 -.826E+00
   0.168E-04 0.351E-04 0.538E+01   -.210E-06 0.407E-06 -.479E+01   0.271E-19 -.271E-18 0.249E+00   -.275E-05 -.158E-05 -.826E+00
   -.174E-04 -.337E-04 0.538E+01   0.544E-06 -.296E-06 -.479E+01   -.352E-18 -.271E-19 0.249E+00   -.276E-05 -.159E-05 -.826E+00
   0.391E-04 -.110E-05 0.538E+01   0.319E-07 -.327E-06 -.479E+01   -.298E-18 -.163E-18 0.249E+00   -.274E-05 -.160E-05 -.826E+00
   0.108E-05 0.233E-05 0.538E+01   -.130E-07 0.561E-06 -.479E+01   -.325E-18 -.136E-18 0.249E+00   -.275E-05 -.159E-05 -.826E+00
   0.184E-04 -.344E-04 0.538E+01   -.329E-06 -.843E-07 -.479E+01   -.434E-18 -.271E-19 0.249E+00   -.274E-05 -.159E-05 -.826E+00
   -.396E-04 0.457E-06 0.538E+01   -.218E-06 -.456E-07 -.479E+01   -.237E-18 0.678E-19 0.249E+00   -.276E-05 -.160E-05 -.826E+00
   -.184E-04 0.357E-04 0.538E+01   0.227E-06 0.438E-06 -.479E+01   -.474E-18 -.271E-18 0.249E+00   -.275E-05 -.158E-05 -.826E+00
   -.154E-05 -.125E-05 0.538E+01   -.164E-06 -.311E-06 -.479E+01   0.813E-19 0.108E-18 0.249E+00   -.275E-05 -.159E-05 -.826E+00
   0.329E-04 0.203E-04 -.183E+04   -.108E-06 -.285E-06 0.183E+04   -.754E-19 -.118E-18 0.278E+00   -.230E-05 -.132E-05 -.683E+00
   0.369E-05 -.851E-06 -.183E+04   -.147E-06 0.565E-06 0.183E+04   0.678E-20 -.610E-19 0.278E+00   -.232E-05 -.132E-05 -.683E+00
   0.897E-06 -.410E-04 -.183E+04   0.268E-06 -.296E-06 0.183E+04   -.593E-19 -.474E-19 0.278E+00   -.230E-05 -.134E-05 -.683E+00
   0.333E-06 0.747E-05 -.183E+04   0.666E-07 -.110E-06 0.183E+04   0.118E-18 -.237E-19 0.278E+00   -.230E-05 -.135E-05 -.683E+00
   -.615E-05 -.550E-06 -.183E+04   -.477E-07 0.634E-06 0.183E+04   0.142E-18 0.271E-19 0.278E+00   -.229E-05 -.132E-05 -.683E+00
   0.257E-04 -.184E-04 -.183E+04   -.435E-06 -.323E-06 0.183E+04   0.217E-18 -.678E-19 0.278E+00   -.231E-05 -.133E-05 -.683E+00
   -.379E-04 0.219E-04 -.183E+04   0.203E-07 -.865E-07 0.183E+04   0.203E-19 -.678E-20 0.278E+00   -.232E-05 -.133E-05 -.683E+00
   -.206E-05 0.359E-04 -.183E+04   0.127E-06 0.407E-06 0.183E+04   0.169E-18 -.407E-19 0.278E+00   -.231E-05 -.134E-05 -.683E+00
   -.312E-04 -.171E-04 -.183E+04   -.280E-07 -.505E-06 0.183E+04   0.525E-19 -.176E-18 0.278E+00   -.230E-05 -.133E-05 -.683E+00
   0.277E-04 0.164E-04 -.367E+04   -.723E-07 -.254E-07 0.367E+04   0.976E-18 -.217E-18 0.115E+01   -.311E-05 -.179E-05 -.755E+00
   0.203E-05 -.278E-04 -.367E+04   -.141E-06 0.873E-06 0.367E+04   0.228E-17 -.108E-17 0.115E+01   -.310E-05 -.179E-05 -.755E+00
   0.350E-04 -.201E-04 -.367E+04   -.437E-06 -.457E-06 0.367E+04   0.239E-17 0.867E-18 0.115E+01   -.313E-05 -.178E-05 -.755E+00
   -.230E-04 0.182E-04 -.367E+04   0.241E-06 0.371E-06 0.367E+04   0.336E-17 0.867E-18 0.115E+01   -.310E-05 -.179E-05 -.755E+00
   0.651E-05 0.588E-05 -.367E+04   -.122E-06 0.428E-06 0.367E+04   0.130E-17 -.867E-18 0.115E+01   -.309E-05 -.178E-05 -.755E+00
   -.121E-05 -.815E-05 -.367E+04   -.918E-06 -.329E-06 0.367E+04   -.163E-17 -.434E-18 0.115E+01   -.310E-05 -.181E-05 -.755E+00
   -.193E-05 0.396E-04 -.367E+04   -.210E-06 -.360E-06 0.367E+04   -.173E-17 0.434E-18 0.115E+01   -.310E-05 -.182E-05 -.755E+00
   -.589E-05 0.623E-05 -.367E+04   0.222E-06 -.349E-07 0.367E+04   0.108E-18 0.195E-17 0.115E+01   -.312E-05 -.178E-05 -.755E+00
   -.204E-04 -.182E-04 -.367E+04   0.178E-05 -.373E-06 0.367E+04   -.217E-18 -.651E-18 0.115E+01   -.308E-05 -.178E-05 -.755E+00
   -.283E-06 -.164E-06 -.549E+04   0.110E-07 -.337E-06 0.549E+04   0.239E-16 -.260E-17 0.219E+01   -.856E-06 -.495E-06 -.190E+00
   0.159E-04 0.311E-04 -.549E+04   -.212E-06 0.306E-06 0.549E+04   0.173E-16 0.434E-17 0.219E+01   -.862E-06 -.497E-06 -.190E+00
   -.141E-04 -.317E-04 -.549E+04   0.523E-06 -.246E-06 0.549E+04   0.160E-16 0.520E-17 0.219E+01   -.855E-06 -.488E-06 -.190E+00
   0.352E-04 0.139E-06 -.549E+04   0.720E-07 -.238E-06 0.549E+04   0.369E-16 0.165E-16 0.219E+01   -.862E-06 -.499E-06 -.190E+00
   0.200E-05 0.287E-05 -.549E+04   -.496E-07 0.475E-06 0.549E+04   0.104E-16 0.954E-17 0.219E+01   -.856E-06 -.494E-06 -.190E+00
   0.155E-04 -.330E-04 -.549E+04   -.319E-06 -.995E-07 0.549E+04   0.169E-16 0.156E-16 0.219E+01   -.855E-06 -.486E-06 -.190E+00
   -.363E-04 0.227E-05 -.549E+04   -.228E-06 -.225E-07 0.549E+04   0.221E-16 0.173E-16 0.219E+01   -.850E-06 -.497E-06 -.190E+00
   -.187E-04 0.326E-04 -.549E+04   0.241E-06 0.364E-06 0.549E+04   0.278E-16 0.226E-16 0.219E+01   -.849E-06 -.497E-06 -.190E+00
   -.287E-05 -.202E-05 -.549E+04   -.178E-06 -.258E-06 0.549E+04   0.282E-16 0.104E-16 0.219E+01   -.857E-06 -.494E-06 -.190E+00
 -----------------------------------------------------------------------------------------------
   0.123E-04 0.532E-04 0.201E+02   -.554E-12 0.964E-13 -.364E-11   0.267E-15 0.227E-15 0.885E+01   -.956E-04 -.552E-04 -.287E+02
 
 
 POSITION                                       TOTAL-FORCE (eV/Angst)
 -----------------------------------------------------------------------------------
      0.00000      0.00000      0.00000        -0.000000      0.000000      0.153115
      1.28340      2.22291      0.00000        -0.000000      0.000000      0.153115
     10.26719      4.44582      0.00000        -0.000000      0.000000      0.153115
      2.56680      0.00000      0.00000        -0.000000      0.000000      0.153115
      3.85020      2.22291      0.00000        -0.000000      0.000000      0.153115
      5.13360      4.44582      0.00000        -0.000000      0.000000      0.153115
      5.13360      0.00000      0.00000        -0.000000      0.000000      0.153115
      6.41699      2.22291      0.00000        -0.000000      0.000000      0.153115
      7.70039      4.44582      0.00000        -0.000000      0.000000      0.153115
      1.28340      0.74097      2.09578        -0.000000     -0.000000     -0.157751
      2.56680      2.96388      2.09578        -0.000000     -0.000000     -0.157751
      3.85020      5.18679      2.09578        -0.000000     -0.000000     -0.157751
      3.85020      0.74097      2.09578         0.000000      0.000000     -0.157751
      5.13360      2.96388      2.09578        -0.000000     -0.000000     -0.157751
      6.41699      5.18679      2.09578         0.000000     -0.000000     -0.157751
      6.41699      0.74097      2.09578        -0.000000      0.000000     -0.157751
      7.70039      2.96388      2.09578        -0.000000     -0.000000     -0.157751
      8.98379      5.18679      2.09578         0.000000     -0.000000     -0.157751
      2.56680      1.48194      4.14204        -0.000000     -0.000000      0.012450
      3.85020      3.70485      4.14204        -0.000000     -0.000000      0.012450
      5.13360      5.92777      4.14204        -0.000000     -0.000000      0.012450
      5.13360      1.48194      4.14204         0.000000     -0.000000      0.012450
      6.41699      3.70485      4.14204         0.000000     -0.000000      0.012450
      7.70039      5.92777      4.14204         0.000000     -0.000000      0.012450
      7.70039      1.48194      4.14204        -0.000000      0.000000      0.012450
      8.98379      3.70485      4.14204        -0.000000     -0.000000      0.012450
     10.26719      5.92777      4.14204         0.000000     -0.000000      0.012450
     -0.00000     -0.00000      6.19923         0.000000      0.000000      0.006390
      1.28340      2.22291      6.19923         0.000000      0.000000      0.006390
     10.26719      4.44582      6.19923         0.000000      0.000000      0.006390
      2.56680     -0.00000      6.19923        -0.000000      0.000000      0.006390
      3.85020      2.22291      6.19923        -0.000000      0.000000      0.006390
      5.13360      4.44582      6.19923        -0.000000      0.000000      0.006390
      5.13360     -0.00000      6.19923        -0.000000      0.000000      0.006390
      6.41699      2.22291      6.19923         0.000000      0.000000      0.006390
      7.70039      4.44582      6.19923         0.000000      0.000000      0.006390
      1.28340      0.74097      8.25678         0.000000      0.000000     -0.012477
      2.56680      2.96388      8.25678         0.000000     -0.000000     -0.012477
      3.85020      5.18679      8.25678         0.000000      0.000000     -0.012477
      3.85020      0.74097      8.25678         0.000000      0.000000     -0.012477
      5.13360      2.96388      8.25678         0.000000     -0.000000     -0.012477
      6.41699      5.18679      8.25678         0.000000      0.000000     -0.012477
      6.41699      0.74097      8.25678         0.000000      0.000000     -0.012477
      7.70039      2.96388      8.25678         0.000000     -0.000000     -0.012477
      8.98379      5.18679      8.25678         0.000000     -0.000000     -0.012477
      2.56680      1.48194     10.30627         0.000000      0.000000     -0.003045
      3.85020      3.70485     10.30627         0.000000      0.000000     -0.003045
      5.13360      5.92777     10.30627         0.000000      0.000000     -0.003045
      5.13360      1.48194     10.30627         0.000000      0.000000     -0.003045
      6.41699      3.70485     10.30627         0.000000      0.000000     -0.003045
      7.70039      5.92777     10.30627         0.000000      0.000000     -0.003045
      7.70039      1.48194     10.30627         0.000000     -0.000000     -0.003045
      8.98379      3.70485     10.30627        -0.000000      0.000000     -0.003045
     10.26719      5.92777     10.30627         0.000000      0.000000     -0.003045
     -0.00000     -0.00000     12.36024        -0.000000     -0.000000      0.001318
      1.28340      2.22291     12.36024        -0.000000     -0.000000      0.001318
     10.26719      4.44582     12.36024        -0.000000     -0.000000      0.001318
      2.56680     -0.00000     12.36024         0.000000     -0.000000      0.001318
      3.85020      2.22291     12.36024        -0.000000     -0.000000      0.001318
      5.13360      4.44582     12.36024        -0.000000     -0.000000      0.001318
      5.13360     -0.00000     12.36024        -0.000000     -0.000000      0.001318
      6.41699      2.22291     12.36024         0.000000     -0.000000      0.001318
      7.70039      4.44582     12.36024        -0.000000     -0.000000      0.001318
 -----------------------------------------------------------------------------------
    total drift:                               -0.000083     -0.000002      0.227856


--------------------------------------------------------------------------------------------------------



  FREE ENERGIE OF THE ION-ELECTRON SYSTEM (eV)
  ---------------------------------------------------
  free  energy   TOTEN  =      -252.73230406 eV

  energy  without entropy=     -252.61312400  energy(sigma->0) =     -252.69257737
 
 d Force = 0.1348513E-02[-0.137E-04, 0.271E-02]  d Energy = 0.2156361E-02-0.808E-03
 d Force =-0.4113989E+03[-0.412E+03,-0.411E+03]  d Ewald  =-0.4113989E+03 0.521E-04


--------------------------------------------------------------------------------------------------------


    POTLOK:  cpu time      0.1399: real time      0.1407


--------------------------------------------------------------------------------------------------------


 stress matrix after NEB project (eV)
    -37.35425     -0.00000     -0.00000
     -0.00000    -37.35425     -0.00000
     -0.00000      0.00000     -6.13708
  FORCES: max atom, RMS     0.012477    0.007196
  FORCE total and by dimension    0.057118    0.012477
  Stress total and by dimension   53.182172   37.354248
 Conjugate gradient step on ions:
 trial-energy change:   -0.002156  1 .order   -0.001349   -0.002711    0.000014
  (g-gl).g = 0.440E-02      g.g   = 0.135E-02  gl.gl    = 0.172E-01
 g(Force)  = 0.135E-02   g(Stress)= 0.000E+00 ortho     = 0.227E-03
 gamma     =   0.25640
 trial     =   1.92451
 opt step  =   1.92103  (harmonic =   1.91485) maximal distance =0.00000000
 next E    =  -252.732304   (d E  =  -0.00216)


--------------------------------------------------------------------------------------------------------


  
 reached required accuracy - stopping structural energy minimisation
     LOOP+:  cpu time    205.2347: real time    207.1474
    4ORBIT:  cpu time      0.0000: real time      0.0000

 total amount of memory used by VASP MPI-rank0   110180. kBytes
=======================================================================

   base      :      30000. kBytes
   nonl-proj :       7413. kBytes
   fftplans  :       4394. kBytes
   grid      :      10081. kBytes
   one-center:        404. kBytes
   wavefun   :      57888. kBytes
 
  
  
 General timing and accounting informations for this job:
 ========================================================
  
                  Total CPU time used (sec):     6938.427
                            User time (sec):     6823.505
                          System time (sec):      114.923
                         Elapsed time (sec):     7001.861
  
                   Maximum memory used (kb):      423248.
                   Average memory used (kb):          N/A
  
                          Minor page faults:      4699699
                          Major page faults:         6884
                 Voluntary context switches:        73101
