  20  20   0   0
  0.3751886E+02  0.7260000E-09  0.5133596E-09  0.2013360E-08  0.5000000E-15
  1.000000000000000E-004
  CAR 
 unknown system                          
      9.41948787    -11.08860335  301     -0.44723842      1.00000000
    -11.089  0.0000E+00  0.0000E+00  0.0000E+00  0.0000E+00
    -11.020  0.0000E+00  0.0000E+00  0.0000E+00  0.0000E+00
    -10.952  0.0000E+00  0.0000E+00  0.0000E+00  0.0000E+00
    -10.884  0.0000E+00  0.0000E+00  0.0000E+00  0.0000E+00
    -10.815  0.0000E+00  0.0000E+00  0.0000E+00  0.0000E+00
    -10.747 -0.6656E-32 -0.6656E-32 -0.4550E-33 -0.4550E-33
    -10.678 -0.1636E-29 -0.1636E-29 -0.1123E-30 -0.1123E-30
    -10.610 -0.3189E-27 -0.3189E-27 -0.2191E-28 -0.2191E-28
    -10.542 -0.4907E-25 -0.4907E-25 -0.3376E-26 -0.3376E-26
    -10.473 -0.5963E-23 -0.5963E-23 -0.4110E-24 -0.4110E-24
    -10.405 -0.5719E-21 -0.5719E-21 -0.3951E-22 -0.3951E-22
    -10.337 -0.4328E-19 -0.4328E-19 -0.2998E-20 -0.2998E-20
    -10.268 -0.2471E-17 -0.2471E-17 -0.1719E-18 -0.1719E-18
    -10.200 -0.1177E-15 -0.1177E-15 -0.8218E-17 -0.8218E-17
    -10.132 -0.4340E-14 -0.4340E-14 -0.3049E-15 -0.3049E-15
    -10.063 -0.1259E-12 -0.1259E-12 -0.8909E-14 -0.8909E-14
     -9.995 -0.2866E-11 -0.2866E-11 -0.2048E-12 -0.2048E-12
     -9.926 -0.5113E-10 -0.5113E-10 -0.3700E-11 -0.3700E-11
     -9.858 -0.7129E-09 -0.7129E-09 -0.5244E-10 -0.5244E-10
     -9.790 -0.7743E-08 -0.7743E-08 -0.5817E-09 -0.5817E-09
     -9.721 -0.6516E-07 -0.6516E-07 -0.5036E-08 -0.5036E-08
     -9.653 -0.4217E-06 -0.4217E-06 -0.3386E-07 -0.3386E-07
     -9.585 -0.2072E-05 -0.2072E-05 -0.1755E-06 -0.1755E-06
     -9.516 -0.7557E-05 -0.7557E-05 -0.6921E-06 -0.6921E-06
     -9.448 -0.1948E-04 -0.1948E-04 -0.2024E-05 -0.2024E-05
     -9.380 -0.3080E-04 -0.3080E-04 -0.4129E-05 -0.4129E-05
     -9.311 -0.8711E-05 -0.8711E-05 -0.4725E-05 -0.4725E-05
     -9.243  0.9732E-04  0.9732E-04  0.1928E-05  0.1928E-05
     -9.175  0.2913E-03  0.2913E-03  0.2184E-04  0.2184E-04
     -9.106  0.4714E-03  0.4714E-03  0.5407E-04  0.5407E-04
     -9.038  0.5117E-03  0.5117E-03  0.8905E-04  0.8905E-04
     -8.969  0.4499E-03  0.4499E-03  0.1198E-03  0.1198E-03
     -8.901  0.4972E-03  0.4972E-03  0.1538E-03  0.1538E-03
     -8.833  0.7579E-03  0.7579E-03  0.2056E-03  0.2056E-03
     -8.764  0.1025E-02  0.1025E-02  0.2757E-03  0.2757E-03
     -8.696  0.1020E-02  0.1020E-02  0.3454E-03  0.3454E-03
     -8.628  0.7917E-03  0.7917E-03  0.3995E-03  0.3995E-03
     -8.559  0.6726E-03  0.6726E-03  0.4455E-03  0.4455E-03
     -8.491  0.8067E-03  0.8067E-03  0.5007E-03  0.5007E-03
     -8.423  0.9630E-03  0.9630E-03  0.5665E-03  0.5665E-03
     -8.354  0.9496E-03  0.9496E-03  0.6314E-03  0.6314E-03
     -8.286  0.9913E-03  0.9913E-03  0.6992E-03  0.6992E-03
     -8.217  0.1403E-02  0.1403E-02  0.7951E-03  0.7951E-03
     -8.149  0.1993E-02  0.1993E-02  0.9314E-03  0.9314E-03
     -8.081  0.2183E-02  0.2183E-02  0.1081E-02  0.1081E-02
     -8.012  0.1787E-02  0.1787E-02  0.1203E-02  0.1203E-02
     -7.944  0.1266E-02  0.1266E-02  0.1289E-02  0.1289E-02
     -7.876  0.1060E-02  0.1060E-02  0.1362E-02  0.1362E-02
     -7.807  0.1047E-02  0.1047E-02  0.1433E-02  0.1433E-02
     -7.739  0.8719E-03  0.8719E-03  0.1493E-02  0.1493E-02
     -7.671  0.4703E-03  0.4703E-03  0.1525E-02  0.1525E-02
     -7.602  0.6186E-04  0.6186E-04  0.1529E-02  0.1529E-02
     -7.534 -0.1606E-03 -0.1606E-03  0.1518E-02  0.1518E-02
     -7.466 -0.9246E-04 -0.9246E-04  0.1512E-02  0.1512E-02
     -7.397  0.3790E-03  0.3790E-03  0.1538E-02  0.1538E-02
     -7.329  0.1239E-02  0.1239E-02  0.1623E-02  0.1623E-02
     -7.260  0.2107E-02  0.2107E-02  0.1767E-02  0.1767E-02
     -7.192  0.2424E-02  0.2424E-02  0.1932E-02  0.1932E-02
     -7.124  0.2010E-02  0.2010E-02  0.2070E-02  0.2070E-02
     -7.055  0.1243E-02  0.1243E-02  0.2155E-02  0.2155E-02
     -6.987  0.6766E-03  0.6766E-03  0.2201E-02  0.2201E-02
     -6.919  0.6277E-03  0.6277E-03  0.2244E-02  0.2244E-02
     -6.850  0.1052E-02  0.1052E-02  0.2316E-02  0.2316E-02
     -6.782  0.1621E-02  0.1621E-02  0.2427E-02  0.2427E-02
     -6.714  0.2051E-02  0.2051E-02  0.2567E-02  0.2567E-02
     -6.645  0.2448E-02  0.2448E-02  0.2734E-02  0.2734E-02
     -6.577  0.3109E-02  0.3109E-02  0.2947E-02  0.2947E-02
     -6.508  0.3899E-02  0.3899E-02  0.3213E-02  0.3213E-02
     -6.440  0.4252E-02  0.4252E-02  0.3504E-02  0.3504E-02
     -6.372  0.3975E-02  0.3975E-02  0.3776E-02  0.3776E-02
     -6.303  0.3557E-02  0.3557E-02  0.4019E-02  0.4019E-02
     -6.235  0.3442E-02  0.3442E-02  0.4254E-02  0.4254E-02
     -6.167  0.3466E-02  0.3466E-02  0.4491E-02  0.4491E-02
     -6.098  0.3321E-02  0.3321E-02  0.4718E-02  0.4718E-02
     -6.030  0.3141E-02  0.3141E-02  0.4933E-02  0.4933E-02
     -5.962  0.3240E-02  0.3240E-02  0.5154E-02  0.5154E-02
     -5.893  0.3453E-02  0.3453E-02  0.5390E-02  0.5390E-02
     -5.825  0.3286E-02  0.3286E-02  0.5615E-02  0.5615E-02
     -5.756  0.2754E-02  0.2754E-02  0.5803E-02  0.5803E-02
     -5.688  0.2437E-02  0.2437E-02  0.5970E-02  0.5970E-02
     -5.620  0.2564E-02  0.2564E-02  0.6145E-02  0.6145E-02
     -5.551  0.2723E-02  0.2723E-02  0.6331E-02  0.6331E-02
     -5.483  0.2675E-02  0.2675E-02  0.6514E-02  0.6514E-02
     -5.415  0.2846E-02  0.2846E-02  0.6709E-02  0.6709E-02
     -5.346  0.3813E-02  0.3813E-02  0.6969E-02  0.6969E-02
     -5.278  0.5741E-02  0.5741E-02  0.7362E-02  0.7362E-02
     -5.210  0.8357E-02  0.8357E-02  0.7933E-02  0.7933E-02
     -5.141  0.1106E-01  0.1106E-01  0.8689E-02  0.8689E-02
     -5.073  0.1306E-01  0.1306E-01  0.9582E-02  0.9582E-02
     -5.005  0.1376E-01  0.1376E-01  0.1052E-01  0.1052E-01
     -4.936  0.1344E-01  0.1344E-01  0.1144E-01  0.1144E-01
     -4.868  0.1331E-01  0.1331E-01  0.1235E-01  0.1235E-01
     -4.799  0.1455E-01  0.1455E-01  0.1335E-01  0.1335E-01
     -4.731  0.1705E-01  0.1705E-01  0.1451E-01  0.1451E-01
     -4.663  0.1967E-01  0.1967E-01  0.1586E-01  0.1586E-01
     -4.594  0.2166E-01  0.2166E-01  0.1734E-01  0.1734E-01
     -4.526  0.2330E-01  0.2330E-01  0.1893E-01  0.1893E-01
     -4.458  0.2476E-01  0.2476E-01  0.2062E-01  0.2062E-01
     -4.389  0.2545E-01  0.2545E-01  0.2236E-01  0.2236E-01
     -4.321  0.2489E-01  0.2489E-01  0.2406E-01  0.2406E-01
     -4.253  0.2354E-01  0.2354E-01  0.2567E-01  0.2567E-01
     -4.184  0.2255E-01  0.2255E-01  0.2721E-01  0.2721E-01
     -4.116  0.2282E-01  0.2282E-01  0.2877E-01  0.2877E-01
     -4.047  0.2437E-01  0.2437E-01  0.3044E-01  0.3044E-01
     -3.979  0.2665E-01  0.2665E-01  0.3226E-01  0.3226E-01
     -3.911  0.2933E-01  0.2933E-01  0.3426E-01  0.3426E-01
     -3.842  0.3238E-01  0.3238E-01  0.3648E-01  0.3648E-01
     -3.774  0.3539E-01  0.3539E-01  0.3890E-01  0.3890E-01
     -3.706  0.3749E-01  0.3749E-01  0.4146E-01  0.4146E-01
     -3.637  0.3809E-01  0.3809E-01  0.4406E-01  0.4406E-01
     -3.569  0.3755E-01  0.3755E-01  0.4663E-01  0.4663E-01
     -3.501  0.3737E-01  0.3737E-01  0.4919E-01  0.4919E-01
     -3.432  0.3946E-01  0.3946E-01  0.5188E-01  0.5188E-01
     -3.364  0.4437E-01  0.4437E-01  0.5492E-01  0.5492E-01
     -3.296  0.5021E-01  0.5021E-01  0.5835E-01  0.5835E-01
     -3.227  0.5384E-01  0.5384E-01  0.6203E-01  0.6203E-01
     -3.159  0.5312E-01  0.5312E-01  0.6566E-01  0.6566E-01
     -3.090  0.4813E-01  0.4813E-01  0.6895E-01  0.6895E-01
     -3.022  0.4093E-01  0.4093E-01  0.7175E-01  0.7175E-01
     -2.954  0.3444E-01  0.3444E-01  0.7410E-01  0.7410E-01
     -2.885  0.3161E-01  0.3161E-01  0.7626E-01  0.7626E-01
     -2.817  0.3433E-01  0.3433E-01  0.7861E-01  0.7861E-01
     -2.749  0.4175E-01  0.4175E-01  0.8146E-01  0.8146E-01
     -2.680  0.5012E-01  0.5012E-01  0.8489E-01  0.8489E-01
     -2.612  0.5557E-01  0.5557E-01  0.8869E-01  0.8869E-01
     -2.544  0.5675E-01  0.5675E-01  0.9257E-01  0.9257E-01
     -2.475  0.5502E-01  0.5502E-01  0.9633E-01  0.9633E-01
     -2.407  0.5325E-01  0.5325E-01  0.9997E-01  0.9997E-01
     -2.338  0.5436E-01  0.5436E-01  0.1037E+00  0.1037E+00
     -2.270  0.5908E-01  0.5908E-01  0.1077E+00  0.1077E+00
     -2.202  0.6491E-01  0.6491E-01  0.1122E+00  0.1122E+00
     -2.133  0.6814E-01  0.6814E-01  0.1168E+00  0.1168E+00
     -2.065  0.6648E-01  0.6648E-01  0.1214E+00  0.1214E+00
     -1.997  0.5931E-01  0.5931E-01  0.1254E+00  0.1254E+00
     -1.928  0.4708E-01  0.4708E-01  0.1286E+00  0.1286E+00
     -1.860  0.3201E-01  0.3201E-01  0.1308E+00  0.1308E+00
     -1.792  0.1797E-01  0.1797E-01  0.1321E+00  0.1321E+00
     -1.723  0.8253E-02  0.8253E-02  0.1326E+00  0.1326E+00
     -1.655  0.3487E-02  0.3487E-02  0.1329E+00  0.1329E+00
     -1.587  0.2011E-02  0.2011E-02  0.1330E+00  0.1330E+00
     -1.518  0.1891E-02  0.1891E-02  0.1331E+00  0.1331E+00
     -1.450  0.2317E-02  0.2317E-02  0.1333E+00  0.1333E+00
     -1.381  0.3289E-02  0.3289E-02  0.1335E+00  0.1335E+00
     -1.313  0.4573E-02  0.4573E-02  0.1338E+00  0.1338E+00
     -1.245  0.5437E-02  0.5437E-02  0.1342E+00  0.1342E+00
     -1.176  0.5335E-02  0.5335E-02  0.1346E+00  0.1346E+00
     -1.108  0.4516E-02  0.4516E-02  0.1349E+00  0.1349E+00
     -1.040  0.3790E-02  0.3790E-02  0.1351E+00  0.1351E+00
     -0.971  0.3690E-02  0.3690E-02  0.1354E+00  0.1354E+00
     -0.903  0.4005E-02  0.4005E-02  0.1356E+00  0.1356E+00
     -0.835  0.4147E-02  0.4147E-02  0.1359E+00  0.1359E+00
     -0.766  0.3815E-02  0.3815E-02  0.1362E+00  0.1362E+00
     -0.698  0.3273E-02  0.3273E-02  0.1364E+00  0.1364E+00
     -0.629  0.3083E-02  0.3083E-02  0.1366E+00  0.1366E+00
     -0.561  0.3665E-02  0.3665E-02  0.1369E+00  0.1369E+00
     -0.493  0.4973E-02  0.4973E-02  0.1372E+00  0.1372E+00
     -0.424  0.6403E-02  0.6403E-02  0.1377E+00  0.1377E+00
     -0.356  0.7027E-02  0.7027E-02  0.1381E+00  0.1381E+00
     -0.288  0.6251E-02  0.6251E-02  0.1386E+00  0.1386E+00
     -0.219  0.4453E-02  0.4453E-02  0.1389E+00  0.1389E+00
     -0.151  0.2776E-02  0.2776E-02  0.1391E+00  0.1391E+00
     -0.083  0.2176E-02  0.2176E-02  0.1392E+00  0.1392E+00
     -0.014  0.2751E-02  0.2751E-02  0.1394E+00  0.1394E+00
      0.054  0.3868E-02  0.3868E-02  0.1397E+00  0.1397E+00
      0.122  0.4672E-02  0.4672E-02  0.1400E+00  0.1400E+00
      0.191  0.4635E-02  0.4635E-02  0.1403E+00  0.1403E+00
      0.259  0.3914E-02  0.3914E-02  0.1406E+00  0.1406E+00
      0.328  0.3192E-02  0.3192E-02  0.1408E+00  0.1408E+00
      0.396  0.3035E-02  0.3035E-02  0.1410E+00  0.1410E+00
      0.464  0.3469E-02  0.3469E-02  0.1412E+00  0.1412E+00
      0.533  0.4188E-02  0.4188E-02  0.1415E+00  0.1415E+00
      0.601  0.5018E-02  0.5018E-02  0.1419E+00  0.1419E+00
      0.669  0.6002E-02  0.6002E-02  0.1423E+00  0.1423E+00
      0.738  0.7004E-02  0.7004E-02  0.1427E+00  0.1427E+00
      0.806  0.7559E-02  0.7559E-02  0.1433E+00  0.1433E+00
      0.874  0.7376E-02  0.7376E-02  0.1438E+00  0.1438E+00
      0.943  0.6609E-02  0.6609E-02  0.1442E+00  0.1442E+00
      1.011  0.5384E-02  0.5384E-02  0.1446E+00  0.1446E+00
      1.080  0.3670E-02  0.3670E-02  0.1448E+00  0.1448E+00
      1.148  0.1930E-02  0.1930E-02  0.1450E+00  0.1450E+00
      1.216  0.1191E-02  0.1191E-02  0.1450E+00  0.1450E+00
      1.285  0.2042E-02  0.2042E-02  0.1452E+00  0.1452E+00
      1.353  0.3878E-02  0.3878E-02  0.1455E+00  0.1455E+00
      1.421  0.5371E-02  0.5371E-02  0.1458E+00  0.1458E+00
      1.490  0.5659E-02  0.5659E-02  0.1462E+00  0.1462E+00
      1.558  0.5004E-02  0.5004E-02  0.1465E+00  0.1465E+00
      1.626  0.4226E-02  0.4226E-02  0.1468E+00  0.1468E+00
      1.695  0.3666E-02  0.3666E-02  0.1471E+00  0.1471E+00
      1.763  0.3053E-02  0.3053E-02  0.1473E+00  0.1473E+00
      1.831  0.2302E-02  0.2302E-02  0.1475E+00  0.1475E+00
      1.900  0.1858E-02  0.1858E-02  0.1476E+00  0.1476E+00
      1.968  0.2041E-02  0.2041E-02  0.1477E+00  0.1477E+00
      2.037  0.2534E-02  0.2534E-02  0.1479E+00  0.1479E+00
      2.105  0.2814E-02  0.2814E-02  0.1481E+00  0.1481E+00
      2.173  0.2815E-02  0.2815E-02  0.1483E+00  0.1483E+00
      2.242  0.2884E-02  0.2884E-02  0.1485E+00  0.1485E+00
      2.310  0.3275E-02  0.3275E-02  0.1487E+00  0.1487E+00
      2.378  0.3901E-02  0.3901E-02  0.1490E+00  0.1490E+00
      2.447  0.4533E-02  0.4533E-02  0.1493E+00  0.1493E+00
      2.515  0.5110E-02  0.5111E-02  0.1496E+00  0.1496E+00
      2.583  0.5756E-02  0.5756E-02  0.1500E+00  0.1500E+00
      2.652  0.6435E-02  0.6435E-02  0.1505E+00  0.1505E+00
      2.720  0.6797E-02  0.6797E-02  0.1509E+00  0.1509E+00
      2.789  0.6481E-02  0.6481E-02  0.1514E+00  0.1514E+00
      2.857  0.5415E-02  0.5415E-02  0.1517E+00  0.1517E+00
      2.925  0.3826E-02  0.3825E-02  0.1520E+00  0.1520E+00
      2.994  0.2214E-02  0.2214E-02  0.1521E+00  0.1521E+00
      3.062  0.1276E-02  0.1277E-02  0.1522E+00  0.1522E+00
      3.130  0.1545E-02  0.1545E-02  0.1523E+00  0.1523E+00
      3.199  0.3063E-02  0.3063E-02  0.1526E+00  0.1526E+00
      3.267  0.5395E-02  0.5396E-02  0.1529E+00  0.1529E+00
      3.335  0.7645E-02  0.7645E-02  0.1534E+00  0.1534E+00
      3.404  0.8545E-02  0.8545E-02  0.1540E+00  0.1540E+00
      3.472  0.7297E-02  0.7297E-02  0.1545E+00  0.1545E+00
      3.541  0.4560E-02  0.4559E-02  0.1548E+00  0.1548E+00
      3.609  0.2049E-02  0.2049E-02  0.1550E+00  0.1550E+00
      3.677  0.1060E-02  0.1061E-02  0.1551E+00  0.1551E+00
      3.746  0.1576E-02  0.1577E-02  0.1552E+00  0.1552E+00
      3.814  0.2582E-02  0.2583E-02  0.1553E+00  0.1553E+00
      3.882  0.3043E-02  0.3044E-02  0.1555E+00  0.1555E+00
      3.951  0.2785E-02  0.2786E-02  0.1557E+00  0.1557E+00
      4.019  0.2491E-02  0.2492E-02  0.1559E+00  0.1559E+00
      4.087  0.2843E-02  0.2844E-02  0.1561E+00  0.1561E+00
      4.156  0.3875E-02  0.3876E-02  0.1564E+00  0.1564E+00
      4.224  0.5103E-02  0.5102E-02  0.1567E+00  0.1567E+00
      4.292  0.5923E-02  0.5921E-02  0.1571E+00  0.1571E+00
      4.361  0.5969E-02  0.5968E-02  0.1575E+00  0.1575E+00
      4.429  0.5429E-02  0.5430E-02  0.1579E+00  0.1579E+00
      4.498  0.4982E-02  0.4984E-02  0.1582E+00  0.1582E+00
      4.566  0.5274E-02  0.5276E-02  0.1586E+00  0.1586E+00
      4.634  0.6543E-02  0.6545E-02  0.1590E+00  0.1590E+00
      4.703  0.8546E-02  0.8549E-02  0.1596E+00  0.1596E+00
      4.771  0.1049E-01  0.1049E-01  0.1603E+00  0.1603E+00
      4.839  0.1127E-01  0.1127E-01  0.1611E+00  0.1611E+00
      4.908  0.1046E-01  0.1046E-01  0.1618E+00  0.1618E+00
      4.976  0.8864E-02  0.8858E-02  0.1624E+00  0.1624E+00
      5.044  0.7665E-02  0.7660E-02  0.1630E+00  0.1630E+00
      5.113  0.7357E-02  0.7355E-02  0.1635E+00  0.1635E+00
      5.181  0.7711E-02  0.7712E-02  0.1640E+00  0.1640E+00
      5.250  0.8154E-02  0.8157E-02  0.1645E+00  0.1645E+00
      5.318  0.7894E-02  0.7897E-02  0.1651E+00  0.1651E+00
      5.386  0.6505E-02  0.6507E-02  0.1655E+00  0.1655E+00
      5.455  0.4729E-02  0.4728E-02  0.1659E+00  0.1659E+00
      5.523  0.3986E-02  0.3984E-02  0.1661E+00  0.1661E+00
      5.591  0.4774E-02  0.4772E-02  0.1665E+00  0.1665E+00
      5.660  0.6049E-02  0.6048E-02  0.1669E+00  0.1669E+00
      5.728  0.6498E-02  0.6498E-02  0.1673E+00  0.1673E+00
      5.796  0.5997E-02  0.6000E-02  0.1677E+00  0.1677E+00
      5.865  0.5494E-02  0.5500E-02  0.1681E+00  0.1681E+00
      5.933  0.5702E-02  0.5708E-02  0.1685E+00  0.1685E+00
      6.001  0.6307E-02  0.6309E-02  0.1689E+00  0.1689E+00
      6.070  0.6598E-02  0.6593E-02  0.1694E+00  0.1694E+00
      6.138  0.6570E-02  0.6565E-02  0.1698E+00  0.1698E+00
      6.207  0.6960E-02  0.6959E-02  0.1703E+00  0.1703E+00
      6.275  0.8207E-02  0.8210E-02  0.1709E+00  0.1709E+00
      6.343  0.9826E-02  0.9829E-02  0.1715E+00  0.1715E+00
      6.412  0.1090E-01  0.1090E-01  0.1723E+00  0.1723E+00
      6.480  0.1101E-01  0.1101E-01  0.1730E+00  0.1730E+00
      6.548  0.1061E-01  0.1061E-01  0.1738E+00  0.1738E+00
      6.617  0.1032E-01  0.1032E-01  0.1745E+00  0.1745E+00
      6.685  0.1019E-01  0.1020E-01  0.1752E+00  0.1752E+00
      6.753  0.9907E-02  0.9907E-02  0.1758E+00  0.1758E+00
      6.822  0.9490E-02  0.9488E-02  0.1765E+00  0.1765E+00
      6.890  0.9294E-02  0.9293E-02  0.1771E+00  0.1771E+00
      6.959  0.9259E-02  0.9258E-02  0.1777E+00  0.1777E+00
      7.027  0.8808E-02  0.8806E-02  0.1783E+00  0.1784E+00
      7.095  0.7572E-02  0.7569E-02  0.1789E+00  0.1789E+00
      7.164  0.5804E-02  0.5800E-02  0.1793E+00  0.1793E+00
      7.232  0.4021E-02  0.4019E-02  0.1795E+00  0.1795E+00
      7.300  0.2602E-02  0.2602E-02  0.1797E+00  0.1797E+00
      7.369  0.1700E-02  0.1701E-02  0.1798E+00  0.1798E+00
      7.437  0.1206E-02  0.1206E-02  0.1799E+00  0.1799E+00
      7.505  0.8410E-03  0.8394E-03  0.1800E+00  0.1800E+00
      7.574  0.4535E-03  0.4510E-03  0.1800E+00  0.1800E+00
      7.642  0.1230E-03  0.1212E-03  0.1800E+00  0.1800E+00
      7.710 -0.4361E-04 -0.4424E-04  0.1800E+00  0.1800E+00
      7.779 -0.6851E-04 -0.6848E-04  0.1800E+00  0.1800E+00
      7.847 -0.4033E-04 -0.4017E-04  0.1800E+00  0.1800E+00
      7.916 -0.1532E-04 -0.1522E-04  0.1800E+00  0.1800E+00
      7.984 -0.4168E-05 -0.4135E-05  0.1800E+00  0.1800E+00
      8.052 -0.8456E-06 -0.8374E-06  0.1800E+00  0.1800E+00
      8.121 -0.1305E-06 -0.1290E-06  0.1800E+00  0.1800E+00
      8.189 -0.1549E-07 -0.1530E-07  0.1800E+00  0.1800E+00
      8.257 -0.1426E-08 -0.1406E-08  0.1800E+00  0.1800E+00
      8.326 -0.1023E-09 -0.1007E-09  0.1800E+00  0.1800E+00
      8.394 -0.5732E-11 -0.5636E-11  0.1800E+00  0.1800E+00
      8.462 -0.2517E-12 -0.2472E-12  0.1800E+00  0.1800E+00
      8.531 -0.8681E-14 -0.8511E-14  0.1800E+00  0.1800E+00
      8.599 -0.2346E-15 -0.2301E-15  0.1800E+00  0.1800E+00
      8.668 -0.5414E-17 -0.5414E-17  0.1800E+00  0.1800E+00
      8.736  0.0000E+00  0.0000E+00  0.1800E+00  0.1800E+00
      8.804  0.0000E+00  0.0000E+00  0.1800E+00  0.1800E+00
      8.873  0.0000E+00  0.0000E+00  0.1800E+00  0.1800E+00
      8.941  0.0000E+00  0.0000E+00  0.1800E+00  0.1800E+00
      9.009  0.0000E+00  0.0000E+00  0.1800E+00  0.1800E+00
      9.078  0.0000E+00  0.0000E+00  0.1800E+00  0.1800E+00
      9.146  0.0000E+00  0.0000E+00  0.1800E+00  0.1800E+00
      9.214  0.0000E+00  0.0000E+00  0.1800E+00  0.1800E+00
      9.283  0.0000E+00  0.0000E+00  0.1800E+00  0.1800E+00
      9.351  0.0000E+00  0.0000E+00  0.1800E+00  0.1800E+00
      9.419  0.0000E+00  0.0000E+00  0.1800E+00  0.1800E+00
