       N       E                     dE             d eps       ncg     rms          rms(c)
DAV:   1     0.187984188406E+04    0.18798E+04   -0.78349E+04  2304   0.151E+03
DAV:   2     0.146207213393E+03   -0.17336E+04   -0.16609E+04  2304   0.365E+02
DAV:   3    -0.677852308115E+02   -0.21399E+03   -0.19344E+03  2376   0.179E+02
DAV:   4    -0.788198809796E+02   -0.11035E+02   -0.10849E+02  2584   0.570E+01
DAV:   5    -0.790634566613E+02   -0.24358E+00   -0.24316E+00  2640   0.721E+00    0.398E+01
DAV:   6    -0.624614814087E+02    0.16602E+02   -0.20290E+02  2432   0.120E+02    0.207E+01
DAV:   7    -0.520871571995E+02    0.10374E+02   -0.54428E+01  2576   0.850E+01    0.983E+00
DAV:   8    -0.502276306945E+02    0.18595E+01   -0.13447E+01  2616   0.632E+01    0.825E+00
DAV:   9    -0.487085553747E+02    0.15191E+01   -0.45976E+00  3192   0.319E+01    0.592E+00
DAV:  10    -0.495251204267E+02   -0.81657E+00   -0.54548E+00  2920   0.185E+01    0.537E+00
DAV:  11    -0.502106956188E+02   -0.68558E+00   -0.13434E+00  2536   0.194E+01    0.373E+00
DAV:  12    -0.533500814621E+02   -0.31394E+01   -0.23206E+00  2648   0.131E+01    0.237E+00
DAV:  13    -0.595690424461E+02   -0.62190E+01   -0.42404E+00  2680   0.766E+00    0.219E+00
DAV:  14    -0.640650178725E+02   -0.44960E+01   -0.52749E+00  2592   0.982E+00    0.169E+00
DAV:  15    -0.653911766039E+02   -0.13262E+01   -0.80554E-01  2720   0.405E+00    0.111E+00
DAV:  16    -0.659745893997E+02   -0.58341E+00   -0.36487E-01  3040   0.369E+00    0.623E-01
DAV:  17    -0.662758255906E+02   -0.30124E+00   -0.95515E-02  2832   0.383E+00    0.484E-01
DAV:  18    -0.664885389968E+02   -0.21271E+00   -0.58691E-02  2864   0.336E+00    0.411E-01
DAV:  19    -0.666020857031E+02   -0.11355E+00   -0.39000E-02  3208   0.202E+00    0.228E-01
DAV:  20    -0.668121570124E+02   -0.21007E+00   -0.16388E-02  2928   0.126E+00    0.250E-01
DAV:  21    -0.669727458181E+02   -0.16059E+00   -0.58343E-03  2728   0.119E+00    0.154E-01
DAV:  22    -0.670761180268E+02   -0.10337E+00   -0.93472E-03  3024   0.891E-01    0.161E-01
DAV:  23    -0.671032828933E+02   -0.27165E-01   -0.17814E-03  2616   0.492E-01    0.606E-02
DAV:  24    -0.671179861822E+02   -0.14703E-01   -0.11625E-03  2192   0.182E-01    0.340E-02
DAV:  25    -0.671259987537E+02   -0.80126E-02   -0.50342E-04  1720   0.143E-01    0.238E-02
DAV:  26    -0.671271208720E+02   -0.11221E-02   -0.18200E-04  1568   0.100E-01    0.152E-02
DAV:  27    -0.671274982957E+02   -0.37742E-03   -0.87240E-05  1544   0.483E-02    0.609E-03
DAV:  28    -0.671275597149E+02   -0.61419E-04   -0.22109E-05  1520   0.276E-02
   1 F= -.73162191E+02 E0= -.73147701E+02  d E =-.731622E+02  mag=    -0.0008
       N       E                     dE             d eps       ncg     rms          rms(c)
DAV:   1    -0.671458958434E+02   -0.18398E-01   -0.17175E+01  2528   0.110E+01    0.418E-01
DAV:   2    -0.671782393424E+02   -0.32343E-01   -0.34749E-01  3488   0.537E+00    0.560E-01
DAV:   3    -0.671746986877E+02    0.35407E-02   -0.24895E-02  2520   0.368E+00    0.229E-01
DAV:   4    -0.671747369391E+02   -0.38251E-04   -0.62421E-03  2416   0.806E-01    0.207E-01
DAV:   5    -0.671744919338E+02    0.24501E-03   -0.19430E-03  2408   0.714E-01    0.163E-01
DAV:   6    -0.671741662455E+02    0.32569E-03   -0.15605E-03  2560   0.673E-01    0.573E-02
DAV:   7    -0.671742398855E+02   -0.73640E-04   -0.85868E-04  1984   0.431E-01
   2 F= -.73215935E+02 E0= -.73201456E+02  d E =-.537446E-01  mag=    -0.0003
       N       E                     dE             d eps       ncg     rms          rms(c)
DAV:   1    -0.669520279398E+02    0.22214E+00   -0.13945E+02  2552   0.333E+01    0.126E+00
DAV:   2    -0.672543795126E+02   -0.30235E+00   -0.32223E+00  3632   0.164E+01    0.164E+00
DAV:   3    -0.672180825586E+02    0.36297E-01   -0.18016E-01  2528   0.109E+01    0.627E-01
DAV:   4    -0.672190640777E+02   -0.98152E-03   -0.54217E-02  2400   0.221E+00    0.572E-01
DAV:   5    -0.672174778321E+02    0.15862E-02   -0.15925E-02  2504   0.202E+00    0.467E-01
DAV:   6    -0.672147543936E+02    0.27234E-02   -0.16260E-02  3744   0.175E+00    0.173E-01
DAV:   7    -0.672149284326E+02   -0.17404E-03   -0.42606E-03  2928   0.116E+00    0.162E-01
DAV:   8    -0.672146079950E+02    0.32044E-03   -0.14314E-03  2384   0.934E-01    0.921E-02
DAV:   9    -0.672145300958E+02    0.77899E-04   -0.33732E-04  1464   0.376E-01
   3 F= -.73276525E+02 E0= -.73263145E+02  d E =-.114334E+00  mag=    -0.0001
       N       E                     dE             d eps       ncg     rms          rms(c)
DAV:   1    -0.672152459926E+02   -0.63800E-03   -0.70517E-01  2536   0.223E+00    0.496E-02
DAV:   2    -0.672164882482E+02   -0.12423E-02   -0.12698E-02  3304   0.592E-01    0.772E-02
DAV:   3    -0.672164384902E+02    0.49758E-04   -0.24167E-04  1456   0.255E-01
   4 F= -.73276937E+02 E0= -.73263438E+02  d E =-.114746E+00  mag=    -0.0001
       N       E                     dE             d eps       ncg     rms          rms(c)
DAV:   1    -0.672155196736E+02    0.96857E-03   -0.11460E-01  2528   0.908E-01    0.470E-02
DAV:   2    -0.672156982023E+02   -0.17853E-03   -0.17803E-03  2992   0.320E-01
   5 F= -.73276801E+02 E0= -.73263270E+02  d E =-.114611E+00  mag=    -0.0000
       N       E                     dE             d eps       ncg     rms          rms(c)
DAV:   1    -0.672161132831E+02   -0.59361E-03   -0.39300E-02  3096   0.642E-01    0.281E-02
DAV:   2    -0.672161328719E+02   -0.19589E-04   -0.18929E-04  1392   0.447E-01
   6 F= -.73276882E+02 E0= -.73263332E+02  d E =-.114691E+00  mag=    -0.0000
       N       E                     dE             d eps       ncg     rms          rms(c)
DAV:   1    -0.672105602463E+02    0.55530E-02   -0.48806E+00  2496   0.596E+00    0.143E-01
DAV:   2    -0.672188112103E+02   -0.82510E-02   -0.84937E-02  3344   0.204E+00    0.211E-01
DAV:   3    -0.672185923487E+02    0.21886E-03   -0.50336E-03  2432   0.126E+00    0.120E-01
DAV:   4    -0.672185775911E+02    0.14758E-04   -0.11274E-03  2208   0.417E-01
   7 F= -.73286811E+02 E0= -.73273480E+02  d E =-.992926E-02  mag=    -0.0000
       N       E                     dE             d eps       ncg     rms          rms(c)
DAV:   1    -0.671404981032E+02    0.78094E-01   -0.44173E+01  2496   0.182E+01    0.513E-01
DAV:   2    -0.672231556288E+02   -0.82658E-01   -0.85746E-01  3456   0.729E+00    0.742E-01
DAV:   3    -0.672179670868E+02    0.51885E-02   -0.43560E-02  2560   0.454E+00    0.397E-01
DAV:   4    -0.672177674524E+02    0.19963E-03   -0.12871E-02  2416   0.134E+00    0.376E-01
DAV:   5    -0.672157115094E+02    0.20559E-02   -0.69704E-03  2576   0.124E+00    0.223E-01
DAV:   6    -0.672153343075E+02    0.37720E-03   -0.69383E-03  3072   0.149E+00    0.967E-02
DAV:   7    -0.672153326929E+02    0.16146E-05   -0.16265E-03  2600   0.762E-01
   8 F= -.73305991E+02 E0= -.73293439E+02  d E =-.291093E-01  mag=    -0.0000
       N       E                     dE             d eps       ncg     rms          rms(c)
DAV:   1    -0.668502378313E+02    0.36510E+00   -0.18027E+02  2576   0.385E+01    0.112E+00
DAV:   2    -0.672199988275E+02   -0.36976E+00   -0.37815E+00  3520   0.182E+01    0.178E+00
DAV:   3    -0.671802922427E+02    0.39707E-01   -0.19647E-01  2880   0.108E+01    0.772E-01
DAV:   4    -0.671818271290E+02   -0.15349E-02   -0.68691E-02  2360   0.237E+00    0.741E-01
DAV:   5    -0.671772651969E+02    0.45619E-02   -0.23048E-02  2448   0.268E+00    0.567E-01
DAV:   6    -0.671728849768E+02    0.43802E-02   -0.32628E-02  3568   0.256E+00    0.225E-01
DAV:   7    -0.671726537284E+02    0.23125E-03   -0.51008E-03  3344   0.101E+00    0.221E-01
DAV:   8    -0.671720668046E+02    0.58692E-03   -0.27246E-03  2400   0.113E+00    0.106E-01
DAV:   9    -0.671719681319E+02    0.98673E-04   -0.44459E-04  1696   0.455E-01
   9 F= -.73307640E+02 E0= -.73297042E+02  d E =-.307585E-01  mag=    -0.0000
       N       E                     dE             d eps       ncg     rms          rms(c)
DAV:   1    -0.671199834160E+02    0.52083E-01   -0.46321E+01  2512   0.188E+01    0.425E-01
DAV:   2    -0.672067380384E+02   -0.86755E-01   -0.89183E-01  3280   0.477E+00    0.591E-01
DAV:   3    -0.672044885332E+02    0.22495E-02   -0.31116E-02  2384   0.255E+00    0.409E-01
DAV:   4    -0.672035705580E+02    0.91798E-03   -0.53779E-03  2592   0.119E+00    0.368E-01
DAV:   5    -0.672010895800E+02    0.24810E-02   -0.43630E-03  3344   0.499E-01    0.178E-01
DAV:   6    -0.672008725089E+02    0.21707E-03   -0.24097E-03  3024   0.134E+00    0.119E-01
DAV:   7    -0.672006783400E+02    0.19417E-03   -0.13309E-03  2496   0.924E-01
  10 F= -.73313249E+02 E0= -.73301549E+02  d E =-.363671E-01  mag=     0.0000
       N       E                     dE             d eps       ncg     rms          rms(c)
DAV:   1    -0.671754665045E+02    0.25406E-01   -0.10942E+01  2496   0.890E+00    0.237E-01
DAV:   2    -0.671950359361E+02   -0.19569E-01   -0.20457E-01  3376   0.314E+00    0.330E-01
DAV:   3    -0.671945180510E+02    0.51789E-03   -0.12473E-02  2336   0.215E+00    0.192E-01
DAV:   4    -0.671944477980E+02    0.70253E-04   -0.27741E-03  2400   0.684E-01    0.171E-01
DAV:   5    -0.671939949879E+02    0.45281E-03   -0.15887E-03  2912   0.648E-01    0.951E-02
DAV:   6    -0.671939360640E+02    0.58924E-04   -0.12199E-03  2400   0.753E-01
  11 F= -.73317712E+02 E0= -.73306552E+02  d E =-.446280E-02  mag=     0.0000
