<?xml version="1.0" encoding="ISO-8859-1"?>
<modeling>
 <generator>
  <i name="program" type="string">vasp </i>
  <i name="version" type="string">6.3.2  </i>
  <i name="subversion" type="string">27Jun22 (build Aug 17 2022 15:43:34) complex                          parallel </i>
  <i name="platform" type="string">tv2STDVTST </i>
  <i name="date" type="string">2025 02 07 </i>
  <i name="time" type="string">16:38:19 </i>
 </generator>
 <incar>
  <i type="int" name="ISTART">     0</i>
  <i type="string" name="PREC">Normal</i>
  <i type="int" name="ISPIN">     2</i>
  <i type="int" name="ICHARG">     2</i>
  <i type="int" name="IBRION">     2</i>
  <i name="EDIFF">      0.00020000</i>
  <i name="EDIFFG">     -0.03000000</i>
  <i type="int" name="NSW">   800</i>
  <i type="int" name="ISIF">     2</i>
  <i type="int" name="ISYM">     1</i>
  <i name="ENCUT">    400.00000000</i>
  <i name="POTIM">      0.50000000</i>
  <i type="logical" name="LREAL"> F  </i>
  <i type="int" name="ISMEAR">     1</i>
  <i name="SIGMA">      0.20000000</i>
  <i type="logical" name="LWAVE"> F  </i>
  <i type="logical" name="LCHARG"> F  </i>
  <i type="string" name="GGA">PE</i>
  <i type="int" name="IVDW">    11</i>
 </incar>
 <primitive_cell>
  <structure name="primitive_cell" >
   <crystal>
    <varray name="basis" >
     <v>      10.89000034       0.00000000       0.00000000 </v>
     <v>       0.00000000      10.89000034       0.00000000 </v>
     <v>       0.00000000       0.00000000      27.70499992 </v>
    </varray>
    <i name="volume">   3285.59432860 </i>
    <varray name="rec_basis" >
     <v>       0.09182736       0.00000000       0.00000000 </v>
     <v>       0.00000000       0.09182736       0.00000000 </v>
     <v>       0.00000000       0.00000000       0.03609457 </v>
    </varray>
   </crystal>
   <varray name="positions" >
    <v>       0.00000000       0.00000000       0.00000000 </v>
    <v>       0.00000000       0.33333333       0.00000000 </v>
    <v>       0.00000000       0.66666667       0.00000000 </v>
    <v>       0.33333333       0.00000000       0.00000000 </v>
    <v>       0.33333333       0.33333333       0.00000000 </v>
    <v>       0.33333333       0.66666667       0.00000000 </v>
    <v>       0.66666667       0.00000000       0.00000000 </v>
    <v>       0.66666667       0.33333333       0.00000000 </v>
    <v>       0.66666667       0.66666667       0.00000000 </v>
    <v>       0.16666667       0.16666667       0.00000000 </v>
    <v>       0.16666667       0.50000000       0.00000000 </v>
    <v>       0.16666667       0.83333333       0.00000000 </v>
    <v>       0.50000000       0.16666667       0.00000000 </v>
    <v>       0.50000000       0.50000000       0.00000000 </v>
    <v>       0.50000000       0.83333333       0.00000000 </v>
    <v>       0.83333333       0.16666667       0.00000000 </v>
    <v>       0.83333333       0.50000000       0.00000000 </v>
    <v>       0.83333333       0.83333333       0.00000000 </v>
    <v>       0.00000000       0.16666667       0.06551164 </v>
    <v>       0.00000000       0.50000000       0.06551164 </v>
    <v>       0.00000000       0.83333333       0.06551164 </v>
    <v>       0.33333333       0.16666667       0.06551164 </v>
    <v>       0.33333333       0.50000000       0.06551164 </v>
    <v>       0.33333333       0.83333333       0.06551164 </v>
    <v>       0.66666667       0.16666667       0.06551164 </v>
    <v>       0.66666667       0.50000000       0.06551164 </v>
    <v>       0.66666667       0.83333333       0.06551164 </v>
    <v>       0.16666667       0.00000000       0.06551164 </v>
    <v>       0.16666667       0.33333333       0.06551164 </v>
    <v>       0.16666667       0.66666667       0.06551164 </v>
    <v>       0.50000000       0.00000000       0.06551164 </v>
    <v>       0.50000000       0.33333333       0.06551164 </v>
    <v>       0.50000000       0.66666667       0.06551164 </v>
    <v>       0.83333333       0.00000000       0.06551164 </v>
    <v>       0.83333333       0.33333333       0.06551164 </v>
    <v>       0.83333333       0.66666667       0.06551164 </v>
    <v>       0.00000000       0.00000000       0.13119553 </v>
    <v>       0.00000000       0.33333333       0.13119553 </v>
    <v>       0.00000000       0.66666667       0.13119553 </v>
    <v>       0.33333333       0.00000000       0.13119553 </v>
    <v>       0.33333333       0.33333333       0.13119553 </v>
    <v>       0.33333333       0.66666667       0.13119553 </v>
    <v>       0.66666667       0.00000000       0.13119553 </v>
    <v>       0.66666667       0.33333333       0.13119553 </v>
    <v>       0.66666667       0.66666667       0.13119553 </v>
    <v>       0.16666667       0.16666667       0.13119553 </v>
    <v>       0.16666667       0.50000000       0.13119553 </v>
    <v>       0.16666667       0.83333333       0.13119553 </v>
    <v>       0.50000000       0.16666667       0.13119553 </v>
    <v>       0.50000000       0.50000000       0.13119553 </v>
    <v>       0.50000000       0.83333333       0.13119553 </v>
    <v>       0.83333333       0.16666667       0.13119553 </v>
    <v>       0.83333333       0.50000000       0.13119553 </v>
    <v>       0.83333333       0.83333333       0.13119553 </v>
    <v>       0.00000000       0.16666667       0.19620680 </v>
    <v>       0.00000000       0.50000000       0.19620680 </v>
    <v>       0.00000000       0.83333333       0.19620680 </v>
    <v>       0.33333333       0.16666667       0.19620680 </v>
    <v>       0.33333333       0.50000000       0.19620680 </v>
    <v>       0.33333333       0.83333333       0.19620680 </v>
    <v>       0.66666667       0.16666667       0.19620680 </v>
    <v>       0.66666667       0.50000000       0.19620680 </v>
    <v>       0.66666667       0.83333333       0.19620680 </v>
    <v>       0.16666667       0.00000000       0.19620680 </v>
    <v>       0.16666667       0.33333333       0.19620680 </v>
    <v>       0.16666667       0.66666667       0.19620680 </v>
    <v>       0.50000000       0.00000000       0.19620680 </v>
    <v>       0.50000000       0.33333333       0.19620680 </v>
    <v>       0.50000000       0.66666667       0.19620680 </v>
    <v>       0.83333333       0.00000000       0.19620680 </v>
    <v>       0.83333333       0.33333333       0.19620680 </v>
    <v>       0.83333333       0.66666667       0.19620680 </v>
    <v>       0.00000000       0.00000000       0.25873860 </v>
    <v>       0.00000000       0.33333333       0.25873860 </v>
    <v>       0.00000000       0.66666667       0.25873860 </v>
    <v>       0.33333333       0.00000000       0.25873860 </v>
    <v>       0.33333333       0.33333333       0.25873860 </v>
    <v>       0.33333333       0.66666667       0.25873860 </v>
    <v>       0.66666667       0.00000000       0.25873860 </v>
    <v>       0.66666667       0.33333333       0.25873860 </v>
    <v>       0.66666667       0.66666667       0.25873860 </v>
    <v>       0.16666667       0.16666667       0.25873860 </v>
    <v>       0.16666667       0.50000000       0.25873860 </v>
    <v>       0.16666667       0.83333333       0.25873860 </v>
    <v>       0.50000000       0.16666667       0.25873860 </v>
    <v>       0.50000000       0.50000000       0.25873860 </v>
    <v>       0.50000000       0.83333333       0.25873860 </v>
    <v>       0.83333333       0.16666667       0.25873860 </v>
    <v>       0.83333333       0.50000000       0.25873860 </v>
    <v>       0.83333333       0.83333333       0.25873860 </v>
    <v>       0.00000000       0.16666667       0.32119954 </v>
    <v>       0.00000000       0.50000000       0.32119954 </v>
    <v>       0.00000000       0.83333333       0.32119954 </v>
    <v>       0.33333333       0.16666667       0.32119954 </v>
    <v>       0.33333333       0.50000000       0.32119954 </v>
    <v>       0.33333333       0.83333333       0.32119954 </v>
    <v>       0.66666667       0.16666667       0.32119954 </v>
    <v>       0.66666667       0.50000000       0.32119954 </v>
    <v>       0.66666667       0.83333333       0.32119954 </v>
    <v>       0.16666667       0.00000000       0.32119954 </v>
    <v>       0.16666667       0.33333333       0.32119954 </v>
    <v>       0.16666667       0.66666667       0.32119954 </v>
    <v>       0.50000000       0.00000000       0.32119954 </v>
    <v>       0.50000000       0.33333333       0.32119954 </v>
    <v>       0.50000000       0.66666667       0.32119954 </v>
    <v>       0.83333333       0.00000000       0.32119954 </v>
    <v>       0.83333333       0.33333333       0.32119954 </v>
    <v>       0.83333333       0.66666667       0.32119954 </v>
    <v>       0.00000000       0.00000000       0.38476372 </v>
    <v>       0.00000000       0.33333333       0.38476372 </v>
    <v>       0.00000000       0.66666667       0.38476372 </v>
    <v>       0.33333333       0.00000000       0.38476372 </v>
    <v>       0.33333333       0.33333333       0.38476372 </v>
    <v>       0.33333333       0.66666667       0.38476372 </v>
    <v>       0.66666667       0.00000000       0.38476372 </v>
    <v>       0.66666667       0.33333333       0.38476372 </v>
    <v>       0.66666667       0.66666667       0.38476372 </v>
    <v>       0.16666667       0.16666667       0.38476372 </v>
    <v>       0.16666667       0.50000000       0.38476372 </v>
    <v>       0.16666667       0.83333333       0.38476372 </v>
    <v>       0.50000000       0.16666667       0.38476372 </v>
    <v>       0.50000000       0.50000000       0.38476372 </v>
    <v>       0.50000000       0.83333333       0.38476372 </v>
    <v>       0.83333333       0.16666667       0.38476372 </v>
    <v>       0.83333333       0.50000000       0.38476372 </v>
    <v>       0.83333333       0.83333333       0.38476372 </v>
    <v>       0.00000000       0.16666667       0.44736473 </v>
    <v>       0.00000000       0.50000000       0.44736473 </v>
    <v>       0.00000000       0.83333333       0.44736473 </v>
    <v>       0.33333333       0.16666667       0.44736473 </v>
    <v>       0.33333333       0.50000000       0.44736473 </v>
    <v>       0.33333333       0.83333333       0.44736473 </v>
    <v>       0.66666667       0.16666667       0.44736473 </v>
    <v>       0.66666667       0.50000000       0.44736473 </v>
    <v>       0.66666667       0.83333333       0.44736473 </v>
    <v>       0.16666667       0.00000000       0.44736473 </v>
    <v>       0.16666667       0.33333333       0.44736473 </v>
    <v>       0.16666667       0.66666667       0.44736473 </v>
    <v>       0.50000000       0.00000000       0.44736473 </v>
    <v>       0.50000000       0.33333333       0.44736473 </v>
    <v>       0.50000000       0.66666667       0.44736473 </v>
    <v>       0.83333333       0.00000000       0.44736473 </v>
    <v>       0.83333333       0.33333333       0.44736473 </v>
    <v>       0.83333333       0.66666667       0.44736473 </v>
    <v>       0.33333333       0.50000000       0.50150658 </v>
    <v>       0.33333333       0.54843909       0.52054652 </v>
   </varray>
  </structure>
  <varray name="primitive_index" >
   <v type="int" >        1 </v>
   <v type="int" >        2 </v>
   <v type="int" >        3 </v>
   <v type="int" >        4 </v>
   <v type="int" >        5 </v>
   <v type="int" >        6 </v>
   <v type="int" >        7 </v>
   <v type="int" >        8 </v>
   <v type="int" >        9 </v>
   <v type="int" >       10 </v>
   <v type="int" >       11 </v>
   <v type="int" >       12 </v>
   <v type="int" >       13 </v>
   <v type="int" >       14 </v>
   <v type="int" >       15 </v>
   <v type="int" >       16 </v>
   <v type="int" >       17 </v>
   <v type="int" >       18 </v>
   <v type="int" >       19 </v>
   <v type="int" >       20 </v>
   <v type="int" >       21 </v>
   <v type="int" >       22 </v>
   <v type="int" >       23 </v>
   <v type="int" >       24 </v>
   <v type="int" >       25 </v>
   <v type="int" >       26 </v>
   <v type="int" >       27 </v>
   <v type="int" >       28 </v>
   <v type="int" >       29 </v>
   <v type="int" >       30 </v>
   <v type="int" >       31 </v>
   <v type="int" >       32 </v>
   <v type="int" >       33 </v>
   <v type="int" >       34 </v>
   <v type="int" >       35 </v>
   <v type="int" >       36 </v>
   <v type="int" >       37 </v>
   <v type="int" >       38 </v>
   <v type="int" >       39 </v>
   <v type="int" >       40 </v>
   <v type="int" >       41 </v>
   <v type="int" >       42 </v>
   <v type="int" >       43 </v>
   <v type="int" >       44 </v>
   <v type="int" >       45 </v>
   <v type="int" >       46 </v>
   <v type="int" >       47 </v>
   <v type="int" >       48 </v>
   <v type="int" >       49 </v>
   <v type="int" >       50 </v>
   <v type="int" >       51 </v>
   <v type="int" >       52 </v>
   <v type="int" >       53 </v>
   <v type="int" >       54 </v>
   <v type="int" >       55 </v>
   <v type="int" >       56 </v>
   <v type="int" >       57 </v>
   <v type="int" >       58 </v>
   <v type="int" >       59 </v>
   <v type="int" >       60 </v>
   <v type="int" >       61 </v>
   <v type="int" >       62 </v>
   <v type="int" >       63 </v>
   <v type="int" >       64 </v>
   <v type="int" >       65 </v>
   <v type="int" >       66 </v>
   <v type="int" >       67 </v>
   <v type="int" >       68 </v>
   <v type="int" >       69 </v>
   <v type="int" >       70 </v>
   <v type="int" >       71 </v>
   <v type="int" >       72 </v>
   <v type="int" >       73 </v>
   <v type="int" >       74 </v>
   <v type="int" >       75 </v>
   <v type="int" >       76 </v>
   <v type="int" >       77 </v>
   <v type="int" >       78 </v>
   <v type="int" >       79 </v>
   <v type="int" >       80 </v>
   <v type="int" >       81 </v>
   <v type="int" >       82 </v>
   <v type="int" >       83 </v>
   <v type="int" >       84 </v>
   <v type="int" >       85 </v>
   <v type="int" >       86 </v>
   <v type="int" >       87 </v>
   <v type="int" >       88 </v>
   <v type="int" >       89 </v>
   <v type="int" >       90 </v>
   <v type="int" >       91 </v>
   <v type="int" >       92 </v>
   <v type="int" >       93 </v>
   <v type="int" >       94 </v>
   <v type="int" >       95 </v>
   <v type="int" >       96 </v>
   <v type="int" >       97 </v>
   <v type="int" >       98 </v>
   <v type="int" >       99 </v>
   <v type="int" >      100 </v>
   <v type="int" >      101 </v>
   <v type="int" >      102 </v>
   <v type="int" >      103 </v>
   <v type="int" >      104 </v>
   <v type="int" >      105 </v>
   <v type="int" >      106 </v>
   <v type="int" >      107 </v>
   <v type="int" >      108 </v>
   <v type="int" >      109 </v>
   <v type="int" >      110 </v>
   <v type="int" >      111 </v>
   <v type="int" >      112 </v>
   <v type="int" >      113 </v>
   <v type="int" >      114 </v>
   <v type="int" >      115 </v>
   <v type="int" >      116 </v>
   <v type="int" >      117 </v>
   <v type="int" >      118 </v>
   <v type="int" >      119 </v>
   <v type="int" >      120 </v>
   <v type="int" >      121 </v>
   <v type="int" >      122 </v>
   <v type="int" >      123 </v>
   <v type="int" >      124 </v>
   <v type="int" >      125 </v>
   <v type="int" >      126 </v>
   <v type="int" >      127 </v>
   <v type="int" >      128 </v>
   <v type="int" >      129 </v>
   <v type="int" >      130 </v>
   <v type="int" >      131 </v>
   <v type="int" >      132 </v>
   <v type="int" >      133 </v>
   <v type="int" >      134 </v>
   <v type="int" >      135 </v>
   <v type="int" >      136 </v>
   <v type="int" >      137 </v>
   <v type="int" >      138 </v>
   <v type="int" >      139 </v>
   <v type="int" >      140 </v>
   <v type="int" >      141 </v>
   <v type="int" >      142 </v>
   <v type="int" >      143 </v>
   <v type="int" >      144 </v>
   <v type="int" >      145 </v>
   <v type="int" >      146 </v>
  </varray>
 </primitive_cell>
 <kpoints>
  <generation param="Monkhorst-Pack">
   <v type="int" name="divisions">       3        3        1 </v>
   <v name="usershift">      0.00000000       0.00000000       0.00000000 </v>
   <v name="genvec1">      0.33333333       0.00000000       0.00000000 </v>
   <v name="genvec2">      0.00000000       0.33333333       0.00000000 </v>
   <v name="genvec3">      0.00000000       0.00000000       1.00000000 </v>
   <v name="shift">      0.00000000       0.00000000       0.00000000 </v>
  </generation>
  <varray name="kpointlist" >
   <v>       0.00000000       0.00000000       0.00000000 </v>
   <v>       0.33333333       0.00000000       0.00000000 </v>
   <v>       0.00000000       0.33333333       0.00000000 </v>
   <v>       0.33333333       0.33333333       0.00000000 </v>
  </varray>
  <varray name="weights" >
   <v>       0.11111111 </v>
   <v>       0.22222222 </v>
   <v>       0.22222222 </v>
   <v>       0.44444444 </v>
  </varray>
 </kpoints>
 <parameters>
  <separator name="general" >
   <i type="string" name="SYSTEM">unknown system</i>
   <i type="logical" name="LCOMPAT"> F  </i>
  </separator>
  <separator name="electronic" >
   <i type="string" name="PREC">normal</i>
   <i name="ENMAX">    400.00000000</i>
   <i name="ENAUG">    586.98000000</i>
   <i name="EDIFF">      0.00020000</i>
   <i type="int" name="IALGO">    38</i>
   <i type="int" name="IWAVPR">    11</i>
   <i type="int" name="NBANDS">  1024</i>
   <i type="int" name="NBANDSLOW">    -1</i>
   <i type="int" name="NBANDSHIGH">    -1</i>
   <i name="NELECT">   1586.00000000</i>
   <i type="int" name="TURBO">     0</i>
   <i type="int" name="IRESTART">     0</i>
   <i type="int" name="NREBOOT">     0</i>
   <i type="int" name="NMIN">     0</i>
   <i name="EREF">      0.00000000</i>
   <separator name="electronic smearing" >
    <i type="int" name="ISMEAR">     1</i>
    <i name="SIGMA">      0.20000000</i>
    <i name="KSPACING">      0.50000000</i>
    <i type="logical" name="KGAMMA"> T  </i>
    <i type="logical" name="KBLOWUP"> T  </i>
   </separator>
   <separator name="electronic projectors" >
    <i type="logical" name="LREAL"> F  </i>
    <v name="ROPT">      0.00000000      0.00000000</v>
    <i type="int" name="LMAXPAW">  -100</i>
    <i type="int" name="LMAXMIX">     2</i>
    <i type="logical" name="NLSPLINE"> F  </i>
   </separator>
   <separator name="electronic startup" >
    <i type="int" name="ISTART">     0</i>
    <i type="int" name="ICHARG">     2</i>
    <i type="int" name="INIWAV">     1</i>
   </separator>
   <separator name="electronic spin" >
    <i type="int" name="ISPIN">     2</i>
    <i type="logical" name="LNONCOLLINEAR"> F  </i>
    <v name="MAGMOM">      1.00000000      1.00000000      1.00000000      1.00000000      1.00000000      1.00000000      1.00000000      1.00000000      1.00000000      1.00000000      1.00000000      1.00000000      1.00000000      1.00000000      1.00000000      1.00000000      1.00000000      1.00000000      1.00000000      1.00000000
      1.00000000      1.00000000      1.00000000      1.00000000      1.00000000      1.00000000      1.00000000      1.00000000      1.00000000      1.00000000      1.00000000      1.00000000      1.00000000      1.00000000      1.00000000      1.00000000      1.00000000      1.00000000      1.00000000      1.00000000
      1.00000000      1.00000000      1.00000000      1.00000000      1.00000000      1.00000000      1.00000000      1.00000000      1.00000000      1.00000000      1.00000000      1.00000000      1.00000000      1.00000000      1.00000000      1.00000000      1.00000000      1.00000000      1.00000000      1.00000000
      1.00000000      1.00000000      1.00000000      1.00000000      1.00000000      1.00000000      1.00000000      1.00000000      1.00000000      1.00000000      1.00000000      1.00000000      1.00000000      1.00000000      1.00000000      1.00000000      1.00000000      1.00000000      1.00000000      1.00000000
      1.00000000      1.00000000      1.00000000      1.00000000      1.00000000      1.00000000      1.00000000      1.00000000      1.00000000      1.00000000      1.00000000      1.00000000      1.00000000      1.00000000      1.00000000      1.00000000      1.00000000      1.00000000      1.00000000      1.00000000
      1.00000000      1.00000000      1.00000000      1.00000000      1.00000000      1.00000000      1.00000000      1.00000000      1.00000000      1.00000000      1.00000000      1.00000000      1.00000000      1.00000000      1.00000000      1.00000000      1.00000000      1.00000000      1.00000000      1.00000000
      1.00000000      1.00000000      1.00000000      1.00000000      1.00000000      1.00000000      1.00000000      1.00000000      1.00000000      1.00000000      1.00000000      1.00000000      1.00000000      1.00000000      1.00000000      1.00000000      1.00000000      1.00000000      1.00000000      1.00000000
      1.00000000      1.00000000      1.00000000      1.00000000      1.00000000      1.00000000</v>
    <i name="NUPDOWN">     -1.00000000</i>
    <i type="logical" name="LSORBIT"> F  </i>
    <v name="SAXIS">      0.00000000      0.00000000      1.00000000</v>
    <i type="logical" name="LSPIRAL"> F  </i>
    <v name="QSPIRAL">      0.00000000      0.00000000      0.00000000</v>
    <i type="logical" name="LZEROZ"> F  </i>
   </separator>
   <separator name="electronic exchange-correlation" >
    <i type="logical" name="LASPH"> F  </i>
    <i type="logical" name="LMETAGGA"> F  </i>
   </separator>
   <separator name="electronic convergence" >
    <i type="int" name="NELM">    60</i>
    <i type="int" name="NELMDL">    -5</i>
    <i type="int" name="NELMIN">     2</i>
    <i name="ENINI">    400.00000000</i>
    <separator name="electronic convergence detail" >
     <i type="logical" name="LDIAG"> T  </i>
     <i type="logical" name="LSUBROT"> F  </i>
     <i name="WEIMIN">      0.00100000</i>
     <i name="EBREAK">      0.00000005</i>
     <i name="DEPER">      0.30000000</i>
     <i type="int" name="NRMM">     4</i>
     <i name="TIME">      0.40000000</i>
    </separator>
   </separator>
   <separator name="electronic mixer" >
    <i name="AMIX">      0.40000000</i>
    <i name="BMIX">      1.00000000</i>
    <i name="AMIN">      0.10000000</i>
    <i name="AMIX_MAG">      1.60000000</i>
    <i name="BMIX_MAG">      1.00000000</i>
    <separator name="electronic mixer details" >
     <i type="int" name="IMIX">     4</i>
     <i type="logical" name="MIXFIRST"> F  </i>
     <i type="int" name="MAXMIX">   -45</i>
     <i name="WC">    100.00000000</i>
     <i type="int" name="INIMIX">     1</i>
     <i type="int" name="MIXPRE">     1</i>
     <i type="int" name="MREMOVE">     5</i>
    </separator>
   </separator>
   <separator name="electronic dipolcorrection" >
    <i type="logical" name="LDIPOL"> F  </i>
    <i type="logical" name="LMONO"> F  </i>
    <i type="int" name="IDIPOL">     0</i>
    <i name="EPSILON">      1.00000000</i>
    <v name="DIPOL">   -100.00000000   -100.00000000   -100.00000000</v>
    <i name="EFIELD">      0.00000000</i>
   </separator>
  </separator>
  <separator name="grids" >
   <i type="int" name="NGX">    54</i>
   <i type="int" name="NGY">    54</i>
   <i type="int" name="NGZ">   140</i>
   <i type="int" name="NGXF">   108</i>
   <i type="int" name="NGYF">   108</i>
   <i type="int" name="NGZF">   280</i>
   <i type="logical" name="ADDGRID"> F  </i>
  </separator>
  <separator name="ionic" >
   <i type="int" name="NSW">   800</i>
   <i type="int" name="IBRION">     2</i>
   <i type="int" name="MDALGO">     0</i>
   <i type="int" name="ISIF">     2</i>
   <i name="PSTRESS">      0.00000000</i>
   <i name="EDIFFG">     -0.03000000</i>
   <i type="int" name="NFREE">     1</i>
   <i name="POTIM">      0.50000000</i>
   <i name="SMASS">     -3.00000000</i>
   <i name="SCALEE">      1.00000000</i>
  </separator>
  <separator name="ionic md" >
   <i name="TEBEG">      0.00010000</i>
   <i name="TEEND">      0.00010000</i>
   <i type="int" name="NBLOCK">     1</i>
   <i type="int" name="KBLOCK">   800</i>
   <i type="int" name="NPACO">   256</i>
   <i name="APACO">     10.00000000</i>
  </separator>
  <separator name="symmetry" >
   <i type="int" name="ISYM">     1</i>
   <i name="SYMPREC">      0.00001000</i>
  </separator>
  <separator name="dos" >
   <i type="int" name="LORBIT">     0</i>
   <v name="RWIGS">     -1.00000000     -1.00000000</v>
   <i type="int" name="NEDOS">   301</i>
   <i name="EMIN">     10.00000000</i>
   <i name="EMAX">    -10.00000000</i>
   <i name="EFERMI">      0.00000000</i>
  </separator>
  <separator name="writing" >
   <i type="int" name="NWRITE">     2</i>
   <i type="logical" name="LWAVE"> F  </i>
   <i type="logical" name="LDOWNSAMPLE"> F  </i>
   <i type="logical" name="LCHARG"> F  </i>
   <i type="logical" name="LPARD"> F  </i>
   <i type="logical" name="LVTOT"> F  </i>
   <i type="logical" name="LVHAR"> F  </i>
   <i type="logical" name="LELF"> F  </i>
   <i type="logical" name="LOPTICS"> F  </i>
   <v name="STM">      0.00000000      0.00000000      0.00000000      0.00000000      0.00000000      0.00000000      0.00000000</v>
  </separator>
  <separator name="performance" >
   <i type="int" name="NPAR">     4</i>
   <i type="int" name="NSIM">     4</i>
   <i type="int" name="NBLK">    -1</i>
   <i type="logical" name="LPLANE"> T  </i>
   <i type="logical" name="LSCALAPACK"> T  </i>
   <i type="logical" name="LSCAAWARE"> F  </i>
   <i type="logical" name="LSCALU"> F  </i>
   <i type="logical" name="LASYNC"> F  </i>
   <i type="logical" name="LORBITALREAL"> F  </i>
  </separator>
  <separator name="miscellaneous" >
   <i type="int" name="IDIOT">     3</i>
   <i type="int" name="PHON_NSTRUCT">    -1</i>
   <i type="logical" name="LMUSIC"> F  </i>
   <v name="POMASS">     63.54600000      1.00000000</v>
   <v name="DARWINR">      0.00000000      0.00000000</v>
   <v name="DARWINV">      1.00000000      1.00000000</v>
   <i type="logical" name="LCORR"> T  </i>
  </separator>
  <i type="logical" name="GGA_COMPAT"> T  </i>
  <i type="logical" name="LBERRY"> F  </i>
  <i type="int" name="ICORELEVEL">     0</i>
  <i type="logical" name="LDAU"> F  </i>
  <i type="int" name="I_CONSTRAINED_M">     0</i>
  <separator name="electronic exchange-correlation" >
   <i type="string" name="GGA">PE</i>
   <i type="int" name="VOSKOWN">     0</i>
   <i type="logical" name="LHFCALC"> F  </i>
   <i type="string" name="PRECFOCK"></i>
   <i type="logical" name="LSYMGRAD"> F  </i>
   <i type="logical" name="LHFONE"> F  </i>
   <i type="logical" name="LRHFCALC"> F  </i>
   <i type="logical" name="LTHOMAS"> F  </i>
   <i type="logical" name="LMODELHF"> F  </i>
   <i type="logical" name="LFOCKACE"> F  </i>
   <i name="ENCUT4O">     -1.00000000</i>
   <i type="int" name="EXXOEP">     0</i>
   <i type="int" name="FOURORBIT">     0</i>
   <i name="AEXX">      0.00000000</i>
   <i name="HFALPHA">      0.00000000</i>
   <i name="MCALPHA">      0.00000000</i>
   <i name="ALDAX">      1.00000000</i>
   <i name="AGGAX">      1.00000000</i>
   <i name="ALDAC">      1.00000000</i>
   <i name="AGGAC">      1.00000000</i>
   <i type="int" name="NKREDX">     1</i>
   <i type="int" name="NKREDY">     1</i>
   <i type="int" name="NKREDZ">     1</i>
   <i type="logical" name="SHIFTRED"> F  </i>
   <i type="logical" name="ODDONLY"> F  </i>
   <i type="logical" name="EVENONLY"> F  </i>
   <i type="int" name="LMAXFOCK">     0</i>
   <i type="int" name="NMAXFOCKAE">     0</i>
   <i type="logical" name="LFOCKAEDFT"> F  </i>
   <i name="HFSCREEN">      0.00000000</i>
   <i name="HFSCREENC">      0.00000000</i>
   <i type="int" name="NBANDSGWLOW">     0</i>
  </separator>
  <separator name="vdW DFT" >
   <i type="logical" name="LUSE_VDW"> F  </i>
   <i name="Zab_VDW">     -0.84910000</i>
   <i name="PARAM1">      0.12340000</i>
   <i name="PARAM2">      1.00000000</i>
   <i name="PARAM3">      0.00000000</i>
  </separator>
  <separator name="model GW" >
   <i type="int" name="MODEL_GW">     0</i>
   <i name="MODEL_EPS0">     13.50244245</i>
   <i name="MODEL_ALPHA">      1.00000000</i>
  </separator>
  <separator name="linear response parameters" >
   <i type="logical" name="LEPSILON"> F  </i>
   <i type="logical" name="LRPA"> F  </i>
   <i type="logical" name="LNABLA"> F  </i>
   <i type="logical" name="LVEL"> F  </i>
   <i name="CSHIFT">      0.10000000</i>
   <i name="OMEGAMAX">     -1.00000000</i>
   <i name="DEG_THRESHOLD">      0.00200000</i>
   <i name="RTIME">     -0.10000000</i>
   <i name="WPLASMAI">      0.00000000</i>
   <v name="DFIELD">      0.00000000      0.00000000      0.00000000</v>
   <v name="WPLASMA">      0.00000000      0.00000000      0.00000000      0.00000000      0.00000000      0.00000000      0.00000000      0.00000000      0.00000000</v>
  </separator>
  <separator name="orbital magnetization" >
   <i type="logical" name="NUCIND"> F  </i>
   <v name="MAGPOS">      0.00000000      0.00000000      0.00000000</v>
   <i type="logical" name="LNICSALL"> T  </i>
   <i type="logical" name="ORBITALMAG"> F  </i>
   <i type="logical" name="LMAGBLOCH"> F  </i>
   <i type="logical" name="LCHIMAG"> F  </i>
   <i type="logical" name="LGAUGE"> T  </i>
   <i type="int" name="MAGATOM">     0</i>
   <v name="MAGDIPOL">      0.00000000      0.00000000      0.00000000</v>
   <v name="AVECCONST">      0.00000000      0.00000000      0.00000000</v>
  </separator>
  <separator name="response functions" >
   <i type="logical" name="LFINITE_TEMPERATURE"> F  </i>
   <i type="logical" name="LADDER"> F  </i>
   <i type="logical" name="LRPAFORCE"> F  </i>
   <i type="logical" name="LFXC"> F  </i>
   <i type="logical" name="LHARTREE"> T  </i>
   <i type="int" name="IBSE">     0</i>
   <v type="int" name="KPOINT">    -1     0     0     0</v>
   <i type="logical" name="LTCTC"> F  </i>
   <i type="logical" name="LTCTE"> F  </i>
   <i type="logical" name="LTETE"> F  </i>
   <i type="logical" name="LTRIPLET"> F  </i>
   <i type="logical" name="LFXCEPS"> F  </i>
   <i type="logical" name="LFXHEG"> F  </i>
   <i type="int" name="NATURALO">     2</i>
   <i type="logical" name="LHOLEGF"> F  </i>
   <i type="logical" name="L2ORDER"> F  </i>
   <i type="logical" name="LDMP1"> F  </i>
   <i type="logical" name="LMP2LT"> F  </i>
   <i type="logical" name="LSMP2LT"> F  </i>
   <i type="logical" name="LGWLF"> F  </i>
   <i name="ENCUTGW">     -2.00000000</i>
   <i name="ENCUTGWSOFT">     -2.00000000</i>
   <i name="ENCUTLF">     -1.00000000</i>
   <i type="logical" name="LESF_SPLINES"> F  </i>
   <i type="int" name="LMAXMP2">    -1</i>
   <i name="SCISSOR">      0.00000000</i>
   <i type="int" name="NOMEGA">     0</i>
   <i type="int" name="NOMEGAR">     0</i>
   <i type="int" name="NBANDSGW">    -1</i>
   <i type="int" name="NBANDSO">    -1</i>
   <i type="int" name="NBANDSV">    -1</i>
   <i type="int" name="NELMGW">     1</i>
   <i type="int" name="NELMHF">     1</i>
   <i type="int" name="DIM">     3</i>
   <i type="int" name="IESPILON">     4</i>
   <i type="int" name="ANTIRES">     0</i>
   <i name="OMEGAMAX">    -30.00000000</i>
   <i name="OMEGAMIN">    -30.00000000</i>
   <i name="OMEGATL">   -200.00000000</i>
   <i type="int" name="OMEGAGRID">     0</i>
   <i name="CSHIFT">     -0.10000000</i>
   <i type="logical" name="LSELFENERGY"> F  </i>
   <i type="logical" name="LSPECTRAL"> F  </i>
   <i type="logical" name="LSPECTRALGW"> F  </i>
   <i type="logical" name="LSINGLES"> F  </i>
   <i type="logical" name="LFERMIGW"> F  </i>
   <i type="logical" name="ODDONLYGW"> F  </i>
   <i type="logical" name="EVENONLYGW"> F  </i>
   <i type="int" name="NKREDLFX">     1</i>
   <i type="int" name="NKREDLFY">     1</i>
   <i type="int" name="NKREDLFZ">     1</i>
   <i type="int" name="MAXMEM">  2800</i>
   <i type="int" name="TELESCOPE">     0</i>
   <i type="int" name="NTAUPAR">    -1</i>
   <i type="int" name="NOMEGAPAR">    -1</i>
   <i name="DAMP_NEWTON">      0.80000001</i>
   <i name="LAMBDA">      1.00000000</i>
  </separator>
  <separator name="External order field" >
   <i name="OFIELD_KAPPA">      0.00000000</i>
   <v name="OFIELD_K">      0.00000000      0.00000000      0.00000000</v>
   <i name="OFIELD_Q6_NEAR">      0.00000000</i>
   <i name="OFIELD_Q6_FAR">      0.00000000</i>
   <i name="OFIELD_A">      0.00000000</i>
  </separator>
  <separator name="optional k-points parameters" >
   <i type="int" name="KPOINTS_OPT_MODE">     1</i>
   <i type="logical" name="LKPOINTS_OPT"> F  </i>
  </separator>
 </parameters>
 <atominfo>
  <atoms>     146 </atoms>
  <types>       2 </types>
  <array name="atoms" >
   <dimension dim="1">ion</dimension>
   <field type="string">element</field>
   <field type="int">atomtype</field>
   <set>
    <rc><c>Cu</c><c>   1</c></rc>
    <rc><c>Cu</c><c>   1</c></rc>
    <rc><c>Cu</c><c>   1</c></rc>
    <rc><c>Cu</c><c>   1</c></rc>
    <rc><c>Cu</c><c>   1</c></rc>
    <rc><c>Cu</c><c>   1</c></rc>
    <rc><c>Cu</c><c>   1</c></rc>
    <rc><c>Cu</c><c>   1</c></rc>
    <rc><c>Cu</c><c>   1</c></rc>
    <rc><c>Cu</c><c>   1</c></rc>
    <rc><c>Cu</c><c>   1</c></rc>
    <rc><c>Cu</c><c>   1</c></rc>
    <rc><c>Cu</c><c>   1</c></rc>
    <rc><c>Cu</c><c>   1</c></rc>
    <rc><c>Cu</c><c>   1</c></rc>
    <rc><c>Cu</c><c>   1</c></rc>
    <rc><c>Cu</c><c>   1</c></rc>
    <rc><c>Cu</c><c>   1</c></rc>
    <rc><c>Cu</c><c>   1</c></rc>
    <rc><c>Cu</c><c>   1</c></rc>
    <rc><c>Cu</c><c>   1</c></rc>
    <rc><c>Cu</c><c>   1</c></rc>
    <rc><c>Cu</c><c>   1</c></rc>
    <rc><c>Cu</c><c>   1</c></rc>
    <rc><c>Cu</c><c>   1</c></rc>
    <rc><c>Cu</c><c>   1</c></rc>
    <rc><c>Cu</c><c>   1</c></rc>
    <rc><c>Cu</c><c>   1</c></rc>
    <rc><c>Cu</c><c>   1</c></rc>
    <rc><c>Cu</c><c>   1</c></rc>
    <rc><c>Cu</c><c>   1</c></rc>
    <rc><c>Cu</c><c>   1</c></rc>
    <rc><c>Cu</c><c>   1</c></rc>
    <rc><c>Cu</c><c>   1</c></rc>
    <rc><c>Cu</c><c>   1</c></rc>
    <rc><c>Cu</c><c>   1</c></rc>
    <rc><c>Cu</c><c>   1</c></rc>
    <rc><c>Cu</c><c>   1</c></rc>
    <rc><c>Cu</c><c>   1</c></rc>
    <rc><c>Cu</c><c>   1</c></rc>
    <rc><c>Cu</c><c>   1</c></rc>
    <rc><c>Cu</c><c>   1</c></rc>
    <rc><c>Cu</c><c>   1</c></rc>
    <rc><c>Cu</c><c>   1</c></rc>
    <rc><c>Cu</c><c>   1</c></rc>
    <rc><c>Cu</c><c>   1</c></rc>
    <rc><c>Cu</c><c>   1</c></rc>
    <rc><c>Cu</c><c>   1</c></rc>
    <rc><c>Cu</c><c>   1</c></rc>
    <rc><c>Cu</c><c>   1</c></rc>
    <rc><c>Cu</c><c>   1</c></rc>
    <rc><c>Cu</c><c>   1</c></rc>
    <rc><c>Cu</c><c>   1</c></rc>
    <rc><c>Cu</c><c>   1</c></rc>
    <rc><c>Cu</c><c>   1</c></rc>
    <rc><c>Cu</c><c>   1</c></rc>
    <rc><c>Cu</c><c>   1</c></rc>
    <rc><c>Cu</c><c>   1</c></rc>
    <rc><c>Cu</c><c>   1</c></rc>
    <rc><c>Cu</c><c>   1</c></rc>
    <rc><c>Cu</c><c>   1</c></rc>
    <rc><c>Cu</c><c>   1</c></rc>
    <rc><c>Cu</c><c>   1</c></rc>
    <rc><c>Cu</c><c>   1</c></rc>
    <rc><c>Cu</c><c>   1</c></rc>
    <rc><c>Cu</c><c>   1</c></rc>
    <rc><c>Cu</c><c>   1</c></rc>
    <rc><c>Cu</c><c>   1</c></rc>
    <rc><c>Cu</c><c>   1</c></rc>
    <rc><c>Cu</c><c>   1</c></rc>
    <rc><c>Cu</c><c>   1</c></rc>
    <rc><c>Cu</c><c>   1</c></rc>
    <rc><c>Cu</c><c>   1</c></rc>
    <rc><c>Cu</c><c>   1</c></rc>
    <rc><c>Cu</c><c>   1</c></rc>
    <rc><c>Cu</c><c>   1</c></rc>
    <rc><c>Cu</c><c>   1</c></rc>
    <rc><c>Cu</c><c>   1</c></rc>
    <rc><c>Cu</c><c>   1</c></rc>
    <rc><c>Cu</c><c>   1</c></rc>
    <rc><c>Cu</c><c>   1</c></rc>
    <rc><c>Cu</c><c>   1</c></rc>
    <rc><c>Cu</c><c>   1</c></rc>
    <rc><c>Cu</c><c>   1</c></rc>
    <rc><c>Cu</c><c>   1</c></rc>
    <rc><c>Cu</c><c>   1</c></rc>
    <rc><c>Cu</c><c>   1</c></rc>
    <rc><c>Cu</c><c>   1</c></rc>
    <rc><c>Cu</c><c>   1</c></rc>
    <rc><c>Cu</c><c>   1</c></rc>
    <rc><c>Cu</c><c>   1</c></rc>
    <rc><c>Cu</c><c>   1</c></rc>
    <rc><c>Cu</c><c>   1</c></rc>
    <rc><c>Cu</c><c>   1</c></rc>
    <rc><c>Cu</c><c>   1</c></rc>
    <rc><c>Cu</c><c>   1</c></rc>
    <rc><c>Cu</c><c>   1</c></rc>
    <rc><c>Cu</c><c>   1</c></rc>
    <rc><c>Cu</c><c>   1</c></rc>
    <rc><c>Cu</c><c>   1</c></rc>
    <rc><c>Cu</c><c>   1</c></rc>
    <rc><c>Cu</c><c>   1</c></rc>
    <rc><c>Cu</c><c>   1</c></rc>
    <rc><c>Cu</c><c>   1</c></rc>
    <rc><c>Cu</c><c>   1</c></rc>
    <rc><c>Cu</c><c>   1</c></rc>
    <rc><c>Cu</c><c>   1</c></rc>
    <rc><c>Cu</c><c>   1</c></rc>
    <rc><c>Cu</c><c>   1</c></rc>
    <rc><c>Cu</c><c>   1</c></rc>
    <rc><c>Cu</c><c>   1</c></rc>
    <rc><c>Cu</c><c>   1</c></rc>
    <rc><c>Cu</c><c>   1</c></rc>
    <rc><c>Cu</c><c>   1</c></rc>
    <rc><c>Cu</c><c>   1</c></rc>
    <rc><c>Cu</c><c>   1</c></rc>
    <rc><c>Cu</c><c>   1</c></rc>
    <rc><c>Cu</c><c>   1</c></rc>
    <rc><c>Cu</c><c>   1</c></rc>
    <rc><c>Cu</c><c>   1</c></rc>
    <rc><c>Cu</c><c>   1</c></rc>
    <rc><c>Cu</c><c>   1</c></rc>
    <rc><c>Cu</c><c>   1</c></rc>
    <rc><c>Cu</c><c>   1</c></rc>
    <rc><c>Cu</c><c>   1</c></rc>
    <rc><c>Cu</c><c>   1</c></rc>
    <rc><c>Cu</c><c>   1</c></rc>
    <rc><c>Cu</c><c>   1</c></rc>
    <rc><c>Cu</c><c>   1</c></rc>
    <rc><c>Cu</c><c>   1</c></rc>
    <rc><c>Cu</c><c>   1</c></rc>
    <rc><c>Cu</c><c>   1</c></rc>
    <rc><c>Cu</c><c>   1</c></rc>
    <rc><c>Cu</c><c>   1</c></rc>
    <rc><c>Cu</c><c>   1</c></rc>
    <rc><c>Cu</c><c>   1</c></rc>
    <rc><c>Cu</c><c>   1</c></rc>
    <rc><c>Cu</c><c>   1</c></rc>
    <rc><c>Cu</c><c>   1</c></rc>
    <rc><c>Cu</c><c>   1</c></rc>
    <rc><c>Cu</c><c>   1</c></rc>
    <rc><c>Cu</c><c>   1</c></rc>
    <rc><c>Cu</c><c>   1</c></rc>
    <rc><c>Cu</c><c>   1</c></rc>
    <rc><c>H </c><c>   2</c></rc>
    <rc><c>H </c><c>   2</c></rc>
   </set>
  </array>
  <array name="atomtypes" >
   <dimension dim="1">type</dimension>
   <field type="int">atomspertype</field>
   <field type="string">element</field>
   <field>mass</field>
   <field>valence</field>
   <field type="string">pseudopotential</field>
   <set>
    <rc><c> 144</c><c>Cu</c><c>     63.54600000</c><c>     11.00000000</c><c>  PAW_PBE Cu 22Jun2005                  </c></rc>
    <rc><c>   2</c><c>H </c><c>      1.00000000</c><c>      1.00000000</c><c>  PAW_PBE H 15Jun2001                   </c></rc>
   </set>
  </array>
 </atominfo>
 <structure name="initialpos" >
  <crystal>
   <varray name="basis" >
    <v>      10.89000034       0.00000000       0.00000000 </v>
    <v>       0.00000000      10.89000034       0.00000000 </v>
    <v>       0.00000000       0.00000000      27.70499992 </v>
   </varray>
   <i name="volume">   3285.59432860 </i>
   <varray name="rec_basis" >
    <v>       0.09182736       0.00000000       0.00000000 </v>
    <v>       0.00000000       0.09182736       0.00000000 </v>
    <v>       0.00000000       0.00000000       0.03609457 </v>
   </varray>
  </crystal>
  <varray name="positions" >
   <v>       0.00000000       0.00000000       0.00000000 </v>
   <v>       0.00000000       0.33333333       0.00000000 </v>
   <v>       0.00000000       0.66666667       0.00000000 </v>
   <v>       0.33333333       0.00000000       0.00000000 </v>
   <v>       0.33333333       0.33333333       0.00000000 </v>
   <v>       0.33333333       0.66666667       0.00000000 </v>
   <v>       0.66666667       0.00000000       0.00000000 </v>
   <v>       0.66666667       0.33333333       0.00000000 </v>
   <v>       0.66666667       0.66666667       0.00000000 </v>
   <v>       0.16666667       0.16666667       0.00000000 </v>
   <v>       0.16666667       0.50000000       0.00000000 </v>
   <v>       0.16666667       0.83333333       0.00000000 </v>
   <v>       0.50000000       0.16666667       0.00000000 </v>
   <v>       0.50000000       0.50000000       0.00000000 </v>
   <v>       0.50000000       0.83333333       0.00000000 </v>
   <v>       0.83333333       0.16666667       0.00000000 </v>
   <v>       0.83333333       0.50000000       0.00000000 </v>
   <v>       0.83333333       0.83333333       0.00000000 </v>
   <v>       0.00000000       0.16666667       0.06551164 </v>
   <v>       0.00000000       0.50000000       0.06551164 </v>
   <v>       0.00000000       0.83333333       0.06551164 </v>
   <v>       0.33333333       0.16666667       0.06551164 </v>
   <v>       0.33333333       0.50000000       0.06551164 </v>
   <v>       0.33333333       0.83333333       0.06551164 </v>
   <v>       0.66666667       0.16666667       0.06551164 </v>
   <v>       0.66666667       0.50000000       0.06551164 </v>
   <v>       0.66666667       0.83333333       0.06551164 </v>
   <v>       0.16666667       0.00000000       0.06551164 </v>
   <v>       0.16666667       0.33333333       0.06551164 </v>
   <v>       0.16666667       0.66666667       0.06551164 </v>
   <v>       0.50000000       0.00000000       0.06551164 </v>
   <v>       0.50000000       0.33333333       0.06551164 </v>
   <v>       0.50000000       0.66666667       0.06551164 </v>
   <v>       0.83333333       0.00000000       0.06551164 </v>
   <v>       0.83333333       0.33333333       0.06551164 </v>
   <v>       0.83333333       0.66666667       0.06551164 </v>
   <v>       0.00000000       0.00000000       0.13119553 </v>
   <v>       0.00000000       0.33333333       0.13119553 </v>
   <v>       0.00000000       0.66666667       0.13119553 </v>
   <v>       0.33333333       0.00000000       0.13119553 </v>
   <v>       0.33333333       0.33333333       0.13119553 </v>
   <v>       0.33333333       0.66666667       0.13119553 </v>
   <v>       0.66666667       0.00000000       0.13119553 </v>
   <v>       0.66666667       0.33333333       0.13119553 </v>
   <v>       0.66666667       0.66666667       0.13119553 </v>
   <v>       0.16666667       0.16666667       0.13119553 </v>
   <v>       0.16666667       0.50000000       0.13119553 </v>
   <v>       0.16666667       0.83333333       0.13119553 </v>
   <v>       0.50000000       0.16666667       0.13119553 </v>
   <v>       0.50000000       0.50000000       0.13119553 </v>
   <v>       0.50000000       0.83333333       0.13119553 </v>
   <v>       0.83333333       0.16666667       0.13119553 </v>
   <v>       0.83333333       0.50000000       0.13119553 </v>
   <v>       0.83333333       0.83333333       0.13119553 </v>
   <v>       0.00000000       0.16666667       0.19620680 </v>
   <v>       0.00000000       0.50000000       0.19620680 </v>
   <v>       0.00000000       0.83333333       0.19620680 </v>
   <v>       0.33333333       0.16666667       0.19620680 </v>
   <v>       0.33333333       0.50000000       0.19620680 </v>
   <v>       0.33333333       0.83333333       0.19620680 </v>
   <v>       0.66666667       0.16666667       0.19620680 </v>
   <v>       0.66666667       0.50000000       0.19620680 </v>
   <v>       0.66666667       0.83333333       0.19620680 </v>
   <v>       0.16666667       0.00000000       0.19620680 </v>
   <v>       0.16666667       0.33333333       0.19620680 </v>
   <v>       0.16666667       0.66666667       0.19620680 </v>
   <v>       0.50000000       0.00000000       0.19620680 </v>
   <v>       0.50000000       0.33333333       0.19620680 </v>
   <v>       0.50000000       0.66666667       0.19620680 </v>
   <v>       0.83333333       0.00000000       0.19620680 </v>
   <v>       0.83333333       0.33333333       0.19620680 </v>
   <v>       0.83333333       0.66666667       0.19620680 </v>
   <v>       0.00000000       0.00000000       0.25873860 </v>
   <v>       0.00000000       0.33333333       0.25873860 </v>
   <v>       0.00000000       0.66666667       0.25873860 </v>
   <v>       0.33333333       0.00000000       0.25873860 </v>
   <v>       0.33333333       0.33333333       0.25873860 </v>
   <v>       0.33333333       0.66666667       0.25873860 </v>
   <v>       0.66666667       0.00000000       0.25873860 </v>
   <v>       0.66666667       0.33333333       0.25873860 </v>
   <v>       0.66666667       0.66666667       0.25873860 </v>
   <v>       0.16666667       0.16666667       0.25873860 </v>
   <v>       0.16666667       0.50000000       0.25873860 </v>
   <v>       0.16666667       0.83333333       0.25873860 </v>
   <v>       0.50000000       0.16666667       0.25873860 </v>
   <v>       0.50000000       0.50000000       0.25873860 </v>
   <v>       0.50000000       0.83333333       0.25873860 </v>
   <v>       0.83333333       0.16666667       0.25873860 </v>
   <v>       0.83333333       0.50000000       0.25873860 </v>
   <v>       0.83333333       0.83333333       0.25873860 </v>
   <v>       0.00000000       0.16666667       0.32119954 </v>
   <v>       0.00000000       0.50000000       0.32119954 </v>
   <v>       0.00000000       0.83333333       0.32119954 </v>
   <v>       0.33333333       0.16666667       0.32119954 </v>
   <v>       0.33333333       0.50000000       0.32119954 </v>
   <v>       0.33333333       0.83333333       0.32119954 </v>
   <v>       0.66666667       0.16666667       0.32119954 </v>
   <v>       0.66666667       0.50000000       0.32119954 </v>
   <v>       0.66666667       0.83333333       0.32119954 </v>
   <v>       0.16666667       0.00000000       0.32119954 </v>
   <v>       0.16666667       0.33333333       0.32119954 </v>
   <v>       0.16666667       0.66666667       0.32119954 </v>
   <v>       0.50000000       0.00000000       0.32119954 </v>
   <v>       0.50000000       0.33333333       0.32119954 </v>
   <v>       0.50000000       0.66666667       0.32119954 </v>
   <v>       0.83333333       0.00000000       0.32119954 </v>
   <v>       0.83333333       0.33333333       0.32119954 </v>
   <v>       0.83333333       0.66666667       0.32119954 </v>
   <v>       0.00000000       0.00000000       0.38476372 </v>
   <v>       0.00000000       0.33333333       0.38476372 </v>
   <v>       0.00000000       0.66666667       0.38476372 </v>
   <v>       0.33333333       0.00000000       0.38476372 </v>
   <v>       0.33333333       0.33333333       0.38476372 </v>
   <v>       0.33333333       0.66666667       0.38476372 </v>
   <v>       0.66666667       0.00000000       0.38476372 </v>
   <v>       0.66666667       0.33333333       0.38476372 </v>
   <v>       0.66666667       0.66666667       0.38476372 </v>
   <v>       0.16666667       0.16666667       0.38476372 </v>
   <v>       0.16666667       0.50000000       0.38476372 </v>
   <v>       0.16666667       0.83333333       0.38476372 </v>
   <v>       0.50000000       0.16666667       0.38476372 </v>
   <v>       0.50000000       0.50000000       0.38476372 </v>
   <v>       0.50000000       0.83333333       0.38476372 </v>
   <v>       0.83333333       0.16666667       0.38476372 </v>
   <v>       0.83333333       0.50000000       0.38476372 </v>
   <v>       0.83333333       0.83333333       0.38476372 </v>
   <v>       0.00000000       0.16666667       0.44736473 </v>
   <v>       0.00000000       0.50000000       0.44736473 </v>
   <v>       0.00000000       0.83333333       0.44736473 </v>
   <v>       0.33333333       0.16666667       0.44736473 </v>
   <v>       0.33333333       0.50000000       0.44736473 </v>
   <v>       0.33333333       0.83333333       0.44736473 </v>
   <v>       0.66666667       0.16666667       0.44736473 </v>
   <v>       0.66666667       0.50000000       0.44736473 </v>
   <v>       0.66666667       0.83333333       0.44736473 </v>
   <v>       0.16666667       0.00000000       0.44736473 </v>
   <v>       0.16666667       0.33333333       0.44736473 </v>
   <v>       0.16666667       0.66666667       0.44736473 </v>
   <v>       0.50000000       0.00000000       0.44736473 </v>
   <v>       0.50000000       0.33333333       0.44736473 </v>
   <v>       0.50000000       0.66666667       0.44736473 </v>
   <v>       0.83333333       0.00000000       0.44736473 </v>
   <v>       0.83333333       0.33333333       0.44736473 </v>
   <v>       0.83333333       0.66666667       0.44736473 </v>
   <v>       0.33333333       0.50000000       0.50150658 </v>
   <v>       0.33333333       0.54843909       0.52054652 </v>
  </varray>
  <varray name="selective"  type="logical" >
   <v type="logical" >  F  F  F </v>
   <v type="logical" >  F  F  F </v>
   <v type="logical" >  F  F  F </v>
   <v type="logical" >  F  F  F </v>
   <v type="logical" >  F  F  F </v>
   <v type="logical" >  F  F  F </v>
   <v type="logical" >  F  F  F </v>
   <v type="logical" >  F  F  F </v>
   <v type="logical" >  F  F  F </v>
   <v type="logical" >  F  F  F </v>
   <v type="logical" >  F  F  F </v>
   <v type="logical" >  F  F  F </v>
   <v type="logical" >  F  F  F </v>
   <v type="logical" >  F  F  F </v>
   <v type="logical" >  F  F  F </v>
   <v type="logical" >  F  F  F </v>
   <v type="logical" >  F  F  F </v>
   <v type="logical" >  F  F  F </v>
   <v type="logical" >  F  F  F </v>
   <v type="logical" >  F  F  F </v>
   <v type="logical" >  F  F  F </v>
   <v type="logical" >  F  F  F </v>
   <v type="logical" >  F  F  F </v>
   <v type="logical" >  F  F  F </v>
   <v type="logical" >  F  F  F </v>
   <v type="logical" >  F  F  F </v>
   <v type="logical" >  F  F  F </v>
   <v type="logical" >  F  F  F </v>
   <v type="logical" >  F  F  F </v>
   <v type="logical" >  F  F  F </v>
   <v type="logical" >  F  F  F </v>
   <v type="logical" >  F  F  F </v>
   <v type="logical" >  F  F  F </v>
   <v type="logical" >  F  F  F </v>
   <v type="logical" >  F  F  F </v>
   <v type="logical" >  F  F  F </v>
   <v type="logical" >  F  F  F </v>
   <v type="logical" >  F  F  F </v>
   <v type="logical" >  F  F  F </v>
   <v type="logical" >  F  F  F </v>
   <v type="logical" >  F  F  F </v>
   <v type="logical" >  F  F  F </v>
   <v type="logical" >  F  F  F </v>
   <v type="logical" >  F  F  F </v>
   <v type="logical" >  F  F  F </v>
   <v type="logical" >  F  F  F </v>
   <v type="logical" >  F  F  F </v>
   <v type="logical" >  F  F  F </v>
   <v type="logical" >  F  F  F </v>
   <v type="logical" >  F  F  F </v>
   <v type="logical" >  F  F  F </v>
   <v type="logical" >  F  F  F </v>
   <v type="logical" >  F  F  F </v>
   <v type="logical" >  F  F  F </v>
   <v type="logical" >  T  T  T </v>
   <v type="logical" >  T  T  T </v>
   <v type="logical" >  T  T  T </v>
   <v type="logical" >  T  T  T </v>
   <v type="logical" >  T  T  T </v>
   <v type="logical" >  T  T  T </v>
   <v type="logical" >  T  T  T </v>
   <v type="logical" >  T  T  T </v>
   <v type="logical" >  T  T  T </v>
   <v type="logical" >  T  T  T </v>
   <v type="logical" >  T  T  T </v>
   <v type="logical" >  T  T  T </v>
   <v type="logical" >  T  T  T </v>
   <v type="logical" >  T  T  T </v>
   <v type="logical" >  T  T  T </v>
   <v type="logical" >  T  T  T </v>
   <v type="logical" >  T  T  T </v>
   <v type="logical" >  T  T  T </v>
   <v type="logical" >  T  T  T </v>
   <v type="logical" >  T  T  T </v>
   <v type="logical" >  T  T  T </v>
   <v type="logical" >  T  T  T </v>
   <v type="logical" >  T  T  T </v>
   <v type="logical" >  T  T  T </v>
   <v type="logical" >  T  T  T </v>
   <v type="logical" >  T  T  T </v>
   <v type="logical" >  T  T  T </v>
   <v type="logical" >  T  T  T </v>
   <v type="logical" >  T  T  T </v>
   <v type="logical" >  T  T  T </v>
   <v type="logical" >  T  T  T </v>
   <v type="logical" >  T  T  T </v>
   <v type="logical" >  T  T  T </v>
   <v type="logical" >  T  T  T </v>
   <v type="logical" >  T  T  T </v>
   <v type="logical" >  T  T  T </v>
   <v type="logical" >  T  T  T </v>
   <v type="logical" >  T  T  T </v>
   <v type="logical" >  T  T  T </v>
   <v type="logical" >  T  T  T </v>
   <v type="logical" >  T  T  T </v>
   <v type="logical" >  T  T  T </v>
   <v type="logical" >  T  T  T </v>
   <v type="logical" >  T  T  T </v>
   <v type="logical" >  T  T  T </v>
   <v type="logical" >  T  T  T </v>
   <v type="logical" >  T  T  T </v>
   <v type="logical" >  T  T  T </v>
   <v type="logical" >  T  T  T </v>
   <v type="logical" >  T  T  T </v>
   <v type="logical" >  T  T  T </v>
   <v type="logical" >  T  T  T </v>
   <v type="logical" >  T  T  T </v>
   <v type="logical" >  T  T  T </v>
   <v type="logical" >  T  T  T </v>
   <v type="logical" >  T  T  T </v>
   <v type="logical" >  T  T  T </v>
   <v type="logical" >  T  T  T </v>
   <v type="logical" >  T  T  T </v>
   <v type="logical" >  T  T  T </v>
   <v type="logical" >  T  T  T </v>
   <v type="logical" >  T  T  T </v>
   <v type="logical" >  T  T  T </v>
   <v type="logical" >  T  T  T </v>
   <v type="logical" >  T  T  T </v>
   <v type="logical" >  T  T  T </v>
   <v type="logical" >  T  T  T </v>
   <v type="logical" >  T  T  T </v>
   <v type="logical" >  T  T  T </v>
   <v type="logical" >  T  T  T </v>
   <v type="logical" >  T  T  T </v>
   <v type="logical" >  T  T  T </v>
   <v type="logical" >  T  T  T </v>
   <v type="logical" >  T  T  T </v>
   <v type="logical" >  T  T  T </v>
   <v type="logical" >  T  T  T </v>
   <v type="logical" >  T  T  T </v>
   <v type="logical" >  T  T  T </v>
   <v type="logical" >  T  T  T </v>
   <v type="logical" >  T  T  T </v>
   <v type="logical" >  T  T  T </v>
   <v type="logical" >  T  T  T </v>
   <v type="logical" >  T  T  T </v>
   <v type="logical" >  T  T  T </v>
   <v type="logical" >  T  T  T </v>
   <v type="logical" >  T  T  T </v>
   <v type="logical" >  T  T  T </v>
   <v type="logical" >  T  T  T </v>
   <v type="logical" >  T  T  T </v>
   <v type="logical" >  T  T  T </v>
   <v type="logical" >  T  T  T </v>
   <v type="logical" >  T  T  T </v>
  </varray>
  <nose>
   <v>      -3.00000000       0.00000000       0.00010000       0.00010000 </v>
  </nose>
 </structure>
 <calculation>
  <scstep>
   <time name="dav">  763.04  772.57</time>
   <time name="total">  763.37  772.93</time>
   <energy>
    <i name="alphaZ">   4623.72760507 </i>
    <i name="ewald"> 915956.08141879 </i>
    <i name="hartreedc">**************** </i>
    <i name="XCdc">   6597.23124480 </i>
    <i name="pawpsdc"> 176849.62809079 </i>
    <i name="pawaedc">-192088.21954245 </i>
    <i name="eentropy">      0.01830094 </i>
    <i name="bandstr">  16002.36268550 </i>
    <i name="atom"> 200322.85745410 </i>
    <i name="e_fr_energy">  15541.87996903 </i>
    <i name="e_wo_entrp">  15541.86166809 </i>
    <i name="e_0_energy">  15541.87386872 </i>
   </energy>
  </scstep>
  <scstep>
   <time name="dav">  762.14  769.88</time>
   <time name="total">  762.15  769.89</time>
   <energy>
    <i name="e_fr_energy">   2263.48827703 </i>
    <i name="e_wo_entrp">   2263.50172256 </i>
    <i name="e_0_energy">   2263.49275887 </i>
   </energy>
  </scstep>
  <scstep>
   <time name="dav">  768.58  776.14</time>
   <time name="total">  768.59  776.15</time>
   <energy>
    <i name="e_fr_energy">   -387.42409526 </i>
    <i name="e_wo_entrp">   -387.53010627 </i>
    <i name="e_0_energy">   -387.45943226 </i>
   </energy>
  </scstep>
  <scstep>
   <time name="dav">  820.83  828.82</time>
   <time name="total">  820.84  828.83</time>
   <energy>
    <i name="e_fr_energy">   -608.69104825 </i>
    <i name="e_wo_entrp">   -608.93497193 </i>
    <i name="e_0_energy">   -608.77235614 </i>
   </energy>
  </scstep>
  <scstep>
   <time name="dav">  834.82  843.91</time>
   <time name="total">  839.07  848.19</time>
   <energy>
    <i name="e_fr_energy">   -614.65147650 </i>
    <i name="e_wo_entrp">   -614.89660753 </i>
    <i name="e_0_energy">   -614.73318685 </i>
   </energy>
  </scstep>
  <scstep>
   <time name="dav">  812.36  823.02</time>
   <time name="total">  816.90  827.61</time>
   <energy>
    <i name="e_fr_energy">   -499.54474188 </i>
    <i name="e_wo_entrp">   -499.48676075 </i>
    <i name="e_0_energy">   -499.52541484 </i>
   </energy>
  </scstep>
  <scstep>
   <time name="dav">  820.81  831.62</time>
   <time name="total">  825.35  836.20</time>
   <energy>
    <i name="e_fr_energy">   -440.97086221 </i>
    <i name="e_wo_entrp">   -440.90530676 </i>
    <i name="e_0_energy">   -440.94901040 </i>
   </energy>
  </scstep>
  <scstep>
   <time name="dav">  858.45  870.61</time>
   <time name="total">  863.02  875.23</time>
   <energy>
    <i name="e_fr_energy">   -442.88828205 </i>
    <i name="e_wo_entrp">   -442.89711631 </i>
    <i name="e_0_energy">   -442.89122680 </i>
   </energy>
  </scstep>
  <scstep>
   <time name="dav">  941.19  953.89</time>
   <time name="total">  945.70  958.45</time>
   <energy>
    <i name="e_fr_energy">   -435.88266140 </i>
    <i name="e_wo_entrp">   -435.93179969 </i>
    <i name="e_0_energy">   -435.89904083 </i>
   </energy>
  </scstep>
  <scstep>
   <time name="dav"> 1037.88 1052.71</time>
   <time name="total"> 1042.45 1057.32</time>
   <energy>
    <i name="e_fr_energy">   -429.02765981 </i>
    <i name="e_wo_entrp">   -428.94267887 </i>
    <i name="e_0_energy">   -428.99933283 </i>
   </energy>
  </scstep>
  <scstep>
   <time name="dav"> 1156.50 1171.74</time>
   <time name="total"> 1161.59 1176.89</time>
   <energy>
    <i name="e_fr_energy">   -431.87495881 </i>
    <i name="e_wo_entrp">   -431.77656291 </i>
    <i name="e_0_energy">   -431.84216017 </i>
   </energy>
  </scstep>
  <scstep>
   <time name="dav">  835.19  846.30</time>
   <time name="total">  839.73  850.88</time>
   <energy>
    <i name="e_fr_energy">   -441.83159928 </i>
    <i name="e_wo_entrp">   -441.73278632 </i>
    <i name="e_0_energy">   -441.79866162 </i>
   </energy>
  </scstep>
  <scstep>
   <time name="dav">  871.05  882.65</time>
   <time name="total">  875.58  887.23</time>
   <energy>
    <i name="e_fr_energy">   -445.08236929 </i>
    <i name="e_wo_entrp">   -445.01680532 </i>
    <i name="e_0_energy">   -445.06051464 </i>
   </energy>
  </scstep>
  <scstep>
   <time name="dav">  836.49  847.45</time>
   <time name="total">  841.12  852.12</time>
   <energy>
    <i name="e_fr_energy">   -454.88453723 </i>
    <i name="e_wo_entrp">   -454.83301815 </i>
    <i name="e_0_energy">   -454.86736421 </i>
   </energy>
  </scstep>
  <scstep>
   <time name="dav">  883.75  895.44</time>
   <time name="total">  888.73  900.62</time>
   <energy>
    <i name="e_fr_energy">   -465.86613622 </i>
    <i name="e_wo_entrp">   -465.87667599 </i>
    <i name="e_0_energy">   -465.86964947 </i>
   </energy>
  </scstep>
  <scstep>
   <time name="dav">  917.09  929.01</time>
   <time name="total">  921.68  933.64</time>
   <energy>
    <i name="e_fr_energy">   -488.39776233 </i>
    <i name="e_wo_entrp">   -488.51162011 </i>
    <i name="e_0_energy">   -488.43571492 </i>
   </energy>
  </scstep>
  <scstep>
   <time name="dav">  830.28  840.61</time>
   <time name="total">  835.59  846.15</time>
   <energy>
    <i name="e_fr_energy">   -495.15273893 </i>
    <i name="e_wo_entrp">   -495.28897175 </i>
    <i name="e_0_energy">   -495.19814987 </i>
   </energy>
  </scstep>
  <scstep>
   <time name="dav">  838.88  850.39</time>
   <time name="total">  843.48  855.03</time>
   <energy>
    <i name="e_fr_energy">   -498.70810255 </i>
    <i name="e_wo_entrp">   -498.85692112 </i>
    <i name="e_0_energy">   -498.75770874 </i>
   </energy>
  </scstep>
  <scstep>
   <time name="dav">  917.27  929.25</time>
   <time name="total">  921.88  933.94</time>
   <energy>
    <i name="e_fr_energy">   -505.51018617 </i>
    <i name="e_wo_entrp">   -505.65714628 </i>
    <i name="e_0_energy">   -505.55917287 </i>
   </energy>
  </scstep>
  <scstep>
   <time name="dav">  847.94  859.35</time>
   <time name="total">  852.51  863.97</time>
   <energy>
    <i name="e_fr_energy">   -510.45950095 </i>
    <i name="e_wo_entrp">   -510.57934885 </i>
    <i name="e_0_energy">   -510.49945025 </i>
   </energy>
  </scstep>
  <scstep>
   <time name="dav">  941.52  953.40</time>
   <time name="total">  946.12  958.04</time>
   <energy>
    <i name="e_fr_energy">   -512.61446836 </i>
    <i name="e_wo_entrp">   -512.72628347 </i>
    <i name="e_0_energy">   -512.65174006 </i>
   </energy>
  </scstep>
  <scstep>
   <time name="dav">  932.34  943.82</time>
   <time name="total">  937.41  949.09</time>
   <energy>
    <i name="e_fr_energy">   -515.45137699 </i>
    <i name="e_wo_entrp">   -515.56646889 </i>
    <i name="e_0_energy">   -515.48974096 </i>
   </energy>
  </scstep>
  <scstep>
   <time name="dav">  934.18  945.30</time>
   <time name="total">  938.76  949.92</time>
   <energy>
    <i name="e_fr_energy">   -516.62154005 </i>
    <i name="e_wo_entrp">   -516.73067992 </i>
    <i name="e_0_energy">   -516.65792000 </i>
   </energy>
  </scstep>
  <scstep>
   <time name="dav">  932.62  944.11</time>
   <time name="total">  937.25  948.78</time>
   <energy>
    <i name="e_fr_energy">   -517.95903348 </i>
    <i name="e_wo_entrp">   -518.07755655 </i>
    <i name="e_0_energy">   -517.99854117 </i>
   </energy>
  </scstep>
  <scstep>
   <time name="dav">  841.97  852.19</time>
   <time name="total">  846.51  856.77</time>
   <energy>
    <i name="e_fr_energy">   -519.10090421 </i>
    <i name="e_wo_entrp">   -519.21552061 </i>
    <i name="e_0_energy">   -519.13910967 </i>
   </energy>
  </scstep>
  <scstep>
   <time name="dav">  889.43  900.04</time>
   <time name="total">  893.91  904.56</time>
   <energy>
    <i name="e_fr_energy">   -519.54835055 </i>
    <i name="e_wo_entrp">   -519.66032195 </i>
    <i name="e_0_energy">   -519.58567435 </i>
   </energy>
  </scstep>
  <scstep>
   <time name="dav">  834.01  844.82</time>
   <time name="total">  838.52  849.37</time>
   <energy>
    <i name="e_fr_energy">   -520.29737816 </i>
    <i name="e_wo_entrp">   -520.40751231 </i>
    <i name="e_0_energy">   -520.33408954 </i>
   </energy>
  </scstep>
  <scstep>
   <time name="dav">  875.15  886.82</time>
   <time name="total">  879.68  891.39</time>
   <energy>
    <i name="e_fr_energy">   -521.15234147 </i>
    <i name="e_wo_entrp">   -521.26209372 </i>
    <i name="e_0_energy">   -521.18892555 </i>
   </energy>
  </scstep>
  <scstep>
   <time name="dav">  852.33  863.72</time>
   <time name="total">  856.83  868.26</time>
   <energy>
    <i name="e_fr_energy">   -521.31505439 </i>
    <i name="e_wo_entrp">   -521.42611066 </i>
    <i name="e_0_energy">   -521.35207315 </i>
   </energy>
  </scstep>
  <scstep>
   <time name="dav">  854.00  864.05</time>
   <time name="total">  859.06  869.17</time>
   <energy>
    <i name="e_fr_energy">   -521.35229112 </i>
    <i name="e_wo_entrp">   -521.46379656 </i>
    <i name="e_0_energy">   -521.38945960 </i>
   </energy>
  </scstep>
  <scstep>
   <time name="dav">  826.91  834.68</time>
   <time name="total">  832.09  839.92</time>
   <energy>
    <i name="e_fr_energy">   -521.37086926 </i>
    <i name="e_wo_entrp">   -521.48138472 </i>
    <i name="e_0_energy">   -521.40770775 </i>
   </energy>
  </scstep>
  <scstep>
   <time name="dav">  587.63  593.39</time>
   <time name="total">  592.27  598.07</time>
   <energy>
    <i name="e_fr_energy">   -521.37277236 </i>
    <i name="e_wo_entrp">   -521.48317133 </i>
    <i name="e_0_energy">   -521.40957201 </i>
   </energy>
  </scstep>
  <scstep>
   <time name="dav">  583.67  589.45</time>
   <time name="total">  588.19  594.01</time>
   <energy>
    <i name="e_fr_energy">   -521.37342503 </i>
    <i name="e_wo_entrp">   -521.48404128 </i>
    <i name="e_0_energy">   -521.41029711 </i>
   </energy>
  </scstep>
  <scstep>
   <time name="dav">  567.69  573.06</time>
   <time name="total">  568.02  573.40</time>
   <energy>
    <i name="alphaZ">   4623.72760507 </i>
    <i name="ewald"> 915956.08141879 </i>
    <i name="hartreedc">**************** </i>
    <i name="XCdc">   6429.54041379 </i>
    <i name="pawpsdc"> 189029.34184046 </i>
    <i name="pawaedc">-204549.46356688 </i>
    <i name="eentropy">      0.11062224 </i>
    <i name="bandstr">  -1748.82563173 </i>
    <i name="atom"> 200322.85745410 </i>
    <i name="e_fr_energy">   -521.37344447 </i>
    <i name="e_wo_entrp">   -521.48406671 </i>
    <i name="e_0_energy">   -521.41031855 </i>
   </energy>
  </scstep>
  <structure>
   <crystal>
    <varray name="basis" >
     <v>      10.89000034       0.00000000       0.00000000 </v>
     <v>       0.00000000      10.89000034       0.00000000 </v>
     <v>       0.00000000       0.00000000      27.70499992 </v>
    </varray>
    <i name="volume">   3285.59432860 </i>
    <varray name="rec_basis" >
     <v>       0.09182736       0.00000000       0.00000000 </v>
     <v>       0.00000000       0.09182736       0.00000000 </v>
     <v>       0.00000000       0.00000000       0.03609457 </v>
    </varray>
   </crystal>
   <varray name="positions" >
    <v>       0.00000000       0.00000000       0.00000000 </v>
    <v>       0.00000000       0.33333333       0.00000000 </v>
    <v>       0.00000000       0.66666667       0.00000000 </v>
    <v>       0.33333333       0.00000000       0.00000000 </v>
    <v>       0.33333333       0.33333333       0.00000000 </v>
    <v>       0.33333333       0.66666667       0.00000000 </v>
    <v>       0.66666667       0.00000000       0.00000000 </v>
    <v>       0.66666667       0.33333333       0.00000000 </v>
    <v>       0.66666667       0.66666667       0.00000000 </v>
    <v>       0.16666667       0.16666667       0.00000000 </v>
    <v>       0.16666667       0.50000000       0.00000000 </v>
    <v>       0.16666667       0.83333333       0.00000000 </v>
    <v>       0.50000000       0.16666667       0.00000000 </v>
    <v>       0.50000000       0.50000000       0.00000000 </v>
    <v>       0.50000000       0.83333333       0.00000000 </v>
    <v>       0.83333333       0.16666667       0.00000000 </v>
    <v>       0.83333333       0.50000000       0.00000000 </v>
    <v>       0.83333333       0.83333333       0.00000000 </v>
    <v>       0.00000000       0.16666667       0.06551164 </v>
    <v>       0.00000000       0.50000000       0.06551164 </v>
    <v>       0.00000000       0.83333333       0.06551164 </v>
    <v>       0.33333333       0.16666667       0.06551164 </v>
    <v>       0.33333333       0.50000000       0.06551164 </v>
    <v>       0.33333333       0.83333333       0.06551164 </v>
    <v>       0.66666667       0.16666667       0.06551164 </v>
    <v>       0.66666667       0.50000000       0.06551164 </v>
    <v>       0.66666667       0.83333333       0.06551164 </v>
    <v>       0.16666667       0.00000000       0.06551164 </v>
    <v>       0.16666667       0.33333333       0.06551164 </v>
    <v>       0.16666667       0.66666667       0.06551164 </v>
    <v>       0.50000000       0.00000000       0.06551164 </v>
    <v>       0.50000000       0.33333333       0.06551164 </v>
    <v>       0.50000000       0.66666667       0.06551164 </v>
    <v>       0.83333333       0.00000000       0.06551164 </v>
    <v>       0.83333333       0.33333333       0.06551164 </v>
    <v>       0.83333333       0.66666667       0.06551164 </v>
    <v>       0.00000000       0.00000000       0.13119553 </v>
    <v>       0.00000000       0.33333333       0.13119553 </v>
    <v>       0.00000000       0.66666667       0.13119553 </v>
    <v>       0.33333333       0.00000000       0.13119553 </v>
    <v>       0.33333333       0.33333333       0.13119553 </v>
    <v>       0.33333333       0.66666667       0.13119553 </v>
    <v>       0.66666667       0.00000000       0.13119553 </v>
    <v>       0.66666667       0.33333333       0.13119553 </v>
    <v>       0.66666667       0.66666667       0.13119553 </v>
    <v>       0.16666667       0.16666667       0.13119553 </v>
    <v>       0.16666667       0.50000000       0.13119553 </v>
    <v>       0.16666667       0.83333333       0.13119553 </v>
    <v>       0.50000000       0.16666667       0.13119553 </v>
    <v>       0.50000000       0.50000000       0.13119553 </v>
    <v>       0.50000000       0.83333333       0.13119553 </v>
    <v>       0.83333333       0.16666667       0.13119553 </v>
    <v>       0.83333333       0.50000000       0.13119553 </v>
    <v>       0.83333333       0.83333333       0.13119553 </v>
    <v>       0.00000000       0.16666667       0.19620680 </v>
    <v>       0.00000000       0.50000000       0.19620680 </v>
    <v>       0.00000000       0.83333333       0.19620680 </v>
    <v>       0.33333333       0.16666667       0.19620680 </v>
    <v>       0.33333333       0.50000000       0.19620680 </v>
    <v>       0.33333333       0.83333333       0.19620680 </v>
    <v>       0.66666667       0.16666667       0.19620680 </v>
    <v>       0.66666667       0.50000000       0.19620680 </v>
    <v>       0.66666667       0.83333333       0.19620680 </v>
    <v>       0.16666667       0.00000000       0.19620680 </v>
    <v>       0.16666667       0.33333333       0.19620680 </v>
    <v>       0.16666667       0.66666667       0.19620680 </v>
    <v>       0.50000000       0.00000000       0.19620680 </v>
    <v>       0.50000000       0.33333333       0.19620680 </v>
    <v>       0.50000000       0.66666667       0.19620680 </v>
    <v>       0.83333333       0.00000000       0.19620680 </v>
    <v>       0.83333333       0.33333333       0.19620680 </v>
    <v>       0.83333333       0.66666667       0.19620680 </v>
    <v>       0.00000000       0.00000000       0.25873860 </v>
    <v>       0.00000000       0.33333333       0.25873860 </v>
    <v>       0.00000000       0.66666667       0.25873860 </v>
    <v>       0.33333333       0.00000000       0.25873860 </v>
    <v>       0.33333333       0.33333333       0.25873860 </v>
    <v>       0.33333333       0.66666667       0.25873860 </v>
    <v>       0.66666667       0.00000000       0.25873860 </v>
    <v>       0.66666667       0.33333333       0.25873860 </v>
    <v>       0.66666667       0.66666667       0.25873860 </v>
    <v>       0.16666667       0.16666667       0.25873860 </v>
    <v>       0.16666667       0.50000000       0.25873860 </v>
    <v>       0.16666667       0.83333333       0.25873860 </v>
    <v>       0.50000000       0.16666667       0.25873860 </v>
    <v>       0.50000000       0.50000000       0.25873860 </v>
    <v>       0.50000000       0.83333333       0.25873860 </v>
    <v>       0.83333333       0.16666667       0.25873860 </v>
    <v>       0.83333333       0.50000000       0.25873860 </v>
    <v>       0.83333333       0.83333333       0.25873860 </v>
    <v>       0.00000000       0.16666667       0.32119954 </v>
    <v>       0.00000000       0.50000000       0.32119954 </v>
    <v>       0.00000000       0.83333333       0.32119954 </v>
    <v>       0.33333333       0.16666667       0.32119954 </v>
    <v>       0.33333333       0.50000000       0.32119954 </v>
    <v>       0.33333333       0.83333333       0.32119954 </v>
    <v>       0.66666667       0.16666667       0.32119954 </v>
    <v>       0.66666667       0.50000000       0.32119954 </v>
    <v>       0.66666667       0.83333333       0.32119954 </v>
    <v>       0.16666667       0.00000000       0.32119954 </v>
    <v>       0.16666667       0.33333333       0.32119954 </v>
    <v>       0.16666667       0.66666667       0.32119954 </v>
    <v>       0.50000000       0.00000000       0.32119954 </v>
    <v>       0.50000000       0.33333333       0.32119954 </v>
    <v>       0.50000000       0.66666667       0.32119954 </v>
    <v>       0.83333333       0.00000000       0.32119954 </v>
    <v>       0.83333333       0.33333333       0.32119954 </v>
    <v>       0.83333333       0.66666667       0.32119954 </v>
    <v>       0.00000000       0.00000000       0.38476372 </v>
    <v>       0.00000000       0.33333333       0.38476372 </v>
    <v>       0.00000000       0.66666667       0.38476372 </v>
    <v>       0.33333333       0.00000000       0.38476372 </v>
    <v>       0.33333333       0.33333333       0.38476372 </v>
    <v>       0.33333333       0.66666667       0.38476372 </v>
    <v>       0.66666667       0.00000000       0.38476372 </v>
    <v>       0.66666667       0.33333333       0.38476372 </v>
    <v>       0.66666667       0.66666667       0.38476372 </v>
    <v>       0.16666667       0.16666667       0.38476372 </v>
    <v>       0.16666667       0.50000000       0.38476372 </v>
    <v>       0.16666667       0.83333333       0.38476372 </v>
    <v>       0.50000000       0.16666667       0.38476372 </v>
    <v>       0.50000000       0.50000000       0.38476372 </v>
    <v>       0.50000000       0.83333333       0.38476372 </v>
    <v>       0.83333333       0.16666667       0.38476372 </v>
    <v>       0.83333333       0.50000000       0.38476372 </v>
    <v>       0.83333333       0.83333333       0.38476372 </v>
    <v>       0.00000000       0.16666667       0.44736473 </v>
    <v>       0.00000000       0.50000000       0.44736473 </v>
    <v>       0.00000000       0.83333333       0.44736473 </v>
    <v>       0.33333333       0.16666667       0.44736473 </v>
    <v>       0.33333333       0.50000000       0.44736473 </v>
    <v>       0.33333333       0.83333333       0.44736473 </v>
    <v>       0.66666667       0.16666667       0.44736473 </v>
    <v>       0.66666667       0.50000000       0.44736473 </v>
    <v>       0.66666667       0.83333333       0.44736473 </v>
    <v>       0.16666667       0.00000000       0.44736473 </v>
    <v>       0.16666667       0.33333333       0.44736473 </v>
    <v>       0.16666667       0.66666667       0.44736473 </v>
    <v>       0.50000000       0.00000000       0.44736473 </v>
    <v>       0.50000000       0.33333333       0.44736473 </v>
    <v>       0.50000000       0.66666667       0.44736473 </v>
    <v>       0.83333333       0.00000000       0.44736473 </v>
    <v>       0.83333333       0.33333333       0.44736473 </v>
    <v>       0.83333333       0.66666667       0.44736473 </v>
    <v>       0.33333333       0.50000000       0.50150658 </v>
    <v>       0.33333333       0.54843909       0.52054652 </v>
   </varray>
  </structure>
  <varray name="forces" >
   <v>      -0.00226632      -0.00019256       0.31088933 </v>
   <v>       0.00357580      -0.00108372       0.31094370 </v>
   <v>       0.00368355       0.00172578       0.31057642 </v>
   <v>       0.00000000      -0.00040699       0.31130234 </v>
   <v>       0.00000000      -0.00097121       0.31019396 </v>
   <v>       0.00000000       0.00233967       0.30850969 </v>
   <v>       0.00226632      -0.00019256       0.31088933 </v>
   <v>      -0.00357580      -0.00108372       0.31094370 </v>
   <v>      -0.00368355       0.00172578       0.31057642 </v>
   <v>      -0.00150651       0.00337317       0.31040326 </v>
   <v>      -0.00176955      -0.00017370       0.30923097 </v>
   <v>      -0.00172793      -0.00361322       0.31084700 </v>
   <v>       0.00150651       0.00337317       0.31040326 </v>
   <v>       0.00176955      -0.00017370       0.30923097 </v>
   <v>       0.00172793      -0.00361322       0.31084700 </v>
   <v>       0.00000000      -0.00313747       0.31136622 </v>
   <v>       0.00000000       0.00019076       0.31159508 </v>
   <v>       0.00000000       0.00202573       0.31087229 </v>
   <v>       0.00025350       0.00139999      -0.07681940 </v>
   <v>      -0.00064655      -0.00004560      -0.07776958 </v>
   <v>       0.00186883      -0.00045465      -0.07847702 </v>
   <v>       0.00000000      -0.00289504      -0.07891276 </v>
   <v>       0.00000000      -0.00089439      -0.07300043 </v>
   <v>       0.00000000      -0.00156924      -0.07745641 </v>
   <v>      -0.00025350       0.00139999      -0.07681940 </v>
   <v>       0.00064655      -0.00004560      -0.07776958 </v>
   <v>      -0.00186883      -0.00045465      -0.07847702 </v>
   <v>       0.00181436       0.00023128      -0.07896800 </v>
   <v>       0.00042270       0.00177159      -0.08042596 </v>
   <v>       0.00144582       0.00033059      -0.07858079 </v>
   <v>      -0.00181436       0.00023128      -0.07896800 </v>
   <v>      -0.00042270       0.00177159      -0.08042596 </v>
   <v>      -0.00144582       0.00033059      -0.07858079 </v>
   <v>       0.00000000       0.00047840      -0.07477556 </v>
   <v>       0.00000000       0.00100107      -0.07791870 </v>
   <v>       0.00000000      -0.00256753      -0.07993585 </v>
   <v>      -0.00198894      -0.00081421      -0.00457191 </v>
   <v>       0.00635481      -0.00284893      -0.00518432 </v>
   <v>       0.00530138       0.00517508      -0.00537837 </v>
   <v>       0.00000000      -0.00077442       0.00733262 </v>
   <v>       0.00000000       0.00090526      -0.01060103 </v>
   <v>       0.00000000       0.00370818      -0.00946981 </v>
   <v>       0.00198894      -0.00081421      -0.00457191 </v>
   <v>      -0.00635481      -0.00284893      -0.00518432 </v>
   <v>      -0.00530138       0.00517508      -0.00537837 </v>
   <v>      -0.00326755       0.00597839      -0.00358205 </v>
   <v>      -0.00173713      -0.00349656      -0.01046072 </v>
   <v>      -0.00519832      -0.00610111      -0.00670810 </v>
   <v>       0.00326755       0.00597839      -0.00358205 </v>
   <v>       0.00173713      -0.00349656      -0.01046072 </v>
   <v>       0.00519832      -0.00610111      -0.00670810 </v>
   <v>       0.00000000      -0.00262832      -0.00529225 </v>
   <v>       0.00000000       0.00153452       0.00772717 </v>
   <v>       0.00000000       0.00144179      -0.00380238 </v>
   <v>       0.00029959       0.00141537      -0.26792950 </v>
   <v>       0.00160388      -0.00013263      -0.25905158 </v>
   <v>       0.00257256      -0.00128379      -0.26541991 </v>
   <v>       0.00000000       0.00055466      -0.26230953 </v>
   <v>       0.00000000       0.00114170      -0.27262253 </v>
   <v>       0.00000000      -0.00182892      -0.25492081 </v>
   <v>      -0.00029959       0.00141537      -0.26792950 </v>
   <v>      -0.00160388      -0.00013263      -0.25905158 </v>
   <v>      -0.00257256      -0.00128379      -0.26541991 </v>
   <v>       0.00101606      -0.00090485      -0.27706923 </v>
   <v>      -0.00124537      -0.00033266      -0.25558578 </v>
   <v>      -0.00048879       0.00116367      -0.25984095 </v>
   <v>      -0.00101606      -0.00090485      -0.27706923 </v>
   <v>       0.00124537      -0.00033266      -0.25558578 </v>
   <v>       0.00048879       0.00116367      -0.25984095 </v>
   <v>       0.00000000       0.00096639      -0.26667092 </v>
   <v>       0.00000000       0.00055692      -0.27618772 </v>
   <v>       0.00000000      -0.00123825      -0.27767207 </v>
   <v>       0.00189463      -0.00047867      -0.02624870 </v>
   <v>      -0.00351598      -0.00287230      -0.03701797 </v>
   <v>      -0.00673991       0.00340485      -0.03973731 </v>
   <v>       0.00000000       0.00658666      -0.03762835 </v>
   <v>       0.00000000       0.00168746      -0.01606485 </v>
   <v>       0.00000000      -0.00275718      -0.00540640 </v>
   <v>      -0.00189463      -0.00047867      -0.02624870 </v>
   <v>       0.00351598      -0.00287230      -0.03701797 </v>
   <v>       0.00673991       0.00340485      -0.03973731 </v>
   <v>      -0.00243084      -0.00670607      -0.03880224 </v>
   <v>       0.00245467       0.00010463      -0.01016605 </v>
   <v>      -0.00386474       0.00344931      -0.03877242 </v>
   <v>       0.00243084      -0.00670607      -0.03880224 </v>
   <v>      -0.00245467       0.00010463      -0.01016605 </v>
   <v>       0.00386474       0.00344931      -0.03877242 </v>
   <v>       0.00000000       0.00156067      -0.02687970 </v>
   <v>       0.00000000       0.00087296      -0.03819385 </v>
   <v>       0.00000000      -0.00163996      -0.02597403 </v>
   <v>       0.00245327       0.00422162       0.05371134 </v>
   <v>       0.00643380      -0.00108043       0.05178321 </v>
   <v>       0.00327177      -0.00196140       0.05566742 </v>
[...]
    <v>       0.83333333       0.50000000       0.00000000 </v>
    <v>       0.83333333       0.83333333       0.00000000 </v>
    <v>       0.00000000       0.16666667       0.06551164 </v>
    <v>       0.00000000       0.50000000       0.06551164 </v>
    <v>       0.00000000       0.83333333       0.06551164 </v>
    <v>       0.33333333       0.16666667       0.06551164 </v>
    <v>       0.33333333       0.50000000       0.06551164 </v>
    <v>       0.33333333       0.83333333       0.06551164 </v>
    <v>       0.66666667       0.16666667       0.06551164 </v>
    <v>       0.66666667       0.50000000       0.06551164 </v>
    <v>       0.66666667       0.83333333       0.06551164 </v>
    <v>       0.16666667       0.00000000       0.06551164 </v>
    <v>       0.16666667       0.33333333       0.06551164 </v>
    <v>       0.16666667       0.66666667       0.06551164 </v>
    <v>       0.50000000       0.00000000       0.06551164 </v>
    <v>       0.50000000       0.33333333       0.06551164 </v>
    <v>       0.50000000       0.66666667       0.06551164 </v>
    <v>       0.83333333       0.00000000       0.06551164 </v>
    <v>       0.83333333       0.33333333       0.06551164 </v>
    <v>       0.83333333       0.66666667       0.06551164 </v>
    <v>       0.00000000       0.00000000       0.13119553 </v>
    <v>       0.00000000       0.33333333       0.13119553 </v>
    <v>       0.00000000       0.66666667       0.13119553 </v>
    <v>       0.33333333       0.00000000       0.13119553 </v>
    <v>       0.33333333       0.33333333       0.13119553 </v>
    <v>       0.33333333       0.66666667       0.13119553 </v>
    <v>       0.66666667       0.00000000       0.13119553 </v>
    <v>       0.66666667       0.33333333       0.13119553 </v>
    <v>       0.66666667       0.66666667       0.13119553 </v>
    <v>       0.16666667       0.16666667       0.13119553 </v>
    <v>       0.16666667       0.50000000       0.13119553 </v>
    <v>       0.16666667       0.83333333       0.13119553 </v>
    <v>       0.50000000       0.16666667       0.13119553 </v>
    <v>       0.50000000       0.50000000       0.13119553 </v>
    <v>       0.50000000       0.83333333       0.13119553 </v>
    <v>       0.83333333       0.16666667       0.13119553 </v>
    <v>       0.83333333       0.50000000       0.13119553 </v>
    <v>       0.83333333       0.83333333       0.13119553 </v>
    <v>      -0.00000017       0.16673281       0.19426040 </v>
    <v>       0.00011499       0.50005080       0.19431111 </v>
    <v>       0.00000680       0.83339336       0.19426230 </v>
    <v>       0.33333333       0.16683378       0.19430740 </v>
    <v>       0.33333333       0.50005825       0.19424248 </v>
    <v>       0.33333333       0.83329663       0.19433372 </v>
    <v>       0.66666684       0.16673281       0.19426040 </v>
    <v>       0.66655167       0.50005080       0.19431111 </v>
    <v>       0.66665987       0.83339336       0.19426230 </v>
    <v>       0.16667562       0.00006249       0.19418758 </v>
    <v>       0.16672368       0.33344646       0.19431809 </v>
    <v>       0.16673035       0.66666707       0.19431778 </v>
    <v>       0.49999104       0.00006249       0.19418758 </v>
    <v>       0.49994298       0.33344646       0.19431809 </v>
    <v>       0.49993632       0.66666707       0.19431778 </v>
    <v>       0.83333333       0.00007304       0.19429801 </v>
    <v>       0.83333333       0.33338482       0.19419792 </v>
    <v>       0.83333333       0.66672100       0.19419351 </v>
    <v>       0.00008091       0.00012320       0.25726435 </v>
    <v>       0.00005956       0.33350328       0.25728462 </v>
    <v>       0.00004257       0.66666524       0.25727266 </v>
    <v>       0.33333333       0.00016640       0.25736497 </v>
    <v>       0.33333333       0.33348680       0.25738971 </v>
    <v>       0.33333333       0.66668143       0.25740347 </v>
    <v>       0.66658575       0.00012320       0.25726435 </v>
    <v>       0.66660710       0.33350328       0.25728462 </v>
    <v>       0.66662410       0.66666524       0.25727266 </v>
    <v>       0.16677066       0.16682345       0.25727464 </v>
    <v>       0.16675778       0.50007259       0.25738911 </v>
    <v>       0.16675681       0.83339742       0.25726542 </v>
    <v>       0.49989601       0.16682345       0.25727464 </v>
    <v>       0.49990889       0.50007259       0.25738911 </v>
    <v>       0.49990986       0.83339742       0.25726542 </v>
    <v>       0.83333333       0.16684751       0.25726502 </v>
    <v>       0.83333333       0.50007311       0.25734489 </v>
    <v>       0.83333333       0.83337536       0.25726178 </v>
    <v>       0.00018202       0.16700395       0.32033471 </v>
    <v>       0.00056491       0.50008245       0.32051400 </v>
    <v>       0.00016184       0.83332048       0.32030389 </v>
    <v>       0.33333333       0.16746747       0.32059773 </v>
    <v>       0.33333333       0.50007878       0.32057010 </v>
    <v>       0.33333333       0.83298300       0.32052370 </v>
    <v>       0.66648465       0.16700395       0.32033471 </v>
    <v>       0.66610176       0.50008245       0.32051400 </v>
    <v>       0.66650482       0.83332048       0.32030389 </v>
    <v>       0.16689481       0.00017729       0.32030403 </v>
    <v>       0.16689023       0.33362882       0.32052941 </v>
    <v>       0.16684471       0.66660862       0.32048213 </v>
    <v>       0.49977186       0.00017729       0.32030403 </v>
    <v>       0.49977644       0.33362882       0.32052941 </v>
    <v>       0.49982196       0.66660862       0.32048213 </v>
    <v>       0.83333333       0.00016878       0.32023915 </v>
    <v>       0.83333333       0.33366273       0.32034135 </v>
    <v>       0.83333333       0.66656901       0.32029949 </v>
    <v>       0.00009843       0.00018316       0.38393137 </v>
    <v>      -0.00000869       0.33352534       0.38410761 </v>
    <v>      -0.00014424       0.66677760       0.38402077 </v>
    <v>       0.33333333       0.00025243       0.38410457 </v>
    <v>       0.33333333       0.33500182       0.38505740 </v>
    <v>       0.33333333       0.66551381       0.38485819 </v>
    <v>       0.66656824       0.00018316       0.38393137 </v>
    <v>       0.66667536       0.33352534       0.38410761 </v>
    <v>       0.66681091       0.66677760       0.38402077 </v>
    <v>       0.16673630       0.16671003       0.38407689 </v>
    <v>       0.16794635       0.50016204       0.38489085 </v>
    <v>       0.16671572       0.83371278       0.38399524 </v>
    <v>       0.49993036       0.16671003       0.38407689 </v>
    <v>       0.49872032       0.50016204       0.38489085 </v>
    <v>       0.49995094       0.83371278       0.38399524 </v>
    <v>       0.83333333       0.16694141       0.38394513 </v>
    <v>       0.83333333       0.50011489       0.38402389 </v>
    <v>       0.83333333       0.83341263       0.38390113 </v>
    <v>      -0.00038053       0.16641923       0.44666776 </v>
    <v>      -0.00004702       0.50019761       0.44665092 </v>
    <v>      -0.00043666       0.83392203       0.44663297 </v>
    <v>       0.33333333       0.16687191       0.44681025 </v>
    <v>       0.33333333       0.50026798       0.45037043 </v>
    <v>       0.33333333       0.83345580       0.44669451 </v>
    <v>       0.66704719       0.16641923       0.44666776 </v>
    <v>       0.66671369       0.50019761       0.44665092 </v>
    <v>       0.66710333       0.83392203       0.44663297 </v>
    <v>       0.16662066       0.00012622       0.44669679 </v>
    <v>       0.16541821       0.33202408       0.44678902 </v>
    <v>       0.16506908       0.66863485       0.44657137 </v>
    <v>       0.50004600       0.00012622       0.44669679 </v>
    <v>       0.50124845       0.33202408       0.44678902 </v>
    <v>       0.50159759       0.66863485       0.44657137 </v>
    <v>       0.83333333       0.00014684       0.44656574 </v>
    <v>       0.83333333       0.33345615       0.44669827 </v>
    <v>       0.83333333       0.66687195       0.44666985 </v>
    <v>       0.33333333       0.47548942       0.51699530 </v>
    <v>       0.33333333       0.54801676       0.51439845 </v>
   </varray>
  </structure>
  <varray name="forces" >
   <v>      -0.00277444       0.00044993       0.31392154 </v>
   <v>       0.00405169      -0.00056959       0.31385730 </v>
   <v>       0.00403729       0.00184136       0.31380103 </v>
   <v>       0.00000000       0.00040280       0.31425259 </v>
   <v>       0.00000000      -0.00210905       0.31352455 </v>
   <v>       0.00000000       0.00361638       0.31296824 </v>
   <v>       0.00277444       0.00044993       0.31392154 </v>
   <v>      -0.00405169      -0.00056959       0.31385730 </v>
   <v>      -0.00403729       0.00184136       0.31380103 </v>
   <v>      -0.00184200       0.00448805       0.31362245 </v>
   <v>      -0.00312270       0.00039068       0.31285489 </v>
   <v>      -0.00189066      -0.00342049       0.31366888 </v>
   <v>       0.00184200       0.00448805       0.31362245 </v>
   <v>       0.00312270       0.00039068       0.31285489 </v>
   <v>       0.00189066      -0.00342049       0.31366888 </v>
   <v>       0.00000000      -0.00313439       0.31463979 </v>
   <v>       0.00000000       0.00056720       0.31464525 </v>
   <v>       0.00000000       0.00391307       0.31453241 </v>
   <v>       0.00094194       0.00180069      -0.08632463 </v>
   <v>      -0.00055500       0.00052749      -0.08613399 </v>
   <v>       0.00144682      -0.00041658      -0.08685119 </v>
   <v>       0.00000000      -0.00028965      -0.08738590 </v>
   <v>       0.00000000       0.00021624      -0.08090531 </v>
   <v>       0.00000000       0.00004820      -0.08686974 </v>
   <v>      -0.00094194       0.00180069      -0.08632463 </v>
   <v>       0.00055500       0.00052749      -0.08613399 </v>
   <v>      -0.00144682      -0.00041658      -0.08685119 </v>
   <v>       0.00203054       0.00058478      -0.08776525 </v>
   <v>       0.00117419       0.00137750      -0.08968127 </v>
   <v>       0.00145025       0.00037227      -0.08915345 </v>
   <v>      -0.00203054       0.00058478      -0.08776525 </v>
   <v>      -0.00117419       0.00137750      -0.08968127 </v>
   <v>      -0.00145025       0.00037227      -0.08915345 </v>
   <v>       0.00000000       0.00067720      -0.08415627 </v>
   <v>       0.00000000       0.00210946      -0.08724486 </v>
   <v>       0.00000000      -0.00142734      -0.08787779 </v>
   <v>      -0.00569099       0.00170404      -0.21549433 </v>
   <v>       0.01077199      -0.00019706      -0.21427430 </v>
   <v>       0.01071650       0.00459482      -0.21384896 </v>
   <v>       0.00000000       0.00087513      -0.20061766 </v>
   <v>       0.00000000       0.00012293      -0.21930132 </v>
   <v>       0.00000000       0.00605206      -0.21807522 </v>
   <v>       0.00569099       0.00170404      -0.21549433 </v>
   <v>      -0.01077199      -0.00019706      -0.21427430 </v>
   <v>      -0.01071650       0.00459482      -0.21384896 </v>
   <v>      -0.00317834       0.01323360      -0.21433201 </v>
   <v>      -0.00351742       0.00078520      -0.22036559 </v>
   <v>      -0.00280150      -0.00940559      -0.21430997 </v>
   <v>       0.00317834       0.01323360      -0.21433201 </v>
   <v>       0.00351742       0.00078520      -0.22036559 </v>
   <v>       0.00280150      -0.00940559      -0.21430997 </v>
   <v>       0.00000000      -0.00406789      -0.21644992 </v>
   <v>       0.00000000       0.00200565      -0.20049052 </v>
   <v>       0.00000000       0.00783589      -0.21522354 </v>
   <v>       0.00447631       0.00399119       0.00149769 </v>
   <v>      -0.00831937      -0.00027912       0.00139200 </v>
   <v>       0.00374638      -0.00422042       0.00198160 </v>
   <v>       0.00000000      -0.00880263       0.00174517 </v>
   <v>       0.00000000       0.00010713       0.00585110 </v>
   <v>       0.00000000       0.00781575       0.00089568 </v>
   <v>      -0.00447631       0.00399119       0.00149769 </v>
   <v>       0.00831937      -0.00027912       0.00139200 </v>
   <v>      -0.00374638      -0.00422042       0.00198160 </v>
   <v>       0.00763984       0.00013200       0.00482734 </v>
   <v>      -0.00204869      -0.00202039       0.00085552 </v>
   <v>      -0.00173059       0.00171932       0.00089362 </v>
   <v>      -0.00763984       0.00013200       0.00482734 </v>
   <v>       0.00204869      -0.00202039       0.00085552 </v>
   <v>       0.00173059       0.00171932       0.00089362 </v>
   <v>       0.00000000      -0.00084538      -0.00475321 </v>
   <v>       0.00000000       0.00778326       0.00469153 </v>
   <v>       0.00000000      -0.00755788       0.00503141 </v>
   <v>       0.00419844      -0.00038388       0.00208959 </v>
   <v>      -0.00258405      -0.00434213      -0.00719846 </v>
   <v>      -0.00277465       0.00425334      -0.00760670 </v>
   <v>       0.00000000       0.00094668      -0.01836180 </v>
   <v>       0.00000000       0.00760949      -0.00156905 </v>
   <v>       0.00000000      -0.00840398      -0.00119590 </v>
   <v>      -0.00419844      -0.00038388       0.00208959 </v>
   <v>       0.00258405      -0.00434213      -0.00719846 </v>
   <v>       0.00277465       0.00425334      -0.00760670 </v>
   <v>      -0.00389864      -0.00304010      -0.00746051 </v>
   <v>       0.00797245      -0.00017896      -0.00135440 </v>
   <v>      -0.00476930       0.00232534      -0.00739583 </v>
   <v>       0.00389864      -0.00304010      -0.00746051 </v>
   <v>      -0.00797245      -0.00017896      -0.00135440 </v>
   <v>       0.00476930       0.00232534      -0.00739583 </v>
   <v>       0.00000000       0.00395350       0.00306267 </v>
   <v>       0.00000000      -0.00033398      -0.01862137 </v>
   <v>       0.00000000      -0.00456811       0.00117354 </v>
   <v>      -0.00370881      -0.00387322      -0.00620107 </v>
   <v>       0.00109627      -0.00014943       0.00243991 </v>
   <v>      -0.00318449       0.00292859      -0.00599054 </v>
   <v>       0.00000000       0.00017508       0.00203538 </v>
   <v>       0.00000000       0.00079526      -0.00752606 </v>
   <v>       0.00000000      -0.00160700       0.00300038 </v>
   <v>       0.00370881      -0.00387322      -0.00620107 </v>
   <v>      -0.00109627      -0.00014943       0.00243991 </v>
   <v>       0.00318449       0.00292859      -0.00599054 </v>
   <v>      -0.00509959      -0.00017879      -0.00328541 </v>
   <v>       0.00071302       0.00075688      -0.00391092 </v>
   <v>       0.00118820      -0.00132559      -0.00314441 </v>
   <v>       0.00509959      -0.00017879      -0.00328541 </v>
   <v>      -0.00071302       0.00075688      -0.00391092 </v>
   <v>      -0.00118820      -0.00132559      -0.00314441 </v>
   <v>       0.00000000       0.00038737       0.00338678 </v>
   <v>       0.00000000      -0.00574464      -0.00378064 </v>
   <v>       0.00000000       0.00472547      -0.00270159 </v>
   <v>      -0.00878091      -0.00003218      -0.00150915 </v>
   <v>      -0.00084260       0.00324243      -0.00140976 </v>
   <v>      -0.00124019      -0.00412026      -0.00115204 </v>
   <v>       0.00000000       0.00009357       0.00241728 </v>
   <v>       0.00000000       0.00352544       0.00009511 </v>
   <v>       0.00000000      -0.00450929      -0.00138347 </v>
   <v>       0.00878091      -0.00003218      -0.00150915 </v>
   <v>       0.00084260       0.00324243      -0.00140976 </v>
   <v>       0.00124019      -0.00412026      -0.00115204 </v>
   <v>       0.00385143      -0.00144904      -0.00110973 </v>
   <v>       0.00392568       0.00052914      -0.00111176 </v>
   <v>       0.00355021       0.00057109      -0.00171080 </v>
   <v>      -0.00385143      -0.00144904      -0.00110973 </v>
   <v>      -0.00392568       0.00052914      -0.00111176 </v>
   <v>      -0.00355021       0.00057109      -0.00171080 </v>
   <v>       0.00000000      -0.00934179      -0.00188544 </v>
   <v>       0.00000000       0.00003904       0.00291724 </v>
   <v>       0.00000000       0.00805897      -0.00094515 </v>
   <v>      -0.00069329      -0.00126002      -0.00048465 </v>
   <v>      -0.00065854      -0.00041074      -0.00494126 </v>
   <v>      -0.00156755       0.00099387       0.00003227 </v>
   <v>       0.00000000      -0.00058817      -0.00535425 </v>
   <v>       0.00000000       0.00029168      -0.01053933 </v>
   <v>       0.00000000       0.00021885      -0.00470187 </v>
   <v>       0.00069329      -0.00126002      -0.00048465 </v>
   <v>       0.00065854      -0.00041074      -0.00494126 </v>
   <v>       0.00156755       0.00099387       0.00003227 </v>
   <v>       0.00326710      -0.00005236      -0.00159592 </v>
   <v>       0.00223644       0.00139453      -0.00534902 </v>
   <v>       0.00155344      -0.00176067      -0.00510745 </v>
   <v>      -0.00326710      -0.00005236      -0.00159592 </v>
   <v>      -0.00223644       0.00139453      -0.00534902 </v>
   <v>      -0.00155344      -0.00176067      -0.00510745 </v>
   <v>       0.00000000       0.00000225      -0.00710674 </v>
   <v>       0.00000000       0.00292717      -0.00169467 </v>
   <v>       0.00000000      -0.00373126      -0.00162692 </v>
   <v>       0.00000000      -0.00457259      -0.03451299 </v>
   <v>       0.00000000      -0.03006617      -0.00834938 </v>
  </varray>
  <varray name="stress" >
   <v>     -35.93585034       0.00000000       0.00000000 </v>
   <v>       0.00000000     -35.98839593      -0.11328654 </v>
   <v>       0.00000000      -0.11328643     -14.50629836 </v>
  </varray>
  <energy>
   <i name="e_fr_energy">   -582.27171900 </i>
   <i name="e_wo_entrp">   -582.38267254 </i>
   <i name="e_0_energy">   -582.30870351 </i>
  </energy>
  <time name="totalsc"> 3445.73 3479.13</time>
 </calculation>
 <calculation>
  <scstep>
   <time name="dav"> 1014.87 1027.02</time>
   <time name="total"> 1019.48 1031.66</time>
   <energy>
    <i name="alphaZ">   4623.72760507 </i>
    <i name="ewald"> 919020.62556808 </i>
    <i name="hartreedc">**************** </i>
    <i name="XCdc">   6429.53064063 </i>
    <i name="pawpsdc"> 189040.62515939 </i>
    <i name="pawaedc">-204561.06146874 </i>
    <i name="eentropy">      0.11082010 </i>
    <i name="bandstr">  -1762.23024683 </i>
    <i name="atom"> 200322.85745410 </i>
    <i name="e_fr_energy">   -521.88737770 </i>
    <i name="e_wo_entrp">   -521.99819780 </i>
    <i name="e_0_energy">   -521.92431774 </i>
   </energy>
  </scstep>
  <scstep>
   <time name="dav">  563.89  570.03</time>
   <time name="total">  568.42  574.61</time>
   <energy>
    <i name="e_fr_energy">   -521.88785955 </i>
    <i name="e_wo_entrp">   -521.99930915 </i>
    <i name="e_0_energy">   -521.92500942 </i>
   </energy>
  </scstep>
  <scstep>
   <time name="dav">  554.11  560.51</time>
   <time name="total">  558.69  565.13</time>
   <energy>
    <i name="e_fr_energy">   -521.88737115 </i>
    <i name="e_wo_entrp">   -521.99823149 </i>
    <i name="e_0_energy">   -521.92432459 </i>
   </energy>
  </scstep>
  <scstep>
   <time name="dav">  535.27  541.36</time>
   <time name="total">  535.61  541.70</time>
   <energy>
    <i name="alphaZ">   4623.72760507 </i>
    <i name="ewald"> 919020.62556808 </i>
    <i name="hartreedc">**************** </i>
    <i name="XCdc">   6429.52885244 </i>
    <i name="pawpsdc"> 189041.70492182 </i>
    <i name="pawaedc">-204562.15380550 </i>
    <i name="eentropy">      0.11101317 </i>
    <i name="bandstr">  -1762.38323340 </i>
    <i name="atom"> 200322.85745410 </i>
    <i name="e_fr_energy">   -521.88737958 </i>
    <i name="e_wo_entrp">   -521.99839275 </i>
    <i name="e_0_energy">   -521.92438397 </i>
   </energy>
  </scstep>
