unknown system                          
           1
    10.890000    0.000000    0.000000
     0.000000   10.890000    0.000000
     0.000000    0.000000   27.705000
   Cu   H 
   144     2
Direct configuration=     1
   0.00000000  0.00000000  0.00000000
   0.00000000  0.33333333  0.00000000
   0.00000000  0.66666667  0.00000000
   0.33333333  0.00000000  0.00000000
   0.33333333  0.33333333  0.00000000
   0.33333333  0.66666667  0.00000000
   0.66666667  0.00000000  0.00000000
   0.66666667  0.33333333  0.00000000
   0.66666667  0.66666667  0.00000000
   0.16666667  0.16666667  0.00000000
   0.16666667  0.50000000  0.00000000
   0.16666667  0.83333333  0.00000000
   0.50000000  0.16666667  0.00000000
   0.50000000  0.50000000  0.00000000
   0.50000000  0.83333333  0.00000000
   0.83333333  0.16666667  0.00000000
   0.83333333  0.50000000  0.00000000
   0.83333333  0.83333333  0.00000000
   0.00000000  0.16666667  0.06551164
   0.00000000  0.50000000  0.06551164
   0.00000000  0.83333333  0.06551164
   0.33333333  0.16666667  0.06551164
   0.33333333  0.50000000  0.06551164
   0.33333333  0.83333333  0.06551164
   0.66666667  0.16666667  0.06551164
   0.66666667  0.50000000  0.06551164
   0.66666667  0.83333333  0.06551164
   0.16666667  0.00000000  0.06551164
   0.16666667  0.33333333  0.06551164
   0.16666667  0.66666667  0.06551164
   0.50000000  0.00000000  0.06551164
   0.50000000  0.33333333  0.06551164
   0.50000000  0.66666667  0.06551164
   0.83333333  0.00000000  0.06551164
   0.83333333  0.33333333  0.06551164
   0.83333333  0.66666667  0.06551164
   0.00000000  0.00000000  0.13119553
   0.00000000  0.33333333  0.13119553
   0.00000000  0.66666667  0.13119553
   0.33333333  0.00000000  0.13119553
   0.33333333  0.33333333  0.13119553
   0.33333333  0.66666667  0.13119553
   0.66666667  0.00000000  0.13119553
   0.66666667  0.33333333  0.13119553
   0.66666667  0.66666667  0.13119553
   0.16666667  0.16666667  0.13119553
   0.16666667  0.50000000  0.13119553
   0.16666667  0.83333333  0.13119553
   0.50000000  0.16666667  0.13119553
   0.50000000  0.50000000  0.13119553
   0.50000000  0.83333333  0.13119553
   0.83333333  0.16666667  0.13119553
   0.83333333  0.50000000  0.13119553
   0.83333333  0.83333333  0.13119553
   0.00000000  0.16666667  0.19620680
   0.00000000  0.50000000  0.19620680
   0.00000000  0.83333333  0.19620680
   0.33333333  0.16666667  0.19620680
   0.33333333  0.50000000  0.19620680
   0.33333333  0.83333333  0.19620680
   0.66666667  0.16666667  0.19620680
   0.66666667  0.50000000  0.19620680
   0.66666667  0.83333333  0.19620680
   0.16666667  0.00000000  0.19620680
   0.16666667  0.33333333  0.19620680
   0.16666667  0.66666667  0.19620680
   0.50000000  0.00000000  0.19620680
   0.50000000  0.33333333  0.19620680
   0.50000000  0.66666667  0.19620680
   0.83333333  0.00000000  0.19620680
   0.83333333  0.33333333  0.19620680
   0.83333333  0.66666667  0.19620680
   0.00000000  0.00000000  0.25873860
   0.00000000  0.33333333  0.25873860
   0.00000000  0.66666667  0.25873860
   0.33333333  0.00000000  0.25873860
   0.33333333  0.33333333  0.25873860
   0.33333333  0.66666667  0.25873860
   0.66666667  0.00000000  0.25873860
   0.66666667  0.33333333  0.25873860
   0.66666667  0.66666667  0.25873860
   0.16666667  0.16666667  0.25873860
   0.16666667  0.50000000  0.25873860
   0.16666667  0.83333333  0.25873860
   0.50000000  0.16666667  0.25873860
   0.50000000  0.50000000  0.25873860
   0.50000000  0.83333333  0.25873860
   0.83333333  0.16666667  0.25873860
   0.83333333  0.50000000  0.25873860
   0.83333333  0.83333333  0.25873860
   0.00000000  0.16666667  0.32119954
   0.00000000  0.50000000  0.32119954
   0.00000000  0.83333333  0.32119954
   0.33333333  0.16666667  0.32119954
   0.33333333  0.50000000  0.32119954
   0.33333333  0.83333333  0.32119954
   0.66666667  0.16666667  0.32119954
   0.66666667  0.50000000  0.32119954
   0.66666667  0.83333333  0.32119954
   0.16666667  0.00000000  0.32119954
   0.16666667  0.33333333  0.32119954
   0.16666667  0.66666667  0.32119954
   0.50000000  0.00000000  0.32119954
   0.50000000  0.33333333  0.32119954
   0.50000000  0.66666667  0.32119954
   0.83333333  0.00000000  0.32119954
   0.83333333  0.33333333  0.32119954
   0.83333333  0.66666667  0.32119954
   0.00000000  0.00000000  0.38476372
   0.00000000  0.33333333  0.38476372
   0.00000000  0.66666667  0.38476372
   0.33333333  0.00000000  0.38476372
   0.33333333  0.33333333  0.38476372
   0.33333333  0.66666667  0.38476372
   0.66666667  0.00000000  0.38476372
   0.66666667  0.33333333  0.38476372
   0.66666667  0.66666667  0.38476372
   0.16666667  0.16666667  0.38476372
   0.16666667  0.50000000  0.38476372
   0.16666667  0.83333333  0.38476372
   0.50000000  0.16666667  0.38476372
   0.50000000  0.50000000  0.38476372
   0.50000000  0.83333333  0.38476372
   0.83333333  0.16666667  0.38476372
   0.83333333  0.50000000  0.38476372
   0.83333333  0.83333333  0.38476372
   0.00000000  0.16666667  0.44736473
   0.00000000  0.50000000  0.44736473
   0.00000000  0.83333333  0.44736473
   0.33333333  0.16666667  0.44736473
   0.33333333  0.50000000  0.44736473
   0.33333333  0.83333333  0.44736473
   0.66666667  0.16666667  0.44736473
   0.66666667  0.50000000  0.44736473
   0.66666667  0.83333333  0.44736473
   0.16666667  0.00000000  0.44736473
   0.16666667  0.33333333  0.44736473
   0.16666667  0.66666667  0.44736473
   0.50000000  0.00000000  0.44736473
   0.50000000  0.33333333  0.44736473
   0.50000000  0.66666667  0.44736473
   0.83333333  0.00000000  0.44736473
   0.83333333  0.33333333  0.44736473
   0.83333333  0.66666667  0.44736473
   0.33333333  0.50000000  0.50150658
   0.33333333  0.54843909  0.52054652
Direct configuration=     2
   0.00000000  0.00000000  0.00000000
   0.00000000  0.33333333  0.00000000
   0.00000000  0.66666667  0.00000000
   0.33333333  0.00000000  0.00000000
   0.33333333  0.33333333  0.00000000
   0.33333333  0.66666667  0.00000000
   0.66666667  0.00000000  0.00000000
   0.66666667  0.33333333  0.00000000
   0.66666667  0.66666667  0.00000000
   0.16666667  0.16666667  0.00000000
   0.16666667  0.50000000  0.00000000
   0.16666667  0.83333333  0.00000000
   0.50000000  0.16666667  0.00000000
   0.50000000  0.50000000  0.00000000
   0.50000000  0.83333333  0.00000000
   0.83333333  0.16666667  0.00000000
   0.83333333  0.50000000  0.00000000
   0.83333333  0.83333333  0.00000000
   0.00000000  0.16666667  0.06551164
   0.00000000  0.50000000  0.06551164
   0.00000000  0.83333333  0.06551164
   0.33333333  0.16666667  0.06551164
   0.33333333  0.50000000  0.06551164
   0.33333333  0.83333333  0.06551164
   0.66666667  0.16666667  0.06551164
   0.66666667  0.50000000  0.06551164
   0.66666667  0.83333333  0.06551164
   0.16666667  0.00000000  0.06551164
   0.16666667  0.33333333  0.06551164
   0.16666667  0.66666667  0.06551164
   0.50000000  0.00000000  0.06551164
   0.50000000  0.33333333  0.06551164
   0.50000000  0.66666667  0.06551164
   0.83333333  0.00000000  0.06551164
   0.83333333  0.33333333  0.06551164
   0.83333333  0.66666667  0.06551164
   0.00000000  0.00000000  0.13119553
   0.00000000  0.33333333  0.13119553
   0.00000000  0.66666667  0.13119553
   0.33333333  0.00000000  0.13119553
   0.33333333  0.33333333  0.13119553
   0.33333333  0.66666667  0.13119553
   0.66666667  0.00000000  0.13119553
   0.66666667  0.33333333  0.13119553
   0.66666667  0.66666667  0.13119553
   0.16666667  0.16666667  0.13119553
   0.16666667  0.50000000  0.13119553
   0.16666667  0.83333333  0.13119553
   0.50000000  0.16666667  0.13119553
   0.50000000  0.50000000  0.13119553
   0.50000000  0.83333333  0.13119553
   0.83333333  0.16666667  0.13119553
   0.83333333  0.50000000  0.13119553
   0.83333333  0.83333333  0.13119553
   0.00000133  0.16667294  0.19574025
   0.00000711  0.49999941  0.19575571
   0.00001140  0.83332765  0.19574462
   0.33333333  0.16666912  0.19575004
   0.33333333  0.50000506  0.19573208
   0.33333333  0.83332523  0.19576290
   0.66666534  0.16667294  0.19574025
   0.66665956  0.49999941  0.19575571
   0.66665527  0.83332765  0.19574462
   0.16667117 -0.00000401  0.19572434
   0.16666115  0.33333186  0.19576175
   0.16666450  0.66667182  0.19575434
   0.49999550 -0.00000401  0.19572434
   0.50000552  0.33333186  0.19576175
   0.50000217  0.66667182  0.19575434
   0.83333333  0.00000428  0.19574244
   0.83333333  0.33333580  0.19572587
   0.83333333  0.66666118  0.19572329
   0.00000839 -0.00000212  0.25869289
  -0.00001558  0.33332061  0.25867414
  -0.00002986  0.66668175  0.25866940
   0.33333333  0.00002918  0.25867308
   0.33333333  0.33334081  0.25871062
   0.33333333  0.66665445  0.25872918
   0.66665827 -0.00000212  0.25869289
   0.66668224  0.33332061  0.25867414
   0.66669652  0.66668175  0.25866940
   0.16665590  0.16663696  0.25867103
   0.16667754  0.50000046  0.25872090
   0.16664955  0.83334861  0.25867108
   0.50001077  0.16663696  0.25867103
   0.49998913  0.50000046  0.25872090
   0.50001712  0.83334861  0.25867108
   0.83333333  0.16667358  0.25869179
   0.83333333  0.50000387  0.25867209
   0.83333333  0.83332607  0.25869337
   0.00001087  0.16668537  0.32129307
   0.00002850  0.49999521  0.32128971
   0.00001449  0.83332464  0.32129648
   0.33333333  0.16672776  0.32130441
   0.33333333  0.50001331  0.32126867
   0.33333333  0.83333323  0.32128056
   0.66665580  0.16668537  0.32129307
   0.66663816  0.49999521  0.32128971
   0.66665217  0.83332464  0.32129648
   0.16667132 -0.00002601  0.32129356
   0.16663048  0.33329665  0.32125352
   0.16664273  0.66669004  0.32124618
   0.49999535 -0.00002601  0.32129356
   0.50003619  0.33329665  0.32125352
   0.50002394  0.66669004  0.32124618
   0.83333333  0.00000341  0.32128827
   0.83333333  0.33333963  0.32129142
   0.83333333  0.66666085  0.32129811
   0.00000495  0.00000031  0.38480356
  -0.00001064  0.33333697  0.38481522
  -0.00002122  0.66664926  0.38481923
   0.33333333  0.00005294  0.38480041
   0.33333333  0.33349464  0.38485535
   0.33333333  0.66671357  0.38470952
   0.66666172  0.00000031  0.38480356
   0.66667730  0.33333697  0.38481522
   0.66668789  0.66664926  0.38481923
   0.16666409  0.16662393  0.38480437
   0.16670947  0.50001586  0.38478014
   0.16668985  0.83332936  0.38482624
   0.50000258  0.16662393  0.38480437
   0.49995720  0.50001586  0.38478014
   0.49997682  0.83332936  0.38482624
   0.83333333  0.16667405  0.38480223
   0.83333333  0.49999623  0.38479890
   0.83333333  0.83332893  0.38480381
   0.00001112  0.16668125  0.44735787
  -0.00000503  0.50000719  0.44732569
   0.00002411  0.83331603  0.44736755
   0.33333333  0.16669930  0.44734618
   0.33333333  0.50032567  0.44458639
   0.33333333  0.83338574  0.44731301
   0.66665555  0.16668125  0.44735787
   0.66667170  0.50000719  0.44732569
   0.66664256  0.83331603  0.44736755
   0.16668071 -0.00000423  0.44735894
   0.16650314  0.33309089  0.44727235
   0.16613114  0.66712554  0.44717617
   0.49998596 -0.00000423  0.44735894
   0.50016352  0.33309089  0.44727235
   0.50053553  0.66712554  0.44717617
   0.83333333 -0.00000777  0.44735254
   0.83333333  0.33334370  0.44735734
   0.83333333  0.66664755  0.44736042
   0.33333333  0.49454319  0.50357703
   0.33333333  0.55288570  0.52191336
Direct configuration=     3
   0.00000000  0.00000000  0.00000000
   0.00000000  0.33333333  0.00000000
   0.00000000  0.66666667  0.00000000
   0.33333333  0.00000000  0.00000000
   0.33333333  0.33333333  0.00000000
   0.33333333  0.66666667  0.00000000
   0.66666667  0.00000000  0.00000000
   0.66666667  0.33333333  0.00000000
   0.66666667  0.66666667  0.00000000
   0.16666667  0.16666667  0.00000000
   0.16666667  0.50000000  0.00000000
   0.16666667  0.83333333  0.00000000
   0.50000000  0.16666667  0.00000000
   0.50000000  0.50000000  0.00000000
   0.50000000  0.83333333  0.00000000
   0.83333333  0.16666667  0.00000000
   0.83333333  0.50000000  0.00000000
   0.83333333  0.83333333  0.00000000
   0.00000000  0.16666667  0.06551164
   0.00000000  0.50000000  0.06551164
   0.00000000  0.83333333  0.06551164
   0.33333333  0.16666667  0.06551164
   0.33333333  0.50000000  0.06551164
   0.33333333  0.83333333  0.06551164
   0.66666667  0.16666667  0.06551164
   0.66666667  0.50000000  0.06551164
   0.66666667  0.83333333  0.06551164
   0.16666667  0.00000000  0.06551164
   0.16666667  0.33333333  0.06551164
   0.16666667  0.66666667  0.06551164
   0.50000000  0.00000000  0.06551164
   0.50000000  0.33333333  0.06551164
   0.50000000  0.66666667  0.06551164
   0.83333333  0.00000000  0.06551164
   0.83333333  0.33333333  0.06551164
   0.83333333  0.66666667  0.06551164
   0.00000000  0.00000000  0.13119553
   0.00000000  0.33333333  0.13119553
   0.00000000  0.66666667  0.13119553
   0.33333333  0.00000000  0.13119553
   0.33333333  0.33333333  0.13119553
   0.33333333  0.66666667  0.13119553
   0.66666667  0.00000000  0.13119553
   0.66666667  0.33333333  0.13119553
   0.66666667  0.66666667  0.13119553
   0.16666667  0.16666667  0.13119553
   0.16666667  0.50000000  0.13119553
   0.16666667  0.83333333  0.13119553
   0.50000000  0.16666667  0.13119553
   0.50000000  0.50000000  0.13119553
   0.50000000  0.83333333  0.13119553
   0.83333333  0.16666667  0.13119553
   0.83333333  0.50000000  0.13119553
   0.83333333  0.83333333  0.13119553
   0.00000174  0.16667489  0.19559477
   0.00000932  0.49999923  0.19561505
   0.00001495  0.83332587  0.19560051
   0.33333333  0.16666989  0.19560761
   0.33333333  0.50000663  0.19558405
   0.33333333  0.83332270  0.19562449
   0.66666493  0.16667489  0.19559477
   0.66665735  0.49999923  0.19561505
   0.66665172  0.83332587  0.19560051
   0.16667257 -0.00000526  0.19557390
   0.16665943  0.33333140  0.19562297
   0.16666383  0.66667343  0.19561325
   0.49999410 -0.00000526  0.19557390
   0.50000724  0.33333140  0.19562297
   0.50000284  0.66667343  0.19561325
   0.83333333  0.00000562  0.19559765
   0.83333333  0.33333657  0.19557591
   0.83333333  0.66665947  0.19557252
   0.00001101 -0.00000278  0.25867864
  -0.00002043  0.33331664  0.25865404
  -0.00003917  0.66668645  0.25864783
   0.33333333  0.00003828  0.25865264
   0.33333333  0.33334314  0.25870190
   0.33333333  0.66665064  0.25872625
   0.66665566 -0.00000278  0.25867864
   0.66668710  0.33331664  0.25865404
   0.66670583  0.66668645  0.25864783
   0.16665254  0.16662770  0.25864996
   0.16668093  0.50000061  0.25871538
   0.16664421  0.83335338  0.25865003
   0.50001413  0.16662770  0.25864996
   0.49998573  0.50000061  0.25871538
   0.50002246  0.83335338  0.25865003
   0.83333333  0.16667574  0.25867720
   0.83333333  0.50000507  0.25865135
   0.83333333  0.83332380  0.25867927
   0.00001426  0.16669120  0.32132223
   0.00003739  0.49999372  0.32131783
   0.00001901  0.83332193  0.32132670
   0.33333333  0.16674681  0.32133711
   0.33333333  0.50001746  0.32129022
   0.33333333  0.83333319  0.32130582
   0.66665241  0.16669120  0.32132223
   0.66662928  0.49999372  0.32131783
   0.66664765  0.83332193  0.32132670
   0.16667277 -0.00003412  0.32132288
   0.16661919  0.33328521  0.32127035
   0.16663527  0.66669732  0.32126072
   0.49999390 -0.00003412  0.32132288
   0.50004747  0.33328521  0.32127035
   0.50003140  0.66669732  0.32126072
   0.83333333  0.00000447  0.32131594
   0.83333333  0.33334159  0.32132007
   0.83333333  0.66665903  0.32132885
   0.00000649  0.00000040  0.38481599
  -0.00001395  0.33333811  0.38483127
  -0.00002784  0.66664383  0.38483654
   0.33333333  0.00006945  0.38481185
   0.33333333  0.33354494  0.38488392
   0.33333333  0.66672820  0.38469262
   0.66666018  0.00000040  0.38481599
   0.66668062  0.33333811  0.38483127
   0.66669451  0.66664383  0.38483654
   0.16666328  0.16661061  0.38481705
   0.16672281  0.50002080  0.38478526
   0.16669708  0.83332812  0.38484574
   0.50000339  0.16661061  0.38481705
   0.49994386  0.50002080  0.38478526
   0.49996959  0.83332812  0.38484574
   0.83333333  0.16667635  0.38481423
   0.83333333  0.49999505  0.38480987
   0.83333333  0.83332756  0.38481631
   0.00001459  0.16668579  0.44735573
  -0.00000660  0.50000943  0.44731351
   0.00003163  0.83331063  0.44736843
   0.33333333  0.16670948  0.44734040
   0.33333333  0.50042722  0.44372005
   0.33333333  0.83340207  0.44729688
   0.66665208  0.16668579  0.44735573
   0.66667327  0.50000943  0.44731351
   0.66663504  0.83331063  0.44736843
   0.16668509 -0.00000555  0.44735714
   0.16645215  0.33301529  0.44724355
   0.16596415  0.66726862  0.44711737
   0.49998158 -0.00000555  0.44735714
   0.50021451  0.33301529  0.44724355
   0.50070252  0.66726862  0.44711737
   0.83333333 -0.00001020  0.44734874
   0.83333333  0.33334693  0.44735503
   0.83333333  0.66664159  0.44735907
   0.33333333  0.49284166  0.50422263
   0.33333333  0.55427223  0.52233956
Direct configuration=     4
   0.00000000  0.00000000  0.00000000
   0.00000000  0.33333333  0.00000000
   0.00000000  0.66666667  0.00000000
   0.33333333  0.00000000  0.00000000
   0.33333333  0.33333333  0.00000000
   0.33333333  0.66666667  0.00000000
   0.66666667  0.00000000  0.00000000
   0.66666667  0.33333333  0.00000000
   0.66666667  0.66666667  0.00000000
   0.16666667  0.16666667  0.00000000
   0.16666667  0.50000000  0.00000000
   0.16666667  0.83333333  0.00000000
   0.50000000  0.16666667  0.00000000
   0.50000000  0.50000000  0.00000000
   0.50000000  0.83333333  0.00000000
   0.83333333  0.16666667  0.00000000
   0.83333333  0.50000000  0.00000000
   0.83333333  0.83333333  0.00000000
   0.00000000  0.16666667  0.06551164
   0.00000000  0.50000000  0.06551164
   0.00000000  0.83333333  0.06551164
   0.33333333  0.16666667  0.06551164
   0.33333333  0.50000000  0.06551164
   0.33333333  0.83333333  0.06551164
   0.66666667  0.16666667  0.06551164
   0.66666667  0.50000000  0.06551164
   0.66666667  0.83333333  0.06551164
   0.16666667  0.00000000  0.06551164
   0.16666667  0.33333333  0.06551164
   0.16666667  0.66666667  0.06551164
   0.50000000  0.00000000  0.06551164
   0.50000000  0.33333333  0.06551164
   0.50000000  0.66666667  0.06551164
   0.83333333  0.00000000  0.06551164
   0.83333333  0.33333333  0.06551164
   0.83333333  0.66666667  0.06551164
   0.00000000  0.00000000  0.13119553
   0.00000000  0.33333333  0.13119553
   0.00000000  0.66666667  0.13119553
   0.33333333  0.00000000  0.13119553
   0.33333333  0.33333333  0.13119553
   0.33333333  0.66666667  0.13119553
   0.66666667  0.00000000  0.13119553
   0.66666667  0.33333333  0.13119553
   0.66666667  0.66666667  0.13119553
   0.16666667  0.16666667  0.13119553
   0.16666667  0.50000000  0.13119553
   0.16666667  0.83333333  0.13119553
   0.50000000  0.16666667  0.13119553
   0.50000000  0.50000000  0.13119553
   0.50000000  0.83333333  0.13119553
   0.83333333  0.16666667  0.13119553
   0.83333333  0.50000000  0.13119553
   0.83333333  0.83333333  0.13119553
  -0.00000289  0.16667403  0.19516470
   0.00002811  0.49999804  0.19519996
   0.00001716  0.83332813  0.19517401
   0.33333333  0.16668280  0.19518488
   0.33333333  0.50001484  0.19515786
   0.33333333  0.83330332  0.19521978
   0.66666956  0.16667403  0.19516470
   0.66663855  0.49999804  0.19519996
   0.66664951  0.83332813  0.19517401
   0.16667405 -0.00000873  0.19512696
   0.16666222  0.33333998  0.19521820
   0.16667351  0.66666820  0.19520268
   0.49999261 -0.00000873  0.19512696
   0.50000444  0.33333998  0.19521820
   0.49999315  0.66666820  0.19520268
   0.83333333  0.00000790  0.19517332
   0.83333333  0.33333721  0.19513222
   0.83333333  0.66665883  0.19512396
   0.00001835 -0.00000416  0.25852631
  -0.00005029  0.33330560  0.25848356
  -0.00008302  0.66669841  0.25847404
   0.33333333  0.00007342  0.25848397
   0.33333333  0.33334372  0.25856161
   0.33333333  0.66664340  0.25860146
   0.66664832 -0.00000416  0.25852631
   0.66671696  0.33330560  0.25848356
   0.66674969  0.66669841  0.25847404
   0.16664618  0.16658459  0.25847769
   0.16668684  0.50000096  0.25858355
   0.16662820  0.83338313  0.25847498
   0.50002049  0.16658459  0.25847769
   0.49997983  0.50000096  0.25858355
   0.50003846  0.83338313  0.25847498
   0.83333333  0.16668196  0.25852346
   0.83333333  0.50000852  0.25847990
   0.83333333  0.83331835  0.25852744
   0.00002375  0.16670631  0.32138057
   0.00004437  0.49999082  0.32136755
   0.00003411  0.83330892  0.32139049
   0.33333333  0.16681081  0.32140798
   0.33333333  0.50000308  0.32130833
   0.33333333  0.83337598  0.32134452
   0.66664291  0.16670631  0.32138057
   0.66662230  0.49999082  0.32136755
   0.66663256  0.83330892  0.32139049
   0.16668510 -0.00006064  0.32137962
   0.16658198  0.33323241  0.32129785
   0.16657132  0.66674688  0.32127000
   0.49998157 -0.00006064  0.32137962
   0.50008469  0.33323241  0.32129785
   0.50009534  0.66674688  0.32127000
   0.83333333  0.00000836  0.32136973
   0.83333333  0.33335579  0.32137609
   0.83333333  0.66664584  0.32139081
   0.00000663 -0.00000372  0.38487062
  -0.00004345  0.33334421  0.38488466
  -0.00012135  0.66662687  0.38487297
   0.33333333  0.00012572  0.38485352
   0.33333333  0.33299603  0.38475673
   0.33333333  0.66748412  0.38443062
   0.66666004 -0.00000372  0.38487062
   0.66671012  0.33334421  0.38488466
   0.66678802  0.66662687  0.38487297
   0.16666714  0.16654801  0.38485610
   0.16605050  0.50004381  0.38458429
   0.16671518  0.83340127  0.38488869
   0.49999952  0.16654801  0.38485610
   0.50061616  0.50004381  0.38458429
   0.49995148  0.83340127  0.38488869
   0.83333333  0.16667833  0.38486609
   0.83333333  0.49998652  0.38484780
   0.83333333  0.83332734  0.38487167
   0.00001170  0.16668528  0.44736644
  -0.00003807  0.50000397  0.44728121
   0.00000241  0.83334620  0.44739169
   0.33333333  0.16671212  0.44733513
   0.33333333  0.50084369  0.44304671
   0.33333333  0.83345113  0.44725633
   0.66665496  0.16668528  0.44736644
   0.66670474  0.50000397  0.44728121
   0.66666425  0.83334620  0.44739169
   0.16669706 -0.00000251  0.44737085
   0.16632381  0.33281339  0.44716916
   0.16549422  0.66770303  0.44694863
   0.49996961 -0.00000251  0.44737085
   0.50034286  0.33281339  0.44716916
   0.50117245  0.66770303  0.44694863
   0.83333333 -0.00001719  0.44735022
   0.83333333  0.33335823  0.44736680
   0.83333333  0.66662611  0.44737581
   0.33333333  0.49278998  0.50751467
   0.33333333  0.55298529  0.52171416
Direct configuration=     5
   0.00000000  0.00000000  0.00000000
   0.00000000  0.33333333  0.00000000
   0.00000000  0.66666667  0.00000000
   0.33333333  0.00000000  0.00000000
   0.33333333  0.33333333  0.00000000
   0.33333333  0.66666667  0.00000000
   0.66666667  0.00000000  0.00000000
   0.66666667  0.33333333  0.00000000
   0.66666667  0.66666667  0.00000000
   0.16666667  0.16666667  0.00000000
   0.16666667  0.50000000  0.00000000
   0.16666667  0.83333333  0.00000000
   0.50000000  0.16666667  0.00000000
   0.50000000  0.50000000  0.00000000
   0.50000000  0.83333333  0.00000000
   0.83333333  0.16666667  0.00000000
   0.83333333  0.50000000  0.00000000
   0.83333333  0.83333333  0.00000000
   0.00000000  0.16666667  0.06551164
   0.00000000  0.50000000  0.06551164
   0.00000000  0.83333333  0.06551164
   0.33333333  0.16666667  0.06551164
   0.33333333  0.50000000  0.06551164
   0.33333333  0.83333333  0.06551164
   0.66666667  0.16666667  0.06551164
   0.66666667  0.50000000  0.06551164
   0.66666667  0.83333333  0.06551164
   0.16666667  0.00000000  0.06551164
   0.16666667  0.33333333  0.06551164
   0.16666667  0.66666667  0.06551164
   0.50000000  0.00000000  0.06551164
   0.50000000  0.33333333  0.06551164
   0.50000000  0.66666667  0.06551164
   0.83333333  0.00000000  0.06551164
   0.83333333  0.33333333  0.06551164
   0.83333333  0.66666667  0.06551164
   0.00000000  0.00000000  0.13119553
   0.00000000  0.33333333  0.13119553
   0.00000000  0.66666667  0.13119553
   0.33333333  0.00000000  0.13119553
   0.33333333  0.33333333  0.13119553
   0.33333333  0.66666667  0.13119553
   0.66666667  0.00000000  0.13119553
   0.66666667  0.33333333  0.13119553
   0.66666667  0.66666667  0.13119553
   0.16666667  0.16666667  0.13119553
   0.16666667  0.50000000  0.13119553
   0.16666667  0.83333333  0.13119553
   0.50000000  0.16666667  0.13119553
   0.50000000  0.50000000  0.13119553
   0.50000000  0.83333333  0.13119553
   0.83333333  0.16666667  0.13119553
   0.83333333  0.50000000  0.13119553
   0.83333333  0.83333333  0.13119553
  -0.00000371  0.16667388  0.19508908
   0.00003142  0.49999783  0.19512698
   0.00001755  0.83332853  0.19509902
   0.33333333  0.16668507  0.19511055
   0.33333333  0.50001629  0.19508292
   0.33333333  0.83329991  0.19514862
   0.66667037  0.16667388  0.19508908
   0.66663525  0.49999783  0.19512698
   0.66664912  0.83332853  0.19509902
   0.16667431 -0.00000934  0.19504838
   0.16666272  0.33334148  0.19514702
   0.16667522  0.66666728  0.19513049
   0.49999235 -0.00000934  0.19504838
   0.50000395  0.33334148  0.19514702
   0.49999145  0.66666728  0.19513049
   0.83333333  0.00000830  0.19509871
   0.83333333  0.33333732  0.19505421
   0.83333333  0.66665872  0.19504509
   0.00001964 -0.00000440  0.25849952
  -0.00005555  0.33330366  0.25845358
  -0.00009073  0.66670051  0.25844349
   0.33333333  0.00007960  0.25845431
   0.33333333  0.33334382  0.25853694
   0.33333333  0.66664213  0.25857952
   0.66664703 -0.00000440  0.25849952
   0.66672221  0.33330366  0.25845358
   0.66675740  0.66670051  0.25844349
   0.16664506  0.16657702  0.25844740
   0.16668788  0.50000102  0.25856038
   0.16662539  0.83338836  0.25844420
   0.50002161  0.16657702  0.25844740
   0.49997879  0.50000102  0.25856038
   0.50004128  0.83338836  0.25844420
   0.83333333  0.16668306  0.25849643
   0.83333333  0.50000912  0.25844975
   0.83333333  0.83331740  0.25850074
   0.00002542  0.16670896  0.32139083
   0.00004559  0.49999031  0.32137629
   0.00003676  0.83330663  0.32140170
   0.33333333  0.16682206  0.32142044
   0.33333333  0.50000056  0.32131152
   0.33333333  0.83338351  0.32135133
   0.66664124  0.16670896  0.32139083
   0.66662107  0.49999031  0.32137629
   0.66662990  0.83330663  0.32140170
   0.16668727 -0.00006530  0.32138960
   0.16657543  0.33322313  0.32130269
   0.16656008  0.66675560  0.32127163
   0.49997940 -0.00006530  0.32138960
   0.50009123  0.33322313  0.32130269
   0.50010659  0.66675560  0.32127163
   0.83333333  0.00000905  0.32137919
   0.83333333  0.33335828  0.32138594
   0.83333333  0.66664353  0.32140170
   0.00000665 -0.00000445  0.38488023
  -0.00004864  0.33334529  0.38489405
  -0.00013779  0.66662389  0.38487938
   0.33333333  0.00013561  0.38486084
   0.33333333  0.33289951  0.38473436
   0.33333333  0.66761704  0.38438455
   0.66666002 -0.00000445  0.38488023
   0.66671530  0.33334529  0.38489405
   0.66680446  0.66662389  0.38487938
   0.16666782  0.16653700  0.38486296
   0.16593229  0.50004785  0.38454895
   0.16671837  0.83341413  0.38489625
   0.49999884  0.16653700  0.38486296
   0.50073438  0.50004785  0.38454895
   0.49994830  0.83341413  0.38489625
   0.83333333  0.16667868  0.38487521
   0.83333333  0.49998502  0.38485447
   0.83333333  0.83332730  0.38488141
   0.00001120  0.16668518  0.44736833
  -0.00004361  0.50000300  0.44727553
  -0.00000272  0.83335245  0.44739578
   0.33333333  0.16671259  0.44733421
   0.33333333  0.50091692  0.44292832
   0.33333333  0.83345976  0.44724920
   0.66665547  0.16668518  0.44736833
   0.66671027  0.50000300  0.44727553
   0.66666939  0.83335245  0.44739578
   0.16669916 -0.00000197  0.44737326
   0.16630124  0.33277789  0.44715608
   0.16541159  0.66777942  0.44691895
   0.49996750 -0.00000197  0.44737326
   0.50036543  0.33277789  0.44715608
   0.50125508  0.66777942  0.44691895
   0.83333333 -0.00001841  0.44735049
   0.83333333  0.33336022  0.44736886
   0.83333333  0.66662338  0.44737875
   0.33333333  0.49278090  0.50809352
   0.33333333  0.55275900  0.52160420
Direct configuration=     6
   0.00000000  0.00000000  0.00000000
   0.00000000  0.33333333  0.00000000
   0.00000000  0.66666667  0.00000000
   0.33333333  0.00000000  0.00000000
   0.33333333  0.33333333  0.00000000
   0.33333333  0.66666667  0.00000000
   0.66666667  0.00000000  0.00000000
   0.66666667  0.33333333  0.00000000
   0.66666667  0.66666667  0.00000000
   0.16666667  0.16666667  0.00000000
   0.16666667  0.50000000  0.00000000
   0.16666667  0.83333333  0.00000000
   0.50000000  0.16666667  0.00000000
   0.50000000  0.50000000  0.00000000
   0.50000000  0.83333333  0.00000000
   0.83333333  0.16666667  0.00000000
   0.83333333  0.50000000  0.00000000
   0.83333333  0.83333333  0.00000000
   0.00000000  0.16666667  0.06551164
   0.00000000  0.50000000  0.06551164
   0.00000000  0.83333333  0.06551164
   0.33333333  0.16666667  0.06551164
   0.33333333  0.50000000  0.06551164
   0.33333333  0.83333333  0.06551164
   0.66666667  0.16666667  0.06551164
   0.66666667  0.50000000  0.06551164
   0.66666667  0.83333333  0.06551164
   0.16666667  0.00000000  0.06551164
   0.16666667  0.33333333  0.06551164
   0.16666667  0.66666667  0.06551164
   0.50000000  0.00000000  0.06551164
   0.50000000  0.33333333  0.06551164
   0.50000000  0.66666667  0.06551164
   0.83333333  0.00000000  0.06551164
   0.83333333  0.33333333  0.06551164
   0.83333333  0.66666667  0.06551164
   0.00000000  0.00000000  0.13119553
   0.00000000  0.33333333  0.13119553
   0.00000000  0.66666667  0.13119553
   0.33333333  0.00000000  0.13119553
   0.33333333  0.33333333  0.13119553
   0.33333333  0.66666667  0.13119553
   0.66666667  0.00000000  0.13119553
   0.66666667  0.33333333  0.13119553
   0.66666667  0.66666667  0.13119553
   0.16666667  0.16666667  0.13119553
   0.16666667  0.50000000  0.13119553
   0.16666667  0.83333333  0.13119553
   0.50000000  0.16666667  0.13119553
   0.50000000  0.50000000  0.13119553