       N       E                     dE             d eps       ncg     rms          rms(c)
DAV:   1     0.155201281459E+05    0.15520E+05   -0.56096E+05 16384   0.190E+03
DAV:   2     0.225647983250E+04   -0.13264E+05   -0.12691E+05 16384   0.452E+02
DAV:   3    -0.387835511531E+03   -0.26443E+04   -0.23920E+04 16408   0.233E+02
DAV:   4    -0.608414049238E+03   -0.22058E+03   -0.20947E+03 17792   0.945E+01
DAV:   5    -0.614354385545E+03   -0.59403E+01   -0.59076E+01 18112   0.157E+01    0.112E+02
DAV:   6    -0.500509573899E+03    0.11384E+03   -0.13828E+03 17904   0.122E+02    0.556E+01
DAV:   7    -0.441162718045E+03    0.59347E+02   -0.31527E+02 17888   0.779E+01    0.294E+01
DAV:   8    -0.442591619726E+03   -0.14289E+01   -0.96431E+01 18984   0.986E+01    0.330E+01
DAV:   9    -0.434817454189E+03    0.77742E+01   -0.32955E+01 21168   0.709E+01    0.278E+01
DAV:  10    -0.429400580438E+03    0.54169E+01   -0.26593E+01 24112   0.492E+01    0.231E+01
DAV:  11    -0.432470717223E+03   -0.30701E+01   -0.11477E+01 26832   0.394E+01    0.210E+01
DAV:  12    -0.442315354140E+03   -0.98446E+01   -0.42160E+01 18216   0.358E+01    0.195E+01
DAV:  13    -0.445481521256E+03   -0.31662E+01   -0.11018E+01 19368   0.217E+01    0.154E+01
DAV:  14    -0.455836225436E+03   -0.10355E+02   -0.18454E+01 18464   0.236E+01    0.830E+00
DAV:  15    -0.467498569347E+03   -0.11662E+02   -0.12803E+01 20096   0.272E+01    0.759E+00
DAV:  16    -0.488827258696E+03   -0.21329E+02   -0.19612E+01 20928   0.129E+01    0.496E+00
DAV:  17    -0.495454101381E+03   -0.66268E+01   -0.57476E+00 18240   0.606E+00    0.351E+00
DAV:  18    -0.498650688552E+03   -0.31966E+01   -0.15760E+00 18944   0.470E+00    0.287E+00
DAV:  19    -0.505514557016E+03   -0.68639E+01   -0.37953E+00 21024   0.410E+00    0.258E+00
DAV:  20    -0.510312874451E+03   -0.47983E+01   -0.24253E+00 17296   0.275E+00    0.214E+00
DAV:  21    -0.513125402905E+03   -0.28125E+01   -0.13390E+00 23024   0.320E+00    0.187E+00
DAV:  22    -0.515323612962E+03   -0.21982E+01   -0.10295E+00 20160   0.315E+00    0.146E+00
DAV:  23    -0.516810569761E+03   -0.14870E+01   -0.35063E-01 19336   0.323E+00    0.125E+00
DAV:  24    -0.518128475313E+03   -0.13179E+01   -0.37015E-01 21840   0.198E+00    0.950E-01
DAV:  25    -0.519296118848E+03   -0.11676E+01   -0.15202E-01 18848   0.218E+00    0.707E-01
DAV:  26    -0.519893705123E+03   -0.59759E+00   -0.44396E-02 19944   0.121E+00    0.561E-01
DAV:  27    -0.520576898178E+03   -0.68319E+00   -0.31298E-02 17752   0.102E+00    0.347E-01
DAV:  28    -0.521441272579E+03   -0.86437E+00   -0.19664E-02 19496   0.813E-01    0.333E-01
DAV:  29    -0.521551751421E+03   -0.11048E+00   -0.70466E-03 19032   0.551E-01    0.189E-01
DAV:  30    -0.521581099568E+03   -0.29348E-01   -0.43925E-03 19352   0.357E-01    0.916E-02
DAV:  31    -0.521599457773E+03   -0.18358E-01   -0.14510E-03 18992   0.194E-01    0.608E-02
DAV:  32    -0.521601477646E+03   -0.20199E-02   -0.35229E-04 11744   0.100E-01    0.398E-02
DAV:  33    -0.521601993972E+03   -0.51633E-03   -0.25300E-04 11288   0.880E-02    0.229E-02
DAV:  34    -0.521602030475E+03   -0.36502E-04   -0.95155E-05 10864   0.502E-02
   1 F= -.58190649E+03 E0= -.58194373E+03  d E =-.581906E+03  mag=    -0.0006
       N       E                     dE             d eps       ncg     rms          rms(c)
DAV:   1    -0.521590646144E+03    0.11348E-01   -0.22901E+01 17680   0.478E+00    0.677E-01
DAV:   2    -0.521645614392E+03   -0.54968E-01   -0.61050E-01 23288   0.172E+00    0.668E-01
DAV:   3    -0.521644425945E+03    0.11884E-02   -0.31289E-02 19448   0.159E+00    0.507E-01
DAV:   4    -0.521648767448E+03   -0.43415E-02   -0.92973E-03 19176   0.235E+00    0.511E-01
DAV:   5    -0.521642841845E+03    0.59256E-02   -0.73568E-03 26440   0.224E+00    0.267E-01
DAV:   6    -0.521641648616E+03    0.11932E-02   -0.50987E-03 29616   0.137E+00    0.183E-01
DAV:   7    -0.521640769649E+03    0.87897E-03   -0.35127E-03 26512   0.763E-01    0.628E-02
DAV:   8    -0.521640900032E+03   -0.13038E-03   -0.23830E-03 17816   0.239E-01    0.408E-02
DAV:   9    -0.521640968058E+03   -0.68026E-04   -0.81848E-04 15512   0.105E-01
   2 F= -.58195756E+03 E0= -.58199441E+03  d E =-.510747E-01  mag=    -0.0002
       N       E                     dE             d eps       ncg     rms          rms(c)
DAV:   1    -0.521650198973E+03   -0.92989E-02   -0.18993E+00 17448   0.138E+00    0.171E-01
DAV:   2    -0.521654937075E+03   -0.47381E-02   -0.50934E-02 23096   0.425E-01    0.182E-01
DAV:   3    -0.521654852002E+03    0.85073E-04   -0.23368E-03 19032   0.257E-01    0.139E-01
DAV:   4    -0.521654967265E+03   -0.11526E-03   -0.48046E-04 12752   0.413E-01
   3 F= -.58196423E+03 E0= -.58200137E+03  d E =-.577409E-01  mag=    -0.0001
       N       E                     dE             d eps       ncg     rms          rms(c)
DAV:   1    -0.521668125253E+03   -0.13273E-01   -0.29176E+01 17896   0.549E+00    0.390E-01
DAV:   2    -0.521731012653E+03   -0.62887E-01   -0.52633E-01 27848   0.290E+00    0.662E-01
DAV:   3    -0.521724757943E+03    0.62547E-02   -0.72848E-02 19664   0.317E+00    0.462E-01
DAV:   4    -0.521724081946E+03    0.67600E-03   -0.22755E-02 18056   0.952E-01    0.308E-01
DAV:   5    -0.521724544269E+03   -0.46232E-03   -0.11663E-02 18144   0.579E-01    0.320E-01
DAV:   6    -0.521723779677E+03    0.76459E-03   -0.89529E-03 18776   0.802E-01    0.201E-01
DAV:   7    -0.521723260004E+03    0.51967E-03   -0.44911E-03 24272   0.606E-01    0.104E-01
DAV:   8    -0.521723164325E+03    0.95679E-04   -0.72628E-04 15096   0.219E-01
   4 F= -.58202659E+03 E0= -.58206290E+03  d E =-.623570E-01  mag=    -0.0001
       N       E                     dE             d eps       ncg     rms          rms(c)
DAV:   1    -0.521698775636E+03    0.24484E-01   -0.27502E+01 17880   0.532E+00    0.372E-01
DAV:   2    -0.521755110357E+03   -0.56335E-01   -0.57893E-01 24080   0.175E+00    0.529E-01
DAV:   3    -0.521754147844E+03    0.96251E-03   -0.23571E-02 18608   0.123E+00    0.357E-01
DAV:   4    -0.521754251336E+03   -0.10349E-03   -0.46547E-03 19032   0.102E+00    0.333E-01
DAV:   5    -0.521753391001E+03    0.86034E-03   -0.20589E-03 22200   0.879E-01    0.303E-01
DAV:   6    -0.521752228993E+03    0.11620E-02   -0.34703E-03 28888   0.864E-01    0.182E-01
DAV:   7    -0.521751513287E+03    0.71571E-03   -0.23331E-03 23568   0.597E-01    0.886E-02
DAV:   8    -0.521751474332E+03    0.38956E-04   -0.14735E-03 17872   0.234E-01
   5 F= -.58205009E+03 E0= -.58208611E+03  d E =-.858587E-01  mag=    -0.0000
       N       E                     dE             d eps       ncg     rms          rms(c)
DAV:   1    -0.521761470478E+03   -0.99572E-02   -0.45877E+00 17464   0.215E+00    0.198E-01
DAV:   2    -0.521771754230E+03   -0.10284E-01   -0.10663E-01 23376   0.737E-01    0.256E-01
DAV:   3    -0.521771650610E+03    0.10362E-03   -0.53961E-03 19560   0.646E-01    0.198E-01
DAV:   4    -0.521771573495E+03    0.77114E-04   -0.11086E-03 17696   0.507E-01
   6 F= -.58206690E+03 E0= -.58210298E+03  d E =-.168121E-01  mag=    -0.0000
       N       E                     dE             d eps       ncg     rms          rms(c)
DAV:   1    -0.521773258841E+03   -0.16082E-02   -0.42091E-01 21288   0.815E-01    0.177E-01
DAV:   2    -0.521775491488E+03   -0.22326E-02   -0.78569E-03 25704   0.109E+00    0.229E-01
DAV:   3    -0.521773753647E+03    0.17378E-02   -0.21674E-03 19288   0.118E+00    0.148E-01
DAV:   4    -0.521773337463E+03    0.41618E-03   -0.12045E-03 17232   0.550E-01    0.881E-02
DAV:   5    -0.521773365993E+03   -0.28530E-04   -0.11162E-03 18184   0.326E-01
   7 F= -.58206787E+03 E0= -.58210404E+03  d E =-.177793E-01  mag=    -0.0000
       N       E                     dE             d eps       ncg     rms          rms(c)
DAV:   1    -0.521780793982E+03   -0.74565E-02   -0.12836E+00 17592   0.119E+00    0.911E-02
DAV:   2    -0.521783856130E+03   -0.30621E-02   -0.28552E-02 26216   0.586E-01    0.152E-01
DAV:   3    -0.521783671877E+03    0.18425E-03   -0.25342E-03 19176   0.532E-01    0.100E-01
DAV:   4    -0.521783651818E+03    0.20059E-04   -0.77410E-04 15856   0.245E-01
   8 F= -.58207789E+03 E0= -.58211427E+03  d E =-.100192E-01  mag=    -0.0000
       N       E                     dE             d eps       ncg     rms          rms(c)
DAV:   1    -0.521779128513E+03    0.45434E-02   -0.11541E+01 17488   0.342E+00    0.300E-01
DAV:   2    -0.521802813825E+03   -0.23685E-01   -0.24951E-01 23344   0.101E+00    0.376E-01
DAV:   3    -0.521802530749E+03    0.28308E-03   -0.88734E-03 18368   0.696E-01    0.308E-01
DAV:   4    -0.521802474333E+03    0.56416E-04   -0.15386E-03 17888   0.671E-01
   9 F= -.58209624E+03 E0= -.58213283E+03  d E =-.283710E-01  mag=    -0.0000
       N       E                     dE             d eps       ncg     rms          rms(c)
DAV:   1    -0.521802228606E+03    0.30214E-03   -0.10453E+00 22472   0.134E+00    0.277E-01
DAV:   2    -0.521815104894E+03   -0.12876E-01   -0.18211E-02 26840   0.258E+00    0.517E-01
DAV:   3    -0.521802453014E+03    0.12652E-01   -0.62308E-03 21152   0.234E+00    0.217E-01
DAV:   4    -0.521801981121E+03    0.47189E-03   -0.25225E-03 23168   0.933E-01    0.162E-01
DAV:   5    -0.521801701080E+03    0.28004E-03   -0.29495E-03 20280   0.677E-01    0.101E-01
DAV:   6    -0.521801651839E+03    0.49242E-04   -0.25588E-03 17744   0.385E-01    0.555E-02
DAV:   7    -0.521801675079E+03   -0.23240E-04   -0.94786E-04 16000   0.147E-01
  10 F= -.58209543E+03 E0= -.58213229E+03  d E =-.275662E-01  mag=    -0.0000
       N       E                     dE             d eps       ncg     rms          rms(c)
DAV:   1    -0.521805419750E+03   -0.37679E-02   -0.24068E+00 17008   0.159E+00    0.121E-01
DAV:   2    -0.521810825996E+03   -0.54062E-02   -0.55632E-02 22848   0.455E-01    0.172E-01
DAV:   3    -0.521810805803E+03    0.20193E-04   -0.24909E-03 18672   0.357E-01    0.145E-01
DAV:   4    -0.521810780605E+03    0.25198E-04   -0.35056E-04 10608   0.250E-01
  11 F= -.58210466E+03 E0= -.58214155E+03  d E =-.922935E-02  mag=    -0.0000
       N       E                     dE             d eps       ncg     rms          rms(c)
DAV:   1    -0.521784421481E+03    0.26384E-01   -0.21708E+01 16968   0.476E+00    0.424E-01
DAV:   2    -0.521832631552E+03   -0.48210E-01   -0.48648E-01 24272   0.177E+00    0.603E-01
DAV:   3    -0.521830536290E+03    0.20953E-02   -0.30242E-02 19360   0.140E+00    0.485E-01
DAV:   4    -0.521830422946E+03    0.11334E-03   -0.77293E-03 18232   0.586E-01    0.460E-01
DAV:   5    -0.521828227972E+03    0.21950E-02   -0.54818E-03 25488   0.492E-01    0.245E-01
DAV:   6    -0.521826389643E+03    0.18383E-02   -0.82394E-03 19704   0.110E+00    0.133E-01
DAV:   7    -0.521826101351E+03    0.28829E-03   -0.23037E-03 25040   0.415E-01    0.740E-02
DAV:   8    -0.521826129272E+03   -0.27922E-04   -0.10359E-03 16608   0.159E-01
  12 F= -.58212070E+03 E0= -.58215792E+03  d E =-.252640E-01  mag=    -0.0000
       N       E                     dE             d eps       ncg     rms          rms(c)
DAV:   1    -0.521818859831E+03    0.72415E-02   -0.43639E+00 16992   0.213E+00    0.171E-01
DAV:   2    -0.521828680183E+03   -0.98204E-02   -0.10132E-01 22592   0.609E-01    0.232E-01
DAV:   3    -0.521828595144E+03    0.85039E-04   -0.36698E-03 19112   0.461E-01    0.190E-01
DAV:   4    -0.521828581865E+03    0.13279E-04   -0.55183E-04 13120   0.406E-01
  13 F= -.58212359E+03 E0= -.58216078E+03  d E =-.281567E-01  mag=    -0.0000
       N       E                     dE             d eps       ncg     rms          rms(c)
DAV:   1    -0.521827303793E+03    0.12914E-02   -0.36628E+00 16920   0.201E+00    0.259E-01
DAV:   2    -0.521837415426E+03   -0.10112E-01   -0.85465E-02 26352   0.132E+00    0.341E-01
DAV:   3    -0.521834949562E+03    0.24659E-02   -0.95838E-03 22136   0.123E+00    0.259E-01
DAV:   4    -0.521834698481E+03    0.25108E-03   -0.47145E-03 18152   0.468E-01    0.205E-01
DAV:   5    -0.521834380420E+03    0.31806E-03   -0.43045E-03 19048   0.364E-01    0.118E-01
DAV:   6    -0.521834283801E+03    0.96619E-04   -0.20638E-03 17584   0.388E-01    0.416E-02
DAV:   7    -0.521834229937E+03    0.53865E-04   -0.21245E-04 10528   0.146E-01
  14 F= -.58213428E+03 E0= -.58217161E+03  d E =-.106855E-01  mag=    -0.0000
       N       E                     dE             d eps       ncg     rms          rms(c)
DAV:   1    -0.521821715252E+03    0.12569E-01   -0.55244E+00 16848   0.240E+00    0.226E-01
DAV:   2    -0.521835070867E+03   -0.13356E-01   -0.13699E-01 23664   0.844E-01    0.305E-01
DAV:   3    -0.521834812425E+03    0.25844E-03   -0.69532E-03 19136   0.699E-01    0.244E-01
DAV:   4    -0.521834701051E+03    0.11137E-03   -0.12699E-03 17512   0.390E-01
  15 F= -.58214120E+03 E0= -.58217839E+03  d E =-.176051E-01  mag=    -0.0000
       N       E                     dE             d eps       ncg     rms          rms(c)
DAV:   1    -0.521828420187E+03    0.63922E-02   -0.13582E+00 17824   0.134E+00    0.238E-01
DAV:   2    -0.521833918547E+03   -0.54984E-02   -0.31252E-02 27616   0.167E+00    0.345E-01
DAV:   3    -0.521831364140E+03    0.25544E-02   -0.53517E-03 22832   0.158E+00    0.220E-01
DAV:   4    -0.521830506001E+03    0.85814E-03   -0.28698E-03 22792   0.877E-01    0.139E-01
DAV:   5    -0.521830380977E+03    0.12502E-03   -0.17381E-03 18368   0.442E-01
  16 F= -.58214023E+03 E0= -.58217775E+03  d E =-.166425E-01  mag=    -0.0000
       N       E                     dE             d eps       ncg     rms          rms(c)
DAV:   1    -0.521823760086E+03    0.67459E-02   -0.29750E+00 16624   0.180E+00    0.166E-01
DAV:   2    -0.521832910207E+03   -0.91501E-02   -0.91076E-02 23768   0.765E-01    0.262E-01
DAV:   3    -0.521832562877E+03    0.34733E-03   -0.54679E-03 19400   0.636E-01    0.208E-01
DAV:   4    -0.521832534583E+03    0.28294E-04   -0.13637E-03 17768   0.283E-01
  17 F= -.58214914E+03 E0= -.58218637E+03  d E =-.890953E-02  mag=    -0.0000
       N       E                     dE             d eps       ncg     rms          rms(c)
DAV:   1    -0.521789513259E+03    0.43050E-01   -0.13490E+01 16576   0.375E+00    0.466E-01
DAV:   2    -0.521825581289E+03   -0.36068E-01   -0.40507E-01 22208   0.989E-01    0.556E-01
DAV:   3    -0.521825212224E+03    0.36907E-03   -0.12217E-02 19240   0.359E-01    0.513E-01
DAV:   4    -0.521824427563E+03    0.78466E-03   -0.15108E-03 18760   0.550E-01    0.478E-01
DAV:   5    -0.521834288070E+03   -0.98605E-02   -0.17574E-03 20040   0.232E+00    0.520E-01
DAV:   6    -0.521821121297E+03    0.13167E-01   -0.33485E-03 24984   0.215E+00    0.228E-01
DAV:   7    -0.521821054924E+03    0.66373E-04   -0.45134E-03 27344   0.543E-01    0.216E-01
DAV:   8    -0.521820662724E+03    0.39220E-03   -0.11016E-03 17120   0.277E-01    0.163E-01
DAV:   9    -0.521820388418E+03    0.27431E-03   -0.33205E-04 10680   0.128E-01    0.972E-02
DAV:  10    -0.521820293300E+03    0.95118E-04   -0.18120E-04 10312   0.754E-02
  18 F= -.58215217E+03 E0= -.58218962E+03  d E =-.119356E-01  mag=    -0.0000
       N       E                     dE             d eps       ncg     rms          rms(c)
DAV:   1    -0.521823097643E+03   -0.27092E-02   -0.14242E+00 16600   0.122E+00    0.134E-01
DAV:   2    -0.521826831086E+03   -0.37334E-02   -0.40806E-02 22576   0.356E-01    0.169E-01
DAV:   3    -0.521826784158E+03    0.46928E-04   -0.15989E-03 18376   0.213E-01
  19 F= -.58215357E+03 E0= -.58219095E+03  d E =-.133381E-01  mag=    -0.0000
       N       E                     dE             d eps       ncg     rms          rms(c)
DAV:   1    -0.521824295415E+03    0.25357E-02   -0.84350E-01 16968   0.932E-01    0.127E-01
DAV:   2    -0.521828238861E+03   -0.39434E-02   -0.18107E-02 28904   0.104E+00    0.193E-01
DAV:   3    -0.521826459442E+03    0.17794E-02   -0.36435E-03 27776   0.113E+00    0.104E-01
DAV:   4    -0.521826333762E+03    0.12568E-03   -0.13187E-03 18368   0.319E-01
  20 F= -.58216021E+03 E0= -.58219780E+03  d E =-.664033E-02  mag=    -0.0000
       N       E                     dE             d eps       ncg     rms          rms(c)
DAV:   1    -0.521805647091E+03    0.20812E-01   -0.75883E+00 16784   0.275E+00    0.267E-01
DAV:   2    -0.521824054697E+03   -0.18408E-01   -0.19608E-01 22640   0.875E-01    0.361E-01
DAV:   3    -0.521823902213E+03    0.15248E-03   -0.82798E-03 18240   0.433E-01    0.299E-01
DAV:   4    -0.521823819399E+03    0.82814E-04   -0.10470E-03 16184   0.402E-01
  21 F= -.58217906E+03 E0= -.58221665E+03  d E =-.254917E-01  mag=    -0.0000
       N       E                     dE             d eps       ncg     rms          rms(c)
DAV:   1    -0.521736493490E+03    0.87409E-01   -0.30487E+01 16896   0.549E+00    0.666E-01
DAV:   2    -0.521823835265E+03   -0.87342E-01   -0.64607E-01 28904   0.420E+00    0.103E+00
DAV:   3    -0.521798479687E+03    0.25356E-01   -0.89276E-02 25176   0.385E+00    0.675E-01
DAV:   4    -0.521799716071E+03   -0.12364E-02   -0.48977E-02 17952   0.813E-01    0.569E-01
DAV:   5    -0.521800956146E+03   -0.12401E-02   -0.14903E-02 18816   0.119E+00    0.511E-01
DAV:   6    -0.521799172608E+03    0.17835E-02   -0.27901E-02 18624   0.185E+00    0.389E-01
DAV:   7    -0.521797453291E+03    0.17193E-02   -0.13852E-02 21672   0.892E-01    0.344E-01
DAV:   8    -0.521795813971E+03    0.16393E-02   -0.35652E-03 21424   0.311E-01    0.204E-01
DAV:   9    -0.521795135458E+03    0.67851E-03   -0.32178E-03 17352   0.349E-01    0.337E-02
DAV:  10    -0.521795233874E+03   -0.98416E-04   -0.72322E-04 14624   0.112E-01
  22 F= -.58219370E+03 E0= -.58223193E+03  d E =-.401300E-01  mag=    -0.0000
       N       E                     dE             d eps       ncg     rms          rms(c)
DAV:   1    -0.521783653302E+03    0.11482E-01   -0.33971E+00 17024   0.182E+00    0.181E-01
DAV:   2    -0.521791286894E+03   -0.76336E-02   -0.80611E-02 23608   0.655E-01    0.232E-01
DAV:   3    -0.521791183623E+03    0.10327E-03   -0.47029E-03 17608   0.460E-01    0.171E-01
DAV:   4    -0.521791140136E+03    0.43487E-04   -0.78468E-04 15136   0.308E-01
  23 F= -.58220387E+03 E0= -.58224207E+03  d E =-.101733E-01  mag=    -0.0000
       N       E                     dE             d eps       ncg     rms          rms(c)
DAV:   1    -0.521762771392E+03    0.28412E-01   -0.71998E+00 17080   0.268E+00    0.330E-01
DAV:   2    -0.521787374887E+03   -0.24603E-01   -0.13647E-01 29712   0.254E+00    0.560E-01
DAV:   3    -0.521776206048E+03    0.11169E-01   -0.23263E-02 26656   0.228E+00    0.324E-01
DAV:   4    -0.521776906688E+03   -0.70064E-03   -0.15783E-02 18224   0.405E-01    0.268E-01
DAV:   5    -0.521777121370E+03   -0.21468E-03   -0.44033E-03 18592   0.656E-01    0.248E-01
DAV:   6    -0.521776657869E+03    0.46350E-03   -0.32104E-03 19968   0.769E-01    0.121E-01
DAV:   7    -0.521776360492E+03    0.29738E-03   -0.23214E-03 18624   0.419E-01    0.132E-01
DAV:   8    -0.521776136713E+03    0.22378E-03   -0.58876E-04 12936   0.165E-01    0.784E-02
DAV:   9    -0.521776054897E+03    0.81815E-04   -0.41210E-04 12008   0.121E-01
  24 F= -.58220993E+03 E0= -.58224840E+03  d E =-.162269E-01  mag=    -0.0000
       N       E                     dE             d eps       ncg     rms          rms(c)
DAV:   1    -0.521766609564E+03    0.95271E-02   -0.25967E+00 16992   0.161E+00    0.153E-01
DAV:   2    -0.521772613410E+03   -0.60038E-02   -0.63546E-02 22624   0.517E-01    0.197E-01
DAV:   3    -0.521772552870E+03    0.60540E-04   -0.32583E-03 18184   0.299E-01    0.154E-01
DAV:   4    -0.521772473701E+03    0.79169E-04   -0.48136E-04 13184   0.183E-01
  25 F= -.58221699E+03 E0= -.58225548E+03  d E =-.706564E-02  mag=    -0.0000
       N       E                     dE             d eps       ncg     rms          rms(c)
DAV:   1    -0.521763457786E+03    0.90951E-02   -0.13420E+00 17360   0.127E+00    0.161E-01
DAV:   2    -0.521776454851E+03   -0.12997E-01   -0.24409E-02 30080   0.227E+00    0.444E-01
DAV:   3    -0.521765554360E+03    0.10900E-01   -0.55571E-03 30296   0.197E+00    0.137E-01
DAV:   4    -0.521765802917E+03   -0.24856E-03   -0.44340E-03 23912   0.313E-01    0.117E-01
DAV:   5    -0.521765842276E+03   -0.39359E-04   -0.19276E-03 18256   0.327E-01
  26 F= -.58221820E+03 E0= -.58225670E+03  d E =-.827413E-02  mag=    -0.0000
       N       E                     dE             d eps       ncg     rms          rms(c)
DAV:   1    -0.521764915649E+03    0.88727E-03   -0.15392E-02 23488   0.206E-01    0.402E-02
DAV:   2    -0.521765040760E+03   -0.12511E-03   -0.37846E-04 11848   0.321E-01
  27 F= -.58221824E+03 E0= -.58225684E+03  d E =-.830717E-02  mag=    -0.0000
       N       E                     dE             d eps       ncg     rms          rms(c)
DAV:   1    -0.521765547327E+03   -0.63168E-03   -0.75243E-03 26088   0.354E-01    0.383E-02
DAV:   2    -0.521767126829E+03   -0.15795E-02   -0.20259E-04 11424   0.861E-01    0.173E-01
DAV:   3    -0.521765501191E+03    0.16256E-02   -0.11961E-04 10976   0.722E-01    0.185E-02
DAV:   4    -0.521765518313E+03   -0.17122E-04   -0.24481E-04 10824   0.663E-02
  28 F= -.58221811E+03 E0= -.58225674E+03  d E =-.817865E-02  mag=    -0.0000
       N       E                     dE             d eps       ncg     rms          rms(c)
DAV:   1    -0.521765246256E+03    0.25494E-03   -0.20042E-03 20224   0.608E-02    0.173E-02
DAV:   2    -0.521765249399E+03   -0.31432E-05   -0.67759E-05 10048   0.769E-02
  29 F= -.58221814E+03 E0= -.58225678E+03  d E =-.821268E-02  mag=    -0.0000
       N       E                     dE             d eps       ncg     rms          rms(c)
DAV:   1    -0.521765360536E+03   -0.11428E-03   -0.83973E-05 10248   0.860E-02    0.145E-02
DAV:   2    -0.521765549910E+03   -0.18937E-03   -0.96459E-05 10320   0.303E-01
  30 F= -.58221831E+03 E0= -.58225678E+03  d E =-.838062E-02  mag=    -0.0000
       N       E                     dE             d eps       ncg     rms          rms(c)
DAV:   1    -0.521765265992E+03    0.94544E-04   -0.24053E-05 10432   0.252E-01    0.586E-03
DAV:   2    -0.521765268124E+03   -0.21316E-05   -0.39700E-06  9888   0.254E-02
  31 F= -.58221814E+03 E0= -.58225676E+03  d E =-.821240E-02  mag=    -0.0000
       N       E                     dE             d eps       ncg     rms          rms(c)
DAV:   1    -0.521765321673E+03   -0.55681E-04   -0.14231E-05  8992   0.419E-02    0.635E-03
DAV:   2    -0.521765344455E+03   -0.22782E-04   -0.21519E-05  9744   0.108E-01
  32 F= -.58221816E+03 E0= -.58225674E+03  d E =-.823194E-02  mag=    -0.0000
       N       E                     dE             d eps       ncg     rms          rms(c)
DAV:   1    -0.521765285535E+03    0.36138E-04   -0.37319E-06  9744   0.925E-02    0.245E-03
DAV:   2    -0.521765289905E+03   -0.43698E-05   -0.12296E-07  9040   0.408E-02
  33 F= -.58221815E+03 E0= -.58225676E+03  d E =-.821700E-02  mag=    -0.0000
       N       E                     dE             d eps       ncg     rms          rms(c)
DAV:   1    -0.521765293569E+03   -0.80344E-05   -0.12580E-06  8512   0.373E-02    0.108E-03
DAV:   2    -0.521765294218E+03   -0.64835E-06   -0.44460E-06  9216   0.659E-03
  34 F= -.58221814E+03 E0= -.58225678E+03  d E =-.821338E-02  mag=    -0.0000
       N       E                     dE             d eps       ncg     rms          rms(c)
DAV:   1    -0.521763424661E+03    0.18689E-02   -0.18984E-01 16688   0.441E-01    0.453E-02
DAV:   2    -0.521763917257E+03   -0.49260E-03   -0.52710E-03 22544   0.124E-01    0.580E-02
DAV:   3    -0.521763912636E+03    0.46210E-05   -0.14906E-04 10384   0.448E-02
  35 F= -.58221928E+03 E0= -.58225792E+03  d E =-.114042E-02  mag=    -0.0000
       N       E                     dE             d eps       ncg     rms          rms(c)
DAV:   1    -0.521755108097E+03    0.88092E-02   -0.17197E+00 16656   0.132E+00    0.170E-01
DAV:   2    -0.521759212117E+03   -0.41040E-02   -0.46375E-02 22496   0.365E-01    0.193E-01
DAV:   3    -0.521759114705E+03    0.97412E-04   -0.14091E-03 17952   0.228E-01
  36 F= -.58222207E+03 E0= -.58226083E+03  d E =-.393278E-02  mag=    -0.0000
       N       E                     dE             d eps       ncg     rms          rms(c)
DAV:   1    -0.521731287742E+03    0.27924E-01   -0.68817E+00 16704   0.268E+00    0.393E-01
DAV:   2    -0.521750274880E+03   -0.18987E-01   -0.15955E-01 28136   0.181E+00    0.512E-01
DAV:   3    -0.521745275509E+03    0.49994E-02   -0.20203E-02 25184   0.174E+00    0.382E-01
DAV:   4    -0.521744605894E+03    0.66962E-03   -0.82933E-03 17776   0.455E-01    0.284E-01
DAV:   5    -0.521744926623E+03   -0.32073E-03   -0.66610E-03 19456   0.836E-01    0.245E-01
DAV:   6    -0.521743995990E+03    0.93063E-03   -0.37261E-03 19344   0.906E-01    0.935E-02
DAV:   7    -0.521743733036E+03    0.26295E-03   -0.15093E-03 18816   0.408E-01    0.592E-02
DAV:   8    -0.521743736463E+03   -0.34265E-05   -0.60115E-04 12856   0.121E-01
  37 F= -.58222197E+03 E0= -.58226078E+03  d E =-.383318E-02  mag=    -0.0000
       N       E                     dE             d eps       ncg     rms          rms(c)
DAV:   1    -0.521748013392E+03   -0.42804E-02   -0.92623E-01 16752   0.968E-01    0.109E-01
DAV:   2    -0.521750172554E+03   -0.21592E-02   -0.24027E-02 22776   0.327E-01    0.136E-01
DAV:   3    -0.521750092781E+03    0.79774E-04   -0.85638E-04 15696   0.181E-01
  38 F= -.58222271E+03 E0= -.58226151E+03  d E =-.457277E-02  mag=    -0.0000
       N       E                     dE             d eps       ncg     rms          rms(c)
DAV:   1    -0.521749638855E+03    0.53370E-03   -0.92100E-01 16904   0.101E+00    0.962E-02
DAV:   2    -0.521754942509E+03   -0.53037E-02   -0.19242E-02 29248   0.128E+00    0.245E-01
DAV:   3    -0.521751738625E+03    0.32039E-02   -0.38893E-03 28752   0.115E+00    0.868E-02
DAV:   4    -0.521751909739E+03   -0.17111E-03   -0.26008E-03 18496   0.172E-01    0.664E-02
DAV:   5    -0.521751924782E+03   -0.15043E-04   -0.45130E-04 11456   0.108E-01
  39 F= -.58222542E+03 E0= -.58226423E+03  d E =-.270839E-02  mag=    -0.0000
       N       E                     dE             d eps       ncg     rms          rms(c)
DAV:   1    -0.521731784676E+03    0.20125E-01   -0.82981E+00 16800   0.291E+00    0.300E-01
DAV:   2    -0.521750843603E+03   -0.19059E-01   -0.20641E-01 22496   0.826E-01    0.348E-01
DAV:   3    -0.521750632651E+03    0.21095E-03   -0.71183E-03 18784   0.565E-01    0.303E-01
DAV:   4    -0.521750776939E+03   -0.14429E-03   -0.10451E-03 17592   0.706E-01
  40 F= -.58222701E+03 E0= -.58226632E+03  d E =-.429994E-02  mag=    -0.0000
       N       E                     dE             d eps       ncg     rms          rms(c)
DAV:   1    -0.521749210181E+03    0.14225E-02   -0.20095E+00 21608   0.175E+00    0.198E-01
DAV:   2    -0.521771276261E+03   -0.22066E-01   -0.38846E-02 30592   0.299E+00    0.578E-01
DAV:   3    -0.521752223509E+03    0.19053E-01   -0.10347E-02 22432   0.278E+00    0.181E-01
DAV:   4    -0.521751867052E+03    0.35646E-03   -0.39794E-03 24312   0.635E-01    0.815E-02
DAV:   5    -0.521752081060E+03   -0.21401E-03   -0.32858E-03 17704   0.246E-01    0.611E-02
DAV:   6    -0.521752123725E+03   -0.42664E-04   -0.76808E-04 14720   0.102E-01
  41 F= -.58222699E+03 E0= -.58226601E+03  d E =-.427826E-02  mag=     0.0000
       N       E                     dE             d eps       ncg     rms          rms(c)
DAV:   1    -0.521755450296E+03   -0.33692E-02   -0.11695E+00 16688   0.110E+00    0.102E-01
DAV:   2    -0.521758432313E+03   -0.29820E-02   -0.27300E-02 26272   0.538E-01    0.153E-01
DAV:   3    -0.521758117153E+03    0.31516E-03   -0.23666E-03 19448   0.503E-01    0.113E-01
DAV:   4    -0.521758118601E+03   -0.14484E-05   -0.87083E-04 15896   0.170E-01
  42 F= -.58223001E+03 E0= -.58226900E+03  d E =-.301349E-02  mag=    -0.0000
       N       E                     dE             d eps       ncg     rms          rms(c)
DAV:   1    -0.521750400999E+03    0.77162E-02   -0.10521E+01 16672   0.330E+00    0.379E-01
DAV:   2    -0.521773443379E+03   -0.23042E-01   -0.25630E-01 22464   0.920E-01    0.417E-01
DAV:   3    -0.521772944246E+03    0.49913E-03   -0.94317E-03 18656   0.629E-01    0.356E-01
DAV:   4    -0.521773503738E+03   -0.55949E-03   -0.18146E-03 18304   0.983E-01    0.329E-01
DAV:   5    -0.521774230019E+03   -0.72628E-03   -0.95531E-04 18576   0.157E+00    0.318E-01
DAV:   6    -0.521770872415E+03    0.33576E-02   -0.14044E-03 18624   0.111E+00    0.118E-01
DAV:   7    -0.521770808183E+03    0.64232E-04   -0.26533E-03 24896   0.338E-01    0.110E-01
DAV:   8    -0.521770758236E+03    0.49947E-04   -0.76906E-04 14800   0.109E-01
  43 F= -.58223373E+03 E0= -.58227283E+03  d E =-.673899E-02  mag=     0.0000
       N       E                     dE             d eps       ncg     rms          rms(c)
DAV:   1    -0.521772480953E+03   -0.16728E-02   -0.22836E+00 16672   0.152E+00    0.187E-01
DAV:   2    -0.521777979070E+03   -0.54981E-02   -0.60365E-02 22736   0.536E-01    0.214E-01
DAV:   3    -0.521777895690E+03    0.83380E-04   -0.30675E-03 18688   0.510E-01    0.167E-01
DAV:   4    -0.521777869533E+03    0.26157E-04   -0.53188E-04 13440   0.502E-01
  44 F= -.58223539E+03 E0= -.58227423E+03  d E =-.165620E-02  mag=     0.0000
       N       E                     dE             d eps       ncg     rms          rms(c)
DAV:   1    -0.521775669506E+03    0.22262E-02   -0.30922E-01 23440   0.793E-01    0.957E-02
DAV:   2    -0.521780557784E+03   -0.48883E-02   -0.58068E-03 27376   0.154E+00    0.292E-01
DAV:   3    -0.521776235890E+03    0.43219E-02   -0.97479E-04 18512   0.136E+00    0.106E-01
DAV:   4    -0.521775865724E+03    0.37017E-03   -0.21738E-04 12392   0.399E-01    0.373E-02
DAV:   5    -0.521775918083E+03   -0.52359E-04   -0.72522E-04 14920   0.860E-02
  45 F= -.58223542E+03 E0= -.58227451E+03  d E =-.169039E-02  mag=     0.0000
       N       E                     dE             d eps       ncg     rms          rms(c)
DAV:   1    -0.521776439057E+03   -0.57333E-03   -0.24524E+00 16864   0.159E+00    0.158E-01
DAV:   2    -0.521781873355E+03   -0.54343E-02   -0.57915E-02 23248   0.505E-01    0.184E-01
DAV:   3    -0.521781882439E+03   -0.90844E-05   -0.26446E-03 18360   0.440E-01    0.146E-01
DAV:   4    -0.521781864350E+03    0.18089E-04   -0.35837E-04 11344   0.432E-01
  46 F= -.58223666E+03 E0= -.58227545E+03  d E =-.124018E-02  mag=     0.0000
       N       E                     dE             d eps       ncg     rms          rms(c)
DAV:   1    -0.521779367377E+03    0.25151E-02   -0.46631E-01 21408   0.839E-01    0.871E-02
DAV:   2    -0.521783401490E+03   -0.40341E-02   -0.70872E-03 25816   0.131E+00    0.241E-01
DAV:   3    -0.521780116627E+03    0.32849E-02   -0.16587E-03 20632   0.120E+00    0.981E-02
DAV:   4    -0.521779920838E+03    0.19579E-03   -0.58878E-04 14608   0.354E-01
  47 F= -.58223675E+03 E0= -.58227583E+03  d E =-.133095E-02  mag=     0.0000
       N       E                     dE             d eps       ncg     rms          rms(c)
DAV:   1    -0.521780295994E+03   -0.17937E-03   -0.10833E-02 23928   0.161E-01    0.268E-02
DAV:   2    -0.521780315753E+03   -0.19759E-04   -0.22359E-04 10448   0.111E-01
  48 F= -.58223685E+03 E0= -.58227580E+03  d E =-.142865E-02  mag=     0.0000
       N       E                     dE             d eps       ncg     rms          rms(c)
DAV:   1    -0.521780108177E+03    0.18782E-03   -0.10254E-03 15984   0.167E-01    0.261E-02
DAV:   2    -0.521780911149E+03   -0.80297E-03   -0.39630E-04 13008   0.619E-01    0.124E-01
DAV:   3    -0.521780111583E+03    0.79957E-03   -0.64861E-05 10944   0.504E-01    0.672E-03
DAV:   4    -0.521780167962E+03   -0.56379E-04   -0.55667E-04 12256   0.383E-02
  49 F= -.58223683E+03 E0= -.58227580E+03  d E =-.141244E-02  mag=     0.0000
       N       E                     dE             d eps       ncg     rms          rms(c)
DAV:   1    -0.521780272326E+03   -0.16074E-03   -0.85209E-04 13600   0.466E-02    0.946E-03
DAV:   2    -0.521780280409E+03   -0.80836E-05   -0.34746E-05  9744   0.522E-02
  50 F= -.58223685E+03 E0= -.58227585E+03  d E =-.142683E-02  mag=     0.0000
       N       E                     dE             d eps       ncg     rms          rms(c)
DAV:   1    -0.521780216240E+03    0.56085E-04   -0.63079E-05  9344   0.689E-02    0.946E-03
DAV:   2    -0.521780252153E+03   -0.35913E-04   -0.53643E-05  9920   0.137E-01
  51 F= -.58223687E+03 E0= -.58227594E+03  d E =-.144759E-02  mag=     0.0000
       N       E                     dE             d eps       ncg     rms          rms(c)
DAV:   1    -0.521780265317E+03   -0.49077E-04   -0.12255E-05 10016   0.121E-01    0.430E-03
DAV:   2    -0.521780282648E+03   -0.17331E-04   -0.48942E-07  9824   0.850E-02
  52 F= -.58223687E+03 E0= -.58227589E+03  d E =-.144472E-02  mag=     0.0000
       N       E                     dE             d eps       ncg     rms          rms(c)
DAV:   1    -0.521780254964E+03    0.10353E-04   -0.27914E-06  9536   0.744E-02    0.201E-03
DAV:   2    -0.521780255702E+03   -0.73740E-06   -0.14337E-06  8992   0.167E-02
  53 F= -.58223685E+03 E0= -.58227584E+03  d E =-.142464E-02  mag=     0.0000
       N       E                     dE             d eps       ncg     rms          rms(c)
DAV:   1    -0.521782818142E+03   -0.25632E-02   -0.40856E-01 16704   0.645E-01    0.662E-02
DAV:   2    -0.521783692107E+03   -0.87396E-03   -0.95520E-03 22464   0.173E-01    0.710E-02
DAV:   3    -0.521783664533E+03    0.27574E-04   -0.22186E-04 10752   0.791E-02
  54 F= -.58223788E+03 E0= -.58227681E+03  d E =-.103331E-02  mag=     0.0000
       N       E                     dE             d eps       ncg     rms          rms(c)
DAV:   1    -0.521785000636E+03   -0.13085E-02   -0.90123E-02 21392   0.362E-01    0.780E-02
DAV:   2    -0.521786834629E+03   -0.18340E-02   -0.59545E-04 12192   0.943E-01    0.191E-01
DAV:   3    -0.521784902799E+03    0.19318E-02   -0.19366E-04 12016   0.812E-01    0.457E-02
DAV:   4    -0.521784944752E+03   -0.41952E-04   -0.49370E-04 13712   0.160E-01
  55 F= -.58223806E+03 E0= -.58227711E+03  d E =-.121638E-02  mag=     0.0000
       N       E                     dE             d eps       ncg     rms          rms(c)
DAV:   1    -0.521787251733E+03   -0.23489E-02   -0.32637E-01 16816   0.603E-01    0.589E-02
DAV:   2    -0.521788053732E+03   -0.80200E-03   -0.82706E-03 24128   0.230E-01    0.768E-02
DAV:   3    -0.521788034816E+03    0.18916E-04   -0.51376E-04 13376   0.199E-01
  56 F= -.58223916E+03 E0= -.58227808E+03  d E =-.109880E-02  mag=     0.0000
       N       E                     dE             d eps       ncg     rms          rms(c)
DAV:   1    -0.521790147086E+03   -0.20934E-02   -0.43049E-01 16736   0.673E-01    0.111E-01
DAV:   2    -0.521791018069E+03   -0.87098E-03   -0.92501E-03 26368   0.329E-01    0.115E-01
DAV:   3    -0.521790948528E+03    0.69541E-04   -0.97229E-04 16640   0.440E-01
  57 F= -.58223981E+03 E0= -.58227885E+03  d E =-.175049E-02  mag=     0.0000
       N       E                     dE             d eps       ncg     rms          rms(c)
DAV:   1    -0.521791801535E+03   -0.78347E-03   -0.99598E-02 21328   0.399E-01    0.756E-02
DAV:   2    -0.521792025401E+03   -0.22387E-03   -0.18676E-03 20032   0.327E-01    0.838E-02
DAV:   3    -0.521791943934E+03    0.81467E-04   -0.30567E-04 10464   0.375E-01
  58 F= -.58223973E+03 E0= -.58227857E+03  d E =-.166615E-02  mag=     0.0000
       N       E                     dE             d eps       ncg     rms          rms(c)
DAV:   1    -0.521791334912E+03    0.69049E-03   -0.24793E-02 24064   0.303E-01    0.366E-02
DAV:   2    -0.521791812820E+03   -0.47791E-03   -0.39675E-04 11856   0.514E-01    0.104E-01
DAV:   3    -0.521791368390E+03    0.44443E-03   -0.95892E-05 10912   0.455E-01    0.328E-02
DAV:   4    -0.521791332223E+03    0.36168E-04   -0.86225E-05 10240   0.149E-01
  59 F= -.58223966E+03 E0= -.58227856E+03  d E =-.159394E-02  mag=     0.0000
       N       E                     dE             d eps       ncg     rms          rms(c)
DAV:   1    -0.521792668252E+03   -0.12999E-02   -0.59783E-02 16736   0.249E-01    0.259E-02
DAV:   2    -0.521792783514E+03   -0.11526E-03   -0.11422E-03 16544   0.102E-01
  60 F= -.58224007E+03 E0= -.58227905E+03  d E =-.409351E-03  mag=     0.0000
       N       E                     dE             d eps       ncg     rms          rms(c)
DAV:   1    -0.521794214738E+03   -0.15465E-02   -0.83694E-02 17576   0.322E-01    0.510E-02
DAV:   2    -0.521794387493E+03   -0.17276E-03   -0.13393E-03 16864   0.231E-01
  61 F= -.58224046E+03 E0= -.58227951E+03  d E =-.806111E-03  mag=     0.0000
       N       E                     dE             d eps       ncg     rms          rms(c)
DAV:   1    -0.521796552123E+03   -0.23374E-02   -0.32945E-01 17456   0.645E-01    0.957E-02
DAV:   2    -0.521797497116E+03   -0.94499E-03   -0.78363E-03 25456   0.464E-01    0.117E-01
DAV:   3    -0.521797186116E+03    0.31100E-03   -0.82895E-04 15984   0.456E-01    0.831E-02
DAV:   4    -0.521797142010E+03    0.44106E-04   -0.79533E-04 15584   0.149E-01
  62 F= -.58224081E+03 E0= -.58227968E+03  d E =-.115188E-02  mag=     0.0000
       N       E                     dE             d eps       ncg     rms          rms(c)
DAV:   1    -0.521797935175E+03   -0.74906E-03   -0.34947E-02 22384   0.255E-01    0.444E-02
DAV:   2    -0.521798405472E+03   -0.47030E-03   -0.82276E-04 16304   0.534E-01    0.110E-01
DAV:   3    -0.521797990316E+03    0.41516E-03   -0.15035E-04 10688   0.468E-01    0.373E-02
DAV:   4    -0.521797942016E+03    0.48300E-04   -0.76714E-05 10464   0.161E-01
  63 F= -.58224083E+03 E0= -.58227977E+03  d E =-.117125E-02  mag=     0.0000
       N       E                     dE             d eps       ncg     rms          rms(c)
DAV:   1    -0.521797477007E+03    0.51331E-03   -0.10889E-02 17264   0.118E-01    0.132E-02
DAV:   2    -0.521797503786E+03   -0.26779E-04   -0.13797E-04 10688   0.970E-02
  64 F= -.58224083E+03 E0= -.58227983E+03  d E =-.117395E-02  mag=     0.0000
