<?xml version="1.0" encoding="ISO-8859-1"?>
<modeling>
 <generator>
  <i name="program" type="string">vasp </i>
  <i name="version" type="string">6.3.2  </i>
  <i name="subversion" type="string">27Jun22 (build Aug 17 2022 15:43:34) complex                          parallel </i>
  <i name="platform" type="string">tv2STDVTST </i>
  <i name="date" type="string">2025 02 06 </i>
  <i name="time" type="string">09:55:34 </i>
 </generator>
 <incar>
  <i type="int" name="ISTART">     0</i>
  <i type="string" name="PREC">Normal</i>
  <i type="int" name="ISPIN">     2</i>
  <i type="int" name="ICHARG">     2</i>
  <i type="int" name="IBRION">     2</i>
  <i name="EDIFF">      0.00020000</i>
  <i name="EDIFFG">     -0.03000000</i>
  <i type="int" name="NSW">   800</i>
  <i type="int" name="ISIF">     2</i>
  <i type="int" name="ISYM">     1</i>
  <i name="ENCUT">    400.00000000</i>
  <i name="POTIM">      0.50000000</i>
  <i type="logical" name="LREAL"> F  </i>
  <i type="int" name="ISMEAR">     1</i>
  <i name="SIGMA">      0.20000000</i>
  <i type="logical" name="LWAVE"> F  </i>
  <i type="logical" name="LCHARG"> F  </i>
  <i type="string" name="GGA">PE</i>
  <i type="int" name="IVDW">    11</i>
 </incar>
 <primitive_cell>
  <structure name="primitive_cell" >
   <crystal>
    <varray name="basis" >
     <v>      10.89000034       0.00000000       0.00000000 </v>
     <v>       0.00000000      10.89000034       0.00000000 </v>
     <v>       0.00000000       0.00000000      27.70499992 </v>
    </varray>
    <i name="volume">   3285.59432860 </i>
    <varray name="rec_basis" >
     <v>       0.09182736       0.00000000       0.00000000 </v>
     <v>       0.00000000       0.09182736       0.00000000 </v>
     <v>       0.00000000       0.00000000       0.03609457 </v>
    </varray>
   </crystal>
   <varray name="positions" >
    <v>       0.00000000       0.00000000       0.00000000 </v>
    <v>       0.00000000       0.33333333       0.00000000 </v>
    <v>       0.00000000       0.66666667       0.00000000 </v>
    <v>       0.33333333       0.00000000       0.00000000 </v>
    <v>       0.33333333       0.33333333       0.00000000 </v>
    <v>       0.33333333       0.66666667       0.00000000 </v>
    <v>       0.66666667       0.00000000       0.00000000 </v>
    <v>       0.66666667       0.33333333       0.00000000 </v>
    <v>       0.66666667       0.66666667       0.00000000 </v>
    <v>       0.16666667       0.16666667       0.00000000 </v>
    <v>       0.16666667       0.50000000       0.00000000 </v>
    <v>       0.16666667       0.83333333       0.00000000 </v>
    <v>       0.50000000       0.16666667       0.00000000 </v>
    <v>       0.50000000       0.50000000       0.00000000 </v>
    <v>       0.50000000       0.83333333       0.00000000 </v>
    <v>       0.83333333       0.16666667       0.00000000 </v>
    <v>       0.83333333       0.50000000       0.00000000 </v>
    <v>       0.83333333       0.83333333       0.00000000 </v>
    <v>       0.00000000       0.16666667       0.06551164 </v>
    <v>       0.00000000       0.50000000       0.06551164 </v>
    <v>       0.00000000       0.83333333       0.06551164 </v>
    <v>       0.33333333       0.16666667       0.06551164 </v>
    <v>       0.33333333       0.50000000       0.06551164 </v>
    <v>       0.33333333       0.83333333       0.06551164 </v>
    <v>       0.66666667       0.16666667       0.06551164 </v>
    <v>       0.66666667       0.50000000       0.06551164 </v>
    <v>       0.66666667       0.83333333       0.06551164 </v>
    <v>       0.16666667       0.00000000       0.06551164 </v>
    <v>       0.16666667       0.33333333       0.06551164 </v>
    <v>       0.16666667       0.66666667       0.06551164 </v>
    <v>       0.50000000       0.00000000       0.06551164 </v>
    <v>       0.50000000       0.33333333       0.06551164 </v>
    <v>       0.50000000       0.66666667       0.06551164 </v>
    <v>       0.83333333       0.00000000       0.06551164 </v>
    <v>       0.83333333       0.33333333       0.06551164 </v>
    <v>       0.83333333       0.66666667       0.06551164 </v>
    <v>       0.00000000       0.00000000       0.13119553 </v>
    <v>       0.00000000       0.33333333       0.13119553 </v>
    <v>       0.00000000       0.66666667       0.13119553 </v>
    <v>       0.33333333       0.00000000       0.13119553 </v>
    <v>       0.33333333       0.33333333       0.13119553 </v>
    <v>       0.33333333       0.66666667       0.13119553 </v>
    <v>       0.66666667       0.00000000       0.13119553 </v>
    <v>       0.66666667       0.33333333       0.13119553 </v>
    <v>       0.66666667       0.66666667       0.13119553 </v>
    <v>       0.16666667       0.16666667       0.13119553 </v>
    <v>       0.16666667       0.50000000       0.13119553 </v>
    <v>       0.16666667       0.83333333       0.13119553 </v>
    <v>       0.50000000       0.16666667       0.13119553 </v>
    <v>       0.50000000       0.50000000       0.13119553 </v>
    <v>       0.50000000       0.83333333       0.13119553 </v>
    <v>       0.83333333       0.16666667       0.13119553 </v>
    <v>       0.83333333       0.50000000       0.13119553 </v>
    <v>       0.83333333       0.83333333       0.13119553 </v>
    <v>       0.00000000       0.16666667       0.19620680 </v>
    <v>       0.00000000       0.50000000       0.19620680 </v>
    <v>       0.00000000       0.83333333       0.19620680 </v>
    <v>       0.33333333       0.16666667       0.19620680 </v>
    <v>       0.33333333       0.50000000       0.19620680 </v>
    <v>       0.33333333       0.83333333       0.19620680 </v>
    <v>       0.66666667       0.16666667       0.19620680 </v>
    <v>       0.66666667       0.50000000       0.19620680 </v>
    <v>       0.66666667       0.83333333       0.19620680 </v>
    <v>       0.16666667       0.00000000       0.19620680 </v>
    <v>       0.16666667       0.33333333       0.19620680 </v>
    <v>       0.16666667       0.66666667       0.19620680 </v>
    <v>       0.50000000       0.00000000       0.19620680 </v>
    <v>       0.50000000       0.33333333       0.19620680 </v>
    <v>       0.50000000       0.66666667       0.19620680 </v>
    <v>       0.83333333       0.00000000       0.19620680 </v>
    <v>       0.83333333       0.33333333       0.19620680 </v>
    <v>       0.83333333       0.66666667       0.19620680 </v>
    <v>       0.00000000       0.00000000       0.25873860 </v>
    <v>       0.00000000       0.33333333       0.25873860 </v>
    <v>       0.00000000       0.66666667       0.25873860 </v>
    <v>       0.33333333       0.00000000       0.25873860 </v>
    <v>       0.33333333       0.33333333       0.25873860 </v>
    <v>       0.33333333       0.66666667       0.25873860 </v>
    <v>       0.66666667       0.00000000       0.25873860 </v>
    <v>       0.66666667       0.33333333       0.25873860 </v>
    <v>       0.66666667       0.66666667       0.25873860 </v>
    <v>       0.16666667       0.16666667       0.25873860 </v>
    <v>       0.16666667       0.50000000       0.25873860 </v>
    <v>       0.16666667       0.83333333       0.25873860 </v>
    <v>       0.50000000       0.16666667       0.25873860 </v>
    <v>       0.50000000       0.50000000       0.25873860 </v>
    <v>       0.50000000       0.83333333       0.25873860 </v>
    <v>       0.83333333       0.16666667       0.25873860 </v>
    <v>       0.83333333       0.50000000       0.25873860 </v>
    <v>       0.83333333       0.83333333       0.25873860 </v>
    <v>       0.00000000       0.16666667       0.32119954 </v>
    <v>       0.00000000       0.50000000       0.32119954 </v>
    <v>       0.00000000       0.83333333       0.32119954 </v>
    <v>       0.33333333       0.16666667       0.32119954 </v>
    <v>       0.33333333       0.50000000       0.32119954 </v>
    <v>       0.33333333       0.83333333       0.32119954 </v>
    <v>       0.66666667       0.16666667       0.32119954 </v>
    <v>       0.66666667       0.50000000       0.32119954 </v>
    <v>       0.66666667       0.83333333       0.32119954 </v>
    <v>       0.16666667       0.00000000       0.32119954 </v>
    <v>       0.16666667       0.33333333       0.32119954 </v>
    <v>       0.16666667       0.66666667       0.32119954 </v>
    <v>       0.50000000       0.00000000       0.32119954 </v>
    <v>       0.50000000       0.33333333       0.32119954 </v>
    <v>       0.50000000       0.66666667       0.32119954 </v>
    <v>       0.83333333       0.00000000       0.32119954 </v>
    <v>       0.83333333       0.33333333       0.32119954 </v>
    <v>       0.83333333       0.66666667       0.32119954 </v>
    <v>       0.00000000       0.00000000       0.38476372 </v>
    <v>       0.00000000       0.33333333       0.38476372 </v>
    <v>       0.00000000       0.66666667       0.38476372 </v>
    <v>       0.33333333       0.00000000       0.38476372 </v>
    <v>       0.33333333       0.33333333       0.38476372 </v>
    <v>       0.33333333       0.66666667       0.38476372 </v>
    <v>       0.66666667       0.00000000       0.38476372 </v>
    <v>       0.66666667       0.33333333       0.38476372 </v>
    <v>       0.66666667       0.66666667       0.38476372 </v>
    <v>       0.16666667       0.16666667       0.38476372 </v>
    <v>       0.16666667       0.50000000       0.38476372 </v>
    <v>       0.16666667       0.83333333       0.38476372 </v>
    <v>       0.50000000       0.16666667       0.38476372 </v>
    <v>       0.50000000       0.50000000       0.38476372 </v>
    <v>       0.50000000       0.83333333       0.38476372 </v>
    <v>       0.83333333       0.16666667       0.38476372 </v>
    <v>       0.83333333       0.50000000       0.38476372 </v>
    <v>       0.83333333       0.83333333       0.38476372 </v>
    <v>       0.00000000       0.16666667       0.44736473 </v>
    <v>       0.00000000       0.50000000       0.44736473 </v>
    <v>       0.00000000       0.83333333       0.44736473 </v>
    <v>       0.33333333       0.16666667       0.44736473 </v>
    <v>       0.33333333       0.50000000       0.44736473 </v>
    <v>       0.33333333       0.83333333       0.44736473 </v>
    <v>       0.66666667       0.16666667       0.44736473 </v>
    <v>       0.66666667       0.50000000       0.44736473 </v>
    <v>       0.66666667       0.83333333       0.44736473 </v>
    <v>       0.16666667       0.00000000       0.44736473 </v>
    <v>       0.16666667       0.33333333       0.44736473 </v>
    <v>       0.16666667       0.66666667       0.44736473 </v>
    <v>       0.50000000       0.00000000       0.44736473 </v>
    <v>       0.50000000       0.33333333       0.44736473 </v>
    <v>       0.50000000       0.66666667       0.44736473 </v>
    <v>       0.83333333       0.00000000       0.44736473 </v>
    <v>       0.83333333       0.33333333       0.44736473 </v>
    <v>       0.83333333       0.66666667       0.44736473 </v>
    <v>       0.25000000       0.41666667       0.50150658 </v>
    <v>       0.25000000       0.41666667       0.52843313 </v>
   </varray>
  </structure>
  <varray name="primitive_index" >
   <v type="int" >        1 </v>
   <v type="int" >        2 </v>
   <v type="int" >        3 </v>
   <v type="int" >        4 </v>
   <v type="int" >        5 </v>
   <v type="int" >        6 </v>
   <v type="int" >        7 </v>
   <v type="int" >        8 </v>
   <v type="int" >        9 </v>
   <v type="int" >       10 </v>
   <v type="int" >       11 </v>
   <v type="int" >       12 </v>
   <v type="int" >       13 </v>
   <v type="int" >       14 </v>
   <v type="int" >       15 </v>
   <v type="int" >       16 </v>
   <v type="int" >       17 </v>
   <v type="int" >       18 </v>
   <v type="int" >       19 </v>
   <v type="int" >       20 </v>
   <v type="int" >       21 </v>
   <v type="int" >       22 </v>
   <v type="int" >       23 </v>
   <v type="int" >       24 </v>
   <v type="int" >       25 </v>
   <v type="int" >       26 </v>
   <v type="int" >       27 </v>
   <v type="int" >       28 </v>
   <v type="int" >       29 </v>
   <v type="int" >       30 </v>
   <v type="int" >       31 </v>
   <v type="int" >       32 </v>
   <v type="int" >       33 </v>
   <v type="int" >       34 </v>
   <v type="int" >       35 </v>
   <v type="int" >       36 </v>
   <v type="int" >       37 </v>
   <v type="int" >       38 </v>
   <v type="int" >       39 </v>
   <v type="int" >       40 </v>
   <v type="int" >       41 </v>
   <v type="int" >       42 </v>
   <v type="int" >       43 </v>
   <v type="int" >       44 </v>
   <v type="int" >       45 </v>
   <v type="int" >       46 </v>
   <v type="int" >       47 </v>
   <v type="int" >       48 </v>
   <v type="int" >       49 </v>
   <v type="int" >       50 </v>
   <v type="int" >       51 </v>
   <v type="int" >       52 </v>
   <v type="int" >       53 </v>
   <v type="int" >       54 </v>
   <v type="int" >       55 </v>
   <v type="int" >       56 </v>
   <v type="int" >       57 </v>
   <v type="int" >       58 </v>
   <v type="int" >       59 </v>
   <v type="int" >       60 </v>
   <v type="int" >       61 </v>
   <v type="int" >       62 </v>
   <v type="int" >       63 </v>
   <v type="int" >       64 </v>
   <v type="int" >       65 </v>
   <v type="int" >       66 </v>
   <v type="int" >       67 </v>
   <v type="int" >       68 </v>
   <v type="int" >       69 </v>
   <v type="int" >       70 </v>
   <v type="int" >       71 </v>
   <v type="int" >       72 </v>
   <v type="int" >       73 </v>
   <v type="int" >       74 </v>
   <v type="int" >       75 </v>
   <v type="int" >       76 </v>
   <v type="int" >       77 </v>
   <v type="int" >       78 </v>
   <v type="int" >       79 </v>
   <v type="int" >       80 </v>
   <v type="int" >       81 </v>
   <v type="int" >       82 </v>
   <v type="int" >       83 </v>
   <v type="int" >       84 </v>
   <v type="int" >       85 </v>
   <v type="int" >       86 </v>
   <v type="int" >       87 </v>
   <v type="int" >       88 </v>
   <v type="int" >       89 </v>
   <v type="int" >       90 </v>
   <v type="int" >       91 </v>
   <v type="int" >       92 </v>
   <v type="int" >       93 </v>
   <v type="int" >       94 </v>
   <v type="int" >       95 </v>
   <v type="int" >       96 </v>
   <v type="int" >       97 </v>
   <v type="int" >       98 </v>
   <v type="int" >       99 </v>
   <v type="int" >      100 </v>
   <v type="int" >      101 </v>
   <v type="int" >      102 </v>
   <v type="int" >      103 </v>
   <v type="int" >      104 </v>
   <v type="int" >      105 </v>
   <v type="int" >      106 </v>
   <v type="int" >      107 </v>
   <v type="int" >      108 </v>
   <v type="int" >      109 </v>
   <v type="int" >      110 </v>
   <v type="int" >      111 </v>
   <v type="int" >      112 </v>
   <v type="int" >      113 </v>
   <v type="int" >      114 </v>
   <v type="int" >      115 </v>
   <v type="int" >      116 </v>
   <v type="int" >      117 </v>
   <v type="int" >      118 </v>
   <v type="int" >      119 </v>
   <v type="int" >      120 </v>
   <v type="int" >      121 </v>
   <v type="int" >      122 </v>
   <v type="int" >      123 </v>
   <v type="int" >      124 </v>
   <v type="int" >      125 </v>
   <v type="int" >      126 </v>
   <v type="int" >      127 </v>
   <v type="int" >      128 </v>
   <v type="int" >      129 </v>
   <v type="int" >      130 </v>
   <v type="int" >      131 </v>
   <v type="int" >      132 </v>
   <v type="int" >      133 </v>
   <v type="int" >      134 </v>
   <v type="int" >      135 </v>
   <v type="int" >      136 </v>
   <v type="int" >      137 </v>
   <v type="int" >      138 </v>
   <v type="int" >      139 </v>
   <v type="int" >      140 </v>
   <v type="int" >      141 </v>
   <v type="int" >      142 </v>
   <v type="int" >      143 </v>
   <v type="int" >      144 </v>
   <v type="int" >      145 </v>
   <v type="int" >      146 </v>
  </varray>
 </primitive_cell>
 <kpoints>
  <generation param="Monkhorst-Pack">
   <v type="int" name="divisions">       3        3        1 </v>
   <v name="usershift">      0.00000000       0.00000000       0.00000000 </v>
   <v name="genvec1">      0.33333333       0.00000000       0.00000000 </v>
   <v name="genvec2">      0.00000000       0.33333333       0.00000000 </v>
   <v name="genvec3">      0.00000000       0.00000000       1.00000000 </v>
   <v name="shift">      0.00000000       0.00000000       0.00000000 </v>
  </generation>
  <varray name="kpointlist" >
   <v>       0.00000000       0.00000000       0.00000000 </v>
   <v>       0.33333333       0.00000000       0.00000000 </v>
   <v>       0.33333333       0.33333333       0.00000000 </v>
   <v>      -0.33333333       0.33333333       0.00000000 </v>
  </varray>
  <varray name="weights" >
   <v>       0.11111111 </v>
   <v>       0.44444444 </v>
   <v>       0.22222222 </v>
   <v>       0.22222222 </v>
  </varray>
 </kpoints>
 <parameters>
  <separator name="general" >
   <i type="string" name="SYSTEM">unknown system</i>
   <i type="logical" name="LCOMPAT"> F  </i>
  </separator>
  <separator name="electronic" >
   <i type="string" name="PREC">normal</i>
   <i name="ENMAX">    400.00000000</i>
   <i name="ENAUG">    586.98000000</i>
   <i name="EDIFF">      0.00020000</i>
   <i type="int" name="IALGO">    38</i>
   <i type="int" name="IWAVPR">    11</i>
   <i type="int" name="NBANDS">  1024</i>
   <i type="int" name="NBANDSLOW">    -1</i>
   <i type="int" name="NBANDSHIGH">    -1</i>
   <i name="NELECT">   1586.00000000</i>
   <i type="int" name="TURBO">     0</i>
   <i type="int" name="IRESTART">     0</i>
   <i type="int" name="NREBOOT">     0</i>
   <i type="int" name="NMIN">     0</i>
   <i name="EREF">      0.00000000</i>
   <separator name="electronic smearing" >
    <i type="int" name="ISMEAR">     1</i>
    <i name="SIGMA">      0.20000000</i>
    <i name="KSPACING">      0.50000000</i>
    <i type="logical" name="KGAMMA"> T  </i>
    <i type="logical" name="KBLOWUP"> T  </i>
   </separator>
   <separator name="electronic projectors" >
    <i type="logical" name="LREAL"> F  </i>
    <v name="ROPT">      0.00000000      0.00000000</v>
    <i type="int" name="LMAXPAW">  -100</i>
    <i type="int" name="LMAXMIX">     2</i>
    <i type="logical" name="NLSPLINE"> F  </i>
   </separator>
   <separator name="electronic startup" >
    <i type="int" name="ISTART">     0</i>
    <i type="int" name="ICHARG">     2</i>
    <i type="int" name="INIWAV">     1</i>
   </separator>
   <separator name="electronic spin" >
    <i type="int" name="ISPIN">     2</i>
    <i type="logical" name="LNONCOLLINEAR"> F  </i>
    <v name="MAGMOM">      1.00000000      1.00000000      1.00000000      1.00000000      1.00000000      1.00000000      1.00000000      1.00000000      1.00000000      1.00000000      1.00000000      1.00000000      1.00000000      1.00000000      1.00000000      1.00000000      1.00000000      1.00000000      1.00000000      1.00000000
      1.00000000      1.00000000      1.00000000      1.00000000      1.00000000      1.00000000      1.00000000      1.00000000      1.00000000      1.00000000      1.00000000      1.00000000      1.00000000      1.00000000      1.00000000      1.00000000      1.00000000      1.00000000      1.00000000      1.00000000
      1.00000000      1.00000000      1.00000000      1.00000000      1.00000000      1.00000000      1.00000000      1.00000000      1.00000000      1.00000000      1.00000000      1.00000000      1.00000000      1.00000000      1.00000000      1.00000000      1.00000000      1.00000000      1.00000000      1.00000000
      1.00000000      1.00000000      1.00000000      1.00000000      1.00000000      1.00000000      1.00000000      1.00000000      1.00000000      1.00000000      1.00000000      1.00000000      1.00000000      1.00000000      1.00000000      1.00000000      1.00000000      1.00000000      1.00000000      1.00000000
      1.00000000      1.00000000      1.00000000      1.00000000      1.00000000      1.00000000      1.00000000      1.00000000      1.00000000      1.00000000      1.00000000      1.00000000      1.00000000      1.00000000      1.00000000      1.00000000      1.00000000      1.00000000      1.00000000      1.00000000
      1.00000000      1.00000000      1.00000000      1.00000000      1.00000000      1.00000000      1.00000000      1.00000000      1.00000000      1.00000000      1.00000000      1.00000000      1.00000000      1.00000000      1.00000000      1.00000000      1.00000000      1.00000000      1.00000000      1.00000000
      1.00000000      1.00000000      1.00000000      1.00000000      1.00000000      1.00000000      1.00000000      1.00000000      1.00000000      1.00000000      1.00000000      1.00000000      1.00000000      1.00000000      1.00000000      1.00000000      1.00000000      1.00000000      1.00000000      1.00000000
      1.00000000      1.00000000      1.00000000      1.00000000      1.00000000      1.00000000</v>
    <i name="NUPDOWN">     -1.00000000</i>
    <i type="logical" name="LSORBIT"> F  </i>
    <v name="SAXIS">      0.00000000      0.00000000      1.00000000</v>
    <i type="logical" name="LSPIRAL"> F  </i>
    <v name="QSPIRAL">      0.00000000      0.00000000      0.00000000</v>
    <i type="logical" name="LZEROZ"> F  </i>
   </separator>
   <separator name="electronic exchange-correlation" >
    <i type="logical" name="LASPH"> F  </i>
    <i type="logical" name="LMETAGGA"> F  </i>
   </separator>
   <separator name="electronic convergence" >
    <i type="int" name="NELM">    60</i>
    <i type="int" name="NELMDL">    -5</i>
    <i type="int" name="NELMIN">     2</i>
    <i name="ENINI">    400.00000000</i>
    <separator name="electronic convergence detail" >
     <i type="logical" name="LDIAG"> T  </i>
     <i type="logical" name="LSUBROT"> F  </i>
     <i name="WEIMIN">      0.00100000</i>
     <i name="EBREAK">      0.00000005</i>
     <i name="DEPER">      0.30000000</i>
     <i type="int" name="NRMM">     4</i>
     <i name="TIME">      0.40000000</i>
    </separator>
   </separator>
   <separator name="electronic mixer" >
    <i name="AMIX">      0.40000000</i>
    <i name="BMIX">      1.00000000</i>
    <i name="AMIN">      0.10000000</i>
    <i name="AMIX_MAG">      1.60000000</i>
    <i name="BMIX_MAG">      1.00000000</i>
    <separator name="electronic mixer details" >
     <i type="int" name="IMIX">     4</i>
     <i type="logical" name="MIXFIRST"> F  </i>
     <i type="int" name="MAXMIX">   -45</i>
     <i name="WC">    100.00000000</i>
     <i type="int" name="INIMIX">     1</i>
     <i type="int" name="MIXPRE">     1</i>
     <i type="int" name="MREMOVE">     5</i>
    </separator>
   </separator>
   <separator name="electronic dipolcorrection" >
    <i type="logical" name="LDIPOL"> F  </i>
    <i type="logical" name="LMONO"> F  </i>
    <i type="int" name="IDIPOL">     0</i>
    <i name="EPSILON">      1.00000000</i>
    <v name="DIPOL">   -100.00000000   -100.00000000   -100.00000000</v>
    <i name="EFIELD">      0.00000000</i>
   </separator>
  </separator>
  <separator name="grids" >
   <i type="int" name="NGX">    54</i>
   <i type="int" name="NGY">    54</i>
   <i type="int" name="NGZ">   140</i>
   <i type="int" name="NGXF">   108</i>
   <i type="int" name="NGYF">   108</i>
   <i type="int" name="NGZF">   280</i>
   <i type="logical" name="ADDGRID"> F  </i>
  </separator>
  <separator name="ionic" >
   <i type="int" name="NSW">   800</i>
   <i type="int" name="IBRION">     2</i>
   <i type="int" name="MDALGO">     0</i>
   <i type="int" name="ISIF">     2</i>
   <i name="PSTRESS">      0.00000000</i>
   <i name="EDIFFG">     -0.03000000</i>
   <i type="int" name="NFREE">     1</i>
   <i name="POTIM">      0.50000000</i>
   <i name="SMASS">     -3.00000000</i>
   <i name="SCALEE">      1.00000000</i>
  </separator>
  <separator name="ionic md" >
   <i name="TEBEG">      0.00010000</i>
   <i name="TEEND">      0.00010000</i>
   <i type="int" name="NBLOCK">     1</i>
   <i type="int" name="KBLOCK">   800</i>
   <i type="int" name="NPACO">   256</i>
   <i name="APACO">     10.00000000</i>
  </separator>
  <separator name="symmetry" >
   <i type="int" name="ISYM">     1</i>
   <i name="SYMPREC">      0.00001000</i>
  </separator>
  <separator name="dos" >
   <i type="int" name="LORBIT">     0</i>
   <v name="RWIGS">     -1.00000000     -1.00000000</v>
   <i type="int" name="NEDOS">   301</i>
   <i name="EMIN">     10.00000000</i>
   <i name="EMAX">    -10.00000000</i>
   <i name="EFERMI">      0.00000000</i>
  </separator>
  <separator name="writing" >
   <i type="int" name="NWRITE">     2</i>
   <i type="logical" name="LWAVE"> F  </i>
   <i type="logical" name="LDOWNSAMPLE"> F  </i>
   <i type="logical" name="LCHARG"> F  </i>
   <i type="logical" name="LPARD"> F  </i>
   <i type="logical" name="LVTOT"> F  </i>
   <i type="logical" name="LVHAR"> F  </i>
   <i type="logical" name="LELF"> F  </i>
   <i type="logical" name="LOPTICS"> F  </i>
   <v name="STM">      0.00000000      0.00000000      0.00000000      0.00000000      0.00000000      0.00000000      0.00000000</v>
  </separator>
  <separator name="performance" >
   <i type="int" name="NPAR">     4</i>
   <i type="int" name="NSIM">     4</i>
   <i type="int" name="NBLK">    -1</i>
   <i type="logical" name="LPLANE"> T  </i>
   <i type="logical" name="LSCALAPACK"> T  </i>
   <i type="logical" name="LSCAAWARE"> F  </i>
   <i type="logical" name="LSCALU"> F  </i>
   <i type="logical" name="LASYNC"> F  </i>
   <i type="logical" name="LORBITALREAL"> F  </i>
  </separator>
  <separator name="miscellaneous" >
   <i type="int" name="IDIOT">     3</i>
   <i type="int" name="PHON_NSTRUCT">    -1</i>
   <i type="logical" name="LMUSIC"> F  </i>
   <v name="POMASS">     63.54600000      1.00000000</v>
   <v name="DARWINR">      0.00000000      0.00000000</v>
   <v name="DARWINV">      1.00000000      1.00000000</v>
   <i type="logical" name="LCORR"> T  </i>
  </separator>
  <i type="logical" name="GGA_COMPAT"> T  </i>
  <i type="logical" name="LBERRY"> F  </i>
  <i type="int" name="ICORELEVEL">     0</i>
  <i type="logical" name="LDAU"> F  </i>
  <i type="int" name="I_CONSTRAINED_M">     0</i>
  <separator name="electronic exchange-correlation" >
   <i type="string" name="GGA">PE</i>
   <i type="int" name="VOSKOWN">     0</i>
   <i type="logical" name="LHFCALC"> F  </i>
   <i type="string" name="PRECFOCK"></i>
   <i type="logical" name="LSYMGRAD"> F  </i>
   <i type="logical" name="LHFONE"> F  </i>
   <i type="logical" name="LRHFCALC"> F  </i>
   <i type="logical" name="LTHOMAS"> F  </i>
   <i type="logical" name="LMODELHF"> F  </i>
   <i type="logical" name="LFOCKACE"> F  </i>
   <i name="ENCUT4O">     -1.00000000</i>
   <i type="int" name="EXXOEP">     0</i>
   <i type="int" name="FOURORBIT">     0</i>
   <i name="AEXX">      0.00000000</i>
   <i name="HFALPHA">      0.00000000</i>
   <i name="MCALPHA">      0.00000000</i>
   <i name="ALDAX">      1.00000000</i>
   <i name="AGGAX">      1.00000000</i>
   <i name="ALDAC">      1.00000000</i>
   <i name="AGGAC">      1.00000000</i>
   <i type="int" name="NKREDX">     1</i>
   <i type="int" name="NKREDY">     1</i>
   <i type="int" name="NKREDZ">     1</i>
   <i type="logical" name="SHIFTRED"> F  </i>
   <i type="logical" name="ODDONLY"> F  </i>
   <i type="logical" name="EVENONLY"> F  </i>
   <i type="int" name="LMAXFOCK">     0</i>
   <i type="int" name="NMAXFOCKAE">     0</i>
   <i type="logical" name="LFOCKAEDFT"> F  </i>
   <i name="HFSCREEN">      0.00000000</i>
   <i name="HFSCREENC">      0.00000000</i>
   <i type="int" name="NBANDSGWLOW">     0</i>
  </separator>
  <separator name="vdW DFT" >
   <i type="logical" name="LUSE_VDW"> F  </i>
   <i name="Zab_VDW">     -0.84910000</i>
   <i name="PARAM1">      0.12340000</i>
   <i name="PARAM2">      1.00000000</i>
   <i name="PARAM3">      0.00000000</i>
  </separator>
  <separator name="model GW" >
   <i type="int" name="MODEL_GW">     0</i>
   <i name="MODEL_EPS0">     13.50244245</i>
   <i name="MODEL_ALPHA">      1.00000000</i>
  </separator>
  <separator name="linear response parameters" >
   <i type="logical" name="LEPSILON"> F  </i>
   <i type="logical" name="LRPA"> F  </i>
   <i type="logical" name="LNABLA"> F  </i>
   <i type="logical" name="LVEL"> F  </i>
   <i name="CSHIFT">      0.10000000</i>
   <i name="OMEGAMAX">     -1.00000000</i>
   <i name="DEG_THRESHOLD">      0.00200000</i>
   <i name="RTIME">     -0.10000000</i>
   <i name="WPLASMAI">      0.00000000</i>
   <v name="DFIELD">      0.00000000      0.00000000      0.00000000</v>
   <v name="WPLASMA">      0.00000000      0.00000000      0.00000000      0.00000000      0.00000000      0.00000000      0.00000000      0.00000000      0.00000000</v>
  </separator>
  <separator name="orbital magnetization" >
   <i type="logical" name="NUCIND"> F  </i>
   <v name="MAGPOS">      0.00000000      0.00000000      0.00000000</v>
   <i type="logical" name="LNICSALL"> T  </i>
   <i type="logical" name="ORBITALMAG"> F  </i>
   <i type="logical" name="LMAGBLOCH"> F  </i>
   <i type="logical" name="LCHIMAG"> F  </i>
   <i type="logical" name="LGAUGE"> T  </i>
   <i type="int" name="MAGATOM">     0</i>
   <v name="MAGDIPOL">      0.00000000      0.00000000      0.00000000</v>
   <v name="AVECCONST">      0.00000000      0.00000000      0.00000000</v>
  </separator>
  <separator name="response functions" >
   <i type="logical" name="LFINITE_TEMPERATURE"> F  </i>
   <i type="logical" name="LADDER"> F  </i>
   <i type="logical" name="LRPAFORCE"> F  </i>
   <i type="logical" name="LFXC"> F  </i>
   <i type="logical" name="LHARTREE"> T  </i>
   <i type="int" name="IBSE">     0</i>
   <v type="int" name="KPOINT">    -1     0     0     0</v>
   <i type="logical" name="LTCTC"> F  </i>
   <i type="logical" name="LTCTE"> F  </i>
   <i type="logical" name="LTETE"> F  </i>
   <i type="logical" name="LTRIPLET"> F  </i>
   <i type="logical" name="LFXCEPS"> F  </i>
   <i type="logical" name="LFXHEG"> F  </i>
   <i type="int" name="NATURALO">     2</i>
   <i type="logical" name="LHOLEGF"> F  </i>
   <i type="logical" name="L2ORDER"> F  </i>
   <i type="logical" name="LDMP1"> F  </i>
   <i type="logical" name="LMP2LT"> F  </i>
   <i type="logical" name="LSMP2LT"> F  </i>
   <i type="logical" name="LGWLF"> F  </i>
   <i name="ENCUTGW">     -2.00000000</i>
   <i name="ENCUTGWSOFT">     -2.00000000</i>
   <i name="ENCUTLF">     -1.00000000</i>
   <i type="logical" name="LESF_SPLINES"> F  </i>
   <i type="int" name="LMAXMP2">    -1</i>
   <i name="SCISSOR">      0.00000000</i>
   <i type="int" name="NOMEGA">     0</i>
   <i type="int" name="NOMEGAR">     0</i>
   <i type="int" name="NBANDSGW">    -1</i>
   <i type="int" name="NBANDSO">    -1</i>
   <i type="int" name="NBANDSV">    -1</i>
   <i type="int" name="NELMGW">     1</i>
   <i type="int" name="NELMHF">     1</i>
   <i type="int" name="DIM">     3</i>
   <i type="int" name="IESPILON">     4</i>
   <i type="int" name="ANTIRES">     0</i>
   <i name="OMEGAMAX">    -30.00000000</i>
   <i name="OMEGAMIN">    -30.00000000</i>
   <i name="OMEGATL">   -200.00000000</i>
   <i type="int" name="OMEGAGRID">     0</i>
   <i name="CSHIFT">     -0.10000000</i>
   <i type="logical" name="LSELFENERGY"> F  </i>
   <i type="logical" name="LSPECTRAL"> F  </i>
   <i type="logical" name="LSPECTRALGW"> F  </i>
   <i type="logical" name="LSINGLES"> F  </i>
   <i type="logical" name="LFERMIGW"> F  </i>
   <i type="logical" name="ODDONLYGW"> F  </i>
   <i type="logical" name="EVENONLYGW"> F  </i>
   <i type="int" name="NKREDLFX">     1</i>
   <i type="int" name="NKREDLFY">     1</i>
   <i type="int" name="NKREDLFZ">     1</i>
   <i type="int" name="MAXMEM">  2800</i>
   <i type="int" name="TELESCOPE">     0</i>
   <i type="int" name="NTAUPAR">    -1</i>
   <i type="int" name="NOMEGAPAR">    -1</i>
   <i name="DAMP_NEWTON">      0.80000001</i>
   <i name="LAMBDA">      1.00000000</i>
  </separator>
  <separator name="External order field" >
   <i name="OFIELD_KAPPA">      0.00000000</i>
   <v name="OFIELD_K">      0.00000000      0.00000000      0.00000000</v>
   <i name="OFIELD_Q6_NEAR">      0.00000000</i>
   <i name="OFIELD_Q6_FAR">      0.00000000</i>
   <i name="OFIELD_A">      0.00000000</i>
  </separator>
  <separator name="optional k-points parameters" >
   <i type="int" name="KPOINTS_OPT_MODE">     1</i>
   <i type="logical" name="LKPOINTS_OPT"> F  </i>
  </separator>
 </parameters>
 <atominfo>
  <atoms>     146 </atoms>
  <types>       2 </types>
  <array name="atoms" >
   <dimension dim="1">ion</dimension>
   <field type="string">element</field>
   <field type="int">atomtype</field>
   <set>
    <rc><c>Cu</c><c>   1</c></rc>
    <rc><c>Cu</c><c>   1</c></rc>
    <rc><c>Cu</c><c>   1</c></rc>
    <rc><c>Cu</c><c>   1</c></rc>
    <rc><c>Cu</c><c>   1</c></rc>
    <rc><c>Cu</c><c>   1</c></rc>
    <rc><c>Cu</c><c>   1</c></rc>
    <rc><c>Cu</c><c>   1</c></rc>
    <rc><c>Cu</c><c>   1</c></rc>
    <rc><c>Cu</c><c>   1</c></rc>
    <rc><c>Cu</c><c>   1</c></rc>
    <rc><c>Cu</c><c>   1</c></rc>
    <rc><c>Cu</c><c>   1</c></rc>
    <rc><c>Cu</c><c>   1</c></rc>
    <rc><c>Cu</c><c>   1</c></rc>
    <rc><c>Cu</c><c>   1</c></rc>
    <rc><c>Cu</c><c>   1</c></rc>
    <rc><c>Cu</c><c>   1</c></rc>
    <rc><c>Cu</c><c>   1</c></rc>
    <rc><c>Cu</c><c>   1</c></rc>
    <rc><c>Cu</c><c>   1</c></rc>
    <rc><c>Cu</c><c>   1</c></rc>
    <rc><c>Cu</c><c>   1</c></rc>
    <rc><c>Cu</c><c>   1</c></rc>
    <rc><c>Cu</c><c>   1</c></rc>
    <rc><c>Cu</c><c>   1</c></rc>
    <rc><c>Cu</c><c>   1</c></rc>
    <rc><c>Cu</c><c>   1</c></rc>
    <rc><c>Cu</c><c>   1</c></rc>
    <rc><c>Cu</c><c>   1</c></rc>
    <rc><c>Cu</c><c>   1</c></rc>
    <rc><c>Cu</c><c>   1</c></rc>
    <rc><c>Cu</c><c>   1</c></rc>
    <rc><c>Cu</c><c>   1</c></rc>
    <rc><c>Cu</c><c>   1</c></rc>
    <rc><c>Cu</c><c>   1</c></rc>
    <rc><c>Cu</c><c>   1</c></rc>
    <rc><c>Cu</c><c>   1</c></rc>
    <rc><c>Cu</c><c>   1</c></rc>
    <rc><c>Cu</c><c>   1</c></rc>
    <rc><c>Cu</c><c>   1</c></rc>
    <rc><c>Cu</c><c>   1</c></rc>
    <rc><c>Cu</c><c>   1</c></rc>
    <rc><c>Cu</c><c>   1</c></rc>
    <rc><c>Cu</c><c>   1</c></rc>
    <rc><c>Cu</c><c>   1</c></rc>
    <rc><c>Cu</c><c>   1</c></rc>
    <rc><c>Cu</c><c>   1</c></rc>
    <rc><c>Cu</c><c>   1</c></rc>
    <rc><c>Cu</c><c>   1</c></rc>
    <rc><c>Cu</c><c>   1</c></rc>
    <rc><c>Cu</c><c>   1</c></rc>
    <rc><c>Cu</c><c>   1</c></rc>
    <rc><c>Cu</c><c>   1</c></rc>
    <rc><c>Cu</c><c>   1</c></rc>
    <rc><c>Cu</c><c>   1</c></rc>
    <rc><c>Cu</c><c>   1</c></rc>
    <rc><c>Cu</c><c>   1</c></rc>
    <rc><c>Cu</c><c>   1</c></rc>
    <rc><c>Cu</c><c>   1</c></rc>
    <rc><c>Cu</c><c>   1</c></rc>
    <rc><c>Cu</c><c>   1</c></rc>
    <rc><c>Cu</c><c>   1</c></rc>
    <rc><c>Cu</c><c>   1</c></rc>
    <rc><c>Cu</c><c>   1</c></rc>
    <rc><c>Cu</c><c>   1</c></rc>
    <rc><c>Cu</c><c>   1</c></rc>
    <rc><c>Cu</c><c>   1</c></rc>
    <rc><c>Cu</c><c>   1</c></rc>
    <rc><c>Cu</c><c>   1</c></rc>
    <rc><c>Cu</c><c>   1</c></rc>
    <rc><c>Cu</c><c>   1</c></rc>
    <rc><c>Cu</c><c>   1</c></rc>
    <rc><c>Cu</c><c>   1</c></rc>
    <rc><c>Cu</c><c>   1</c></rc>
    <rc><c>Cu</c><c>   1</c></rc>
    <rc><c>Cu</c><c>   1</c></rc>
    <rc><c>Cu</c><c>   1</c></rc>
    <rc><c>Cu</c><c>   1</c></rc>
    <rc><c>Cu</c><c>   1</c></rc>
    <rc><c>Cu</c><c>   1</c></rc>
    <rc><c>Cu</c><c>   1</c></rc>
    <rc><c>Cu</c><c>   1</c></rc>
    <rc><c>Cu</c><c>   1</c></rc>
    <rc><c>Cu</c><c>   1</c></rc>
    <rc><c>Cu</c><c>   1</c></rc>
    <rc><c>Cu</c><c>   1</c></rc>
    <rc><c>Cu</c><c>   1</c></rc>
    <rc><c>Cu</c><c>   1</c></rc>
    <rc><c>Cu</c><c>   1</c></rc>
    <rc><c>Cu</c><c>   1</c></rc>
    <rc><c>Cu</c><c>   1</c></rc>
    <rc><c>Cu</c><c>   1</c></rc>
    <rc><c>Cu</c><c>   1</c></rc>
    <rc><c>Cu</c><c>   1</c></rc>
    <rc><c>Cu</c><c>   1</c></rc>
    <rc><c>Cu</c><c>   1</c></rc>
    <rc><c>Cu</c><c>   1</c></rc>
    <rc><c>Cu</c><c>   1</c></rc>
    <rc><c>Cu</c><c>   1</c></rc>
    <rc><c>Cu</c><c>   1</c></rc>
    <rc><c>Cu</c><c>   1</c></rc>
    <rc><c>Cu</c><c>   1</c></rc>
    <rc><c>Cu</c><c>   1</c></rc>
    <rc><c>Cu</c><c>   1</c></rc>
    <rc><c>Cu</c><c>   1</c></rc>
    <rc><c>Cu</c><c>   1</c></rc>
    <rc><c>Cu</c><c>   1</c></rc>
    <rc><c>Cu</c><c>   1</c></rc>
    <rc><c>Cu</c><c>   1</c></rc>
    <rc><c>Cu</c><c>   1</c></rc>
    <rc><c>Cu</c><c>   1</c></rc>
    <rc><c>Cu</c><c>   1</c></rc>
    <rc><c>Cu</c><c>   1</c></rc>
    <rc><c>Cu</c><c>   1</c></rc>
    <rc><c>Cu</c><c>   1</c></rc>
    <rc><c>Cu</c><c>   1</c></rc>
    <rc><c>Cu</c><c>   1</c></rc>
    <rc><c>Cu</c><c>   1</c></rc>
    <rc><c>Cu</c><c>   1</c></rc>
    <rc><c>Cu</c><c>   1</c></rc>
    <rc><c>Cu</c><c>   1</c></rc>
    <rc><c>Cu</c><c>   1</c></rc>
    <rc><c>Cu</c><c>   1</c></rc>
    <rc><c>Cu</c><c>   1</c></rc>
    <rc><c>Cu</c><c>   1</c></rc>
    <rc><c>Cu</c><c>   1</c></rc>
    <rc><c>Cu</c><c>   1</c></rc>
    <rc><c>Cu</c><c>   1</c></rc>
    <rc><c>Cu</c><c>   1</c></rc>
    <rc><c>Cu</c><c>   1</c></rc>
    <rc><c>Cu</c><c>   1</c></rc>
    <rc><c>Cu</c><c>   1</c></rc>
    <rc><c>Cu</c><c>   1</c></rc>
    <rc><c>Cu</c><c>   1</c></rc>
    <rc><c>Cu</c><c>   1</c></rc>
    <rc><c>Cu</c><c>   1</c></rc>
    <rc><c>Cu</c><c>   1</c></rc>
    <rc><c>Cu</c><c>   1</c></rc>
    <rc><c>Cu</c><c>   1</c></rc>
    <rc><c>Cu</c><c>   1</c></rc>
    <rc><c>Cu</c><c>   1</c></rc>
    <rc><c>Cu</c><c>   1</c></rc>
    <rc><c>Cu</c><c>   1</c></rc>
    <rc><c>H </c><c>   2</c></rc>
    <rc><c>H </c><c>   2</c></rc>
   </set>
  </array>
  <array name="atomtypes" >
   <dimension dim="1">type</dimension>
   <field type="int">atomspertype</field>
   <field type="string">element</field>
   <field>mass</field>
   <field>valence</field>
   <field type="string">pseudopotential</field>
   <set>
    <rc><c> 144</c><c>Cu</c><c>     63.54600000</c><c>     11.00000000</c><c>  PAW_PBE Cu 22Jun2005                  </c></rc>
    <rc><c>   2</c><c>H </c><c>      1.00000000</c><c>      1.00000000</c><c>  PAW_PBE H 15Jun2001                   </c></rc>
   </set>
  </array>
 </atominfo>
 <structure name="initialpos" >
  <crystal>
   <varray name="basis" >
    <v>      10.89000034       0.00000000       0.00000000 </v>
    <v>       0.00000000      10.89000034       0.00000000 </v>
    <v>       0.00000000       0.00000000      27.70499992 </v>
   </varray>
   <i name="volume">   3285.59432860 </i>
   <varray name="rec_basis" >
    <v>       0.09182736       0.00000000       0.00000000 </v>
    <v>       0.00000000       0.09182736       0.00000000 </v>
    <v>       0.00000000       0.00000000       0.03609457 </v>
   </varray>
  </crystal>
  <varray name="positions" >
   <v>       0.00000000       0.00000000       0.00000000 </v>
   <v>       0.00000000       0.33333333       0.00000000 </v>
   <v>       0.00000000       0.66666667       0.00000000 </v>
   <v>       0.33333333       0.00000000       0.00000000 </v>
   <v>       0.33333333       0.33333333       0.00000000 </v>
   <v>       0.33333333       0.66666667       0.00000000 </v>
   <v>       0.66666667       0.00000000       0.00000000 </v>
   <v>       0.66666667       0.33333333       0.00000000 </v>
   <v>       0.66666667       0.66666667       0.00000000 </v>
   <v>       0.16666667       0.16666667       0.00000000 </v>
   <v>       0.16666667       0.50000000       0.00000000 </v>
   <v>       0.16666667       0.83333333       0.00000000 </v>
   <v>       0.50000000       0.16666667       0.00000000 </v>
   <v>       0.50000000       0.50000000       0.00000000 </v>
   <v>       0.50000000       0.83333333       0.00000000 </v>
   <v>       0.83333333       0.16666667       0.00000000 </v>
   <v>       0.83333333       0.50000000       0.00000000 </v>
   <v>       0.83333333       0.83333333       0.00000000 </v>
   <v>       0.00000000       0.16666667       0.06551164 </v>
   <v>       0.00000000       0.50000000       0.06551164 </v>
   <v>       0.00000000       0.83333333       0.06551164 </v>
   <v>       0.33333333       0.16666667       0.06551164 </v>
   <v>       0.33333333       0.50000000       0.06551164 </v>
   <v>       0.33333333       0.83333333       0.06551164 </v>
   <v>       0.66666667       0.16666667       0.06551164 </v>
   <v>       0.66666667       0.50000000       0.06551164 </v>
   <v>       0.66666667       0.83333333       0.06551164 </v>
   <v>       0.16666667       0.00000000       0.06551164 </v>
   <v>       0.16666667       0.33333333       0.06551164 </v>
   <v>       0.16666667       0.66666667       0.06551164 </v>
   <v>       0.50000000       0.00000000       0.06551164 </v>
   <v>       0.50000000       0.33333333       0.06551164 </v>
   <v>       0.50000000       0.66666667       0.06551164 </v>
   <v>       0.83333333       0.00000000       0.06551164 </v>
   <v>       0.83333333       0.33333333       0.06551164 </v>
   <v>       0.83333333       0.66666667       0.06551164 </v>
   <v>       0.00000000       0.00000000       0.13119553 </v>
   <v>       0.00000000       0.33333333       0.13119553 </v>
   <v>       0.00000000       0.66666667       0.13119553 </v>
   <v>       0.33333333       0.00000000       0.13119553 </v>
   <v>       0.33333333       0.33333333       0.13119553 </v>
   <v>       0.33333333       0.66666667       0.13119553 </v>
   <v>       0.66666667       0.00000000       0.13119553 </v>
   <v>       0.66666667       0.33333333       0.13119553 </v>
   <v>       0.66666667       0.66666667       0.13119553 </v>
   <v>       0.16666667       0.16666667       0.13119553 </v>
   <v>       0.16666667       0.50000000       0.13119553 </v>
   <v>       0.16666667       0.83333333       0.13119553 </v>
   <v>       0.50000000       0.16666667       0.13119553 </v>
   <v>       0.50000000       0.50000000       0.13119553 </v>
   <v>       0.50000000       0.83333333       0.13119553 </v>
   <v>       0.83333333       0.16666667       0.13119553 </v>
   <v>       0.83333333       0.50000000       0.13119553 </v>
   <v>       0.83333333       0.83333333       0.13119553 </v>
   <v>       0.00000000       0.16666667       0.19620680 </v>
   <v>       0.00000000       0.50000000       0.19620680 </v>
   <v>       0.00000000       0.83333333       0.19620680 </v>
   <v>       0.33333333       0.16666667       0.19620680 </v>
   <v>       0.33333333       0.50000000       0.19620680 </v>
   <v>       0.33333333       0.83333333       0.19620680 </v>
   <v>       0.66666667       0.16666667       0.19620680 </v>
   <v>       0.66666667       0.50000000       0.19620680 </v>
   <v>       0.66666667       0.83333333       0.19620680 </v>
   <v>       0.16666667       0.00000000       0.19620680 </v>
   <v>       0.16666667       0.33333333       0.19620680 </v>
   <v>       0.16666667       0.66666667       0.19620680 </v>
   <v>       0.50000000       0.00000000       0.19620680 </v>
   <v>       0.50000000       0.33333333       0.19620680 </v>
   <v>       0.50000000       0.66666667       0.19620680 </v>
   <v>       0.83333333       0.00000000       0.19620680 </v>
   <v>       0.83333333       0.33333333       0.19620680 </v>
   <v>       0.83333333       0.66666667       0.19620680 </v>
   <v>       0.00000000       0.00000000       0.25873860 </v>
   <v>       0.00000000       0.33333333       0.25873860 </v>
   <v>       0.00000000       0.66666667       0.25873860 </v>
   <v>       0.33333333       0.00000000       0.25873860 </v>
   <v>       0.33333333       0.33333333       0.25873860 </v>
   <v>       0.33333333       0.66666667       0.25873860 </v>
   <v>       0.66666667       0.00000000       0.25873860 </v>
   <v>       0.66666667       0.33333333       0.25873860 </v>
   <v>       0.66666667       0.66666667       0.25873860 </v>
   <v>       0.16666667       0.16666667       0.25873860 </v>
   <v>       0.16666667       0.50000000       0.25873860 </v>
   <v>       0.16666667       0.83333333       0.25873860 </v>
   <v>       0.50000000       0.16666667       0.25873860 </v>
   <v>       0.50000000       0.50000000       0.25873860 </v>
   <v>       0.50000000       0.83333333       0.25873860 </v>
   <v>       0.83333333       0.16666667       0.25873860 </v>
   <v>       0.83333333       0.50000000       0.25873860 </v>
   <v>       0.83333333       0.83333333       0.25873860 </v>
   <v>       0.00000000       0.16666667       0.32119954 </v>
   <v>       0.00000000       0.50000000       0.32119954 </v>
   <v>       0.00000000       0.83333333       0.32119954 </v>
   <v>       0.33333333       0.16666667       0.32119954 </v>
   <v>       0.33333333       0.50000000       0.32119954 </v>
   <v>       0.33333333       0.83333333       0.32119954 </v>
   <v>       0.66666667       0.16666667       0.32119954 </v>
   <v>       0.66666667       0.50000000       0.32119954 </v>
   <v>       0.66666667       0.83333333       0.32119954 </v>
   <v>       0.16666667       0.00000000       0.32119954 </v>
   <v>       0.16666667       0.33333333       0.32119954 </v>
   <v>       0.16666667       0.66666667       0.32119954 </v>
   <v>       0.50000000       0.00000000       0.32119954 </v>
   <v>       0.50000000       0.33333333       0.32119954 </v>
   <v>       0.50000000       0.66666667       0.32119954 </v>
   <v>       0.83333333       0.00000000       0.32119954 </v>
   <v>       0.83333333       0.33333333       0.32119954 </v>
   <v>       0.83333333       0.66666667       0.32119954 </v>
   <v>       0.00000000       0.00000000       0.38476372 </v>
   <v>       0.00000000       0.33333333       0.38476372 </v>
   <v>       0.00000000       0.66666667       0.38476372 </v>
   <v>       0.33333333       0.00000000       0.38476372 </v>
   <v>       0.33333333       0.33333333       0.38476372 </v>
   <v>       0.33333333       0.66666667       0.38476372 </v>
   <v>       0.66666667       0.00000000       0.38476372 </v>
   <v>       0.66666667       0.33333333       0.38476372 </v>
   <v>       0.66666667       0.66666667       0.38476372 </v>
   <v>       0.16666667       0.16666667       0.38476372 </v>
   <v>       0.16666667       0.50000000       0.38476372 </v>
   <v>       0.16666667       0.83333333       0.38476372 </v>
   <v>       0.50000000       0.16666667       0.38476372 </v>
   <v>       0.50000000       0.50000000       0.38476372 </v>
   <v>       0.50000000       0.83333333       0.38476372 </v>
   <v>       0.83333333       0.16666667       0.38476372 </v>
   <v>       0.83333333       0.50000000       0.38476372 </v>
   <v>       0.83333333       0.83333333       0.38476372 </v>
   <v>       0.00000000       0.16666667       0.44736473 </v>
   <v>       0.00000000       0.50000000       0.44736473 </v>
   <v>       0.00000000       0.83333333       0.44736473 </v>
   <v>       0.33333333       0.16666667       0.44736473 </v>
   <v>       0.33333333       0.50000000       0.44736473 </v>
   <v>       0.33333333       0.83333333       0.44736473 </v>
   <v>       0.66666667       0.16666667       0.44736473 </v>
   <v>       0.66666667       0.50000000       0.44736473 </v>
   <v>       0.66666667       0.83333333       0.44736473 </v>
   <v>       0.16666667       0.00000000       0.44736473 </v>
   <v>       0.16666667       0.33333333       0.44736473 </v>
   <v>       0.16666667       0.66666667       0.44736473 </v>
   <v>       0.50000000       0.00000000       0.44736473 </v>
   <v>       0.50000000       0.33333333       0.44736473 </v>
   <v>       0.50000000       0.66666667       0.44736473 </v>
   <v>       0.83333333       0.00000000       0.44736473 </v>
   <v>       0.83333333       0.33333333       0.44736473 </v>
   <v>       0.83333333       0.66666667       0.44736473 </v>
   <v>       0.25000000       0.41666667       0.50150658 </v>
   <v>       0.25000000       0.41666667       0.52843313 </v>
  </varray>
  <varray name="selective"  type="logical" >
   <v type="logical" >  F  F  F </v>
   <v type="logical" >  F  F  F </v>
   <v type="logical" >  F  F  F </v>
   <v type="logical" >  F  F  F </v>
   <v type="logical" >  F  F  F </v>
   <v type="logical" >  F  F  F </v>
   <v type="logical" >  F  F  F </v>
   <v type="logical" >  F  F  F </v>
   <v type="logical" >  F  F  F </v>
   <v type="logical" >  F  F  F </v>
   <v type="logical" >  F  F  F </v>
   <v type="logical" >  F  F  F </v>
   <v type="logical" >  F  F  F </v>
   <v type="logical" >  F  F  F </v>
   <v type="logical" >  F  F  F </v>
   <v type="logical" >  F  F  F </v>
   <v type="logical" >  F  F  F </v>
   <v type="logical" >  F  F  F </v>
   <v type="logical" >  F  F  F </v>
   <v type="logical" >  F  F  F </v>
   <v type="logical" >  F  F  F </v>
   <v type="logical" >  F  F  F </v>
   <v type="logical" >  F  F  F </v>
   <v type="logical" >  F  F  F </v>
   <v type="logical" >  F  F  F </v>
   <v type="logical" >  F  F  F </v>
   <v type="logical" >  F  F  F </v>
   <v type="logical" >  F  F  F </v>
   <v type="logical" >  F  F  F </v>
   <v type="logical" >  F  F  F </v>
   <v type="logical" >  F  F  F </v>
   <v type="logical" >  F  F  F </v>
   <v type="logical" >  F  F  F </v>
   <v type="logical" >  F  F  F </v>
   <v type="logical" >  F  F  F </v>
   <v type="logical" >  F  F  F </v>
   <v type="logical" >  F  F  F </v>
   <v type="logical" >  F  F  F </v>
   <v type="logical" >  F  F  F </v>
   <v type="logical" >  F  F  F </v>
   <v type="logical" >  F  F  F </v>
   <v type="logical" >  F  F  F </v>
   <v type="logical" >  F  F  F </v>
   <v type="logical" >  F  F  F </v>
   <v type="logical" >  F  F  F </v>
   <v type="logical" >  F  F  F </v>
   <v type="logical" >  F  F  F </v>
   <v type="logical" >  F  F  F </v>
   <v type="logical" >  F  F  F </v>
   <v type="logical" >  F  F  F </v>
   <v type="logical" >  F  F  F </v>
   <v type="logical" >  F  F  F </v>
   <v type="logical" >  F  F  F </v>
   <v type="logical" >  F  F  F </v>
   <v type="logical" >  T  T  T </v>
   <v type="logical" >  T  T  T </v>
   <v type="logical" >  T  T  T </v>
   <v type="logical" >  T  T  T </v>
   <v type="logical" >  T  T  T </v>
   <v type="logical" >  T  T  T </v>
   <v type="logical" >  T  T  T </v>
   <v type="logical" >  T  T  T </v>
   <v type="logical" >  T  T  T </v>
   <v type="logical" >  T  T  T </v>
   <v type="logical" >  T  T  T </v>
   <v type="logical" >  T  T  T </v>
   <v type="logical" >  T  T  T </v>
   <v type="logical" >  T  T  T </v>
   <v type="logical" >  T  T  T </v>
   <v type="logical" >  T  T  T </v>
   <v type="logical" >  T  T  T </v>
   <v type="logical" >  T  T  T </v>
   <v type="logical" >  T  T  T </v>
   <v type="logical" >  T  T  T </v>
   <v type="logical" >  T  T  T </v>
   <v type="logical" >  T  T  T </v>
   <v type="logical" >  T  T  T </v>
   <v type="logical" >  T  T  T </v>
   <v type="logical" >  T  T  T </v>
   <v type="logical" >  T  T  T </v>
   <v type="logical" >  T  T  T </v>
   <v type="logical" >  T  T  T </v>
   <v type="logical" >  T  T  T </v>
   <v type="logical" >  T  T  T </v>
   <v type="logical" >  T  T  T </v>
   <v type="logical" >  T  T  T </v>
   <v type="logical" >  T  T  T </v>
   <v type="logical" >  T  T  T </v>
   <v type="logical" >  T  T  T </v>
   <v type="logical" >  T  T  T </v>
   <v type="logical" >  T  T  T </v>
   <v type="logical" >  T  T  T </v>
   <v type="logical" >  T  T  T </v>
   <v type="logical" >  T  T  T </v>
   <v type="logical" >  T  T  T </v>
   <v type="logical" >  T  T  T </v>
   <v type="logical" >  T  T  T </v>
   <v type="logical" >  T  T  T </v>
   <v type="logical" >  T  T  T </v>
   <v type="logical" >  T  T  T </v>
   <v type="logical" >  T  T  T </v>
   <v type="logical" >  T  T  T </v>
   <v type="logical" >  T  T  T </v>
   <v type="logical" >  T  T  T </v>
   <v type="logical" >  T  T  T </v>
   <v type="logical" >  T  T  T </v>
   <v type="logical" >  T  T  T </v>
   <v type="logical" >  T  T  T </v>
   <v type="logical" >  T  T  T </v>
   <v type="logical" >  T  T  T </v>
   <v type="logical" >  T  T  T </v>
   <v type="logical" >  T  T  T </v>
   <v type="logical" >  T  T  T </v>
   <v type="logical" >  T  T  T </v>
   <v type="logical" >  T  T  T </v>
   <v type="logical" >  T  T  T </v>
   <v type="logical" >  T  T  T </v>
   <v type="logical" >  T  T  T </v>
   <v type="logical" >  T  T  T </v>
   <v type="logical" >  T  T  T </v>
   <v type="logical" >  T  T  T </v>
   <v type="logical" >  T  T  T </v>
   <v type="logical" >  T  T  T </v>
   <v type="logical" >  T  T  T </v>
   <v type="logical" >  T  T  T </v>
   <v type="logical" >  T  T  T </v>
   <v type="logical" >  T  T  T </v>
   <v type="logical" >  T  T  T </v>
   <v type="logical" >  T  T  T </v>
   <v type="logical" >  T  T  T </v>
   <v type="logical" >  T  T  T </v>
   <v type="logical" >  T  T  T </v>
   <v type="logical" >  T  T  T </v>
   <v type="logical" >  T  T  T </v>
   <v type="logical" >  T  T  T </v>
   <v type="logical" >  T  T  T </v>
   <v type="logical" >  T  T  T </v>
   <v type="logical" >  T  T  T </v>
   <v type="logical" >  T  T  T </v>
   <v type="logical" >  T  T  T </v>
   <v type="logical" >  T  T  T </v>
   <v type="logical" >  T  T  T </v>
   <v type="logical" >  T  T  T </v>
   <v type="logical" >  T  T  T </v>
   <v type="logical" >  T  T  T </v>
   <v type="logical" >  T  T  T </v>
  </varray>
  <nose>
   <v>      -3.00000000       0.00000000       0.00010000       0.00010000 </v>
  </nose>
 </structure>
 <calculation>
  <scstep>
   <time name="dav">  743.73  752.29</time>
   <time name="total">  744.03  752.60</time>
   <energy>
    <i name="alphaZ">   4623.72760507 </i>
    <i name="ewald"> 915840.48494742 </i>
    <i name="hartreedc">**************** </i>
    <i name="XCdc">   6597.01876216 </i>
    <i name="pawpsdc"> 176849.62809079 </i>
    <i name="pawaedc">-192088.21954245 </i>
    <i name="eentropy">     -0.01614309 </i>
    <i name="bandstr">  15984.50622866 </i>
    <i name="atom"> 200322.85745410 </i>
    <i name="e_fr_energy">  15520.12814590 </i>
    <i name="e_wo_entrp">  15520.14428899 </i>
    <i name="e_0_energy">  15520.13352693 </i>
   </energy>
  </scstep>
  <scstep>
   <time name="dav">  744.31  751.38</time>
   <time name="total">  744.32  751.39</time>
   <energy>
    <i name="e_fr_energy">   2256.47983250 </i>
    <i name="e_wo_entrp">   2256.48226109 </i>
    <i name="e_0_energy">   2256.48064203 </i>
   </energy>
  </scstep>
  <scstep>
   <time name="dav">  748.53  755.54</time>
   <time name="total">  748.54  755.56</time>
   <energy>
    <i name="e_fr_energy">   -387.83551153 </i>
    <i name="e_wo_entrp">   -387.94788746 </i>
    <i name="e_0_energy">   -387.87297017 </i>
   </energy>
  </scstep>
  <scstep>
   <time name="dav">  794.52  801.67</time>
   <time name="total">  794.53  801.68</time>
   <energy>
    <i name="e_fr_energy">   -608.41404924 </i>
    <i name="e_wo_entrp">   -608.65973793 </i>
    <i name="e_0_energy">   -608.49594547 </i>
   </energy>
  </scstep>
  <scstep>
   <time name="dav">  806.45  813.30</time>
   <time name="total">  810.64  817.52</time>
   <energy>
    <i name="e_fr_energy">   -614.35438555 </i>
    <i name="e_wo_entrp">   -614.60206265 </i>
    <i name="e_0_energy">   -614.43694458 </i>
   </energy>
  </scstep>
  <scstep>
   <time name="dav">  798.55  806.33</time>
   <time name="total">  802.92  810.75</time>
   <energy>
    <i name="e_fr_energy">   -500.50957390 </i>
    <i name="e_wo_entrp">   -500.45141866 </i>
    <i name="e_0_energy">   -500.49018882 </i>
   </energy>
  </scstep>
  <scstep>
   <time name="dav">  804.11  811.59</time>
   <time name="total">  808.54  816.06</time>
   <energy>
    <i name="e_fr_energy">   -441.16271805 </i>
    <i name="e_wo_entrp">   -441.10460682 </i>
    <i name="e_0_energy">   -441.14334764 </i>
   </energy>
  </scstep>
  <scstep>
   <time name="dav">  832.87  839.96</time>
   <time name="total">  837.33  844.46</time>
   <energy>
    <i name="e_fr_energy">   -442.59161973 </i>
    <i name="e_wo_entrp">   -442.57914675 </i>
    <i name="e_0_energy">   -442.58746207 </i>
   </energy>
  </scstep>
  <scstep>
   <time name="dav">  912.86  920.74</time>
   <time name="total">  918.10  926.07</time>
   <energy>
    <i name="e_fr_energy">   -434.81745419 </i>
    <i name="e_wo_entrp">   -434.83589016 </i>
    <i name="e_0_energy">   -434.82359951 </i>
   </energy>
  </scstep>
  <scstep>
   <time name="dav"> 1017.45 1026.50</time>
   <time name="total"> 1021.90 1030.99</time>
   <energy>
    <i name="e_fr_energy">   -429.40058044 </i>
    <i name="e_wo_entrp">   -429.31093116 </i>
    <i name="e_0_energy">   -429.37069735 </i>
   </energy>
  </scstep>
  <scstep>
   <time name="dav"> 1113.76 1124.61</time>
   <time name="total"> 1118.29 1129.18</time>
   <energy>
    <i name="e_fr_energy">   -432.47071722 </i>
    <i name="e_wo_entrp">   -432.37265646 </i>
    <i name="e_0_energy">   -432.43803030 </i>
   </energy>
  </scstep>
  <scstep>
   <time name="dav">  804.05  811.91</time>
   <time name="total">  808.54  816.44</time>
   <energy>
    <i name="e_fr_energy">   -442.31535414 </i>
    <i name="e_wo_entrp">   -442.21933345 </i>
    <i name="e_0_energy">   -442.28334724 </i>
   </energy>
  </scstep>
  <scstep>
   <time name="dav">  849.11  857.32</time>
   <time name="total">  853.64  861.88</time>
   <energy>
    <i name="e_fr_energy">   -445.48152126 </i>
    <i name="e_wo_entrp">   -445.41543556 </i>
    <i name="e_0_energy">   -445.45949269 </i>
   </energy>
  </scstep>
  <scstep>
   <time name="dav">  815.95  824.02</time>
   <time name="total">  820.52  828.63</time>
   <energy>
    <i name="e_fr_energy">   -455.83622544 </i>
    <i name="e_wo_entrp">   -455.78476982 </i>
    <i name="e_0_energy">   -455.81907356 </i>
   </energy>
  </scstep>
  <scstep>
   <time name="dav">  876.28  884.69</time>
   <time name="total">  880.79  889.25</time>
   <energy>
    <i name="e_fr_energy">   -467.49856935 </i>
    <i name="e_wo_entrp">   -467.51061526 </i>
    <i name="e_0_energy">   -467.50258465 </i>
   </energy>
  </scstep>
  <scstep>
   <time name="dav">  907.10  915.05</time>
   <time name="total">  912.34  920.34</time>
   <energy>
    <i name="e_fr_energy">   -488.82725870 </i>
    <i name="e_wo_entrp">   -488.93923499 </i>
    <i name="e_0_energy">   -488.86458413 </i>
   </energy>
  </scstep>
  <scstep>
   <time name="dav">  811.82  818.84</time>
   <time name="total">  816.28  823.34</time>
   <energy>
    <i name="e_fr_energy">   -495.45410138 </i>
    <i name="e_wo_entrp">   -495.58945232 </i>
    <i name="e_0_energy">   -495.49921836 </i>
   </energy>
  </scstep>
  <scstep>
   <time name="dav">  834.35  841.35</time>
   <time name="total">  838.80  845.84</time>
   <energy>
    <i name="e_fr_energy">   -498.65068855 </i>
    <i name="e_wo_entrp">   -498.79721379 </i>
    <i name="e_0_energy">   -498.69953030 </i>
   </energy>
  </scstep>
  <scstep>
   <time name="dav">  909.94  918.80</time>
   <time name="total">  914.39  923.29</time>
   <energy>
    <i name="e_fr_energy">   -505.51455702 </i>
    <i name="e_wo_entrp">   -505.66248910 </i>
    <i name="e_0_energy">   -505.56386771 </i>
   </energy>
  </scstep>
  <scstep>
   <time name="dav">  773.94  781.44</time>
   <time name="total">  778.46  786.01</time>
   <energy>
    <i name="e_fr_energy">   -510.31287445 </i>
    <i name="e_wo_entrp">   -510.43718129 </i>
    <i name="e_0_energy">   -510.35431006 </i>
   </energy>
  </scstep>
  <scstep>
   <time name="dav">  976.93  987.14</time>
   <time name="total">  981.93  992.19</time>
   <energy>
    <i name="e_fr_energy">   -513.12540291 </i>
    <i name="e_wo_entrp">   -513.23883931 </i>
    <i name="e_0_energy">   -513.16321504 </i>
   </energy>
  </scstep>
  <scstep>
   <time name="dav">  870.84  880.68</time>
   <time name="total">  875.25  885.14</time>
   <energy>
    <i name="e_fr_energy">   -515.32361296 </i>
    <i name="e_wo_entrp">   -515.43734456 </i>
    <i name="e_0_energy">   -515.36152349 </i>
   </energy>
  </scstep>
  <scstep>
   <time name="dav">  842.28  850.24</time>
   <time name="total">  846.76  854.75</time>
   <energy>
    <i name="e_fr_energy">   -516.81056976 </i>
    <i name="e_wo_entrp">   -516.92015706 </i>
    <i name="e_0_energy">   -516.84709886 </i>
   </energy>
  </scstep>
  <scstep>
   <time name="dav">  931.68  940.41</time>
   <time name="total">  936.62  945.42</time>
   <energy>
    <i name="e_fr_energy">   -518.12847531 </i>
    <i name="e_wo_entrp">   -518.24754621 </i>
    <i name="e_0_energy">   -518.16816561 </i>
   </energy>
  </scstep>
  <scstep>
   <time name="dav">  825.74  833.70</time>
   <time name="total">  830.28  838.28</time>
   <energy>
    <i name="e_fr_energy">   -519.29611885 </i>
    <i name="e_wo_entrp">   -519.41024694 </i>
    <i name="e_0_energy">   -519.33416155 </i>
   </energy>
  </scstep>
  <scstep>
   <time name="dav">  864.89  873.16</time>
   <time name="total">  869.36  877.67</time>
   <energy>
    <i name="e_fr_energy">   -519.89370512 </i>
    <i name="e_wo_entrp">   -520.00617860 </i>
    <i name="e_0_energy">   -519.93119628 </i>
   </energy>
  </scstep>
  <scstep>
   <time name="dav">  788.68  796.86</time>
   <time name="total">  793.09  801.30</time>
   <energy>
    <i name="e_fr_energy">   -520.57689818 </i>
    <i name="e_wo_entrp">   -520.68853483 </i>
    <i name="e_0_energy">   -520.61411040 </i>
   </energy>
  </scstep>
  <scstep>
   <time name="dav">  850.82  860.49</time>
   <time name="total">  855.29  865.01</time>
   <energy>
    <i name="e_fr_energy">   -521.44127258 </i>
    <i name="e_wo_entrp">   -521.55121211 </i>
    <i name="e_0_energy">   -521.47791909 </i>
   </energy>
  </scstep>
  <scstep>
   <time name="dav">  839.38  847.93</time>
   <time name="total">  843.90  852.49</time>
   <energy>
    <i name="e_fr_energy">   -521.55175142 </i>
    <i name="e_wo_entrp">   -521.66345292 </i>
    <i name="e_0_energy">   -521.58898525 </i>
   </energy>
  </scstep>
  <scstep>
   <time name="dav">  846.55  855.52</time>
   <time name="total">  851.06  860.07</time>
   <energy>
    <i name="e_fr_energy">   -521.58109957 </i>
    <i name="e_wo_entrp">   -521.69386235 </i>
    <i name="e_0_energy">   -521.61868716 </i>
   </energy>
  </scstep>
  <scstep>
   <time name="dav">  837.50  847.39</time>
   <time name="total">  841.84  851.77</time>
   <energy>
    <i name="e_fr_energy">   -521.59945777 </i>
    <i name="e_wo_entrp">   -521.71119340 </i>
    <i name="e_0_energy">   -521.63670298 </i>
   </energy>
  </scstep>
  <scstep>
   <time name="dav">  576.35  582.89</time>
   <time name="total">  581.41  588.01</time>
   <energy>
    <i name="e_fr_energy">   -521.60147765 </i>
    <i name="e_wo_entrp">   -521.71298682 </i>
    <i name="e_0_energy">   -521.63864737 </i>
   </energy>
  </scstep>
  <scstep>
   <time name="dav">  557.42  562.87</time>
   <time name="total">  561.93  567.42</time>
   <energy>
    <i name="e_fr_energy">   -521.60199397 </i>
    <i name="e_wo_entrp">   -521.71369433 </i>
    <i name="e_0_energy">   -521.63922743 </i>
   </energy>
  </scstep>
  <scstep>
   <time name="dav">  545.62  551.78</time>
   <time name="total">  545.92  552.09</time>
   <energy>
    <i name="alphaZ">   4623.72760507 </i>
    <i name="ewald"> 915840.48494742 </i>
    <i name="hartreedc">**************** </i>
    <i name="XCdc">   6429.41545312 </i>
    <i name="pawpsdc"> 188998.81406575 </i>
    <i name="pawaedc">-204518.45824216 </i>
    <i name="eentropy">      0.11173713 </i>
    <i name="bandstr">  -1756.89172141 </i>
    <i name="atom"> 200322.85745410 </i>
    <i name="e_fr_energy">   -521.60203047 </i>
    <i name="e_wo_entrp">   -521.71376760 </i>
    <i name="e_0_energy">   -521.63927618 </i>
   </energy>
  </scstep>
  <structure>
   <crystal>
    <varray name="basis" >
     <v>      10.89000034       0.00000000       0.00000000 </v>
     <v>       0.00000000      10.89000034       0.00000000 </v>
     <v>       0.00000000       0.00000000      27.70499992 </v>
    </varray>
    <i name="volume">   3285.59432860 </i>
    <varray name="rec_basis" >
     <v>       0.09182736       0.00000000       0.00000000 </v>
     <v>       0.00000000       0.09182736       0.00000000 </v>
     <v>       0.00000000       0.00000000       0.03609457 </v>
    </varray>
   </crystal>
   <varray name="positions" >
    <v>       0.00000000       0.00000000       0.00000000 </v>
    <v>       0.00000000       0.33333333       0.00000000 </v>
    <v>       0.00000000       0.66666667       0.00000000 </v>
    <v>       0.33333333       0.00000000       0.00000000 </v>
    <v>       0.33333333       0.33333333       0.00000000 </v>
    <v>       0.33333333       0.66666667       0.00000000 </v>
    <v>       0.66666667       0.00000000       0.00000000 </v>
    <v>       0.66666667       0.33333333       0.00000000 </v>
    <v>       0.66666667       0.66666667       0.00000000 </v>
    <v>       0.16666667       0.16666667       0.00000000 </v>
    <v>       0.16666667       0.50000000       0.00000000 </v>
    <v>       0.16666667       0.83333333       0.00000000 </v>
    <v>       0.50000000       0.16666667       0.00000000 </v>
    <v>       0.50000000       0.50000000       0.00000000 </v>
    <v>       0.50000000       0.83333333       0.00000000 </v>
    <v>       0.83333333       0.16666667       0.00000000 </v>
    <v>       0.83333333       0.50000000       0.00000000 </v>
    <v>       0.83333333       0.83333333       0.00000000 </v>
    <v>       0.00000000       0.16666667       0.06551164 </v>
    <v>       0.00000000       0.50000000       0.06551164 </v>
    <v>       0.00000000       0.83333333       0.06551164 </v>
    <v>       0.33333333       0.16666667       0.06551164 </v>
    <v>       0.33333333       0.50000000       0.06551164 </v>
    <v>       0.33333333       0.83333333       0.06551164 </v>
    <v>       0.66666667       0.16666667       0.06551164 </v>
    <v>       0.66666667       0.50000000       0.06551164 </v>
    <v>       0.66666667       0.83333333       0.06551164 </v>
    <v>       0.16666667       0.00000000       0.06551164 </v>
    <v>       0.16666667       0.33333333       0.06551164 </v>
    <v>       0.16666667       0.66666667       0.06551164 </v>
    <v>       0.50000000       0.00000000       0.06551164 </v>
    <v>       0.50000000       0.33333333       0.06551164 </v>
    <v>       0.50000000       0.66666667       0.06551164 </v>
    <v>       0.83333333       0.00000000       0.06551164 </v>
    <v>       0.83333333       0.33333333       0.06551164 </v>
    <v>       0.83333333       0.66666667       0.06551164 </v>
    <v>       0.00000000       0.00000000       0.13119553 </v>
    <v>       0.00000000       0.33333333       0.13119553 </v>
    <v>       0.00000000       0.66666667       0.13119553 </v>
    <v>       0.33333333       0.00000000       0.13119553 </v>
    <v>       0.33333333       0.33333333       0.13119553 </v>
    <v>       0.33333333       0.66666667       0.13119553 </v>
    <v>       0.66666667       0.00000000       0.13119553 </v>
    <v>       0.66666667       0.33333333       0.13119553 </v>
    <v>       0.66666667       0.66666667       0.13119553 </v>
    <v>       0.16666667       0.16666667       0.13119553 </v>
    <v>       0.16666667       0.50000000       0.13119553 </v>
    <v>       0.16666667       0.83333333       0.13119553 </v>
    <v>       0.50000000       0.16666667       0.13119553 </v>
    <v>       0.50000000       0.50000000       0.13119553 </v>
    <v>       0.50000000       0.83333333       0.13119553 </v>
    <v>       0.83333333       0.16666667       0.13119553 </v>
    <v>       0.83333333       0.50000000       0.13119553 </v>
    <v>       0.83333333       0.83333333       0.13119553 </v>
    <v>       0.00000000       0.16666667       0.19620680 </v>
    <v>       0.00000000       0.50000000       0.19620680 </v>
    <v>       0.00000000       0.83333333       0.19620680 </v>
    <v>       0.33333333       0.16666667       0.19620680 </v>
    <v>       0.33333333       0.50000000       0.19620680 </v>
    <v>       0.33333333       0.83333333       0.19620680 </v>
    <v>       0.66666667       0.16666667       0.19620680 </v>
    <v>       0.66666667       0.50000000       0.19620680 </v>
    <v>       0.66666667       0.83333333       0.19620680 </v>
    <v>       0.16666667       0.00000000       0.19620680 </v>
    <v>       0.16666667       0.33333333       0.19620680 </v>
    <v>       0.16666667       0.66666667       0.19620680 </v>
    <v>       0.50000000       0.00000000       0.19620680 </v>
    <v>       0.50000000       0.33333333       0.19620680 </v>
    <v>       0.50000000       0.66666667       0.19620680 </v>
    <v>       0.83333333       0.00000000       0.19620680 </v>
    <v>       0.83333333       0.33333333       0.19620680 </v>
    <v>       0.83333333       0.66666667       0.19620680 </v>
    <v>       0.00000000       0.00000000       0.25873860 </v>
    <v>       0.00000000       0.33333333       0.25873860 </v>
    <v>       0.00000000       0.66666667       0.25873860 </v>
    <v>       0.33333333       0.00000000       0.25873860 </v>
    <v>       0.33333333       0.33333333       0.25873860 </v>
    <v>       0.33333333       0.66666667       0.25873860 </v>
    <v>       0.66666667       0.00000000       0.25873860 </v>
    <v>       0.66666667       0.33333333       0.25873860 </v>
    <v>       0.66666667       0.66666667       0.25873860 </v>
    <v>       0.16666667       0.16666667       0.25873860 </v>
    <v>       0.16666667       0.50000000       0.25873860 </v>
    <v>       0.16666667       0.83333333       0.25873860 </v>
    <v>       0.50000000       0.16666667       0.25873860 </v>
    <v>       0.50000000       0.50000000       0.25873860 </v>
    <v>       0.50000000       0.83333333       0.25873860 </v>
    <v>       0.83333333       0.16666667       0.25873860 </v>
    <v>       0.83333333       0.50000000       0.25873860 </v>
    <v>       0.83333333       0.83333333       0.25873860 </v>
    <v>       0.00000000       0.16666667       0.32119954 </v>
    <v>       0.00000000       0.50000000       0.32119954 </v>
    <v>       0.00000000       0.83333333       0.32119954 </v>
    <v>       0.33333333       0.16666667       0.32119954 </v>
    <v>       0.33333333       0.50000000       0.32119954 </v>
    <v>       0.33333333       0.83333333       0.32119954 </v>
    <v>       0.66666667       0.16666667       0.32119954 </v>
    <v>       0.66666667       0.50000000       0.32119954 </v>
    <v>       0.66666667       0.83333333       0.32119954 </v>
    <v>       0.16666667       0.00000000       0.32119954 </v>
    <v>       0.16666667       0.33333333       0.32119954 </v>
    <v>       0.16666667       0.66666667       0.32119954 </v>
    <v>       0.50000000       0.00000000       0.32119954 </v>
    <v>       0.50000000       0.33333333       0.32119954 </v>
    <v>       0.50000000       0.66666667       0.32119954 </v>
    <v>       0.83333333       0.00000000       0.32119954 </v>
    <v>       0.83333333       0.33333333       0.32119954 </v>
    <v>       0.83333333       0.66666667       0.32119954 </v>
    <v>       0.00000000       0.00000000       0.38476372 </v>
    <v>       0.00000000       0.33333333       0.38476372 </v>
    <v>       0.00000000       0.66666667       0.38476372 </v>
    <v>       0.33333333       0.00000000       0.38476372 </v>
    <v>       0.33333333       0.33333333       0.38476372 </v>
    <v>       0.33333333       0.66666667       0.38476372 </v>
    <v>       0.66666667       0.00000000       0.38476372 </v>
    <v>       0.66666667       0.33333333       0.38476372 </v>
    <v>       0.66666667       0.66666667       0.38476372 </v>
    <v>       0.16666667       0.16666667       0.38476372 </v>
    <v>       0.16666667       0.50000000       0.38476372 </v>
    <v>       0.16666667       0.83333333       0.38476372 </v>
    <v>       0.50000000       0.16666667       0.38476372 </v>
    <v>       0.50000000       0.50000000       0.38476372 </v>
    <v>       0.50000000       0.83333333       0.38476372 </v>
    <v>       0.83333333       0.16666667       0.38476372 </v>
    <v>       0.83333333       0.50000000       0.38476372 </v>
    <v>       0.83333333       0.83333333       0.38476372 </v>
    <v>       0.00000000       0.16666667       0.44736473 </v>
    <v>       0.00000000       0.50000000       0.44736473 </v>
    <v>       0.00000000       0.83333333       0.44736473 </v>
    <v>       0.33333333       0.16666667       0.44736473 </v>
    <v>       0.33333333       0.50000000       0.44736473 </v>
    <v>       0.33333333       0.83333333       0.44736473 </v>
    <v>       0.66666667       0.16666667       0.44736473 </v>
    <v>       0.66666667       0.50000000       0.44736473 </v>
    <v>       0.66666667       0.83333333       0.44736473 </v>
    <v>       0.16666667       0.00000000       0.44736473 </v>
    <v>       0.16666667       0.33333333       0.44736473 </v>
    <v>       0.16666667       0.66666667       0.44736473 </v>
    <v>       0.50000000       0.00000000       0.44736473 </v>
    <v>       0.50000000       0.33333333       0.44736473 </v>
    <v>       0.50000000       0.66666667       0.44736473 </v>
    <v>       0.83333333       0.00000000       0.44736473 </v>
    <v>       0.83333333       0.33333333       0.44736473 </v>
    <v>       0.83333333       0.66666667       0.44736473 </v>
    <v>       0.25000000       0.41666667       0.50150658 </v>
    <v>       0.25000000       0.41666667       0.52843313 </v>
   </varray>
  </structure>
  <varray name="forces" >
   <v>      -0.00188849       0.00181553       0.30931369 </v>
   <v>       0.00127569      -0.00128022       0.30955662 </v>
   <v>       0.00096002      -0.00096002       0.31014997 </v>
   <v>       0.00069663       0.00203978       0.30982247 </v>
   <v>       0.00151495      -0.00151495       0.30756677 </v>
   <v>       0.00128022      -0.00127569       0.30955662 </v>
   <v>       0.00162468      -0.00162468       0.30864501 </v>
   <v>      -0.00203978      -0.00069663       0.30982247 </v>
   <v>      -0.00181553       0.00188849       0.30931369 </v>
   <v>      -0.00128022       0.00127569       0.30955662 </v>
   <v>      -0.00151495       0.00151495       0.30756677 </v>
   <v>      -0.00069663      -0.00203978       0.30982247 </v>
   <v>      -0.00096002       0.00096002       0.31014997 </v>
   <v>      -0.00127569       0.00128022       0.30955662 </v>
   <v>       0.00188849      -0.00181553       0.30931369 </v>
   <v>       0.00181553      -0.00188849       0.30931369 </v>
   <v>       0.00203978       0.00069663       0.30982247 </v>
   <v>      -0.00162468       0.00162468       0.30864501 </v>
   <v>       0.00094513       0.00094513      -0.08066611 </v>
   <v>       0.00217328       0.00088615      -0.07825484 </v>
   <v>      -0.00074967      -0.00154375      -0.07649229 </v>
   <v>       0.00088615       0.00217328      -0.07825484 </v>
   <v>       0.00031687       0.00031687      -0.07561846 </v>
   <v>      -0.00066120       0.00121562      -0.07882149 </v>
   <v>      -0.00154375      -0.00074967      -0.07649229 </v>
   <v>       0.00121562      -0.00066120      -0.07882149 </v>
   <v>       0.00017776       0.00017776      -0.07470784 </v>
   <v>       0.00066120      -0.00121562      -0.07882149 </v>
   <v>      -0.00031687      -0.00031687      -0.07561846 </v>
   <v>      -0.00088615      -0.00217328      -0.07825484 </v>
   <v>       0.00074967       0.00154375      -0.07649229 </v>
   <v>      -0.00217328      -0.00088615      -0.07825484 </v>
   <v>      -0.00094513      -0.00094513      -0.08066611 </v>
   <v>      -0.00017776      -0.00017776      -0.07470784 </v>
   <v>      -0.00121562       0.00066120      -0.07882149 </v>
   <v>       0.00154375       0.00074967      -0.07649229 </v>
   <v>      -0.00092544       0.00320416      -0.00365358 </v>
   <v>       0.00255635      -0.00494628      -0.00795986 </v>
   <v>       0.00137004      -0.00137004      -0.00611386 </v>
   <v>       0.00053672       0.00226940       0.00070802 </v>
   <v>       0.00424264      -0.00424264      -0.00830656 </v>
   <v>       0.00494628      -0.00255635      -0.00795986 </v>
   <v>       0.00104010      -0.00104010      -0.00602378 </v>
   <v>      -0.00226940      -0.00053672       0.00070802 </v>
   <v>      -0.00320416       0.00092544      -0.00365358 </v>
   <v>      -0.00494628       0.00255635      -0.00795986 </v>
   <v>      -0.00424264       0.00424264      -0.00830656 </v>
   <v>      -0.00053672      -0.00226940       0.00070802 </v>
   <v>      -0.00137004       0.00137004      -0.00611386 </v>
   <v>      -0.00255635       0.00494628      -0.00795986 </v>
   <v>       0.00092544      -0.00320416      -0.00365358 </v>
   <v>       0.00320416      -0.00092544      -0.00365358 </v>
   <v>       0.00226940       0.00053672       0.00070802 </v>
   <v>      -0.00104010       0.00104010      -0.00602378 </v>
   <v>       0.00063414       0.00063414      -0.25943124 </v>
   <v>       0.00025467       0.00084405      -0.25744262 </v>
   <v>      -0.00060924      -0.00187357      -0.27106276 </v>
   <v>       0.00084405       0.00025467      -0.25744262 </v>
   <v>      -0.00015770      -0.00015770      -0.26673833 </v>
   <v>      -0.00042048      -0.00042747      -0.27169900 </v>
   <v>      -0.00187357      -0.00060924      -0.27106276 </v>
   <v>      -0.00042747      -0.00042048      -0.27169900 </v>
   <v>       0.00101127       0.00101127      -0.26797254 </v>
   <v>       0.00042048       0.00042747      -0.27169900 </v>
   <v>       0.00015770       0.00015770      -0.26673833 </v>
   <v>      -0.00084405      -0.00025467      -0.25744262 </v>
   <v>       0.00060924       0.00187357      -0.27106276 </v>
   <v>      -0.00025467      -0.00084405      -0.25744262 </v>
   <v>      -0.00063414      -0.00063414      -0.25943124 </v>
   <v>      -0.00101127      -0.00101127      -0.26797254 </v>
   <v>       0.00042747       0.00042048      -0.27169900 </v>
   <v>       0.00187357       0.00060924      -0.27106276 </v>
   <v>       0.00012453      -0.00115063      -0.02965700 </v>
   <v>      -0.00178697      -0.00198901      -0.03218921 </v>
   <v>      -0.00187687       0.00187687      -0.03584869 </v>
   <v>       0.00025549      -0.00793378      -0.03702336 </v>
   <v>      -0.00045952       0.00045952      -0.00976184 </v>
   <v>       0.00198901       0.00178697      -0.03218921 </v>
   <v>      -0.00088882       0.00088882      -0.02720920 </v>
   <v>       0.00793378      -0.00025549      -0.03702336 </v>
   <v>       0.00115063      -0.00012453      -0.02965700 </v>
   <v>      -0.00198901      -0.00178697      -0.03218921 </v>
   <v>       0.00045952      -0.00045952      -0.00976184 </v>
   <v>      -0.00025549       0.00793378      -0.03702336 </v>
   <v>       0.00187687      -0.00187687      -0.03584869 </v>
   <v>       0.00178697       0.00198901      -0.03218921 </v>
   <v>      -0.00012453       0.00115063      -0.02965700 </v>
   <v>      -0.00115063       0.00012453      -0.02965700 </v>
   <v>      -0.00793378       0.00025549      -0.03702336 </v>
   <v>       0.00088882      -0.00088882      -0.02720920 </v>
   <v>      -0.00223650      -0.00223650       0.05157249 </v>
   <v>      -0.00333032       0.00294374       0.03988281 </v>
   <v>       0.00092342      -0.00532176       0.05279861 </v>
[...]
    <i name="pawpsdc"> 189097.09865172 </i>
    <i name="pawaedc">-204618.48540607 </i>
    <i name="eentropy">      0.11698664 </i>
    <i name="bandstr">  -1809.73376299 </i>
    <i name="atom"> 200322.85745410 </i>
    <i name="e_fr_energy">   -521.79750379 </i>
    <i name="e_wo_entrp">   -521.91449043 </i>
    <i name="e_0_energy">   -521.83649933 </i>
   </energy>
  </scstep>
  <structure>
   <crystal>
    <varray name="basis" >
     <v>      10.89000034       0.00000000       0.00000000 </v>
     <v>       0.00000000      10.89000034       0.00000000 </v>
     <v>       0.00000000       0.00000000      27.70499992 </v>
    </varray>
    <i name="volume">   3285.59432860 </i>
    <varray name="rec_basis" >
     <v>       0.09182736       0.00000000       0.00000000 </v>
     <v>       0.00000000       0.09182736       0.00000000 </v>
     <v>       0.00000000       0.00000000       0.03609457 </v>
    </varray>
   </crystal>
   <varray name="positions" >
    <v>       0.00000000       0.00000000       0.00000000 </v>
    <v>       0.00000000       0.33333333       0.00000000 </v>
    <v>       0.00000000       0.66666667       0.00000000 </v>
    <v>       0.33333333       0.00000000       0.00000000 </v>
    <v>       0.33333333       0.33333333       0.00000000 </v>
    <v>       0.33333333       0.66666667       0.00000000 </v>
    <v>       0.66666667       0.00000000       0.00000000 </v>
    <v>       0.66666667       0.33333333       0.00000000 </v>
    <v>       0.66666667       0.66666667       0.00000000 </v>
    <v>       0.16666667       0.16666667       0.00000000 </v>
    <v>       0.16666667       0.50000000       0.00000000 </v>
    <v>       0.16666667       0.83333333       0.00000000 </v>
    <v>       0.50000000       0.16666667       0.00000000 </v>
    <v>       0.50000000       0.50000000       0.00000000 </v>
    <v>       0.50000000       0.83333333       0.00000000 </v>
    <v>       0.83333333       0.16666667       0.00000000 </v>
    <v>       0.83333333       0.50000000       0.00000000 </v>
    <v>       0.83333333       0.83333333       0.00000000 </v>
    <v>       0.00000000       0.16666667       0.06551164 </v>
    <v>       0.00000000       0.50000000       0.06551164 </v>
    <v>       0.00000000       0.83333333       0.06551164 </v>
    <v>       0.33333333       0.16666667       0.06551164 </v>
    <v>       0.33333333       0.50000000       0.06551164 </v>
    <v>       0.33333333       0.83333333       0.06551164 </v>
    <v>       0.66666667       0.16666667       0.06551164 </v>
    <v>       0.66666667       0.50000000       0.06551164 </v>
    <v>       0.66666667       0.83333333       0.06551164 </v>
    <v>       0.16666667       0.00000000       0.06551164 </v>
    <v>       0.16666667       0.33333333       0.06551164 </v>
    <v>       0.16666667       0.66666667       0.06551164 </v>
    <v>       0.50000000       0.00000000       0.06551164 </v>
    <v>       0.50000000       0.33333333       0.06551164 </v>
    <v>       0.50000000       0.66666667       0.06551164 </v>
    <v>       0.83333333       0.00000000       0.06551164 </v>
    <v>       0.83333333       0.33333333       0.06551164 </v>
    <v>       0.83333333       0.66666667       0.06551164 </v>
    <v>       0.00000000       0.00000000       0.13119553 </v>
    <v>       0.00000000       0.33333333       0.13119553 </v>
    <v>       0.00000000       0.66666667       0.13119553 </v>
    <v>       0.33333333       0.00000000       0.13119553 </v>
    <v>       0.33333333       0.33333333       0.13119553 </v>
    <v>       0.33333333       0.66666667       0.13119553 </v>
    <v>       0.66666667       0.00000000       0.13119553 </v>
    <v>       0.66666667       0.33333333       0.13119553 </v>
    <v>       0.66666667       0.66666667       0.13119553 </v>
    <v>       0.16666667       0.16666667       0.13119553 </v>
    <v>       0.16666667       0.50000000       0.13119553 </v>
    <v>       0.16666667       0.83333333       0.13119553 </v>
    <v>       0.50000000       0.16666667       0.13119553 </v>
    <v>       0.50000000       0.50000000       0.13119553 </v>
    <v>       0.50000000       0.83333333       0.13119553 </v>
    <v>       0.83333333       0.16666667       0.13119553 </v>
    <v>       0.83333333       0.50000000       0.13119553 </v>
    <v>       0.83333333       0.83333333       0.13119553 </v>
    <v>       0.00006726       0.16673392       0.19409967 </v>
    <v>       0.00002502       0.49995599       0.19409597 </v>
    <v>       0.00009394       0.83329460       0.19411715 </v>
    <v>       0.33328932       0.16669169       0.19409597 </v>
    <v>       0.33325584       0.49992250       0.19410380 </v>
    <v>       0.33333410       0.83329714       0.19403139 </v>
    <v>       0.66662794       0.16676061       0.19411715 </v>
    <v>       0.66663047       0.50000077       0.19403139 </v>
    <v>       0.66669191       0.83335858       0.19414245 </v>
    <v>       0.16666590       0.00003620       0.19403139 </v>
    <v>       0.16674416       0.33341083       0.19410380 </v>
    <v>       0.16671068       0.66664164       0.19409597 </v>
    <v>       0.49990606       0.00003873       0.19411715 </v>
    <v>       0.49997498       0.33337734       0.19409597 </v>
    <v>       0.49993274       0.66659941       0.19409967 </v>
    <v>       0.83330809      -0.00002524       0.19414245 </v>
    <v>       0.83336953       0.33333257       0.19403139 </v>
    <v>       0.83337206       0.66657272       0.19411715 </v>
    <v>      -0.00003823      -0.00001120       0.25686587 </v>
    <v>       0.00002830       0.33339885       0.25686898 </v>
    <v>       0.00005544       0.66661122       0.25685225 </v>
    <v>       0.33331257       0.00005252       0.25686257 </v>
    <v>       0.33334701       0.33331965       0.25692602 </v>
    <v>       0.33326782       0.66663837       0.25686898 </v>
    <v>       0.66664302       0.00002365       0.25690196 </v>
    <v>       0.66661414       0.33335410       0.25686257 </v>
    <v>       0.66667787       0.66670489       0.25686587 </v>
    <v>       0.16673218       0.16669497       0.25686898 </v>
    <v>       0.16665299       0.50001368       0.25692602 </v>
    <v>       0.16668743       0.83328081       0.25686257 </v>
    <v>       0.49994456       0.16672211       0.25685225 </v>
    <v>       0.49997170       0.49993449       0.25686898 </v>
    <v>       0.50003823       0.83334453       0.25686587 </v>
    <v>       0.83332213       0.16662844       0.25686587 </v>
    <v>       0.83338586       0.49997923       0.25686257 </v>
    <v>       0.83335698       0.83330968       0.25690196 </v>
    <v>       0.00000701       0.16667367       0.31988706 </v>
    <v>      -0.00004283       0.50003640       0.31990049 </v>
    <v>       0.00000911       0.83327675       0.31983073 </v>
    <v>       0.33336974       0.16662384       0.31990049 </v>
    <v>       0.33344961       0.50011627       0.31983643 </v>
    <v>       0.33332157       0.83329639       0.31981987 </v>
    <v>       0.66661008       0.16667577       0.31983073 </v>
    <v>       0.66662972       0.49998824       0.31981987 </v>
    <v>       0.66669469       0.83336135       0.31983202 </v>
    <v>       0.16667843       0.00003694       0.31981987 </v>
    <v>       0.16655039       0.33321706       0.31983643 </v>
    <v>       0.16663026       0.66670949       0.31990049 </v>
    <v>       0.49999089       0.00005658       0.31983073 </v>
    <v>       0.50004283       0.33329693       0.31990049 </v>
    <v>       0.49999299       0.66665966       0.31988706 </v>
    <v>       0.83330531      -0.00002802       0.31983202 </v>
    <v>       0.83337028       0.33334509       0.31981987 </v>
    <v>       0.83338992       0.66665756       0.31983073 </v>
    <v>      -0.00005338      -0.00009131       0.38345318 </v>
    <v>      -0.00019708       0.33329692       0.38346960 </v>
    <v>      -0.00015576       0.66682243       0.38346218 </v>
    <v>       0.33330667      -0.00010424       0.38349349 </v>
    <v>       0.33335483       0.33331183       0.38341690 </v>
    <v>       0.33336975       0.66686375       0.38346960 </v>
    <v>       0.66669500      -0.00002833       0.38343449 </v>
    <v>       0.66677091       0.33335999       0.38349349 </v>
    <v>       0.66675797       0.66672005       0.38345318 </v>
    <v>       0.16663025       0.16646958       0.38346960 </v>
    <v>       0.16664517       0.50002150       0.38341690 </v>
    <v>       0.16669333       0.83343757       0.38349349 </v>
    <v>       0.50015576       0.16651090       0.38346218 </v>
    <v>       0.50019708       0.50003642       0.38346960 </v>
    <v>       0.50005338       0.83342464       0.38345318 </v>
    <v>       0.83324203       0.16661328       0.38345318 </v>
    <v>       0.83322909       0.49997334       0.38349349 </v>
    <v>       0.83330500       0.83336166       0.38343449 </v>
    <v>      -0.00002753       0.16663914       0.44618997 </v>
    <v>       0.00001979       0.50005227       0.44612764 </v>
    <v>      -0.00011523       0.83328639       0.44623916 </v>
    <v>       0.33338560       0.16668645       0.44612764 </v>
    <v>       0.33329207       0.49995873       0.44599575 </v>
    <v>       0.33345299       0.83334262       0.44625756 </v>
    <v>       0.66661973       0.16655144       0.44623916 </v>
    <v>       0.66667595       0.50011966       0.44625756 </v>
    <v>       0.66667355       0.83334022       0.44618902 </v>
    <v>       0.16654701      -0.00000928       0.44625756 </v>
    <v>       0.16670793       0.33337460       0.44599575 </v>
    <v>       0.16661440       0.66664688       0.44612764 </v>
    <v>       0.50011523       0.00004694       0.44623916 </v>
    <v>       0.49998021       0.33328106       0.44612764 </v>
    <v>       0.50002753       0.66669419       0.44618997 </v>
    <v>       0.83332645      -0.00000688       0.44618902 </v>
    <v>       0.83332405       0.33321368       0.44625756 </v>
    <v>       0.83338027       0.66678190       0.44623916 </v>
    <v>       0.25000000       0.41666667       0.52802911 </v>
    <v>       0.25000000       0.41666667       0.55545648 </v>
   </varray>
  </structure>
  <varray name="forces" >
   <v>      -0.00096113       0.00050050       0.30937981 </v>
   <v>       0.00030032      -0.00039209       0.30992390 </v>
   <v>       0.00017090      -0.00017090       0.30975291 </v>
   <v>       0.00037115       0.00069827       0.31001738 </v>
   <v>       0.00055664      -0.00055664       0.30931758 </v>
   <v>       0.00039209      -0.00030032       0.30992390 </v>
   <v>       0.00061058      -0.00061058       0.30882422 </v>
   <v>      -0.00069827      -0.00037115       0.31001738 </v>
   <v>      -0.00050050       0.00096113       0.30937981 </v>
   <v>      -0.00039209       0.00030032       0.30992390 </v>
   <v>      -0.00055664       0.00055664       0.30931758 </v>
   <v>      -0.00037115      -0.00069827       0.31001738 </v>
   <v>      -0.00017090       0.00017090       0.30975291 </v>
   <v>      -0.00030032       0.00039209       0.30992390 </v>
   <v>       0.00096113      -0.00050050       0.30937981 </v>
   <v>       0.00050050      -0.00096113       0.30937981 </v>
   <v>       0.00069827       0.00037115       0.31001738 </v>
   <v>      -0.00061058       0.00061058       0.30882422 </v>
   <v>       0.00015791       0.00015791      -0.09033682 </v>
   <v>       0.00059514       0.00036291      -0.09008706 </v>
   <v>      -0.00057679      -0.00044775      -0.08868330 </v>
   <v>       0.00036291       0.00059514      -0.09008706 </v>
   <v>       0.00022749       0.00022749      -0.08894859 </v>
   <v>       0.00014442       0.00002117      -0.08979492 </v>
   <v>      -0.00044775      -0.00057679      -0.08868330 </v>
   <v>       0.00002117       0.00014442      -0.08979492 </v>
   <v>       0.00014413       0.00014413      -0.08806087 </v>
   <v>      -0.00014442      -0.00002117      -0.08979492 </v>
   <v>      -0.00022749      -0.00022749      -0.08894859 </v>
   <v>      -0.00036291      -0.00059514      -0.09008706 </v>
   <v>       0.00057679       0.00044775      -0.08868330 </v>
   <v>      -0.00059514      -0.00036291      -0.09008706 </v>
   <v>      -0.00015791      -0.00015791      -0.09033682 </v>
   <v>      -0.00014413      -0.00014413      -0.08806087 </v>
   <v>      -0.00002117      -0.00014442      -0.08979492 </v>
   <v>       0.00044775       0.00057679      -0.08868330 </v>
   <v>      -0.00482909       0.00053123      -0.23665115 </v>
   <v>       0.00424095      -0.00091091      -0.24208379 </v>
   <v>       0.00032865      -0.00032865      -0.23791089 </v>
   <v>       0.00216998       0.00285036      -0.24094316 </v>
   <v>       0.00139446      -0.00139446      -0.24199315 </v>
   <v>       0.00091091      -0.00424095      -0.24208379 </v>
   <v>      -0.00030979       0.00030979      -0.23411030 </v>
   <v>      -0.00285036      -0.00216998      -0.24094316 </v>
   <v>      -0.00053123       0.00482909      -0.23665115 </v>
   <v>      -0.00091091       0.00424095      -0.24208379 </v>
   <v>      -0.00139446       0.00139446      -0.24199315 </v>
   <v>      -0.00216998      -0.00285036      -0.24094316 </v>
   <v>      -0.00032865       0.00032865      -0.23791089 </v>
   <v>      -0.00424095       0.00091091      -0.24208379 </v>
   <v>       0.00482909      -0.00053123      -0.23665115 </v>
   <v>       0.00053123      -0.00482909      -0.23665115 </v>
   <v>       0.00285036       0.00216998      -0.24094316 </v>
   <v>       0.00030979      -0.00030979      -0.23411030 </v>
   <v>      -0.00188375      -0.00188375      -0.00808000 </v>
   <v>       0.00330145       0.00178339      -0.00915511 </v>
   <v>      -0.00722203       0.00135698      -0.01565897 </v>
   <v>       0.00178339       0.00330145      -0.00915511 </v>
   <v>       0.00410939       0.00410939      -0.00572216 </v>
   <v>       0.00031697       0.00275685       0.00054544 </v>
   <v>       0.00135698      -0.00722203      -0.01565897 </v>
   <v>       0.00275685       0.00031697       0.00054544 </v>
   <v>      -0.00042218      -0.00042218      -0.01982940 </v>
   <v>      -0.00031697      -0.00275685       0.00054544 </v>
   <v>      -0.00410939      -0.00410939      -0.00572216 </v>
   <v>      -0.00178339      -0.00330145      -0.00915511 </v>
   <v>       0.00722203      -0.00135698      -0.01565897 </v>
   <v>      -0.00330145      -0.00178339      -0.00915511 </v>
   <v>       0.00188375       0.00188375      -0.00808000 </v>
   <v>       0.00042218       0.00042218      -0.01982940 </v>
   <v>      -0.00275685      -0.00031697       0.00054544 </v>
   <v>      -0.00135698       0.00722203      -0.01565897 </v>
   <v>       0.00856314       0.00339344       0.02101926 </v>
   <v>      -0.00457056      -0.00663468       0.02225641 </v>
   <v>      -0.00027537       0.00027537       0.02640052 </v>
   <v>      -0.00209729      -0.00667589       0.01934025 </v>
   <v>      -0.00001481       0.00001481       0.02688036 </v>
   <v>       0.00663468       0.00457056       0.02225641 </v>
   <v>      -0.00146745       0.00146745       0.01212131 </v>
   <v>       0.00667589       0.00209729       0.01934025 </v>
   <v>      -0.00339344      -0.00856314       0.02101926 </v>
   <v>      -0.00663468      -0.00457056       0.02225641 </v>
   <v>       0.00001481      -0.00001481       0.02688036 </v>
   <v>       0.00209729       0.00667589       0.01934025 </v>
   <v>       0.00027537      -0.00027537       0.02640052 </v>
   <v>       0.00457056       0.00663468       0.02225641 </v>
   <v>      -0.00856314      -0.00339344       0.02101926 </v>
   <v>       0.00339344       0.00856314       0.02101926 </v>
   <v>      -0.00667589      -0.00209729       0.01934025 </v>
   <v>       0.00146745      -0.00146745       0.01212131 </v>
   <v>      -0.00432895      -0.00432895      -0.01549812 </v>
   <v>      -0.00296750      -0.00153048      -0.01191874 </v>
   <v>       0.00266423       0.00509900      -0.00866588 </v>
   <v>      -0.00153048      -0.00296750      -0.01191874 </v>
   <v>      -0.00492921      -0.00492921      -0.00636946 </v>
   <v>       0.00171263       0.00397288      -0.00257513 </v>
   <v>       0.00509900       0.00266423      -0.00866588 </v>
   <v>       0.00397288       0.00171263      -0.00257513 </v>
   <v>      -0.00320316      -0.00320316      -0.01015533 </v>
   <v>      -0.00171263      -0.00397288      -0.00257513 </v>
   <v>       0.00492921       0.00492921      -0.00636946 </v>
   <v>       0.00153048       0.00296750      -0.01191874 </v>
   <v>      -0.00266423      -0.00509900      -0.00866588 </v>
   <v>       0.00296750       0.00153048      -0.01191874 </v>
   <v>       0.00432895       0.00432895      -0.01549812 </v>
   <v>       0.00320316       0.00320316      -0.01015533 </v>
   <v>      -0.00397288      -0.00171263      -0.00257513 </v>
   <v>      -0.00509900      -0.00266423      -0.00866588 </v>
   <v>       0.00165491       0.00097093       0.02034021 </v>
   <v>       0.00562278      -0.00027036       0.02400522 </v>
   <v>       0.00445923      -0.00445923       0.02128605 </v>
   <v>       0.00254139      -0.00152565       0.01920637 </v>
   <v>       0.00179120      -0.00179120       0.00629332 </v>
   <v>       0.00027036      -0.00562278       0.02400522 </v>
   <v>      -0.00006293       0.00006293       0.02229935 </v>
   <v>       0.00152565      -0.00254139       0.01920637 </v>
   <v>      -0.00097093      -0.00165491       0.02034021 </v>
   <v>      -0.00027036       0.00562278       0.02400522 </v>
   <v>      -0.00179120       0.00179120       0.00629332 </v>
   <v>      -0.00254139       0.00152565       0.01920637 </v>
   <v>      -0.00445923       0.00445923       0.02128605 </v>
   <v>      -0.00562278       0.00027036       0.02400522 </v>
   <v>      -0.00165491      -0.00097093       0.02034021 </v>
   <v>       0.00097093       0.00165491       0.02034021 </v>
   <v>      -0.00152565       0.00254139       0.01920637 </v>
   <v>       0.00006293      -0.00006293       0.02229935 </v>
   <v>       0.00364503       0.00364503      -0.00457717 </v>
   <v>      -0.00625237      -0.00175690      -0.00758656 </v>
   <v>       0.00527444       0.00225575      -0.00641640 </v>
   <v>      -0.00175690      -0.00625237      -0.00758656 </v>
   <v>       0.01789188       0.01789188      -0.01408162 </v>
   <v>      -0.00489930      -0.00026644      -0.00717779 </v>
   <v>       0.00225575       0.00527444      -0.00641640 </v>
   <v>      -0.00026644      -0.00489930      -0.00717779 </v>
   <v>      -0.00008449      -0.00008449      -0.00089096 </v>
   <v>       0.00489930       0.00026644      -0.00717779 </v>
   <v>      -0.01789188      -0.01789188      -0.01408162 </v>
   <v>       0.00175690       0.00625237      -0.00758656 </v>
   <v>      -0.00527444      -0.00225575      -0.00641640 </v>
   <v>       0.00625237       0.00175690      -0.00758656 </v>
   <v>      -0.00364503      -0.00364503      -0.00457717 </v>
   <v>       0.00008449       0.00008449      -0.00089096 </v>
   <v>       0.00026644       0.00489930      -0.00717779 </v>
   <v>      -0.00225575      -0.00527444      -0.00641640 </v>
   <v>       0.00000000       0.00000000       0.03621617 </v>
   <v>       0.00000000       0.00000000       0.01601711 </v>
  </varray>
  <varray name="stress" >
   <v>     -35.10706548      -0.00096533       0.00000000 </v>
   <v>      -0.00096533     -35.10706548       0.00000000 </v>
   <v>       0.00000000       0.00000000     -12.89547214 </v>
  </varray>
  <energy>
   <i name="e_fr_energy">   -582.24083097 </i>
   <i name="e_wo_entrp">   -582.35781762 </i>
   <i name="e_0_energy">   -582.27982652 </i>
  </energy>
