unknown system                          
           1
    10.890000    0.000000    0.000000
     0.000000   10.890000    0.000000
     0.000000    0.000000   27.705000
   Cu   H 
   144     2
Direct configuration=     1
   0.00000000  0.00000000  0.00000000
   0.00000000  0.33333333  0.00000000
   0.00000000  0.66666667  0.00000000
   0.33333333  0.00000000  0.00000000
   0.33333333  0.33333333  0.00000000
   0.33333333  0.66666667  0.00000000
   0.66666667  0.00000000  0.00000000
   0.66666667  0.33333333  0.00000000
   0.66666667  0.66666667  0.00000000
   0.16666667  0.16666667  0.00000000
   0.16666667  0.50000000  0.00000000
   0.16666667  0.83333333  0.00000000
   0.50000000  0.16666667  0.00000000
   0.50000000  0.50000000  0.00000000
   0.50000000  0.83333333  0.00000000
   0.83333333  0.16666667  0.00000000
   0.83333333  0.50000000  0.00000000
   0.83333333  0.83333333  0.00000000
   0.00000000  0.16666667  0.06551164
   0.00000000  0.50000000  0.06551164
   0.00000000  0.83333333  0.06551164
   0.33333333  0.16666667  0.06551164
   0.33333333  0.50000000  0.06551164
   0.33333333  0.83333333  0.06551164
   0.66666667  0.16666667  0.06551164
   0.66666667  0.50000000  0.06551164
   0.66666667  0.83333333  0.06551164
   0.16666667  0.00000000  0.06551164
   0.16666667  0.33333333  0.06551164
   0.16666667  0.66666667  0.06551164
   0.50000000  0.00000000  0.06551164
   0.50000000  0.33333333  0.06551164
   0.50000000  0.66666667  0.06551164
   0.83333333  0.00000000  0.06551164
   0.83333333  0.33333333  0.06551164
   0.83333333  0.66666667  0.06551164
   0.00000000  0.00000000  0.13119553
   0.00000000  0.33333333  0.13119553
   0.00000000  0.66666667  0.13119553
   0.33333333  0.00000000  0.13119553
   0.33333333  0.33333333  0.13119553
   0.33333333  0.66666667  0.13119553
   0.66666667  0.00000000  0.13119553
   0.66666667  0.33333333  0.13119553
   0.66666667  0.66666667  0.13119553
   0.16666667  0.16666667  0.13119553
   0.16666667  0.50000000  0.13119553
   0.16666667  0.83333333  0.13119553
   0.50000000  0.16666667  0.13119553
   0.50000000  0.50000000  0.13119553
   0.50000000  0.83333333  0.13119553
   0.83333333  0.16666667  0.13119553
   0.83333333  0.50000000  0.13119553
   0.83333333  0.83333333  0.13119553
   0.00000000  0.16666667  0.19620680
   0.00000000  0.50000000  0.19620680
   0.00000000  0.83333333  0.19620680
   0.33333333  0.16666667  0.19620680
   0.33333333  0.50000000  0.19620680
   0.33333333  0.83333333  0.19620680
   0.66666667  0.16666667  0.19620680
   0.66666667  0.50000000  0.19620680
   0.66666667  0.83333333  0.19620680
   0.16666667  0.00000000  0.19620680
   0.16666667  0.33333333  0.19620680
   0.16666667  0.66666667  0.19620680
   0.50000000  0.00000000  0.19620680
   0.50000000  0.33333333  0.19620680
   0.50000000  0.66666667  0.19620680
   0.83333333  0.00000000  0.19620680
   0.83333333  0.33333333  0.19620680
   0.83333333  0.66666667  0.19620680
   0.00000000  0.00000000  0.25873860
   0.00000000  0.33333333  0.25873860
   0.00000000  0.66666667  0.25873860
   0.33333333  0.00000000  0.25873860
   0.33333333  0.33333333  0.25873860
   0.33333333  0.66666667  0.25873860
   0.66666667  0.00000000  0.25873860
   0.66666667  0.33333333  0.25873860
   0.66666667  0.66666667  0.25873860
   0.16666667  0.16666667  0.25873860
   0.16666667  0.50000000  0.25873860
   0.16666667  0.83333333  0.25873860
   0.50000000  0.16666667  0.25873860
   0.50000000  0.50000000  0.25873860
   0.50000000  0.83333333  0.25873860
   0.83333333  0.16666667  0.25873860
   0.83333333  0.50000000  0.25873860
   0.83333333  0.83333333  0.25873860
   0.00000000  0.16666667  0.32119954
   0.00000000  0.50000000  0.32119954
   0.00000000  0.83333333  0.32119954
   0.33333333  0.16666667  0.32119954
   0.33333333  0.50000000  0.32119954
   0.33333333  0.83333333  0.32119954
   0.66666667  0.16666667  0.32119954
   0.66666667  0.50000000  0.32119954
   0.66666667  0.83333333  0.32119954
   0.16666667  0.00000000  0.32119954
   0.16666667  0.33333333  0.32119954
   0.16666667  0.66666667  0.32119954
   0.50000000  0.00000000  0.32119954
   0.50000000  0.33333333  0.32119954
   0.50000000  0.66666667  0.32119954
   0.83333333  0.00000000  0.32119954
   0.83333333  0.33333333  0.32119954
   0.83333333  0.66666667  0.32119954
   0.00000000  0.00000000  0.38476372
   0.00000000  0.33333333  0.38476372
   0.00000000  0.66666667  0.38476372
   0.33333333  0.00000000  0.38476372
   0.33333333  0.33333333  0.38476372
   0.33333333  0.66666667  0.38476372
   0.66666667  0.00000000  0.38476372
   0.66666667  0.33333333  0.38476372
   0.66666667  0.66666667  0.38476372
   0.16666667  0.16666667  0.38476372
   0.16666667  0.50000000  0.38476372
   0.16666667  0.83333333  0.38476372
   0.50000000  0.16666667  0.38476372
   0.50000000  0.50000000  0.38476372
   0.50000000  0.83333333  0.38476372
   0.83333333  0.16666667  0.38476372
   0.83333333  0.50000000  0.38476372
   0.83333333  0.83333333  0.38476372
   0.00000000  0.16666667  0.44736473
   0.00000000  0.50000000  0.44736473
   0.00000000  0.83333333  0.44736473
   0.33333333  0.16666667  0.44736473
   0.33333333  0.50000000  0.44736473
   0.33333333  0.83333333  0.44736473
   0.66666667  0.16666667  0.44736473
   0.66666667  0.50000000  0.44736473
   0.66666667  0.83333333  0.44736473
   0.16666667  0.00000000  0.44736473
   0.16666667  0.33333333  0.44736473
   0.16666667  0.66666667  0.44736473
   0.50000000  0.00000000  0.44736473
   0.50000000  0.33333333  0.44736473
   0.50000000  0.66666667  0.44736473
   0.83333333  0.00000000  0.44736473
   0.83333333  0.33333333  0.44736473
   0.83333333  0.66666667  0.44736473
   0.25000000  0.41666667  0.50150658
   0.25000000  0.41666667  0.52843313
Direct configuration=     2
   0.00000000  0.00000000  0.00000000
   0.00000000  0.33333333  0.00000000
   0.00000000  0.66666667  0.00000000
   0.33333333  0.00000000  0.00000000
   0.33333333  0.33333333  0.00000000
   0.33333333  0.66666667  0.00000000
   0.66666667  0.00000000  0.00000000
   0.66666667  0.33333333  0.00000000
   0.66666667  0.66666667  0.00000000
   0.16666667  0.16666667  0.00000000
   0.16666667  0.50000000  0.00000000
   0.16666667  0.83333333  0.00000000
   0.50000000  0.16666667  0.00000000
   0.50000000  0.50000000  0.00000000
   0.50000000  0.83333333  0.00000000
   0.83333333  0.16666667  0.00000000
   0.83333333  0.50000000  0.00000000
   0.83333333  0.83333333  0.00000000
   0.00000000  0.16666667  0.06551164
   0.00000000  0.50000000  0.06551164
   0.00000000  0.83333333  0.06551164
   0.33333333  0.16666667  0.06551164
   0.33333333  0.50000000  0.06551164
   0.33333333  0.83333333  0.06551164
   0.66666667  0.16666667  0.06551164
   0.66666667  0.50000000  0.06551164
   0.66666667  0.83333333  0.06551164
   0.16666667  0.00000000  0.06551164
   0.16666667  0.33333333  0.06551164
   0.16666667  0.66666667  0.06551164
   0.50000000  0.00000000  0.06551164
   0.50000000  0.33333333  0.06551164
   0.50000000  0.66666667  0.06551164
   0.83333333  0.00000000  0.06551164
   0.83333333  0.33333333  0.06551164
   0.83333333  0.66666667  0.06551164
   0.00000000  0.00000000  0.13119553
   0.00000000  0.33333333  0.13119553
   0.00000000  0.66666667  0.13119553
   0.33333333  0.00000000  0.13119553
   0.33333333  0.33333333  0.13119553
   0.33333333  0.66666667  0.13119553
   0.66666667  0.00000000  0.13119553
   0.66666667  0.33333333  0.13119553
   0.66666667  0.66666667  0.13119553
   0.16666667  0.16666667  0.13119553
   0.16666667  0.50000000  0.13119553
   0.16666667  0.83333333  0.13119553
   0.50000000  0.16666667  0.13119553
   0.50000000  0.50000000  0.13119553
   0.50000000  0.83333333  0.13119553
   0.83333333  0.16666667  0.13119553
   0.83333333  0.50000000  0.13119553
   0.83333333  0.83333333  0.13119553
   0.00000281  0.16666948  0.19575505
   0.00000113  0.50000374  0.19575851
  -0.00000270  0.83332503  0.19573480
   0.33333707  0.16666779  0.19575851
   0.33333263  0.49999930  0.19574233
   0.33333147  0.83333144  0.19573369
   0.66665837  0.16666397  0.19573480
   0.66666477  0.49999814  0.19573369
   0.66667115  0.83333781  0.19574018
   0.16666853  0.00000189  0.19573369
   0.16666737  0.33333403  0.19574233
   0.16666293  0.66666554  0.19575851
   0.50000270  0.00000830  0.19573480
   0.49999887  0.33332959  0.19575851
   0.49999719  0.66666386  0.19575505
   0.83332885 -0.00000448  0.19574018
   0.83333523  0.33333520  0.19573369
   0.83334163  0.66666937  0.19573480
   0.00000055 -0.00000510  0.25868696
  -0.00000792  0.33332452  0.25868255
  -0.00000831  0.66667498  0.25867617
   0.33333447 -0.00003515  0.25867413
   0.33333130  0.33333537  0.25872160
   0.33334214  0.66667458  0.25868255
   0.66666273  0.00000394  0.25869122
   0.66670181  0.33333220  0.25867413
   0.66667176  0.66666612  0.25868696
   0.16665786  0.16665875  0.25868255
   0.16666870  0.49999796  0.25872160
   0.16666553  0.83336848  0.25867413
   0.50000831  0.16665835  0.25867617
   0.50000792  0.50000881  0.25868255
   0.49999945  0.83333843  0.25868696
   0.83332824  0.16666722  0.25868696
   0.83329819  0.50000113  0.25867413
   0.83333727  0.83332940  0.25869122
  -0.00000991  0.16665676  0.32128935
  -0.00001475  0.50001304  0.32126899
   0.00000409  0.83330976  0.32129148
   0.33334637  0.16665191  0.32126899
   0.33332957  0.49999624  0.32125386
   0.33333277  0.83328610  0.32130313
   0.66664309  0.16667076  0.32129148
   0.66661943  0.49999944  0.32130313
   0.66666458  0.83333125  0.32128839
   0.16666723  0.00004724  0.32130313
   0.16667043  0.33333709  0.32125386
   0.16665363  0.66668142  0.32126899
   0.49999591  0.00002358  0.32129148
   0.50001475  0.33332029  0.32126899
   0.50000991  0.66667657  0.32128935
   0.83333542  0.00000208  0.32128839
   0.83338057  0.33333389  0.32130313
   0.83335691  0.66666258  0.32129148
  -0.00000534 -0.00001446  0.38480045
   0.00005872  0.33336399  0.38485445
   0.00001296  0.66665371  0.38482204
   0.33333748 -0.00006868  0.38479883
   0.33336596  0.33330071  0.38472551
   0.33330267  0.66660794  0.38485445
   0.66666344  0.00000323  0.38480191
   0.66673534  0.33332919  0.38479883
   0.66668113  0.66667201  0.38480045
   0.16669733  0.16672539  0.38485445
   0.16663404  0.50003263  0.38472551
   0.16666252  0.83340201  0.38479883
   0.49998704  0.16667963  0.38482204
   0.49994128  0.49996934  0.38485445
   0.50000534  0.83334779  0.38480045
   0.83331887  0.16666133  0.38480045
   0.83326466  0.50000414  0.38479883
   0.83333656  0.83333010  0.38480191
   0.00002967  0.16669634  0.44736720
  -0.00024777  0.50006582  0.44727063
   0.00000545  0.83332077  0.44736155
   0.33339915  0.16641890  0.44727063
   0.33407018  0.50073685  0.44700139
   0.33331979  0.83330256  0.44736327
   0.66665410  0.16667212  0.44736155
   0.66663589  0.49998646  0.44736327
   0.66666362  0.83333029  0.44735400
   0.16668021  0.00003077  0.44736327
   0.16592982  0.33259649  0.44700139
   0.16660085  0.66691443  0.44727063
   0.49999455  0.00001256  0.44736155
   0.50024777  0.33326751  0.44727063
   0.49997033  0.66663700  0.44736720
   0.83333638  0.00000304  0.44735400
   0.83336411  0.33334688  0.44736327
   0.83334590  0.66666121  0.44736155
   0.25000000  0.41666667  0.50027918
   0.25000000  0.41666667  0.53067121
Direct configuration=     3
   0.00000000  0.00000000  0.00000000
   0.00000000  0.33333333  0.00000000
   0.00000000  0.66666667  0.00000000
   0.33333333  0.00000000  0.00000000
   0.33333333  0.33333333  0.00000000
   0.33333333  0.66666667  0.00000000
   0.66666667  0.00000000  0.00000000
   0.66666667  0.33333333  0.00000000
   0.66666667  0.66666667  0.00000000
   0.16666667  0.16666667  0.00000000
   0.16666667  0.50000000  0.00000000
   0.16666667  0.83333333  0.00000000
   0.50000000  0.16666667  0.00000000
   0.50000000  0.50000000  0.00000000
   0.50000000  0.83333333  0.00000000
   0.83333333  0.16666667  0.00000000
   0.83333333  0.50000000  0.00000000
   0.83333333  0.83333333  0.00000000
   0.00000000  0.16666667  0.06551164
   0.00000000  0.50000000  0.06551164
   0.00000000  0.83333333  0.06551164
   0.33333333  0.16666667  0.06551164
   0.33333333  0.50000000  0.06551164
   0.33333333  0.83333333  0.06551164
   0.66666667  0.16666667  0.06551164
   0.66666667  0.50000000  0.06551164
   0.66666667  0.83333333  0.06551164
   0.16666667  0.00000000  0.06551164
   0.16666667  0.33333333  0.06551164
   0.16666667  0.66666667  0.06551164
   0.50000000  0.00000000  0.06551164
   0.50000000  0.33333333  0.06551164
   0.50000000  0.66666667  0.06551164
   0.83333333  0.00000000  0.06551164
   0.83333333  0.33333333  0.06551164
   0.83333333  0.66666667  0.06551164
   0.00000000  0.00000000  0.13119553
   0.00000000  0.33333333  0.13119553
   0.00000000  0.66666667  0.13119553
   0.33333333  0.00000000  0.13119553
   0.33333333  0.33333333  0.13119553
   0.33333333  0.66666667  0.13119553
   0.66666667  0.00000000  0.13119553
   0.66666667  0.33333333  0.13119553
   0.66666667  0.66666667  0.13119553
   0.16666667  0.16666667  0.13119553
   0.16666667  0.50000000  0.13119553
   0.16666667  0.83333333  0.13119553
   0.50000000  0.16666667  0.13119553
   0.50000000  0.50000000  0.13119553
   0.50000000  0.83333333  0.13119553
   0.83333333  0.16666667  0.13119553
   0.83333333  0.50000000  0.13119553
   0.83333333  0.83333333  0.13119553
   0.00000200  0.16666866  0.19588564
   0.00000080  0.50000266  0.19588811
  -0.00000192  0.83332743  0.19587124
   0.33333599  0.16666747  0.19588811
   0.33333284  0.49999950  0.19587660
   0.33333201  0.83333199  0.19587046
   0.66666077  0.16666475  0.19587124
   0.66666532  0.49999868  0.19587046
   0.66666985  0.83333652  0.19587507
   0.16666799  0.00000135  0.19587046
   0.16666716  0.33333383  0.19587660
   0.16666401  0.66666586  0.19588811
   0.50000192  0.00000590  0.19587124
   0.49999920  0.33333068  0.19588811
   0.49999800  0.66666467  0.19588564
   0.83333015 -0.00000318  0.19587507
   0.83333468  0.33333466  0.19587046
   0.83333923  0.66666859  0.19587124
   0.00000039 -0.00000362  0.25870188
  -0.00000563  0.33332707  0.25869875
  -0.00000591  0.66667258  0.25869422
   0.33333414 -0.00002499  0.25869277
   0.33333189  0.33333478  0.25872651
   0.33333960  0.66667229  0.25869875
   0.66666387  0.00000280  0.25870491
   0.66669165  0.33333253  0.25869277
   0.66667029  0.66666627  0.25870188
   0.16666040  0.16666104  0.25869875
   0.16666811  0.49999855  0.25872651
   0.16666586  0.83335832  0.25869277
   0.50000591  0.16666076  0.25869422
   0.50000563  0.50000626  0.25869875
   0.49999961  0.83333696  0.25870188
   0.83332971  0.16666706  0.25870188
   0.83330835  0.50000080  0.25869277
   0.83333613  0.83333053  0.25870491
  -0.00000704  0.16665962  0.32126339
  -0.00001049  0.50000927  0.32124892
   0.00000291  0.83331657  0.32126490
   0.33334260  0.16665618  0.32124892
   0.33333066  0.49999733  0.32123815
   0.33333294  0.83329975  0.32127319
   0.66664991  0.16666957  0.32126490
   0.66663308  0.49999960  0.32127319
   0.66666519  0.83333185  0.32126271
   0.16666706  0.00003358  0.32127319
   0.16666934  0.33333601  0.32123815
   0.16665740  0.66667716  0.32124892
   0.49999709  0.00001676  0.32126490
   0.50001049  0.33332406  0.32124892
   0.50000704  0.66667371  0.32126339
   0.83333481  0.00000148  0.32126271
   0.83336692  0.33333373  0.32127319
   0.83335009  0.66666376  0.32126490
  -0.00000380 -0.00001028  0.38478983
   0.00004175  0.33335513  0.38482822
   0.00000921  0.66665745  0.38480518
   0.33333628 -0.00004882  0.38478868
   0.33335653  0.33331014  0.38473656
   0.33331154  0.66662492  0.38482822
   0.66666437  0.00000230  0.38479087
   0.66671549  0.33333039  0.38478868
   0.66667695  0.66667046  0.38478983
   0.16668846  0.16670841  0.38482822
   0.16664347  0.50002319  0.38473656
   0.16666372  0.83338216  0.38478868
   0.49999079  0.16667588  0.38480518
   0.49995825  0.49997820  0.38482822
   0.50000380  0.83334361  0.38478983
   0.83332305  0.16666287  0.38478983
   0.83328451  0.50000294  0.38478868
   0.83333563  0.83333104  0.38479087
   0.00002109  0.16668776  0.44736649
  -0.00017614  0.50004679  0.44729783
   0.00000388  0.83332440  0.44736247
   0.33338013  0.16649053  0.44729783
   0.33385717  0.50052384  0.44710642
   0.33332370  0.83331146  0.44736369
   0.66665773  0.16667054  0.44736247
   0.66664479  0.49999037  0.44736369
   0.66666450  0.83333117  0.44735710
   0.16667630  0.00002188  0.44736369
   0.16614283  0.33280950  0.44710642
   0.16661987  0.66684281  0.44729783
   0.49999612  0.00000893  0.44736247
   0.50017614  0.33328654  0.44729783
   0.49997891  0.66664557  0.44736649
   0.83333550  0.00000216  0.44735710
   0.83335521  0.33334296  0.44736369
   0.83334227  0.66666279  0.44736247
   0.25000000  0.41666667  0.50063400
   0.25000000  0.41666667  0.53002421
Direct configuration=     4
   0.00000000  0.00000000  0.00000000
   0.00000000  0.33333333  0.00000000
   0.00000000  0.66666667  0.00000000
   0.33333333  0.00000000  0.00000000
   0.33333333  0.33333333  0.00000000
   0.33333333  0.66666667  0.00000000
   0.66666667  0.00000000  0.00000000
   0.66666667  0.33333333  0.00000000
   0.66666667  0.66666667  0.00000000
   0.16666667  0.16666667  0.00000000
   0.16666667  0.50000000  0.00000000
   0.16666667  0.83333333  0.00000000
   0.50000000  0.16666667  0.00000000
   0.50000000  0.50000000  0.00000000
   0.50000000  0.83333333  0.00000000
   0.83333333  0.16666667  0.00000000
   0.83333333  0.50000000  0.00000000
   0.83333333  0.83333333  0.00000000
   0.00000000  0.16666667  0.06551164
   0.00000000  0.50000000  0.06551164
   0.00000000  0.83333333  0.06551164
   0.33333333  0.16666667  0.06551164
   0.33333333  0.50000000  0.06551164
   0.33333333  0.83333333  0.06551164
   0.66666667  0.16666667  0.06551164
   0.66666667  0.50000000  0.06551164
   0.66666667  0.83333333  0.06551164
   0.16666667  0.00000000  0.06551164
   0.16666667  0.33333333  0.06551164
   0.16666667  0.66666667  0.06551164
   0.50000000  0.00000000  0.06551164
   0.50000000  0.33333333  0.06551164
   0.50000000  0.66666667  0.06551164
   0.83333333  0.00000000  0.06551164
   0.83333333  0.33333333  0.06551164
   0.83333333  0.66666667  0.06551164
   0.00000000  0.00000000  0.13119553
   0.00000000  0.33333333  0.13119553
   0.00000000  0.66666667  0.13119553
   0.33333333  0.00000000  0.13119553
   0.33333333  0.33333333  0.13119553
   0.33333333  0.66666667  0.13119553
   0.66666667  0.00000000  0.13119553
   0.66666667  0.33333333  0.13119553
   0.66666667  0.66666667  0.13119553
   0.16666667  0.16666667  0.13119553
   0.16666667  0.50000000  0.13119553
   0.16666667  0.83333333  0.13119553
   0.50000000  0.16666667  0.13119553
   0.50000000  0.50000000  0.13119553
   0.50000000  0.83333333  0.13119553
   0.83333333  0.16666667  0.13119553
   0.83333333  0.50000000  0.13119553
   0.83333333  0.83333333  0.13119553
   0.00000449  0.16667115  0.19534970
   0.00000617  0.50000652  0.19535765
  -0.00000624  0.83331872  0.19531070
   0.33333985  0.16667284  0.19535765
   0.33332884  0.49999551  0.19532848
   0.33333108  0.83332741  0.19530771
   0.66665205  0.16666043  0.19531070
   0.66666075  0.49999775  0.19530771
   0.66667506  0.83334173  0.19532183
   0.16666892  0.00000592  0.19530771
   0.16667116  0.33333783  0.19532848
   0.16666015  0.66666049  0.19535765
   0.50000624  0.00001462  0.19531070
   0.49999383  0.33332682  0.19535765
   0.49999551  0.66666218  0.19534970
   0.83332494 -0.00000840  0.19532183
   0.83333925  0.33333559  0.19530771
   0.83334795  0.66667291  0.19531070
   0.00000198 -0.00001256  0.25859563
  -0.00001989  0.33331574  0.25858721
  -0.00001876  0.66668542  0.25857432
   0.33333487 -0.00007327  0.25857117
   0.33333103  0.33333564  0.25866001
   0.33335093  0.66668656  0.25858721
   0.66665893  0.00000774  0.25860371
   0.66673994  0.33333180  0.25857117
   0.66667923  0.66666469  0.25859563
   0.16664907  0.16664678  0.25858721
   0.16666897  0.49999770  0.25866001
   0.16666513  0.83340661  0.25857117
   0.50001876  0.16664791  0.25857432
   0.50001989  0.50001760  0.25858721
   0.49999802  0.83334590  0.25859563
   0.83332077  0.16666864  0.25859563
   0.83326006  0.50000154  0.25857117
   0.83334107  0.83332560  0.25860371
  -0.00001416  0.16665251  0.32136741
  -0.00004286  0.50002325  0.32132425
   0.00001036  0.83328677  0.32136834
   0.33335658  0.16662380  0.32132425
   0.33333917  0.50000584  0.32129715
   0.33333063  0.83323754  0.32139084
   0.66662010  0.16667703  0.32136834
   0.66657087  0.49999729  0.32139084
   0.66666256  0.83332923  0.32136258
   0.16666937  0.00009579  0.32139084
   0.16666083  0.33332750  0.32129715
   0.16664342  0.66670953  0.32132425
   0.49998964  0.00004657  0.32136834
   0.50004286  0.33331009  0.32132425
   0.50001416  0.66668083  0.32136741
   0.83333744  0.00000410  0.32136258
   0.83342913  0.33333604  0.32139084
   0.83337990  0.66665630  0.32136834
  -0.00001063 -0.00002510  0.38484817
   0.00005750  0.33339160  0.38492516
   0.00001903  0.66664764  0.38488261
   0.33334180 -0.00014459  0.38483873
   0.33340157  0.33326509  0.38469039
   0.33327506  0.66660917  0.38492516
   0.66666016  0.00000650  0.38485027
   0.66681126  0.33332487  0.38483873
   0.66669176  0.66667730  0.38484817
   0.16672494  0.16672416  0.38492516
   0.16659843  0.50006824  0.38469039
   0.16665820  0.83347792  0.38483873
   0.49998097  0.16668570  0.38488261
   0.49994250  0.49994173  0.38492516
   0.50001063  0.83335843  0.38484817
   0.83330824  0.16665603  0.38484817
   0.83318874  0.50000846  0.38483873
   0.83333984  0.83332683  0.38485027
   0.00001453  0.16668119  0.44737557
  -0.00049288  0.50014359  0.44717934
   0.00000494  0.83331810  0.44736480
   0.33347692  0.16617379  0.44717934
   0.33462925  0.50129592  0.44671673
   0.33331132  0.83328067  0.44736885
   0.66665144  0.16667161  0.44736480
   0.66661400  0.49997799  0.44736885
   0.66665984  0.83332650  0.44734844
   0.16668868  0.00005266  0.44736885
   0.16537075  0.33203741  0.44671673
   0.16652308  0.66715954  0.44717934
   0.49999506  0.00001523  0.44736480
   0.50049288  0.33318974  0.44717934
   0.49998547  0.66665214  0.44737557
   0.83334016  0.00000683  0.44734844
   0.83338600  0.33335534  0.44736885
   0.83334856  0.66666173  0.44736480
   0.25000000  0.41666667  0.50151900
   0.25000000  0.41666667  0.53038913
Direct configuration=     5
   0.00000000  0.00000000  0.00000000
   0.00000000  0.33333333  0.00000000
   0.00000000  0.66666667  0.00000000
   0.33333333  0.00000000  0.00000000
   0.33333333  0.33333333  0.00000000
   0.33333333  0.66666667  0.00000000
   0.66666667  0.00000000  0.00000000
   0.66666667  0.33333333  0.00000000
   0.66666667  0.66666667  0.00000000
   0.16666667  0.16666667  0.00000000
   0.16666667  0.50000000  0.00000000
   0.16666667  0.83333333  0.00000000
   0.50000000  0.16666667  0.00000000
   0.50000000  0.50000000  0.00000000
   0.50000000  0.83333333  0.00000000
   0.83333333  0.16666667  0.00000000
   0.83333333  0.50000000  0.00000000
   0.83333333  0.83333333  0.00000000
   0.00000000  0.16666667  0.06551164
   0.00000000  0.50000000  0.06551164
   0.00000000  0.83333333  0.06551164
   0.33333333  0.16666667  0.06551164
   0.33333333  0.50000000  0.06551164
   0.33333333  0.83333333  0.06551164
   0.66666667  0.16666667  0.06551164
   0.66666667  0.50000000  0.06551164
   0.66666667  0.83333333  0.06551164
   0.16666667  0.00000000  0.06551164
   0.16666667  0.33333333  0.06551164
   0.16666667  0.66666667  0.06551164
   0.50000000  0.00000000  0.06551164
   0.50000000  0.33333333  0.06551164
   0.50000000  0.66666667  0.06551164
   0.83333333  0.00000000  0.06551164
   0.83333333  0.33333333  0.06551164
   0.83333333  0.66666667  0.06551164
   0.00000000  0.00000000  0.13119553
   0.00000000  0.33333333  0.13119553
   0.00000000  0.66666667  0.13119553
   0.33333333  0.00000000  0.13119553
   0.33333333  0.33333333  0.13119553
   0.33333333  0.66666667  0.13119553
   0.66666667  0.00000000  0.13119553
   0.66666667  0.33333333  0.13119553
   0.66666667  0.66666667  0.13119553
   0.16666667  0.16666667  0.13119553
   0.16666667  0.50000000  0.13119553
   0.16666667  0.83333333  0.13119553
   0.50000000  0.16666667  0.13119553
   0.50000000  0.50000000  0.13119553
   0.50000000  0.83333333  0.13119553
   0.83333333  0.16666667  0.13119553
   0.83333333  0.50000000  0.13119553
   0.83333333  0.83333333  0.13119553
   0.00000690  0.16667357  0.19482984
   0.00001138  0.50001026  0.19484312
  -0.00001043  0.83331026  0.19476698
   0.33334359  0.16667805  0.19484312
   0.33332496  0.49999163  0.19479681
   0.33333018  0.83332297  0.19476185
   0.66664360  0.16665624  0.19476698
   0.66665631  0.49999684  0.19476185
   0.66668012  0.83334678  0.19478519
   0.16666982  0.00001036  0.19476185
   0.16667504  0.33334170  0.19479681
   0.16665641  0.66665529  0.19484312
   0.50001043  0.00002307  0.19476698
   0.49998862  0.33332308  0.19484312
   0.49999310  0.66665976  0.19482984
   0.83331988 -0.00001345  0.19478519
   0.83334369  0.33333649  0.19476185
   0.83335640  0.66667710  0.19476698
   0.00000351 -0.00002123  0.25849257
  -0.00003372  0.33330475  0.25847902
  -0.00003122  0.66669788  0.25845803
   0.33333558 -0.00012011  0.25845323
   0.33333020  0.33333646  0.25859549
   0.33336192  0.66670039  0.25847902
   0.66665414  0.00001252  0.25850554
   0.66678678  0.33333109  0.25845323
   0.66668790  0.66666315  0.25849257
   0.16663808  0.16663295  0.25847902
   0.16666980  0.49999687  0.25859549
   0.16666442  0.83345345  0.25845323
   0.50003122  0.16663545  0.25845803
   0.50003372  0.50002859  0.25847902
   0.49999649  0.83335457  0.25849257
   0.83331210  0.16667018  0.25849257
   0.83321322  0.50000225  0.25845323
   0.83334586  0.83332081  0.25850554
  -0.00002106  0.16664560  0.32146831
  -0.00007426  0.50003680  0.32139732
   0.00001760  0.83325785  0.32146868
   0.33337014  0.16659240  0.32139732
   0.33334742  0.50001409  0.32135438
   0.33332839  0.83317719  0.32150496
   0.66659118  0.16668426  0.32146868
   0.66651053  0.49999505  0.32150496
   0.66666002  0.83332669  0.32145946
   0.16667161  0.00015614  0.32150496
   0.16665258  0.33331924  0.32135438
   0.16662986  0.66674093  0.32139732
   0.49998240  0.00007548  0.32146868
   0.50007426  0.33329653  0.32139732
   0.50002106  0.66668773  0.32146831
   0.83333998  0.00000664  0.32145946
   0.83348947  0.33333828  0.32150496
   0.83340882  0.66664907  0.32146868
  -0.00001726 -0.00003947  0.38490476
   0.00007277  0.33342698  0.38501919
   0.00002855  0.66663812  0.38495771
   0.33334715 -0.00023748  0.38488728
   0.33344527  0.33322140  0.38464562
   0.33323968  0.66659390  0.38501919
   0.66665608  0.00001058  0.38490788
   0.66690415  0.33331952  0.38488728
   0.66670614  0.66668393  0.38490476
   0.16676032  0.16673944  0.38501919
   0.16655473  0.50011193  0.38464562
   0.16665285  0.83357082  0.38488728
   0.49997145  0.16669522  0.38495771
   0.49992723  0.49990635  0.38501919
   0.50001726  0.83337281  0.38490476
   0.83329386  0.16664940  0.38490476
   0.83309585  0.50001382  0.38488728
   0.83334392  0.83332275  0.38490788
   0.00000816  0.16667482  0.44738438
  -0.00080011  0.50023749  0.44706441
   0.00000597  0.83331200  0.44736706
   0.33357082  0.16586656  0.44706441
   0.33537816  0.50204483  0.44633873
   0.33329932  0.83325081  0.44737385
   0.66664533  0.16667264  0.44736706
   0.66658414  0.49996598  0.44737385
   0.66665531  0.83332197  0.44734005
   0.16670068  0.00008253  0.44737385
   0.16462184  0.33128850  0.44633873
   0.16642918  0.66746677  0.44706441
   0.49999403  0.00002134  0.44736706
   0.50080011  0.33309585  0.44706441
   0.49999184  0.66665851  0.44738438
   0.83334469  0.00001136  0.44734005
   0.83341586  0.33336735  0.44737385
   0.83335467  0.66666070  0.44736706
   0.25000000  0.41666667  0.50237744
   0.25000000  0.41666667  0.53074310
Direct configuration=     6
   0.00000000  0.00000000  0.00000000
   0.00000000  0.33333333  0.00000000
   0.00000000  0.66666667  0.00000000
   0.33333333  0.00000000  0.00000000
   0.33333333  0.33333333  0.00000000
   0.33333333  0.66666667  0.00000000
   0.66666667  0.00000000  0.00000000
   0.66666667  0.33333333  0.00000000
   0.66666667  0.66666667  0.00000000
   0.16666667  0.16666667  0.00000000
   0.16666667  0.50000000  0.00000000
   0.16666667  0.83333333  0.00000000
   0.50000000  0.16666667  0.00000000
   0.50000000  0.50000000  0.00000000
   0.50000000  0.83333333  0.00000000
   0.83333333  0.16666667  0.00000000
   0.83333333  0.50000000  0.00000000
   0.83333333  0.83333333  0.00000000
   0.00000000  0.16666667  0.06551164
   0.00000000  0.50000000  0.06551164
   0.00000000  0.83333333  0.06551164
   0.33333333  0.16666667  0.06551164
   0.33333333  0.50000000  0.06551164
   0.33333333  0.83333333  0.06551164
   0.66666667  0.16666667  0.06551164
   0.66666667  0.50000000  0.06551164
   0.66666667  0.83333333  0.06551164
   0.16666667  0.00000000  0.06551164
   0.16666667  0.33333333  0.06551164
   0.16666667  0.66666667  0.06551164
   0.50000000  0.00000000  0.06551164
   0.50000000  0.33333333  0.06551164
   0.50000000  0.66666667  0.06551164
   0.83333333  0.00000000  0.06551164
   0.83333333  0.33333333  0.06551164
   0.83333333  0.66666667  0.06551164
   0.00000000  0.00000000  0.13119553
   0.00000000  0.33333333  0.13119553
   0.00000000  0.66666667  0.13119553
   0.33333333  0.00000000  0.13119553
   0.33333333  0.33333333  0.13119553
   0.33333333  0.66666667  0.13119553
   0.66666667  0.00000000  0.13119553
   0.66666667  0.33333333  0.13119553
   0.66666667  0.66666667  0.13119553
   0.16666667  0.16666667  0.13119553
   0.16666667  0.50000000  0.13119553
   0.16666667  0.83333333  0.13119553
   0.50000000  0.16666667  0.13119553
   0.50000000  0.50000000  0.13119553