unknown system                          
           1
     5.133595    0.000000    0.000000
     2.566798    4.445824    0.000000
     0.000000    0.000000   29.670471
   Cu
    32
Direct configuration=     1
   0.00000000  0.00000000  0.00000000
   0.00000000  0.50000000  0.00000000
   0.50000000  0.00000000  0.00000000
   0.50000000  0.50000000  0.00000000
   0.16666667  0.16666667  0.07063526
   0.16666667  0.66666667  0.07063526
   0.66666667  0.16666667  0.07063526
   0.66666667  0.66666667  0.07063526
   0.33333333  0.33333333  0.14127053
   0.33333333  0.83333333  0.14127053
   0.83333333  0.33333333  0.14127053
   0.83333333  0.83333333  0.14127053
   0.00000000  0.00000000  0.21190579
   0.00000000  0.50000000  0.21190579
   0.50000000  0.00000000  0.21190579
   0.50000000  0.50000000  0.21190579
   0.16666667  0.16666667  0.28254106
   0.16666667  0.66666667  0.28254106
   0.66666667  0.16666667  0.28254106
   0.66666667  0.66666667  0.28254106
   0.33333333  0.33333333  0.35317632
   0.33333333  0.83333333  0.35317632
   0.83333333  0.33333333  0.35317632
   0.83333333  0.83333333  0.35317632
   0.00000000  0.00000000  0.42381158
   0.00000000  0.50000000  0.42381158
   0.50000000  0.00000000  0.42381158
   0.50000000  0.50000000  0.42381158
   0.16666667  0.16666667  0.49444685
   0.16666667  0.66666667  0.49444685
   0.66666667  0.16666667  0.49444685
   0.66666667  0.66666667  0.49444685
Direct configuration=     2
   0.00000000  0.00000000  0.00000000
   0.00000000  0.50000000  0.00000000
   0.50000000  0.00000000  0.00000000
   0.50000000  0.50000000  0.00000000
   0.16666667  0.16666667  0.07063526
   0.16666667  0.66666667  0.07063526
   0.66666667  0.16666667  0.07063526
   0.66666667  0.66666667  0.07063526
   0.33333333  0.33333333  0.14117870
   0.33333333  0.83333333  0.14117870
   0.83333333  0.33333333  0.14117870
   0.83333333  0.83333333  0.14117870
   0.00000000  0.00000000  0.21191542
   0.00000000  0.50000000  0.21191542
   0.50000000  0.00000000  0.21191542
   0.50000000  0.50000000  0.21191542
   0.16666667  0.16666667  0.28253916
   0.16666667  0.66666667  0.28253916
   0.66666667  0.16666667  0.28253916
   0.66666667  0.66666667  0.28253916
   0.33333333  0.33333333  0.35326089
   0.33333333  0.83333333  0.35326089
   0.83333333  0.33333333  0.35326089
   0.83333333  0.83333333  0.35326089
   0.00000000 -0.00000000  0.42345065
   0.00000000  0.50000000  0.42345065
   0.50000000  0.00000000  0.42345065
   0.50000000  0.50000000  0.42345065
   0.16666667  0.16666667  0.49421553
   0.16666667  0.66666667  0.49421553
   0.66666667  0.16666667  0.49421553
   0.66666667  0.66666667  0.49421553
Direct configuration=     3
   0.00000000  0.00000000  0.00000000
   0.00000000  0.50000000  0.00000000
   0.50000000  0.00000000  0.00000000
   0.50000000  0.50000000  0.00000000
   0.16666667  0.16666667  0.07063526
   0.16666667  0.66666667  0.07063526
   0.66666667  0.16666667  0.07063526
   0.66666667  0.66666667  0.07063526
   0.33333333  0.33333333  0.14090749
   0.33333333  0.83333333  0.14090749
   0.83333333  0.33333333  0.14090749
   0.83333333  0.83333333  0.14090749
   0.00000000  0.00000000  0.21194387
   0.00000000  0.50000000  0.21194387
   0.50000000  0.00000000  0.21194387
   0.50000000  0.50000000  0.21194387
   0.16666667  0.16666667  0.28253356
   0.16666667  0.66666667  0.28253356
   0.66666667  0.16666667  0.28253356
   0.66666667  0.66666667  0.28253356
   0.33333333  0.33333333  0.35351067
   0.33333333  0.83333333  0.35351067
   0.83333333  0.33333333  0.35351067
   0.83333333  0.83333333  0.35351067
   0.00000000 -0.00000000  0.42238469
   0.00000000  0.50000000  0.42238469
   0.50000000  0.00000000  0.42238469
   0.50000000  0.50000000  0.42238469
   0.16666667  0.16666667  0.49353234
   0.16666667  0.66666667  0.49353234
   0.66666667  0.16666667  0.49353234
   0.66666667  0.66666667  0.49353234
Direct configuration=     4
   0.00000000  0.00000000  0.00000000
   0.00000000  0.50000000  0.00000000
   0.50000000  0.00000000  0.00000000
   0.50000000  0.50000000  0.00000000
   0.16666667  0.16666667  0.07063526
   0.16666667  0.66666667  0.07063526
   0.66666667  0.16666667  0.07063526
   0.66666667  0.66666667  0.07063526
   0.33333333  0.33333333  0.14086944
   0.33333333  0.83333333  0.14086944
   0.83333333  0.33333333  0.14086944
   0.83333333  0.83333333  0.14086944
  -0.00000000  0.00000000  0.21188876
   0.00000000  0.50000000  0.21188876
   0.50000000  0.00000000  0.21188876
   0.50000000  0.50000000  0.21188876
   0.16666667  0.16666667  0.28258271
   0.16666667  0.66666667  0.28258271
   0.66666667  0.16666667  0.28258271
   0.66666667  0.66666667  0.28258271
   0.33333333  0.33333333  0.35332408
   0.33333333  0.83333333  0.35332408
   0.83333333  0.33333333  0.35332408
   0.83333333  0.83333333  0.35332408
   0.00000000 -0.00000000  0.42217076
   0.00000000  0.50000000  0.42217076
   0.50000000  0.00000000  0.42217076
   0.50000000  0.50000000  0.42217076
   0.16666667  0.16666667  0.49311570
   0.16666667  0.66666667  0.49311570
   0.66666667  0.16666667  0.49311570
   0.66666667  0.66666667  0.49311570
Direct configuration=     5
   0.00000000  0.00000000  0.00000000
   0.00000000  0.50000000  0.00000000
   0.50000000  0.00000000  0.00000000
   0.50000000  0.50000000  0.00000000
   0.16666667  0.16666667  0.07063526
   0.16666667  0.66666667  0.07063526
   0.66666667  0.16666667  0.07063526
   0.66666667  0.66666667  0.07063526
   0.33333333  0.33333333  0.14075528
   0.33333333  0.83333333  0.14075528
   0.83333333  0.33333333  0.14075528
   0.83333333  0.83333333  0.14075528
  -0.00000000  0.00000000  0.21172341
   0.00000000  0.50000000  0.21172341
   0.50000000  0.00000000  0.21172341
   0.50000000  0.50000000  0.21172341
   0.16666667  0.16666667  0.28273015
   0.16666667  0.66666667  0.28273015
   0.66666667  0.16666667  0.28273015
   0.66666667  0.66666667  0.28273015
   0.33333333  0.33333333  0.35276432
   0.33333333  0.83333333  0.35276432
   0.83333333  0.33333333  0.35276432
   0.83333333  0.83333333  0.35276432
   0.00000000 -0.00000000  0.42152895
   0.00000000  0.50000000  0.42152895
   0.50000000  0.00000000  0.42152895
   0.50000000  0.50000000  0.42152895
   0.16666667  0.16666667  0.49186577
   0.16666667  0.66666667  0.49186577
   0.66666667  0.16666667  0.49186577
   0.66666667  0.66666667  0.49186577
Direct configuration=     6
   0.00000000  0.00000000  0.00000000
   0.00000000  0.50000000  0.00000000
   0.50000000  0.00000000  0.00000000
   0.50000000  0.50000000  0.00000000
   0.16666667  0.16666667  0.07063526
   0.16666667  0.66666667  0.07063526
   0.66666667  0.16666667  0.07063526
   0.66666667  0.66666667  0.07063526
   0.33333333  0.33333333  0.14052695
   0.33333333  0.83333333  0.14052695
   0.83333333  0.33333333  0.14052695
   0.83333333  0.83333333  0.14052695
  -0.00000000 -0.00000000  0.21139273
   0.00000000  0.50000000  0.21139273
   0.50000000 -0.00000000  0.21139273
   0.50000000  0.50000000  0.21139273
   0.16666667  0.16666667  0.28302504
   0.16666667  0.66666667  0.28302504
   0.66666667  0.16666667  0.28302504
   0.66666667  0.66666667  0.28302504
   0.33333333  0.33333333  0.35164480
   0.33333333  0.83333333  0.35164480
   0.83333333  0.33333333  0.35164480
   0.83333333  0.83333333  0.35164480
   0.00000000 -0.00000000  0.42024535
   0.00000000  0.50000000  0.42024535
   0.50000000  0.00000000  0.42024535
   0.50000000  0.50000000  0.42024535
   0.16666667  0.16666667  0.48936592
   0.16666667  0.66666667  0.48936592
   0.66666667  0.16666667  0.48936592
   0.66666667  0.66666667  0.48936592
Direct configuration=     7
   0.00000000  0.00000000  0.00000000
   0.00000000  0.50000000  0.00000000
   0.50000000  0.00000000  0.00000000
   0.50000000  0.50000000  0.00000000
   0.16666667  0.16666667  0.07063526
   0.16666667  0.66666667  0.07063526
   0.66666667  0.16666667  0.07063526
   0.66666667  0.66666667  0.07063526
   0.33333333  0.33333333  0.14057743
   0.33333333  0.83333333  0.14057743
   0.83333333  0.33333333  0.14057743
   0.83333333  0.83333333  0.14057743
  -0.00000000 -0.00000000  0.21146583
   0.00000000  0.50000000  0.21146583
   0.50000000 -0.00000000  0.21146583
   0.50000000  0.50000000  0.21146583
   0.16666667  0.16666667  0.28295985
   0.16666667  0.66666667  0.28295985
   0.66666667  0.16666667  0.28295985
   0.66666667  0.66666667  0.28295985
   0.33333333  0.33333333  0.35189229
   0.33333333  0.83333333  0.35189229
   0.83333333  0.33333333  0.35189229
   0.83333333  0.83333333  0.35189229
   0.00000000 -0.00000000  0.42052911
   0.00000000  0.50000000  0.42052911
   0.50000000  0.00000000  0.42052911
   0.50000000  0.50000000  0.42052911
   0.16666667  0.16666667  0.48991855
   0.16666667  0.66666667  0.48991855
   0.66666667  0.16666667  0.48991855
   0.66666667  0.66666667  0.48991855
Direct configuration=     8
   0.00000000  0.00000000  0.00000000
   0.00000000  0.50000000  0.00000000
   0.50000000  0.00000000  0.00000000
   0.50000000  0.50000000  0.00000000
   0.16666667  0.16666667  0.07063526
   0.16666667  0.66666667  0.07063526
   0.66666667  0.16666667  0.07063526
   0.66666667  0.66666667  0.07063526
   0.33333333  0.33333333  0.14057192
   0.33333333  0.83333333  0.14057192
   0.83333333  0.33333333  0.14057192
   0.83333333  0.83333333  0.14057192
  -0.00000000 -0.00000000  0.21145822
   0.00000000  0.50000000  0.21145822
   0.50000000 -0.00000000  0.21145822
   0.50000000  0.50000000  0.21145822
   0.16666667  0.16666667  0.28273606
   0.16666667  0.66666667  0.28273606
   0.66666667  0.16666667  0.28273606
   0.66666667  0.66666667  0.28273606
   0.33333333  0.33333333  0.35168270
   0.33333333  0.83333333  0.35168270
   0.83333333  0.33333333  0.35168270
   0.83333333  0.83333333  0.35168270
   0.00000000 -0.00000000  0.42016059
   0.00000000  0.50000000  0.42016059
   0.50000000  0.00000000  0.42016059
   0.50000000  0.50000000  0.42016059
   0.16666667  0.16666667  0.48941326
   0.16666667  0.66666667  0.48941326
   0.66666667  0.16666667  0.48941326
   0.66666667  0.66666667  0.48941326
Direct configuration=     9
   0.00000000  0.00000000  0.00000000
   0.00000000  0.50000000  0.00000000
   0.50000000  0.00000000  0.00000000
   0.50000000  0.50000000  0.00000000
   0.16666667  0.16666667  0.07063526
   0.16666667  0.66666667  0.07063526
   0.66666667  0.16666667  0.07063526
   0.66666667  0.66666667  0.07063526
   0.33333333  0.33333333  0.14055542
   0.33333333  0.83333333  0.14055542
   0.83333333  0.33333333  0.14055542
   0.83333333  0.83333333  0.14055542
  -0.00000000 -0.00000000  0.21143540
   0.00000000  0.50000000  0.21143540
   0.50000000 -0.00000000  0.21143540
   0.50000000  0.50000000  0.21143540
   0.16666667  0.16666667  0.28206468
   0.16666667  0.66666667  0.28206468
   0.66666667  0.16666667  0.28206468
   0.66666667  0.66666667  0.28206468
   0.33333333  0.33333333  0.35105394
   0.33333333  0.83333333  0.35105394
   0.83333333  0.33333333  0.35105394
   0.83333333  0.83333333  0.35105394
   0.00000000 -0.00000000  0.41905502
   0.00000000  0.50000000  0.41905502
   0.50000000  0.00000000  0.41905502
   0.50000000  0.50000000  0.41905502
   0.16666667  0.16666667  0.48789740
   0.16666667  0.66666667  0.48789740
   0.66666667  0.16666667  0.48789740
   0.66666667  0.66666667  0.48789740
Direct configuration=    10
   0.00000000  0.00000000  0.00000000
   0.00000000  0.50000000  0.00000000
   0.50000000  0.00000000  0.00000000
   0.50000000  0.50000000  0.00000000
   0.16666667  0.16666667  0.07063526
   0.16666667  0.66666667  0.07063526
   0.66666667  0.16666667  0.07063526
   0.66666667  0.66666667  0.07063526
   0.33333333  0.33333333  0.14052240
   0.33333333  0.83333333  0.14052240
   0.83333333  0.33333333  0.14052240
   0.83333333  0.83333333  0.14052240
  -0.00000000 -0.00000000  0.21138975
   0.00000000  0.50000000  0.21138975
   0.50000000 -0.00000000  0.21138975
   0.50000000  0.50000000  0.21138975
   0.16666667  0.16666667  0.28072194
   0.16666667  0.66666667  0.28072194
   0.66666667  0.16666667  0.28072194
   0.66666667  0.66666667  0.28072194
   0.33333333  0.33333333  0.34979642
   0.33333333  0.83333333  0.34979642
   0.83333333  0.33333333  0.34979642
   0.83333333  0.83333333  0.34979642
   0.00000000 -0.00000000  0.41684389
   0.00000000  0.50000000  0.41684389
   0.50000000  0.00000000  0.41684389
   0.50000000  0.50000000  0.41684389
   0.16666667  0.16666667  0.48486566
   0.16666667  0.66666667  0.48486566
   0.66666667  0.16666667  0.48486566
   0.66666667  0.66666667  0.48486566
Direct configuration=    11
   0.00000000  0.00000000  0.00000000
   0.00000000  0.50000000  0.00000000
   0.50000000  0.00000000  0.00000000
   0.50000000  0.50000000  0.00000000
   0.16666667  0.16666667  0.07063526
   0.16666667  0.66666667  0.07063526
   0.66666667  0.16666667  0.07063526
   0.66666667  0.66666667  0.07063526
   0.33333333  0.33333333  0.14060286
   0.33333333  0.83333333  0.14060286
   0.83333333  0.33333333  0.14060286
   0.83333333  0.83333333  0.14060286
  -0.00000000 -0.00000000  0.21100626
   0.00000000  0.50000000  0.21100626
   0.50000000 -0.00000000  0.21100626
   0.50000000  0.50000000  0.21100626
   0.16666667  0.16666667  0.28009659
   0.16666667  0.66666667  0.28009659
   0.66666667  0.16666667  0.28009659
   0.66666667  0.66666667  0.28009659
   0.33333333  0.33333333  0.34882404
   0.33333333  0.83333333  0.34882404
   0.83333333  0.33333333  0.34882404
   0.83333333  0.83333333  0.34882404
   0.00000000 -0.00000000  0.41593170
   0.00000000  0.50000000  0.41593170
   0.50000000  0.00000000  0.41593170
   0.50000000  0.50000000  0.41593170
   0.16666667  0.16666667  0.48405156
   0.16666667  0.66666667  0.48405156
   0.66666667  0.16666667  0.48405156
   0.66666667  0.66666667  0.48405156
Direct configuration=    12
   0.00000000  0.00000000  0.00000000
   0.00000000  0.50000000  0.00000000
   0.50000000  0.00000000  0.00000000
   0.50000000  0.50000000  0.00000000
   0.16666667  0.16666667  0.07063526
   0.16666667  0.66666667  0.07063526
   0.66666667  0.16666667  0.07063526
   0.66666667  0.66666667  0.07063526
   0.33333333  0.33333333  0.14084424
   0.33333333  0.83333333  0.14084424
   0.83333333  0.33333333  0.14084424
   0.83333333  0.83333333  0.14084424
   0.00000000 -0.00000000  0.20985579
   0.00000000  0.50000000  0.20985579
   0.50000000 -0.00000000  0.20985579
   0.50000000  0.50000000  0.20985579
   0.16666667  0.16666667  0.27822054
   0.16666667  0.66666667  0.27822054
   0.66666667  0.16666667  0.27822054
   0.66666667  0.66666667  0.27822054
   0.33333333  0.33333333  0.34590691
   0.33333333  0.83333333  0.34590691
   0.83333333  0.33333333  0.34590691
   0.83333333  0.83333333  0.34590691
   0.00000000 -0.00000000  0.41319512
   0.00000000  0.50000000  0.41319512
   0.50000000  0.00000000  0.41319512
   0.50000000  0.50000000  0.41319512
   0.16666667  0.16666667  0.48160923
   0.16666667  0.66666667  0.48160923
   0.66666667  0.16666667  0.48160923
   0.66666667  0.66666667  0.48160923
Direct configuration=    13
   0.00000000  0.00000000  0.00000000
   0.00000000  0.50000000  0.00000000
   0.50000000  0.00000000  0.00000000
   0.50000000  0.50000000  0.00000000
   0.16666667  0.16666667  0.07063526
   0.16666667  0.66666667  0.07063526
   0.66666667  0.16666667  0.07063526
   0.66666667  0.66666667  0.07063526
   0.33333333  0.33333333  0.14018090
   0.33333333  0.83333333  0.14018090
   0.83333333  0.33333333  0.14018090
   0.83333333  0.83333333  0.14018090
  -0.00000000 -0.00000000  0.20932954
   0.00000000  0.50000000  0.20932954
   0.50000000 -0.00000000  0.20932954
   0.50000000  0.50000000  0.20932954
   0.16666667  0.16666667  0.27742852
   0.16666667  0.66666667  0.27742852
   0.66666667  0.16666667  0.27742852
   0.66666667  0.66666667  0.27742852
   0.33333333  0.33333333  0.34527533
   0.33333333  0.83333333  0.34527533
   0.83333333  0.33333333  0.34527533
   0.83333333  0.83333333  0.34527533
   0.00000000 -0.00000000  0.41255988
   0.00000000  0.50000000  0.41255988
   0.50000000  0.00000000  0.41255988
   0.50000000  0.50000000  0.41255988
   0.16666667  0.16666667  0.48144606
   0.16666667  0.66666667  0.48144606
   0.66666667  0.16666667  0.48144606
   0.66666667  0.66666667  0.48144606
Direct configuration=    14
   0.00000000  0.00000000  0.00000000
   0.00000000  0.50000000  0.00000000
   0.50000000  0.00000000  0.00000000
   0.50000000  0.50000000  0.00000000
   0.16666667  0.16666667  0.07063526
   0.16666667  0.66666667  0.07063526
   0.66666667  0.16666667  0.07063526
   0.66666667  0.66666667  0.07063526
   0.33333333  0.33333333  0.13890533
   0.33333333  0.83333333  0.13890533
   0.83333333  0.33333333  0.13890533
   0.83333333  0.83333333  0.13890533
  -0.00000000 -0.00000000  0.20831757
   0.00000000  0.50000000  0.20831757
   0.50000000 -0.00000000  0.20831757
   0.50000000  0.50000000  0.20831757
   0.16666667  0.16666667  0.27590549
   0.16666667  0.66666667  0.27590549
   0.66666667  0.16666667  0.27590549
   0.66666667  0.66666667  0.27590549
   0.33333333  0.33333333  0.34406083
   0.33333333  0.83333333  0.34406083
   0.83333333  0.33333333  0.34406083
   0.83333333  0.83333333  0.34406083
   0.00000000  0.00000000  0.41133834
   0.00000000  0.50000000  0.41133834
   0.50000000  0.00000000  0.41133834
   0.50000000  0.50000000  0.41133834
   0.16666667  0.16666667  0.48113227
   0.16666667  0.66666667  0.48113227
   0.66666667  0.16666667  0.48113227
   0.66666667  0.66666667  0.48113227
Direct configuration=    15
   0.00000000  0.00000000  0.00000000
   0.00000000  0.50000000  0.00000000
   0.50000000  0.00000000  0.00000000
   0.50000000  0.50000000  0.00000000
   0.16666667  0.16666667  0.07063526
   0.16666667  0.66666667  0.07063526
   0.66666667  0.16666667  0.07063526
   0.66666667  0.66666667  0.07063526
   0.33333333  0.33333333  0.13851860
   0.33333333  0.83333333  0.13851860
   0.83333333  0.33333333  0.13851860
   0.83333333  0.83333333  0.13851860
  -0.00000000 -0.00000000  0.20742972
   0.00000000  0.50000000  0.20742972
   0.50000000 -0.00000000  0.20742972
   0.50000000  0.50000000  0.20742972
   0.16666667  0.16666667  0.27540120
   0.16666667  0.66666667  0.27540120
   0.66666667  0.16666667  0.27540120
   0.66666667  0.66666667  0.27540120
   0.33333333  0.33333333  0.34342586
   0.33333333  0.83333333  0.34342586
   0.83333333  0.33333333  0.34342586
   0.83333333  0.83333333  0.34342586
   0.00000000  0.00000000  0.41109611
   0.00000000  0.50000000  0.41109611
   0.50000000  0.00000000  0.41109611
   0.50000000  0.50000000  0.41109611
   0.16666667  0.16666667  0.48089592
   0.16666667  0.66666667  0.48089592
   0.66666667  0.16666667  0.48089592
   0.66666667  0.66666667  0.48089592
Direct configuration=    16
   0.00000000  0.00000000  0.00000000
   0.00000000  0.50000000  0.00000000
   0.50000000  0.00000000  0.00000000
   0.50000000  0.50000000  0.00000000
   0.16666667  0.16666667  0.07063526
   0.16666667  0.66666667  0.07063526
   0.66666667  0.16666667  0.07063526
   0.66666667  0.66666667  0.07063526
   0.33333333  0.33333333  0.13825877
   0.33333333  0.83333333  0.13825877
   0.83333333  0.33333333  0.13825877
   0.83333333  0.83333333  0.13825877
  -0.00000000 -0.00000000  0.20683321
   0.00000000  0.50000000  0.20683321
   0.50000000 -0.00000000  0.20683321
   0.50000000  0.50000000  0.20683321
   0.16666667  0.16666667  0.27506238
   0.16666667  0.66666667  0.27506238
   0.66666667  0.16666667  0.27506238
   0.66666667  0.66666667  0.27506238
   0.33333333  0.33333333  0.34299925
   0.33333333  0.83333333  0.34299925
   0.83333333  0.33333333  0.34299925
   0.83333333  0.83333333  0.34299925
   0.00000000  0.00000000  0.41093336
   0.00000000  0.50000000  0.41093336
   0.50000000  0.00000000  0.41093336
   0.50000000  0.50000000  0.41093336
   0.16666667  0.16666667  0.48073712
   0.16666667  0.66666667  0.48073712
   0.66666667  0.16666667  0.48073712
   0.66666667  0.66666667  0.48073712
Direct configuration=    17
   0.00000000  0.00000000  0.00000000
   0.00000000  0.50000000  0.00000000
   0.50000000  0.00000000  0.00000000
   0.50000000  0.50000000  0.00000000
   0.16666667  0.16666667  0.07063526
   0.16666667  0.66666667  0.07063526
   0.66666667  0.16666667  0.07063526
   0.66666667  0.66666667  0.07063526
   0.33333333  0.33333333  0.13839810
   0.33333333  0.83333333  0.13839810
   0.83333333  0.33333333  0.13839810
   0.83333333  0.83333333  0.13839810
  -0.00000000 -0.00000000  0.20672848
   0.00000000  0.50000000  0.20672848
   0.50000000 -0.00000000  0.20672848
   0.50000000  0.50000000  0.20672848
   0.16666667  0.16666667  0.27494786
   0.16666667  0.66666667  0.27494786
   0.66666667  0.16666667  0.27494786
   0.66666667  0.66666667  0.27494786
   0.33333333  0.33333333  0.34313098
   0.33333333  0.83333333  0.34313098
   0.83333333  0.33333333  0.34313098
   0.83333333  0.83333333  0.34313098
   0.00000000  0.00000000  0.41101567
   0.00000000  0.50000000  0.41101567
   0.50000000  0.00000000  0.41101567
   0.50000000  0.50000000  0.41101567
   0.16666667  0.16666667  0.48061027
   0.16666667  0.66666667  0.48061027
   0.66666667  0.16666667  0.48061027
   0.66666667  0.66666667  0.48061027
Direct configuration=    18
   0.00000000  0.00000000  0.00000000
   0.00000000  0.50000000  0.00000000
   0.50000000  0.00000000  0.00000000
   0.50000000  0.50000000  0.00000000
   0.16666667  0.16666667  0.07063526
   0.16666667  0.66666667  0.07063526
   0.66666667  0.16666667  0.07063526
   0.66666667  0.66666667  0.07063526
   0.33333333  0.33333333  0.13847021
   0.33333333  0.83333333  0.13847021
   0.83333333  0.33333333  0.13847021
   0.83333333  0.83333333  0.13847021
  -0.00000000 -0.00000000  0.20667428
   0.00000000  0.50000000  0.20667428
   0.50000000 -0.00000000  0.20667428
   0.50000000  0.50000000  0.20667428
   0.16666667  0.16666667  0.27488859
   0.16666667  0.66666667  0.27488859
   0.66666667  0.16666667  0.27488859
   0.66666667  0.66666667  0.27488859
   0.33333333  0.33333333  0.34319917
   0.33333333  0.83333333  0.34319917
   0.83333333  0.33333333  0.34319917
   0.83333333  0.83333333  0.34319917
   0.00000000  0.00000000  0.41105828
   0.00000000  0.50000000  0.41105828
   0.50000000  0.00000000  0.41105828
   0.50000000  0.50000000  0.41105828
   0.16666667  0.16666667  0.48054462
   0.16666667  0.66666667  0.48054462
   0.66666667  0.16666667  0.48054462
   0.66666667  0.66666667  0.48054462
