  34  34   0   0
  0.2629040E+02  0.7260000E-09  0.5133596E-09  0.2398379E-08  0.5000000E-15
  1.000000000000000E-004
  CAR 
 unknown system                          
     11.85890441    -10.28578463  301      0.76856604      1.00000000
    -10.286  0.0000E+00  0.0000E+00  0.0000E+00  0.0000E+00
    -10.212  0.0000E+00  0.0000E+00  0.0000E+00  0.0000E+00
    -10.138  0.0000E+00  0.0000E+00  0.0000E+00  0.0000E+00
    -10.064  0.0000E+00  0.0000E+00  0.0000E+00  0.0000E+00
     -9.991  0.0000E+00  0.0000E+00  0.0000E+00  0.0000E+00
     -9.917 -0.5712E-31 -0.5712E-31 -0.4216E-32 -0.4216E-32
     -9.843 -0.1952E-28 -0.1952E-28 -0.1445E-29 -0.1445E-29
     -9.769 -0.5077E-26 -0.5077E-26 -0.3762E-27 -0.3762E-27
     -9.695 -0.1003E-23 -0.1003E-23 -0.7441E-25 -0.7441E-25
     -9.621 -0.1504E-21 -0.1504E-21 -0.1118E-22 -0.1118E-22
     -9.548 -0.1712E-19 -0.1712E-19 -0.1275E-20 -0.1275E-20
     -9.474 -0.1477E-17 -0.1477E-17 -0.1103E-18 -0.1103E-18
     -9.400 -0.9349E-16 -0.9349E-16 -0.7012E-17 -0.7012E-17
     -9.326 -0.4612E-14 -0.4612E-14 -0.3474E-15 -0.3474E-15
     -9.252 -0.1718E-12 -0.1718E-12 -0.1303E-13 -0.1303E-13
     -9.179 -0.4826E-11 -0.4826E-11 -0.3692E-12 -0.3692E-12
     -9.105 -0.1020E-09 -0.1020E-09 -0.7898E-11 -0.7898E-11
     -9.031 -0.1617E-08 -0.1617E-08 -0.1272E-09 -0.1272E-09
     -8.957 -0.1912E-07 -0.1912E-07 -0.1539E-08 -0.1539E-08
     -8.883 -0.1676E-06 -0.1676E-06 -0.1391E-07 -0.1391E-07
     -8.809 -0.1075E-05 -0.1075E-05 -0.9323E-07 -0.9323E-07
     -8.736 -0.4937E-05 -0.4937E-05 -0.4576E-06 -0.4576E-06
     -8.662 -0.1553E-04 -0.1553E-04 -0.1604E-05 -0.1604E-05
     -8.588 -0.2950E-04 -0.2950E-04 -0.3781E-05 -0.3781E-05
     -8.514 -0.1438E-04 -0.1438E-04 -0.4843E-05 -0.4843E-05
     -8.440  0.9168E-04  0.9168E-04  0.1925E-05  0.1925E-05
     -8.367  0.3004E-03  0.3004E-03  0.2410E-04  0.2410E-04
     -8.293  0.4856E-03  0.4856E-03  0.5994E-04  0.5994E-04
     -8.219  0.4992E-03  0.4992E-03  0.9679E-04  0.9679E-04
     -8.145  0.4260E-03  0.4260E-03  0.1282E-03  0.1282E-03
     -8.071  0.5361E-03  0.5361E-03  0.1678E-03  0.1678E-03
     -7.998  0.8619E-03  0.8619E-03  0.2314E-03  0.2314E-03
     -7.924  0.1061E-02  0.1061E-02  0.3098E-03  0.3098E-03
     -7.850  0.9130E-03  0.9130E-03  0.3772E-03  0.3772E-03
     -7.776  0.6922E-03  0.6922E-03  0.4283E-03  0.4283E-03
     -7.702  0.7412E-03  0.7412E-03  0.4830E-03  0.4830E-03
     -7.628  0.9187E-03  0.9187E-03  0.5508E-03  0.5508E-03
     -7.555  0.9173E-03  0.9173E-03  0.6185E-03  0.6185E-03
     -7.481  0.9501E-03  0.9501E-03  0.6886E-03  0.6886E-03
     -7.407  0.1503E-02  0.1503E-02  0.7996E-03  0.7996E-03
     -7.333  0.2367E-02  0.2367E-02  0.9743E-03  0.9743E-03
     -7.259  0.2663E-02  0.2663E-02  0.1171E-02  0.1171E-02
     -7.186  0.2133E-02  0.2133E-02  0.1328E-02  0.1328E-02
     -7.112  0.1612E-02  0.1612E-02  0.1447E-02  0.1447E-02
     -7.038  0.1754E-02  0.1754E-02  0.1577E-02  0.1577E-02
     -6.964  0.2065E-02  0.2065E-02  0.1729E-02  0.1729E-02
     -6.890  0.1800E-02  0.1800E-02  0.1862E-02  0.1862E-02
     -6.816  0.1115E-02  0.1115E-02  0.1944E-02  0.1944E-02
     -6.743  0.6941E-03  0.6941E-03  0.1996E-02  0.1996E-02
     -6.669  0.7440E-03  0.7440E-03  0.2051E-02  0.2051E-02
     -6.595  0.1114E-02  0.1114E-02  0.2133E-02  0.2133E-02
     -6.521  0.1960E-02  0.1960E-02  0.2277E-02  0.2277E-02
     -6.447  0.3331E-02  0.3331E-02  0.2523E-02  0.2523E-02
     -6.374  0.4349E-02  0.4349E-02  0.2844E-02  0.2844E-02
     -6.300  0.3998E-02  0.3998E-02  0.3139E-02  0.3139E-02
     -6.226  0.2602E-02  0.2602E-02  0.3332E-02  0.3332E-02
     -6.152  0.1406E-02  0.1406E-02  0.3435E-02  0.3435E-02
     -6.078  0.9934E-03  0.9934E-03  0.3509E-02  0.3509E-02
     -6.004  0.1050E-02  0.1050E-02  0.3586E-02  0.3586E-02
     -5.931  0.1239E-02  0.1239E-02  0.3678E-02  0.3678E-02
     -5.857  0.1595E-02  0.1595E-02  0.3795E-02  0.3795E-02
     -5.783  0.2500E-02  0.2500E-02  0.3980E-02  0.3980E-02
     -5.709  0.4394E-02  0.4394E-02  0.4304E-02  0.4304E-02
     -5.635  0.6896E-02  0.6896E-02  0.4813E-02  0.4813E-02
     -5.562  0.8573E-02  0.8573E-02  0.5446E-02  0.5446E-02
     -5.488  0.8293E-02  0.8293E-02  0.6058E-02  0.6058E-02
     -5.414  0.6328E-02  0.6328E-02  0.6525E-02  0.6525E-02
     -5.340  0.3924E-02  0.3924E-02  0.6815E-02  0.6815E-02
     -5.266  0.2462E-02  0.2462E-02  0.6997E-02  0.6997E-02
     -5.193  0.2902E-02  0.2902E-02  0.7211E-02  0.7211E-02
     -5.119  0.5153E-02  0.5153E-02  0.7591E-02  0.7591E-02
     -5.045  0.7830E-02  0.7830E-02  0.8169E-02  0.8169E-02
     -4.971  0.9158E-02  0.9158E-02  0.8845E-02  0.8845E-02
     -4.897  0.8396E-02  0.8396E-02  0.9465E-02  0.9465E-02
     -4.823  0.6133E-02  0.6133E-02  0.9918E-02  0.9918E-02
     -4.750  0.3385E-02  0.3385E-02  0.1017E-01  0.1017E-01
     -4.676  0.1083E-02  0.1083E-02  0.1025E-01  0.1025E-01
     -4.602  0.1635E-03  0.1635E-03  0.1026E-01  0.1026E-01
     -4.528  0.1325E-02  0.1325E-02  0.1036E-01  0.1036E-01
     -4.454  0.4463E-02  0.4463E-02  0.1069E-01  0.1069E-01
     -4.381  0.8369E-02  0.8369E-02  0.1130E-01  0.1130E-01
     -4.307  0.1125E-01  0.1125E-01  0.1214E-01  0.1214E-01
     -4.233  0.1213E-01  0.1213E-01  0.1303E-01  0.1303E-01
     -4.159  0.1186E-01  0.1186E-01  0.1391E-01  0.1391E-01
     -4.085  0.1247E-01  0.1247E-01  0.1483E-01  0.1483E-01
     -4.011  0.1497E-01  0.1497E-01  0.1593E-01  0.1593E-01
     -3.938  0.1818E-01  0.1818E-01  0.1727E-01  0.1727E-01
     -3.864  0.2028E-01  0.2028E-01  0.1877E-01  0.1877E-01
     -3.790  0.2129E-01  0.2129E-01  0.2034E-01  0.2034E-01
     -3.716  0.2266E-01  0.2266E-01  0.2201E-01  0.2201E-01
     -3.642  0.2453E-01  0.2453E-01  0.2382E-01  0.2382E-01
     -3.569  0.2589E-01  0.2589E-01  0.2574E-01  0.2574E-01
     -3.495  0.2745E-01  0.2745E-01  0.2776E-01  0.2776E-01
     -3.421  0.3142E-01  0.3142E-01  0.3008E-01  0.3008E-01
     -3.347  0.3767E-01  0.3767E-01  0.3286E-01  0.3286E-01
     -3.273  0.4245E-01  0.4245E-01  0.3600E-01  0.3600E-01
     -3.199  0.4272E-01  0.4272E-01  0.3915E-01  0.3915E-01
     -3.126  0.3993E-01  0.3993E-01  0.4210E-01  0.4210E-01
     -3.052  0.3729E-01  0.3729E-01  0.4485E-01  0.4485E-01
     -2.978  0.3557E-01  0.3557E-01  0.4747E-01  0.4747E-01
     -2.904  0.3428E-01  0.3428E-01  0.5000E-01  0.5000E-01
     -2.830  0.3492E-01  0.3492E-01  0.5258E-01  0.5258E-01
     -2.757  0.3961E-01  0.3961E-01  0.5551E-01  0.5551E-01
     -2.683  0.4729E-01  0.4729E-01  0.5900E-01  0.5900E-01
     -2.609  0.5396E-01  0.5396E-01  0.6298E-01  0.6298E-01
     -2.535  0.5691E-01  0.5691E-01  0.6718E-01  0.6718E-01
     -2.461  0.5712E-01  0.5712E-01  0.7140E-01  0.7140E-01
     -2.388  0.5783E-01  0.5783E-01  0.7567E-01  0.7567E-01
     -2.314  0.6160E-01  0.6160E-01  0.8021E-01  0.8021E-01
     -2.240  0.6831E-01  0.6831E-01  0.8525E-01  0.8525E-01
     -2.166  0.7540E-01  0.7540E-01  0.9082E-01  0.9082E-01
     -2.092  0.7944E-01  0.7944E-01  0.9668E-01  0.9668E-01
     -2.018  0.7836E-01  0.7836E-01  0.1025E+00  0.1025E+00
     -1.945  0.7304E-01  0.7304E-01  0.1079E+00  0.1079E+00
     -1.871  0.6648E-01  0.6648E-01  0.1128E+00  0.1128E+00
     -1.797  0.6117E-01  0.6117E-01  0.1173E+00  0.1173E+00
     -1.723  0.5802E-01  0.5802E-01  0.1216E+00  0.1216E+00
     -1.649  0.5745E-01  0.5745E-01  0.1258E+00  0.1258E+00
     -1.576  0.6020E-01  0.6020E-01  0.1303E+00  0.1303E+00
     -1.502  0.6581E-01  0.6581E-01  0.1351E+00  0.1351E+00
     -1.428  0.7125E-01  0.7125E-01  0.1404E+00  0.1404E+00
     -1.354  0.7377E-01  0.7377E-01  0.1458E+00  0.1458E+00
     -1.280  0.7470E-01  0.7470E-01  0.1513E+00  0.1513E+00
     -1.206  0.7682E-01  0.7682E-01  0.1570E+00  0.1570E+00
     -1.133  0.7961E-01  0.7961E-01  0.1629E+00  0.1629E+00
     -1.059  0.8170E-01  0.8170E-01  0.1689E+00  0.1689E+00
     -0.985  0.8560E-01  0.8560E-01  0.1752E+00  0.1752E+00
     -0.911  0.9426E-01  0.9426E-01  0.1822E+00  0.1822E+00
     -0.837  0.1037E+00  0.1037E+00  0.1898E+00  0.1898E+00
     -0.764  0.1040E+00  0.1040E+00  0.1975E+00  0.1975E+00
     -0.690  0.8874E-01  0.8874E-01  0.2041E+00  0.2041E+00
     -0.616  0.6187E-01  0.6187E-01  0.2086E+00  0.2086E+00
     -0.542  0.3487E-01  0.3487E-01  0.2112E+00  0.2112E+00
     -0.468  0.1696E-01  0.1696E-01  0.2125E+00  0.2125E+00
     -0.394  0.9493E-02  0.9493E-02  0.2132E+00  0.2132E+00
     -0.321  0.8271E-02  0.8271E-02  0.2138E+00  0.2138E+00
     -0.247  0.8476E-02  0.8476E-02  0.2144E+00  0.2144E+00
     -0.173  0.7341E-02  0.7341E-02  0.2149E+00  0.2149E+00
     -0.099  0.4617E-02  0.4617E-02  0.2153E+00  0.2153E+00
     -0.025  0.1777E-02  0.1777E-02  0.2154E+00  0.2154E+00
      0.048  0.4619E-03  0.4619E-03  0.2154E+00  0.2154E+00
      0.122  0.1274E-02  0.1274E-02  0.2155E+00  0.2155E+00
      0.196  0.3593E-02  0.3593E-02  0.2158E+00  0.2158E+00
      0.270  0.6171E-02  0.6171E-02  0.2163E+00  0.2163E+00
      0.344  0.8087E-02  0.8087E-02  0.2169E+00  0.2169E+00
      0.417  0.9436E-02  0.9436E-02  0.2176E+00  0.2176E+00
      0.491  0.1086E-01  0.1086E-01  0.2184E+00  0.2184E+00
      0.565  0.1212E-01  0.1212E-01  0.2192E+00  0.2192E+00
      0.639  0.1191E-01  0.1191E-01  0.2201E+00  0.2201E+00
      0.713  0.9723E-02  0.9723E-02  0.2208E+00  0.2208E+00
      0.787  0.6989E-02  0.6989E-02  0.2214E+00  0.2214E+00
      0.860  0.5435E-02  0.5435E-02  0.2218E+00  0.2218E+00
      0.934  0.5379E-02  0.5379E-02  0.2222E+00  0.2222E+00
      1.008  0.6121E-02  0.6121E-02  0.2226E+00  0.2226E+00
      1.082  0.6966E-02  0.6966E-02  0.2231E+00  0.2231E+00
      1.156  0.7262E-02  0.7262E-02  0.2237E+00  0.2237E+00
      1.229  0.6336E-02  0.6336E-02  0.2241E+00  0.2241E+00
      1.303  0.4334E-02  0.4334E-02  0.2244E+00  0.2244E+00
      1.377  0.2685E-02  0.2685E-02  0.2246E+00  0.2246E+00
      1.451  0.2915E-02  0.2915E-02  0.2249E+00  0.2249E+00
      1.525  0.4882E-02  0.4882E-02  0.2252E+00  0.2252E+00
      1.599  0.6637E-02  0.6637E-02  0.2257E+00  0.2257E+00
      1.672  0.6634E-02  0.6634E-02  0.2262E+00  0.2262E+00
      1.746  0.5687E-02  0.5687E-02  0.2266E+00  0.2266E+00
      1.820  0.5665E-02  0.5665E-02  0.2270E+00  0.2270E+00
      1.894  0.6772E-02  0.6772E-02  0.2275E+00  0.2275E+00
      1.968  0.7647E-02  0.7647E-02  0.2281E+00  0.2281E+00
      2.041  0.7661E-02  0.7661E-02  0.2287E+00  0.2287E+00
      2.115  0.7441E-02  0.7441E-02  0.2292E+00  0.2292E+00
      2.189  0.7403E-02  0.7403E-02  0.2298E+00  0.2298E+00
      2.263  0.7224E-02  0.7224E-02  0.2303E+00  0.2303E+00
      2.337  0.6752E-02  0.6752E-02  0.2308E+00  0.2308E+00
      2.411  0.6429E-02  0.6429E-02  0.2313E+00  0.2313E+00
      2.484  0.6569E-02  0.6569E-02  0.2318E+00  0.2318E+00
      2.558  0.6694E-02  0.6694E-02  0.2323E+00  0.2323E+00
      2.632  0.6109E-02  0.6109E-02  0.2327E+00  0.2327E+00
      2.706  0.4906E-02  0.4906E-02  0.2331E+00  0.2331E+00
      2.780  0.3910E-02  0.3910E-02  0.2334E+00  0.2334E+00
      2.853  0.3947E-02  0.3947E-02  0.2336E+00  0.2336E+00
      2.927  0.5414E-02  0.5414E-02  0.2340E+00  0.2340E+00
      3.001  0.7643E-02  0.7643E-02  0.2346E+00  0.2346E+00
      3.075  0.8672E-02  0.8672E-02  0.2352E+00  0.2352E+00
      3.149  0.7118E-02  0.7118E-02  0.2358E+00  0.2358E+00
      3.222  0.4226E-02  0.4226E-02  0.2361E+00  0.2361E+00
      3.296  0.2570E-02  0.2570E-02  0.2363E+00  0.2363E+00
      3.370  0.3174E-02  0.3174E-02  0.2365E+00  0.2365E+00
      3.444  0.4964E-02  0.4964E-02  0.2369E+00  0.2369E+00
      3.518  0.6331E-02  0.6331E-02  0.2373E+00  0.2373E+00
      3.592  0.6472E-02  0.6472E-02  0.2378E+00  0.2378E+00
      3.665  0.5821E-02  0.5821E-02  0.2383E+00  0.2383E+00
      3.739  0.5415E-02  0.5415E-02  0.2386E+00  0.2386E+00
      3.813  0.5663E-02  0.5663E-02  0.2391E+00  0.2391E+00
      3.887  0.6143E-02  0.6143E-02  0.2395E+00  0.2395E+00
      3.961  0.6432E-02  0.6432E-02  0.2400E+00  0.2400E+00
      4.034  0.6377E-02  0.6377E-02  0.2405E+00  0.2405E+00
      4.108  0.5878E-02  0.5878E-02  0.2409E+00  0.2409E+00
      4.182  0.5004E-02  0.5004E-02  0.2413E+00  0.2413E+00
      4.256  0.4165E-02  0.4165E-02  0.2416E+00  0.2416E+00
      4.330  0.3936E-02  0.3936E-02  0.2419E+00  0.2419E+00
      4.404  0.4414E-02  0.4414E-02  0.2422E+00  0.2422E+00
      4.477  0.4852E-02  0.4852E-02  0.2426E+00  0.2426E+00
      4.551  0.4694E-02  0.4694E-02  0.2429E+00  0.2429E+00
      4.625  0.4750E-02  0.4750E-02  0.2432E+00  0.2432E+00
      4.699  0.6126E-02  0.6125E-02  0.2437E+00  0.2437E+00
      4.773  0.8201E-02  0.8201E-02  0.2443E+00  0.2443E+00
      4.846  0.9020E-02  0.9020E-02  0.2450E+00  0.2450E+00
      4.920  0.7736E-02  0.7736E-02  0.2455E+00  0.2455E+00
      4.994  0.5528E-02  0.5528E-02  0.2460E+00  0.2460E+00
      5.068  0.3926E-02  0.3926E-02  0.2462E+00  0.2462E+00
      5.142  0.3437E-02  0.3437E-02  0.2465E+00  0.2465E+00
      5.215  0.4068E-02  0.4068E-02  0.2468E+00  0.2468E+00
      5.289  0.5815E-02  0.5815E-02  0.2472E+00  0.2472E+00
      5.363  0.7962E-02  0.7962E-02  0.2478E+00  0.2478E+00
      5.437  0.9276E-02  0.9276E-02  0.2485E+00  0.2485E+00
      5.511  0.9546E-02  0.9546E-02  0.2492E+00  0.2492E+00
      5.585  0.9501E-02  0.9500E-02  0.2499E+00  0.2499E+00
      5.658  0.9282E-02  0.9282E-02  0.2506E+00  0.2506E+00
      5.732  0.8691E-02  0.8691E-02  0.2512E+00  0.2512E+00
      5.806  0.8383E-02  0.8383E-02  0.2518E+00  0.2518E+00
      5.880  0.9151E-02  0.9151E-02  0.2525E+00  0.2525E+00
      5.954  0.1050E-01  0.1050E-01  0.2533E+00  0.2533E+00
      6.027  0.1112E-01  0.1112E-01  0.2541E+00  0.2541E+00
      6.101  0.1043E-01  0.1043E-01  0.2549E+00  0.2549E+00
      6.175  0.8998E-02  0.8999E-02  0.2556E+00  0.2556E+00
      6.249  0.7743E-02  0.7743E-02  0.2561E+00  0.2561E+00
      6.323  0.7355E-02  0.7355E-02  0.2567E+00  0.2567E+00
      6.397  0.7959E-02  0.7959E-02  0.2573E+00  0.2573E+00
      6.470  0.9023E-02  0.9022E-02  0.2579E+00  0.2579E+00
      6.544  0.9714E-02  0.9714E-02  0.2586E+00  0.2586E+00
      6.618  0.9547E-02  0.9547E-02  0.2593E+00  0.2593E+00
      6.692  0.8926E-02  0.8926E-02  0.2600E+00  0.2600E+00
      6.766  0.8785E-02  0.8785E-02  0.2607E+00  0.2607E+00
      6.839  0.9408E-02  0.9408E-02  0.2613E+00  0.2613E+00
      6.913  0.9995E-02  0.9995E-02  0.2621E+00  0.2621E+00
      6.987  0.9651E-02  0.9651E-02  0.2628E+00  0.2628E+00
      7.061  0.8425E-02  0.8425E-02  0.2634E+00  0.2634E+00
      7.135  0.7107E-02  0.7107E-02  0.2639E+00  0.2639E+00
      7.209  0.6501E-02  0.6501E-02  0.2644E+00  0.2644E+00
      7.282  0.7189E-02  0.7189E-02  0.2650E+00  0.2650E+00
      7.356  0.9115E-02  0.9115E-02  0.2656E+00  0.2656E+00
      7.430  0.1102E-01  0.1102E-01  0.2664E+00  0.2664E+00
      7.504  0.1136E-01  0.1136E-01  0.2673E+00  0.2673E+00
      7.578  0.1018E-01  0.1018E-01  0.2680E+00  0.2680E+00
      7.651  0.9024E-02  0.9023E-02  0.2687E+00  0.2687E+00
      7.725  0.9015E-02  0.9015E-02  0.2694E+00  0.2694E+00
      7.799  0.1004E-01  0.1004E-01  0.2701E+00  0.2701E+00
      7.873  0.1160E-01  0.1160E-01  0.2710E+00  0.2710E+00
      7.947  0.1310E-01  0.1310E-01  0.2719E+00  0.2719E+00
      8.020  0.1346E-01  0.1346E-01  0.2729E+00  0.2729E+00
      8.094  0.1207E-01  0.1207E-01  0.2738E+00  0.2738E+00
      8.168  0.1011E-01  0.1011E-01  0.2746E+00  0.2746E+00
      8.242  0.9364E-02  0.9364E-02  0.2752E+00  0.2752E+00
      8.316  0.9826E-02  0.9826E-02  0.2760E+00  0.2760E+00
      8.390  0.1003E-01  0.1003E-01  0.2767E+00  0.2767E+00
      8.463  0.9208E-02  0.9208E-02  0.2774E+00  0.2774E+00
      8.537  0.8039E-02  0.8039E-02  0.2780E+00  0.2780E+00
      8.611  0.7714E-02  0.7713E-02  0.2786E+00  0.2786E+00
      8.685  0.8876E-02  0.8875E-02  0.2792E+00  0.2792E+00
      8.759  0.1110E-01  0.1109E-01  0.2800E+00  0.2800E+00
      8.832  0.1305E-01  0.1305E-01  0.2810E+00  0.2810E+00
      8.906  0.1362E-01  0.1362E-01  0.2820E+00  0.2820E+00
      8.980  0.1281E-01  0.1281E-01  0.2829E+00  0.2829E+00
      9.054  0.1151E-01  0.1150E-01  0.2838E+00  0.2838E+00
      9.128  0.1042E-01  0.1043E-01  0.2846E+00  0.2846E+00
      9.202  0.9725E-02  0.9752E-02  0.2853E+00  0.2853E+00
      9.275  0.9237E-02  0.9291E-02  0.2860E+00  0.2860E+00
      9.349  0.8614E-02  0.8670E-02  0.2866E+00  0.2866E+00
      9.423  0.7630E-02  0.7656E-02  0.2872E+00  0.2872E+00
      9.497  0.6660E-02  0.6658E-02  0.2877E+00  0.2877E+00
      9.571  0.6348E-02  0.6331E-02  0.2881E+00  0.2881E+00
      9.644  0.6545E-02  0.6511E-02  0.2886E+00  0.2886E+00
      9.718  0.6384E-02  0.6335E-02  0.2891E+00  0.2891E+00
      9.792  0.5420E-02  0.5378E-02  0.2895E+00  0.2895E+00
      9.866  0.3940E-02  0.3921E-02  0.2898E+00  0.2898E+00
      9.940  0.2368E-02  0.2367E-02  0.2899E+00  0.2899E+00
     10.014  0.1020E-02  0.1023E-02  0.2900E+00  0.2900E+00
     10.087  0.1632E-03  0.1654E-03  0.2900E+00  0.2900E+00
     10.161 -0.1512E-03 -0.1505E-03  0.2900E+00  0.2900E+00
     10.235 -0.1455E-03 -0.1454E-03  0.2900E+00  0.2900E+00
     10.309 -0.6779E-04 -0.6777E-04  0.2900E+00  0.2900E+00
     10.383 -0.2059E-04 -0.2059E-04  0.2900E+00  0.2900E+00
     10.456 -0.4391E-05 -0.4392E-05  0.2900E+00  0.2900E+00
     10.530 -0.6777E-06 -0.6779E-06  0.2900E+00  0.2900E+00
     10.604 -0.7694E-07 -0.7697E-07  0.2900E+00  0.2900E+00
     10.678 -0.6486E-08 -0.6489E-08  0.2900E+00  0.2900E+00
     10.752 -0.4086E-09 -0.4088E-09  0.2900E+00  0.2900E+00
     10.825 -0.1931E-10 -0.1932E-10  0.2900E+00  0.2900E+00
     10.899 -0.6871E-12 -0.6875E-12  0.2900E+00  0.2900E+00
     10.973 -0.1844E-13 -0.1845E-13  0.2900E+00  0.2900E+00
     11.047 -0.3727E-15 -0.3727E-15  0.2900E+00  0.2900E+00
     11.121 -0.6685E-17 -0.6685E-17  0.2900E+00  0.2900E+00
     11.195  0.0000E+00  0.0000E+00  0.2900E+00  0.2900E+00
     11.268  0.0000E+00  0.0000E+00  0.2900E+00  0.2900E+00
     11.342  0.0000E+00  0.0000E+00  0.2900E+00  0.2900E+00
     11.416  0.0000E+00  0.0000E+00  0.2900E+00  0.2900E+00
     11.490  0.0000E+00  0.0000E+00  0.2900E+00  0.2900E+00
     11.564  0.0000E+00  0.0000E+00  0.2900E+00  0.2900E+00
     11.637  0.0000E+00  0.0000E+00  0.2900E+00  0.2900E+00
     11.711  0.0000E+00  0.0000E+00  0.2900E+00  0.2900E+00
     11.785  0.0000E+00  0.0000E+00  0.2900E+00  0.2900E+00
     11.859  0.0000E+00  0.0000E+00  0.2900E+00  0.2900E+00
