<?xml version="1.0" encoding="ISO-8859-1"?>
<modeling>
 <generator>
  <i name="program" type="string">vasp </i>
  <i name="version" type="string">6.3.2  </i>
  <i name="subversion" type="string">27Jun22 (build Aug 17 2022 15:43:34) complex                          parallel </i>
  <i name="platform" type="string">tv2STDVTST </i>
  <i name="date" type="string">2025 02 17 </i>
  <i name="time" type="string">17:36:41 </i>
 </generator>
 <incar>
  <i type="int" name="ISTART">     0</i>
  <i type="string" name="PREC">Normal</i>
  <i type="int" name="ISPIN">     2</i>
  <i type="int" name="ICHARG">     2</i>
  <i type="int" name="IBRION">     2</i>
  <i name="EDIFF">      0.00020000</i>
  <i name="EDIFFG">     -0.03000000</i>
  <i type="int" name="NSW">   800</i>
  <i type="int" name="ISIF">     2</i>
  <i type="int" name="ISYM">     1</i>
  <i name="ENCUT">    400.00000000</i>
  <i name="POTIM">      0.50000000</i>
  <i type="logical" name="LREAL"> F  </i>
  <i type="int" name="ISMEAR">     1</i>
  <i name="SIGMA">      0.20000000</i>
  <i type="logical" name="LWAVE"> F  </i>
  <i type="logical" name="LCHARG"> F  </i>
  <i type="string" name="GGA">PE</i>
  <i type="int" name="IVDW">    11</i>
 </incar>
 <primitive_cell>
  <structure name="primitive_cell" >
   <crystal>
    <varray name="basis" >
     <v>       7.26000023       0.00000000       0.00000000 </v>
     <v>       0.00000000       5.13359547       0.00000000 </v>
     <v>       0.00000000       0.00000000      23.98379135 </v>
    </varray>
    <i name="volume">    893.87360752 </i>
    <varray name="rec_basis" >
     <v>       0.13774104       0.00000000       0.00000000 </v>
     <v>       0.00000000       0.19479525       0.00000000 </v>
     <v>       0.00000000       0.00000000       0.04169483 </v>
    </varray>
   </crystal>
   <varray name="positions" >
    <v>       0.00000000       0.00000000       0.00000000 </v>
    <v>       0.00000000       0.50000000       0.00000000 </v>
    <v>       0.50000000       0.00000000       0.00000000 </v>
    <v>       0.50000000       0.50000000       0.00000000 </v>
    <v>       0.25000000       0.25000000       0.05351109 </v>
    <v>       0.25000000       0.75000000       0.05351109 </v>
    <v>       0.75000000       0.25000000       0.05351109 </v>
    <v>       0.75000000       0.75000000       0.05351109 </v>
    <v>       0.00000000       0.00000000       0.10541371 </v>
    <v>       0.00000000       0.50000000       0.10541371 </v>
    <v>       0.50000000       0.00000000       0.10541371 </v>
    <v>       0.50000000       0.50000000       0.10541371 </v>
    <v>       0.25000000       0.25000000       0.15715010 </v>
    <v>       0.25000000       0.75000000       0.15715010 </v>
    <v>       0.75000000       0.25000000       0.15715010 </v>
    <v>       0.75000000       0.75000000       0.15715010 </v>
    <v>       0.00000000       0.00000000       0.20866257 </v>
    <v>       0.00000000       0.50000000       0.20866257 </v>
    <v>       0.50000000       0.00000000       0.20866257 </v>
    <v>       0.50000000       0.50000000       0.20866257 </v>
    <v>       0.25000000       0.25000000       0.25947965 </v>
    <v>       0.25000000       0.75000000       0.25947965 </v>
    <v>       0.75000000       0.25000000       0.25947965 </v>
    <v>       0.75000000       0.75000000       0.25947965 </v>
    <v>       0.00000000       0.00000000       0.31415415 </v>
    <v>       0.00000000       0.50000000       0.31415415 </v>
    <v>       0.50000000       0.00000000       0.31415415 </v>
    <v>       0.50000000       0.50000000       0.31415415 </v>
    <v>       0.25000000       0.25000000       0.36181799 </v>
    <v>       0.25000000       0.75000000       0.36181799 </v>
    <v>       0.75000000       0.25000000       0.36181799 </v>
    <v>       0.75000000       0.75000000       0.36181799 </v>
    <v>       1.00000000       0.50000000       0.42690792 </v>
    <v>       1.00000000       0.50000000       0.45801226 </v>
   </varray>
  </structure>
  <varray name="primitive_index" >
   <v type="int" >        1 </v>
   <v type="int" >        2 </v>
   <v type="int" >        3 </v>
   <v type="int" >        4 </v>
   <v type="int" >        5 </v>
   <v type="int" >        6 </v>
   <v type="int" >        7 </v>
   <v type="int" >        8 </v>
   <v type="int" >        9 </v>
   <v type="int" >       10 </v>
   <v type="int" >       11 </v>
   <v type="int" >       12 </v>
   <v type="int" >       13 </v>
   <v type="int" >       14 </v>
   <v type="int" >       15 </v>
   <v type="int" >       16 </v>
   <v type="int" >       17 </v>
   <v type="int" >       18 </v>
   <v type="int" >       19 </v>
   <v type="int" >       20 </v>
   <v type="int" >       21 </v>
   <v type="int" >       22 </v>
   <v type="int" >       23 </v>
   <v type="int" >       24 </v>
   <v type="int" >       25 </v>
   <v type="int" >       26 </v>
   <v type="int" >       27 </v>
   <v type="int" >       28 </v>
   <v type="int" >       29 </v>
   <v type="int" >       30 </v>
   <v type="int" >       31 </v>
   <v type="int" >       32 </v>
   <v type="int" >       33 </v>
   <v type="int" >       34 </v>
  </varray>
 </primitive_cell>
 <kpoints>
  <generation param="Monkhorst-Pack">
   <v type="int" name="divisions">       3        3        1 </v>
   <v name="usershift">      0.00000000       0.00000000       0.00000000 </v>
   <v name="genvec1">      0.33333333       0.00000000       0.00000000 </v>
   <v name="genvec2">      0.00000000       0.33333333       0.00000000 </v>
   <v name="genvec3">      0.00000000       0.00000000       1.00000000 </v>
   <v name="shift">      0.00000000       0.00000000       0.00000000 </v>
  </generation>
  <varray name="kpointlist" >
   <v>       0.00000000       0.00000000       0.00000000 </v>
   <v>       0.33333333       0.00000000       0.00000000 </v>
   <v>       0.00000000       0.33333333       0.00000000 </v>
   <v>       0.33333333       0.33333333       0.00000000 </v>
  </varray>
  <varray name="weights" >
   <v>       0.11111111 </v>
   <v>       0.22222222 </v>
   <v>       0.22222222 </v>
   <v>       0.44444444 </v>
  </varray>
 </kpoints>
 <parameters>
  <separator name="general" >
   <i type="string" name="SYSTEM">unknown system</i>
   <i type="logical" name="LCOMPAT"> F  </i>
  </separator>
  <separator name="electronic" >
   <i type="string" name="PREC">normal</i>
   <i name="ENMAX">    400.00000000</i>
   <i name="ENAUG">    586.98000000</i>
   <i name="EDIFF">      0.00020000</i>
   <i type="int" name="IALGO">    38</i>
   <i type="int" name="IWAVPR">    11</i>
   <i type="int" name="NBANDS">   232</i>
   <i type="int" name="NBANDSLOW">    -1</i>
   <i type="int" name="NBANDSHIGH">    -1</i>
   <i name="NELECT">    354.00000000</i>
   <i type="int" name="TURBO">     0</i>
   <i type="int" name="IRESTART">     0</i>
   <i type="int" name="NREBOOT">     0</i>
   <i type="int" name="NMIN">     0</i>
   <i name="EREF">      0.00000000</i>
   <separator name="electronic smearing" >
    <i type="int" name="ISMEAR">     1</i>
    <i name="SIGMA">      0.20000000</i>
    <i name="KSPACING">      0.50000000</i>
    <i type="logical" name="KGAMMA"> T  </i>
    <i type="logical" name="KBLOWUP"> T  </i>
   </separator>
   <separator name="electronic projectors" >
    <i type="logical" name="LREAL"> F  </i>
    <v name="ROPT">      0.00000000      0.00000000</v>
    <i type="int" name="LMAXPAW">  -100</i>
    <i type="int" name="LMAXMIX">     2</i>
    <i type="logical" name="NLSPLINE"> F  </i>
   </separator>
   <separator name="electronic startup" >
    <i type="int" name="ISTART">     0</i>
    <i type="int" name="ICHARG">     2</i>
    <i type="int" name="INIWAV">     1</i>
   </separator>
   <separator name="electronic spin" >
    <i type="int" name="ISPIN">     2</i>
    <i type="logical" name="LNONCOLLINEAR"> F  </i>
    <v name="MAGMOM">      1.00000000      1.00000000      1.00000000      1.00000000      1.00000000      1.00000000      1.00000000      1.00000000      1.00000000      1.00000000      1.00000000      1.00000000      1.00000000      1.00000000      1.00000000      1.00000000      1.00000000      1.00000000      1.00000000      1.00000000
      1.00000000      1.00000000      1.00000000      1.00000000      1.00000000      1.00000000      1.00000000      1.00000000      1.00000000      1.00000000      1.00000000      1.00000000      1.00000000      1.00000000</v>
    <i name="NUPDOWN">     -1.00000000</i>
    <i type="logical" name="LSORBIT"> F  </i>
    <v name="SAXIS">      0.00000000      0.00000000      1.00000000</v>
    <i type="logical" name="LSPIRAL"> F  </i>
    <v name="QSPIRAL">      0.00000000      0.00000000      0.00000000</v>
    <i type="logical" name="LZEROZ"> F  </i>
   </separator>
   <separator name="electronic exchange-correlation" >
    <i type="logical" name="LASPH"> F  </i>
    <i type="logical" name="LMETAGGA"> F  </i>
   </separator>
   <separator name="electronic convergence" >
    <i type="int" name="NELM">    60</i>
    <i type="int" name="NELMDL">    -5</i>
    <i type="int" name="NELMIN">     2</i>
    <i name="ENINI">    400.00000000</i>
    <separator name="electronic convergence detail" >
     <i type="logical" name="LDIAG"> T  </i>
     <i type="logical" name="LSUBROT"> F  </i>
     <i name="WEIMIN">      0.00100000</i>
     <i name="EBREAK">      0.00000022</i>
     <i name="DEPER">      0.30000000</i>
     <i type="int" name="NRMM">     4</i>
     <i name="TIME">      0.40000000</i>
    </separator>
   </separator>
   <separator name="electronic mixer" >
    <i name="AMIX">      0.40000000</i>
    <i name="BMIX">      1.00000000</i>
    <i name="AMIN">      0.10000000</i>
    <i name="AMIX_MAG">      1.60000000</i>
    <i name="BMIX_MAG">      1.00000000</i>
    <separator name="electronic mixer details" >
     <i type="int" name="IMIX">     4</i>
     <i type="logical" name="MIXFIRST"> F  </i>
     <i type="int" name="MAXMIX">   -45</i>
     <i name="WC">    100.00000000</i>
     <i type="int" name="INIMIX">     1</i>
     <i type="int" name="MIXPRE">     1</i>
     <i type="int" name="MREMOVE">     5</i>
    </separator>
   </separator>
   <separator name="electronic dipolcorrection" >
    <i type="logical" name="LDIPOL"> F  </i>
    <i type="logical" name="LMONO"> F  </i>
    <i type="int" name="IDIPOL">     0</i>
    <i name="EPSILON">      1.00000000</i>
    <v name="DIPOL">   -100.00000000   -100.00000000   -100.00000000</v>
    <i name="EFIELD">      0.00000000</i>
   </separator>
  </separator>
  <separator name="grids" >
   <i type="int" name="NGX">    36</i>
   <i type="int" name="NGY">    28</i>
   <i type="int" name="NGZ">   120</i>
   <i type="int" name="NGXF">    72</i>
   <i type="int" name="NGYF">    56</i>
   <i type="int" name="NGZF">   240</i>
   <i type="logical" name="ADDGRID"> F  </i>
  </separator>
  <separator name="ionic" >
   <i type="int" name="NSW">   800</i>
   <i type="int" name="IBRION">     2</i>
   <i type="int" name="MDALGO">     0</i>
   <i type="int" name="ISIF">     2</i>
   <i name="PSTRESS">      0.00000000</i>
   <i name="EDIFFG">     -0.03000000</i>
   <i type="int" name="NFREE">     1</i>
   <i name="POTIM">      0.50000000</i>
   <i name="SMASS">     -3.00000000</i>
   <i name="SCALEE">      1.00000000</i>
  </separator>
  <separator name="ionic md" >
   <i name="TEBEG">      0.00010000</i>
   <i name="TEEND">      0.00010000</i>
   <i type="int" name="NBLOCK">     1</i>
   <i type="int" name="KBLOCK">   800</i>
   <i type="int" name="NPACO">   256</i>
   <i name="APACO">     10.00000000</i>
  </separator>
  <separator name="symmetry" >
   <i type="int" name="ISYM">     1</i>
   <i name="SYMPREC">      0.00001000</i>
  </separator>
  <separator name="dos" >
   <i type="int" name="LORBIT">     0</i>
   <v name="RWIGS">     -1.00000000     -1.00000000</v>
   <i type="int" name="NEDOS">   301</i>
   <i name="EMIN">     10.00000000</i>
   <i name="EMAX">    -10.00000000</i>
   <i name="EFERMI">      0.00000000</i>
  </separator>
  <separator name="writing" >
   <i type="int" name="NWRITE">     2</i>
   <i type="logical" name="LWAVE"> F  </i>
   <i type="logical" name="LDOWNSAMPLE"> F  </i>
   <i type="logical" name="LCHARG"> F  </i>
   <i type="logical" name="LPARD"> F  </i>
   <i type="logical" name="LVTOT"> F  </i>
   <i type="logical" name="LVHAR"> F  </i>
   <i type="logical" name="LELF"> F  </i>
   <i type="logical" name="LOPTICS"> F  </i>
   <v name="STM">      0.00000000      0.00000000      0.00000000      0.00000000      0.00000000      0.00000000      0.00000000</v>
  </separator>
  <separator name="performance" >
   <i type="int" name="NPAR">     4</i>
   <i type="int" name="NSIM">     4</i>
   <i type="int" name="NBLK">    -1</i>
   <i type="logical" name="LPLANE"> T  </i>
   <i type="logical" name="LSCALAPACK"> T  </i>
   <i type="logical" name="LSCAAWARE"> F  </i>
   <i type="logical" name="LSCALU"> F  </i>
   <i type="logical" name="LASYNC"> F  </i>
   <i type="logical" name="LORBITALREAL"> F  </i>
  </separator>
  <separator name="miscellaneous" >
   <i type="int" name="IDIOT">     3</i>
   <i type="int" name="PHON_NSTRUCT">    -1</i>
   <i type="logical" name="LMUSIC"> F  </i>
   <v name="POMASS">     63.54600000      1.00000000</v>
   <v name="DARWINR">      0.00000000      0.00000000</v>
   <v name="DARWINV">      1.00000000      1.00000000</v>
   <i type="logical" name="LCORR"> T  </i>
  </separator>
  <i type="logical" name="GGA_COMPAT"> T  </i>
  <i type="logical" name="LBERRY"> F  </i>
  <i type="int" name="ICORELEVEL">     0</i>
  <i type="logical" name="LDAU"> F  </i>
  <i type="int" name="I_CONSTRAINED_M">     0</i>
  <separator name="electronic exchange-correlation" >
   <i type="string" name="GGA">PE</i>
   <i type="int" name="VOSKOWN">     0</i>
   <i type="logical" name="LHFCALC"> F  </i>
   <i type="string" name="PRECFOCK"></i>
   <i type="logical" name="LSYMGRAD"> F  </i>
   <i type="logical" name="LHFONE"> F  </i>
   <i type="logical" name="LRHFCALC"> F  </i>
   <i type="logical" name="LTHOMAS"> F  </i>
   <i type="logical" name="LMODELHF"> F  </i>
   <i type="logical" name="LFOCKACE"> F  </i>
   <i name="ENCUT4O">     -1.00000000</i>
   <i type="int" name="EXXOEP">     0</i>
   <i type="int" name="FOURORBIT">     0</i>
   <i name="AEXX">      0.00000000</i>
   <i name="HFALPHA">      0.00000000</i>
   <i name="MCALPHA">      0.00000000</i>
   <i name="ALDAX">      1.00000000</i>
   <i name="AGGAX">      1.00000000</i>
   <i name="ALDAC">      1.00000000</i>
   <i name="AGGAC">      1.00000000</i>
   <i type="int" name="NKREDX">     1</i>
   <i type="int" name="NKREDY">     1</i>
   <i type="int" name="NKREDZ">     1</i>
   <i type="logical" name="SHIFTRED"> F  </i>
   <i type="logical" name="ODDONLY"> F  </i>
   <i type="logical" name="EVENONLY"> F  </i>
   <i type="int" name="LMAXFOCK">     0</i>
   <i type="int" name="NMAXFOCKAE">     0</i>
   <i type="logical" name="LFOCKAEDFT"> F  </i>
   <i name="HFSCREEN">      0.00000000</i>
   <i name="HFSCREENC">      0.00000000</i>
   <i type="int" name="NBANDSGWLOW">     0</i>
  </separator>
  <separator name="vdW DFT" >
   <i type="logical" name="LUSE_VDW"> F  </i>
   <i name="Zab_VDW">     -0.84910000</i>
   <i name="PARAM1">      0.12340000</i>
   <i name="PARAM2">      1.00000000</i>
   <i name="PARAM3">      0.00000000</i>
  </separator>
  <separator name="model GW" >
   <i type="int" name="MODEL_GW">     0</i>
   <i name="MODEL_EPS0">     15.77424013</i>
   <i name="MODEL_ALPHA">      1.00000000</i>
  </separator>
  <separator name="linear response parameters" >
   <i type="logical" name="LEPSILON"> F  </i>
   <i type="logical" name="LRPA"> F  </i>
   <i type="logical" name="LNABLA"> F  </i>
   <i type="logical" name="LVEL"> F  </i>
   <i name="CSHIFT">      0.10000000</i>
   <i name="OMEGAMAX">     -1.00000000</i>
   <i name="DEG_THRESHOLD">      0.00200000</i>
   <i name="RTIME">     -0.10000000</i>
   <i name="WPLASMAI">      0.00000000</i>
   <v name="DFIELD">      0.00000000      0.00000000      0.00000000</v>
   <v name="WPLASMA">      0.00000000      0.00000000      0.00000000      0.00000000      0.00000000      0.00000000      0.00000000      0.00000000      0.00000000</v>
  </separator>
  <separator name="orbital magnetization" >
   <i type="logical" name="NUCIND"> F  </i>
   <v name="MAGPOS">      0.00000000      0.00000000      0.00000000</v>
   <i type="logical" name="LNICSALL"> T  </i>
   <i type="logical" name="ORBITALMAG"> F  </i>
   <i type="logical" name="LMAGBLOCH"> F  </i>
   <i type="logical" name="LCHIMAG"> F  </i>
   <i type="logical" name="LGAUGE"> T  </i>
   <i type="int" name="MAGATOM">     0</i>
   <v name="MAGDIPOL">      0.00000000      0.00000000      0.00000000</v>
   <v name="AVECCONST">      0.00000000      0.00000000      0.00000000</v>
  </separator>
  <separator name="response functions" >
   <i type="logical" name="LFINITE_TEMPERATURE"> F  </i>
   <i type="logical" name="LADDER"> F  </i>
   <i type="logical" name="LRPAFORCE"> F  </i>
   <i type="logical" name="LFXC"> F  </i>
   <i type="logical" name="LHARTREE"> T  </i>
   <i type="int" name="IBSE">     0</i>
   <v type="int" name="KPOINT">    -1     0     0     0</v>
   <i type="logical" name="LTCTC"> F  </i>
   <i type="logical" name="LTCTE"> F  </i>
   <i type="logical" name="LTETE"> F  </i>
   <i type="logical" name="LTRIPLET"> F  </i>
   <i type="logical" name="LFXCEPS"> F  </i>
   <i type="logical" name="LFXHEG"> F  </i>
   <i type="int" name="NATURALO">     2</i>
   <i type="logical" name="LHOLEGF"> F  </i>
   <i type="logical" name="L2ORDER"> F  </i>
   <i type="logical" name="LDMP1"> F  </i>
   <i type="logical" name="LMP2LT"> F  </i>
   <i type="logical" name="LSMP2LT"> F  </i>
   <i type="logical" name="LGWLF"> F  </i>
   <i name="ENCUTGW">     -2.00000000</i>
   <i name="ENCUTGWSOFT">     -2.00000000</i>
   <i name="ENCUTLF">     -1.00000000</i>
   <i type="logical" name="LESF_SPLINES"> F  </i>
   <i type="int" name="LMAXMP2">    -1</i>
   <i name="SCISSOR">      0.00000000</i>
   <i type="int" name="NOMEGA">     0</i>
   <i type="int" name="NOMEGAR">     0</i>
   <i type="int" name="NBANDSGW">    -1</i>
   <i type="int" name="NBANDSO">    -1</i>
   <i type="int" name="NBANDSV">    -1</i>
   <i type="int" name="NELMGW">     1</i>
   <i type="int" name="NELMHF">     1</i>
   <i type="int" name="DIM">     3</i>
   <i type="int" name="IESPILON">     4</i>
   <i type="int" name="ANTIRES">     0</i>
   <i name="OMEGAMAX">    -30.00000000</i>
   <i name="OMEGAMIN">    -30.00000000</i>
   <i name="OMEGATL">   -200.00000000</i>
   <i type="int" name="OMEGAGRID">     0</i>
   <i name="CSHIFT">     -0.10000000</i>
   <i type="logical" name="LSELFENERGY"> F  </i>
   <i type="logical" name="LSPECTRAL"> F  </i>
   <i type="logical" name="LSPECTRALGW"> F  </i>
   <i type="logical" name="LSINGLES"> F  </i>
   <i type="logical" name="LFERMIGW"> F  </i>
   <i type="logical" name="ODDONLYGW"> F  </i>
   <i type="logical" name="EVENONLYGW"> F  </i>
   <i type="int" name="NKREDLFX">     1</i>
   <i type="int" name="NKREDLFY">     1</i>
   <i type="int" name="NKREDLFZ">     1</i>
   <i type="int" name="MAXMEM">  2800</i>
   <i type="int" name="TELESCOPE">     0</i>
   <i type="int" name="NTAUPAR">    -1</i>
   <i type="int" name="NOMEGAPAR">    -1</i>
   <i name="DAMP_NEWTON">      0.80000001</i>
   <i name="LAMBDA">      1.00000000</i>
  </separator>
  <separator name="External order field" >
   <i name="OFIELD_KAPPA">      0.00000000</i>
   <v name="OFIELD_K">      0.00000000      0.00000000      0.00000000</v>
   <i name="OFIELD_Q6_NEAR">      0.00000000</i>
   <i name="OFIELD_Q6_FAR">      0.00000000</i>
   <i name="OFIELD_A">      0.00000000</i>
  </separator>
  <separator name="optional k-points parameters" >
   <i type="int" name="KPOINTS_OPT_MODE">     1</i>
   <i type="logical" name="LKPOINTS_OPT"> F  </i>
  </separator>
 </parameters>
 <atominfo>
  <atoms>      34 </atoms>
  <types>       2 </types>
  <array name="atoms" >
   <dimension dim="1">ion</dimension>
   <field type="string">element</field>
   <field type="int">atomtype</field>
   <set>
    <rc><c>Cu</c><c>   1</c></rc>
    <rc><c>Cu</c><c>   1</c></rc>
    <rc><c>Cu</c><c>   1</c></rc>
    <rc><c>Cu</c><c>   1</c></rc>
    <rc><c>Cu</c><c>   1</c></rc>
    <rc><c>Cu</c><c>   1</c></rc>
    <rc><c>Cu</c><c>   1</c></rc>
    <rc><c>Cu</c><c>   1</c></rc>
    <rc><c>Cu</c><c>   1</c></rc>
    <rc><c>Cu</c><c>   1</c></rc>
    <rc><c>Cu</c><c>   1</c></rc>
    <rc><c>Cu</c><c>   1</c></rc>
    <rc><c>Cu</c><c>   1</c></rc>
    <rc><c>Cu</c><c>   1</c></rc>
    <rc><c>Cu</c><c>   1</c></rc>
    <rc><c>Cu</c><c>   1</c></rc>
    <rc><c>Cu</c><c>   1</c></rc>
    <rc><c>Cu</c><c>   1</c></rc>
    <rc><c>Cu</c><c>   1</c></rc>
    <rc><c>Cu</c><c>   1</c></rc>
    <rc><c>Cu</c><c>   1</c></rc>
    <rc><c>Cu</c><c>   1</c></rc>
    <rc><c>Cu</c><c>   1</c></rc>
    <rc><c>Cu</c><c>   1</c></rc>
    <rc><c>Cu</c><c>   1</c></rc>
    <rc><c>Cu</c><c>   1</c></rc>
    <rc><c>Cu</c><c>   1</c></rc>
    <rc><c>Cu</c><c>   1</c></rc>
    <rc><c>Cu</c><c>   1</c></rc>
    <rc><c>Cu</c><c>   1</c></rc>
    <rc><c>Cu</c><c>   1</c></rc>
    <rc><c>Cu</c><c>   1</c></rc>
    <rc><c>H </c><c>   2</c></rc>
    <rc><c>H </c><c>   2</c></rc>
   </set>
  </array>
  <array name="atomtypes" >
   <dimension dim="1">type</dimension>
   <field type="int">atomspertype</field>
   <field type="string">element</field>
   <field>mass</field>
   <field>valence</field>
   <field type="string">pseudopotential</field>
   <set>
    <rc><c>  32</c><c>Cu</c><c>     63.54600000</c><c>     11.00000000</c><c>  PAW_PBE Cu 22Jun2005                  </c></rc>
    <rc><c>   2</c><c>H </c><c>      1.00000000</c><c>      1.00000000</c><c>  PAW_PBE H 15Jun2001                   </c></rc>
   </set>
  </array>
 </atominfo>
 <structure name="initialpos" >
  <crystal>
   <varray name="basis" >
    <v>       7.26000023       0.00000000       0.00000000 </v>
    <v>       0.00000000       5.13359547       0.00000000 </v>
    <v>       0.00000000       0.00000000      23.98379135 </v>
   </varray>
   <i name="volume">    893.87360752 </i>
   <varray name="rec_basis" >
    <v>       0.13774104       0.00000000       0.00000000 </v>
    <v>       0.00000000       0.19479525       0.00000000 </v>
    <v>       0.00000000       0.00000000       0.04169483 </v>
   </varray>
  </crystal>
  <varray name="positions" >
   <v>       0.00000000       0.00000000       0.00000000 </v>
   <v>       0.00000000       0.50000000       0.00000000 </v>
   <v>       0.50000000       0.00000000       0.00000000 </v>
   <v>       0.50000000       0.50000000       0.00000000 </v>
   <v>       0.25000000       0.25000000       0.05351109 </v>
   <v>       0.25000000       0.75000000       0.05351109 </v>
   <v>       0.75000000       0.25000000       0.05351109 </v>
   <v>       0.75000000       0.75000000       0.05351109 </v>
   <v>       0.00000000       0.00000000       0.10541371 </v>
   <v>       0.00000000       0.50000000       0.10541371 </v>
   <v>       0.50000000       0.00000000       0.10541371 </v>
   <v>       0.50000000       0.50000000       0.10541371 </v>
   <v>       0.25000000       0.25000000       0.15715010 </v>
   <v>       0.25000000       0.75000000       0.15715010 </v>
   <v>       0.75000000       0.25000000       0.15715010 </v>
   <v>       0.75000000       0.75000000       0.15715010 </v>
   <v>       0.00000000       0.00000000       0.20866257 </v>
   <v>       0.00000000       0.50000000       0.20866257 </v>
   <v>       0.50000000       0.00000000       0.20866257 </v>
   <v>       0.50000000       0.50000000       0.20866257 </v>
   <v>       0.25000000       0.25000000       0.25947965 </v>
   <v>       0.25000000       0.75000000       0.25947965 </v>
   <v>       0.75000000       0.25000000       0.25947965 </v>
   <v>       0.75000000       0.75000000       0.25947965 </v>
   <v>       0.00000000       0.00000000       0.31415415 </v>
   <v>       0.00000000       0.50000000       0.31415415 </v>
   <v>       0.50000000       0.00000000       0.31415415 </v>
   <v>       0.50000000       0.50000000       0.31415415 </v>
   <v>       0.25000000       0.25000000       0.36181799 </v>
   <v>       0.25000000       0.75000000       0.36181799 </v>
   <v>       0.75000000       0.25000000       0.36181799 </v>
   <v>       0.75000000       0.75000000       0.36181799 </v>
   <v>       1.00000000       0.50000000       0.42690792 </v>
   <v>       1.00000000       0.50000000       0.45801226 </v>
  </varray>
  <varray name="selective"  type="logical" >
   <v type="logical" >  F  F  F </v>
   <v type="logical" >  F  F  F </v>
   <v type="logical" >  F  F  F </v>
   <v type="logical" >  F  F  F </v>
   <v type="logical" >  F  F  F </v>
   <v type="logical" >  F  F  F </v>
   <v type="logical" >  F  F  F </v>
   <v type="logical" >  F  F  F </v>
   <v type="logical" >  F  F  F </v>
   <v type="logical" >  F  F  F </v>
   <v type="logical" >  F  F  F </v>
   <v type="logical" >  F  F  F </v>
   <v type="logical" >  T  T  T </v>
   <v type="logical" >  T  T  T </v>
   <v type="logical" >  T  T  T </v>
   <v type="logical" >  T  T  T </v>
   <v type="logical" >  T  T  T </v>
   <v type="logical" >  T  T  T </v>
   <v type="logical" >  T  T  T </v>
   <v type="logical" >  T  T  T </v>
   <v type="logical" >  T  T  T </v>
   <v type="logical" >  T  T  T </v>
   <v type="logical" >  T  T  T </v>
   <v type="logical" >  T  T  T </v>
   <v type="logical" >  T  T  T </v>
   <v type="logical" >  T  T  T </v>
   <v type="logical" >  T  T  T </v>
   <v type="logical" >  T  T  T </v>
   <v type="logical" >  T  T  T </v>
   <v type="logical" >  T  T  T </v>
   <v type="logical" >  T  T  T </v>
   <v type="logical" >  T  T  T </v>
   <v type="logical" >  T  T  T </v>
   <v type="logical" >  T  T  T </v>
  </varray>
  <nose>
   <v>      -3.00000000       0.00000000       0.00010000       0.00010000 </v>
  </nose>
 </structure>
 <calculation>
  <scstep>
   <time name="dav">    7.57    7.63</time>
   <time name="total">    7.66    7.72</time>
   <energy>
    <i name="alphaZ">    844.48149002 </i>
    <i name="ewald"> 172968.88731197 </i>
    <i name="hartreedc">-216108.96887974 </i>
    <i name="XCdc">   1468.25233353 </i>
    <i name="pawpsdc">  39302.70853331 </i>
    <i name="pawaedc"> -42689.07521165 </i>
    <i name="eentropy">      0.00340056 </i>
    <i name="bandstr">   2947.96367189 </i>
    <i name="atom">  44535.60175172 </i>
    <i name="e_fr_energy">   3269.85440160 </i>
    <i name="e_wo_entrp">   3269.85100104 </i>
    <i name="e_0_energy">   3269.85326808 </i>
   </energy>
  </scstep>
  <scstep>
   <time name="dav">    7.48    7.54</time>
   <time name="total">    7.48    7.54</time>
   <energy>
    <i name="e_fr_energy">    383.82428408 </i>
    <i name="e_wo_entrp">    383.83643218 </i>
    <i name="e_0_energy">    383.82833345 </i>
   </energy>
  </scstep>
  <scstep>
   <time name="dav">    7.46    7.52</time>
   <time name="total">    7.46    7.52</time>
   <energy>
    <i name="e_fr_energy">    -99.92335230 </i>
    <i name="e_wo_entrp">    -99.95369099 </i>
    <i name="e_0_energy">    -99.93346520 </i>
   </energy>
  </scstep>
  <scstep>
   <time name="dav">    8.18    8.25</time>
   <time name="total">    8.18    8.25</time>
   <energy>
    <i name="e_fr_energy">   -132.94094706 </i>
    <i name="e_wo_entrp">   -132.96960943 </i>
    <i name="e_0_energy">   -132.95050119 </i>
   </energy>
  </scstep>
  <scstep>
   <time name="dav">    8.10    8.16</time>
   <time name="total">    8.46    8.52</time>
   <energy>
    <i name="e_fr_energy">   -133.69908900 </i>
    <i name="e_wo_entrp">   -133.72846998 </i>
    <i name="e_0_energy">   -133.70888266 </i>
   </energy>
  </scstep>
  <scstep>
   <time name="dav">    7.89    7.95</time>
   <time name="total">    8.32    8.38</time>
   <energy>
    <i name="e_fr_energy">   -108.56577443 </i>
    <i name="e_wo_entrp">   -108.56071846 </i>
    <i name="e_0_energy">   -108.56408910 </i>
   </energy>
  </scstep>
  <scstep>
   <time name="dav">    8.06    8.12</time>
   <time name="total">    8.49    8.55</time>
   <energy>
    <i name="e_fr_energy">    -95.46365721 </i>
    <i name="e_wo_entrp">    -95.45586090 </i>
    <i name="e_0_energy">    -95.46105844 </i>
   </energy>
  </scstep>
  <scstep>
   <time name="dav">    8.25    8.31</time>
   <time name="total">    8.68    8.75</time>
   <energy>
    <i name="e_fr_energy">    -94.11644955 </i>
    <i name="e_wo_entrp">    -94.11638127 </i>
    <i name="e_0_energy">    -94.11642679 </i>
   </energy>
  </scstep>
  <scstep>
   <time name="dav">    9.67    9.74</time>
   <time name="total">   10.09   10.16</time>
   <energy>
    <i name="e_fr_energy">    -92.21375382 </i>
    <i name="e_wo_entrp">    -92.21256783 </i>
    <i name="e_0_energy">    -92.21335849 </i>
   </energy>
  </scstep>
  <scstep>
   <time name="dav">   10.00   10.07</time>
   <time name="total">   10.43   10.51</time>
   <energy>
    <i name="e_fr_energy">    -93.65837160 </i>
    <i name="e_wo_entrp">    -93.65832539 </i>
    <i name="e_0_energy">    -93.65835620 </i>
   </energy>
  </scstep>
  <scstep>
   <time name="dav">   10.62   10.70</time>
   <time name="total">   11.04   11.12</time>
   <energy>
    <i name="e_fr_energy">    -93.58138975 </i>
    <i name="e_wo_entrp">    -93.56701838 </i>
    <i name="e_0_energy">    -93.57659929 </i>
   </energy>
  </scstep>
  <scstep>
   <time name="dav">    9.60    9.68</time>
   <time name="total">   10.03   10.11</time>
   <energy>
    <i name="e_fr_energy">    -95.78744118 </i>
    <i name="e_wo_entrp">    -95.75071096 </i>
    <i name="e_0_energy">    -95.77519777 </i>
   </energy>
  </scstep>
  <scstep>
   <time name="dav">    8.76    8.82</time>
   <time name="total">    9.18    9.25</time>
   <energy>
    <i name="e_fr_energy">   -100.50858130 </i>
    <i name="e_wo_entrp">   -100.48435304 </i>
    <i name="e_0_energy">   -100.50050521 </i>
   </energy>
  </scstep>
  <scstep>
   <time name="dav">    9.07    9.14</time>
   <time name="total">    9.50    9.57</time>
   <energy>
    <i name="e_fr_energy">   -106.42884484 </i>
    <i name="e_wo_entrp">   -106.41913887 </i>
    <i name="e_0_energy">   -106.42560952 </i>
   </energy>
  </scstep>
  <scstep>
   <time name="dav">    9.59    9.66</time>
   <time name="total">   10.02   10.09</time>
   <energy>
    <i name="e_fr_energy">   -110.50681776 </i>
    <i name="e_wo_entrp">   -110.53076844 </i>
    <i name="e_0_energy">   -110.51480132 </i>
   </energy>
  </scstep>
  <scstep>
   <time name="dav">    8.34    8.40</time>
   <time name="total">    8.78    8.85</time>
   <energy>
    <i name="e_fr_energy">   -113.30906380 </i>
    <i name="e_wo_entrp">   -113.35376208 </i>
    <i name="e_0_energy">   -113.32396323 </i>
   </energy>
  </scstep>
  <scstep>
   <time name="dav">    7.96    8.02</time>
   <time name="total">    8.40    8.46</time>
   <energy>
    <i name="e_fr_energy">   -114.88435269 </i>
    <i name="e_wo_entrp">   -114.92620133 </i>
    <i name="e_0_energy">   -114.89830224 </i>
   </energy>
  </scstep>
  <scstep>
   <time name="dav">    8.11    8.17</time>
   <time name="total">    8.53    8.59</time>
   <energy>
    <i name="e_fr_energy">   -116.07653244 </i>
    <i name="e_wo_entrp">   -116.10117784 </i>
    <i name="e_0_energy">   -116.08474757 </i>
   </energy>
  </scstep>
  <scstep>
   <time name="dav">    8.94    9.01</time>
   <time name="total">    9.38    9.45</time>
   <energy>
    <i name="e_fr_energy">   -116.69390012 </i>
    <i name="e_wo_entrp">   -116.72057412 </i>
    <i name="e_0_energy">   -116.70279145 </i>
   </energy>
  </scstep>
  <scstep>
   <time name="dav">    8.19    8.26</time>
   <time name="total">    8.63    8.69</time>
   <energy>
    <i name="e_fr_energy">   -117.14486144 </i>
    <i name="e_wo_entrp">   -117.17308259 </i>
    <i name="e_0_energy">   -117.15426849 </i>
   </energy>
  </scstep>
  <scstep>
   <time name="dav">    8.45    8.51</time>
   <time name="total">    8.87    8.94</time>
   <energy>
    <i name="e_fr_energy">   -117.27148685 </i>
    <i name="e_wo_entrp">   -117.30335204 </i>
    <i name="e_0_energy">   -117.28210858 </i>
   </energy>
  </scstep>
  <scstep>
   <time name="dav">    8.60    8.67</time>
   <time name="total">    9.04    9.11</time>
   <energy>
    <i name="e_fr_energy">   -117.47532192 </i>
    <i name="e_wo_entrp">   -117.50805653 </i>
    <i name="e_0_energy">   -117.48623346 </i>
   </energy>
  </scstep>
  <scstep>
   <time name="dav">    8.96    9.03</time>
   <time name="total">    9.39    9.46</time>
   <energy>
    <i name="e_fr_energy">   -117.68253877 </i>
    <i name="e_wo_entrp">   -117.71494563 </i>
    <i name="e_0_energy">   -117.69334105 </i>
   </energy>
  </scstep>
  <scstep>
   <time name="dav">    9.44    9.51</time>
   <time name="total">    9.87    9.94</time>
   <energy>
    <i name="e_fr_energy">   -117.83487362 </i>
    <i name="e_wo_entrp">   -117.86974610 </i>
    <i name="e_0_energy">   -117.84649778 </i>
   </energy>
  </scstep>
  <scstep>
   <time name="dav">    9.04    9.12</time>
   <time name="total">    9.47    9.55</time>
   <energy>
    <i name="e_fr_energy">   -118.01256142 </i>
    <i name="e_wo_entrp">   -118.04640255 </i>
    <i name="e_0_energy">   -118.02384180 </i>
   </energy>
  </scstep>
  <scstep>
   <time name="dav">    9.08    9.15</time>
   <time name="total">    9.51    9.59</time>
   <energy>
    <i name="e_fr_energy">   -118.12690869 </i>
    <i name="e_wo_entrp">   -118.16154386 </i>
    <i name="e_0_energy">   -118.13845375 </i>
   </energy>
  </scstep>
  <scstep>
   <time name="dav">    8.39    8.45</time>
   <time name="total">    8.82    8.88</time>
   <energy>
    <i name="e_fr_energy">   -118.19853804 </i>
    <i name="e_wo_entrp">   -118.23376728 </i>
    <i name="e_0_energy">   -118.21028112 </i>
   </energy>
  </scstep>
  <scstep>
   <time name="dav">    6.86    6.91</time>
   <time name="total">    7.29    7.34</time>
   <energy>
    <i name="e_fr_energy">   -118.23063187 </i>
    <i name="e_wo_entrp">   -118.26542387 </i>
    <i name="e_0_energy">   -118.24222920 </i>
   </energy>
  </scstep>
  <scstep>
   <time name="dav">    6.17    6.21</time>
   <time name="total">    6.60    6.65</time>
   <energy>
    <i name="e_fr_energy">   -118.23750646 </i>
    <i name="e_wo_entrp">   -118.27244961 </i>
    <i name="e_0_energy">   -118.24915418 </i>
   </energy>
  </scstep>
  <scstep>
   <time name="dav">    5.70    5.74</time>
   <time name="total">    6.14    6.18</time>
   <energy>
    <i name="e_fr_energy">   -118.23984642 </i>
    <i name="e_wo_entrp">   -118.27476342 </i>
    <i name="e_0_energy">   -118.25148542 </i>
   </energy>
  </scstep>
  <scstep>
   <time name="dav">    5.66    5.71</time>
   <time name="total">    6.10    6.14</time>
   <energy>
    <i name="e_fr_energy">   -118.24109930 </i>
    <i name="e_wo_entrp">   -118.27584219 </i>
    <i name="e_0_energy">   -118.25268027 </i>
   </energy>
  </scstep>
  <scstep>
   <time name="dav">    5.64    5.68</time>
   <time name="total">    6.07    6.11</time>
   <energy>
    <i name="e_fr_energy">   -118.24139433 </i>
    <i name="e_wo_entrp">   -118.27613067 </i>
    <i name="e_0_energy">   -118.25297311 </i>
   </energy>
  </scstep>
  <scstep>
   <time name="dav">    5.53    5.57</time>
   <time name="total">    5.61    5.65</time>
   <energy>
    <i name="alphaZ">    844.48149002 </i>
    <i name="ewald"> 172968.88731197 </i>
    <i name="hartreedc">-215724.75869785 </i>
    <i name="XCdc">   1431.80865379 </i>
    <i name="pawpsdc">  41947.47831708 </i>
    <i name="pawaedc"> -45395.37836150 </i>
    <i name="eentropy">      0.03476129 </i>
    <i name="bandstr">   -726.39671109 </i>
    <i name="atom">  44535.60175172 </i>
    <i name="e_fr_energy">   -118.24148456 </i>
    <i name="e_wo_entrp">   -118.27624585 </i>
    <i name="e_0_energy">   -118.25307166 </i>
   </energy>
  </scstep>
  <structure>
   <crystal>
    <varray name="basis" >
     <v>       7.26000023       0.00000000       0.00000000 </v>
     <v>       0.00000000       5.13359547       0.00000000 </v>
     <v>       0.00000000       0.00000000      23.98379135 </v>
    </varray>
    <i name="volume">    893.87360752 </i>
    <varray name="rec_basis" >
     <v>       0.13774104       0.00000000       0.00000000 </v>
     <v>       0.00000000       0.19479525       0.00000000 </v>
     <v>       0.00000000       0.00000000       0.04169483 </v>
    </varray>
   </crystal>
   <varray name="positions" >
    <v>       0.00000000       0.00000000       0.00000000 </v>
    <v>       0.00000000       0.50000000       0.00000000 </v>
    <v>       0.50000000       0.00000000       0.00000000 </v>
    <v>       0.50000000       0.50000000       0.00000000 </v>
    <v>       0.25000000       0.25000000       0.05351109 </v>
    <v>       0.25000000       0.75000000       0.05351109 </v>
    <v>       0.75000000       0.25000000       0.05351109 </v>
    <v>       0.75000000       0.75000000       0.05351109 </v>
    <v>       0.00000000       0.00000000       0.10541371 </v>
    <v>       0.00000000       0.50000000       0.10541371 </v>
    <v>       0.50000000       0.00000000       0.10541371 </v>
    <v>       0.50000000       0.50000000       0.10541371 </v>
    <v>       0.25000000       0.25000000       0.15715010 </v>
    <v>       0.25000000       0.75000000       0.15715010 </v>
    <v>       0.75000000       0.25000000       0.15715010 </v>
    <v>       0.75000000       0.75000000       0.15715010 </v>
    <v>       0.00000000       0.00000000       0.20866257 </v>
    <v>       0.00000000       0.50000000       0.20866257 </v>
    <v>       0.50000000       0.00000000       0.20866257 </v>
    <v>       0.50000000       0.50000000       0.20866257 </v>
    <v>       0.25000000       0.25000000       0.25947965 </v>
    <v>       0.25000000       0.75000000       0.25947965 </v>
    <v>       0.75000000       0.25000000       0.25947965 </v>
    <v>       0.75000000       0.75000000       0.25947965 </v>
    <v>       0.00000000       0.00000000       0.31415415 </v>
    <v>       0.00000000       0.50000000       0.31415415 </v>
    <v>       0.50000000       0.00000000       0.31415415 </v>
    <v>       0.50000000       0.50000000       0.31415415 </v>
    <v>       0.25000000       0.25000000       0.36181799 </v>
    <v>       0.25000000       0.75000000       0.36181799 </v>
    <v>       0.75000000       0.25000000       0.36181799 </v>
    <v>       0.75000000       0.75000000       0.36181799 </v>
    <v>       1.00000000       0.50000000       0.42690792 </v>
    <v>       1.00000000       0.50000000       0.45801226 </v>
   </varray>
  </structure>
  <varray name="forces" >
   <v>      -0.00000000       0.00000000       0.45994135 </v>
   <v>      -0.00000000       0.00000000       0.45629446 </v>
   <v>      -0.00000000       0.00000000       0.44961441 </v>
   <v>      -0.00000000       0.00000000       0.43991142 </v>
   <v>       0.00133785       0.00517213      -0.45536586 </v>
   <v>       0.00133785      -0.00517213      -0.45536586 </v>
   <v>      -0.00133785       0.00517213      -0.45536586 </v>
   <v>      -0.00133785      -0.00517213      -0.45536586 </v>
   <v>      -0.00000000       0.00000000      -0.03795328 </v>
   <v>      -0.00000000       0.00000000      -0.02285651 </v>
   <v>      -0.00000000       0.00000000      -0.01141122 </v>
   <v>      -0.00000000       0.00000000      -0.01043847 </v>
   <v>      -0.00338516       0.00474546       0.01302751 </v>
   <v>      -0.00338516      -0.00474546       0.01302751 </v>
   <v>       0.00338516       0.00474546       0.01302751 </v>
   <v>       0.00338516      -0.00474546       0.01302751 </v>
   <v>      -0.00000000       0.00000000      -0.02324653 </v>
   <v>      -0.00000000       0.00000000      -0.00646098 </v>
   <v>      -0.00000000       0.00000000       0.03532554 </v>
   <v>      -0.00000000       0.00000000       0.00703575 </v>
   <v>      -0.00358834       0.01309044       0.00837070 </v>
   <v>      -0.00358834      -0.01309044       0.00837070 </v>
   <v>       0.00358834       0.01309044       0.00837070 </v>
   <v>       0.00358834      -0.01309044       0.00837070 </v>
   <v>      -0.00000000       0.00000000      -0.00564709 </v>
   <v>      -0.00000000       0.00000000      -0.14109672 </v>
   <v>      -0.00000000       0.00000000       0.04052772 </v>
   <v>      -0.00000000       0.00000000       0.03974262 </v>
   <v>       0.07151955      -0.04867018      -0.05580626 </v>
   <v>       0.07151955       0.04867018      -0.05580626 </v>
   <v>      -0.07151955      -0.04867018      -0.05580626 </v>
   <v>      -0.07151955       0.04867018      -0.05580626 </v>
   <v>      -0.00000000       0.00000000      -0.41206091 </v>
   <v>      -0.00000000       0.00000000       0.70187406 </v>
  </varray>
  <varray name="stress" >
   <v>     -31.44242015       0.00000000       0.00000000 </v>
   <v>       0.00000000     -28.57905381       0.00000000 </v>
   <v>       0.00000000       0.00000000      -6.08008678 </v>
  </varray>
  <energy>
   <i name="e_fr_energy">   -130.65177798 </i>
   <i name="e_wo_entrp">   -130.68653927 </i>
   <i name="e_0_energy">   -130.66336508 </i>
  </energy>
  <time name="totalsc">  296.48  298.77</time>
 </calculation>
 <calculation>
  <scstep>
   <time name="dav">    7.61    7.67</time>
   <time name="total">    8.05    8.11</time>
   <energy>
    <i name="alphaZ">    844.48149002 </i>
    <i name="ewald"> 173020.99245255 </i>
    <i name="hartreedc">-215777.36039439 </i>
    <i name="XCdc">   1431.77677849 </i>
    <i name="pawpsdc">  41947.38710206 </i>
    <i name="pawaedc"> -45395.26648181 </i>
    <i name="eentropy">      0.03583448 </i>
    <i name="bandstr">   -725.87794836 </i>
    <i name="atom">  44535.60175172 </i>
    <i name="e_fr_energy">   -118.22941523 </i>
    <i name="e_wo_entrp">   -118.26524971 </i>
    <i name="e_0_energy">   -118.24136006 </i>
   </energy>
  </scstep>
  <scstep>
   <time name="dav">    9.55    9.62</time>
   <time name="total">    9.98   10.05</time>
   <energy>
    <i name="e_fr_energy">   -118.23074223 </i>
    <i name="e_wo_entrp">   -118.26593210 </i>
    <i name="e_0_energy">   -118.24247219 </i>
   </energy>
  </scstep>
  <scstep>
   <time name="dav">    8.54    8.60</time>
   <time name="total">    8.97    9.04</time>
   <energy>
    <i name="e_fr_energy">   -118.23151691 </i>
    <i name="e_wo_entrp">   -118.26750689 </i>
    <i name="e_0_energy">   -118.24351357 </i>
   </energy>
  </scstep>
  <scstep>
   <time name="dav">    8.91    8.98</time>
   <time name="total">    9.34    9.41</time>
   <energy>
    <i name="e_fr_energy">   -118.23055611 </i>
    <i name="e_wo_entrp">   -118.26616625 </i>
    <i name="e_0_energy">   -118.24242616 </i>
   </energy>
  </scstep>
  <scstep>
   <time name="dav">    8.36    8.43</time>
   <time name="total">    8.79    8.86</time>
   <energy>
    <i name="e_fr_energy">   -118.22983111 </i>
    <i name="e_wo_entrp">   -118.26473957 </i>
    <i name="e_0_energy">   -118.24146727 </i>
   </energy>
  </scstep>
  <scstep>
   <time name="dav">    6.38    6.43</time>
   <time name="total">    6.46    6.51</time>
   <energy>
    <i name="alphaZ">    844.48149002 </i>
    <i name="ewald"> 173020.99245255 </i>
    <i name="hartreedc">-215775.53567244 </i>
    <i name="XCdc">   1431.70151200 </i>
    <i name="pawpsdc">  41946.14567175 </i>
    <i name="pawaedc"> -45394.01552243 </i>
    <i name="eentropy">      0.03548373 </i>
    <i name="bandstr">   -727.63695842 </i>
    <i name="atom">  44535.60175172 </i>
    <i name="e_fr_energy">   -118.22979152 </i>
    <i name="e_wo_entrp">   -118.26527525 </i>
    <i name="e_0_energy">   -118.24161943 </i>
   </energy>
  </scstep>
  <structure>
   <crystal>
    <varray name="basis" >
     <v>       7.26000023       0.00000000       0.00000000 </v>
     <v>       0.00000000       5.13359547       0.00000000 </v>
     <v>       0.00000000       0.00000000      23.98379135 </v>
    </varray>
    <i name="volume">    893.87360752 </i>
    <varray name="rec_basis" >
     <v>       0.13774104       0.00000000       0.00000000 </v>
     <v>       0.00000000       0.19479525       0.00000000 </v>
     <v>       0.00000000       0.00000000       0.04169483 </v>
    </varray>
   </crystal>
   <varray name="positions" >
    <v>       0.00000000       0.00000000       0.00000000 </v>
    <v>       0.00000000       0.50000000       0.00000000 </v>
    <v>       0.50000000       0.00000000       0.00000000 </v>
    <v>       0.50000000       0.50000000       0.00000000 </v>
    <v>       0.25000000       0.25000000       0.05351109 </v>
    <v>       0.25000000       0.75000000       0.05351109 </v>
    <v>       0.75000000       0.25000000       0.05351109 </v>
    <v>       0.75000000       0.75000000       0.05351109 </v>
    <v>       0.00000000       0.00000000       0.10541371 </v>
    <v>       0.00000000       0.50000000       0.10541371 </v>
    <v>       0.50000000       0.00000000       0.10541371 </v>
    <v>       0.50000000       0.50000000       0.10541371 </v>
    <v>       0.24997751       0.25004460       0.15717630 </v>
    <v>       0.24997751       0.74995540       0.15717630 </v>
    <v>       0.75002249       0.25004460       0.15717630 </v>
    <v>       0.75002249       0.74995540       0.15717630 </v>
    <v>      -0.00000000       0.00000000       0.20861581 </v>
    <v>      -0.00000000       0.50000000       0.20864957 </v>
    <v>       0.50000000       0.00000000       0.20873363 </v>
    <v>       0.50000000       0.50000000       0.20867672 </v>
    <v>       0.24997616       0.25012302       0.25949649 </v>
    <v>       0.24997616       0.74987698       0.25949649 </v>
    <v>       0.75002384       0.25012302       0.25949649 </v>
    <v>       0.75002384       0.74987698       0.25949649 </v>
    <v>      -0.00000000       0.00000000       0.31414279 </v>
    <v>      -0.00000000       0.50000000       0.31387034 </v>
    <v>       0.50000000       0.00000000       0.31423567 </v>
    <v>       0.50000000       0.50000000       0.31423409 </v>
    <v>       0.25047525       0.24954262       0.36170574 </v>
    <v>       0.25047525       0.75045738       0.36170574 </v>
    <v>       0.74952475       0.24954262       0.36170574 </v>
    <v>       0.74952475       0.75045738       0.36170574 </v>
    <v>       1.00000000       0.50000000       0.42607907 </v>
    <v>       1.00000000       0.50000000       0.45942406 </v>
   </varray>
  </structure>
  <varray name="forces" >
   <v>       0.00000000       0.00000000       0.45613978 </v>
   <v>       0.00000000       0.00000000       0.45407096 </v>
   <v>       0.00000000       0.00000000       0.44658413 </v>
   <v>       0.00000000       0.00000000       0.43567052 </v>
   <v>       0.00171773       0.00497191      -0.45571404 </v>
   <v>       0.00171773      -0.00497191      -0.45571404 </v>
   <v>      -0.00171773       0.00497191      -0.45571404 </v>
   <v>      -0.00171773      -0.00497191      -0.45571404 </v>
   <v>       0.00000000       0.00000000      -0.04348627 </v>
   <v>       0.00000000       0.00000000      -0.02835411 </v>
   <v>       0.00000000       0.00000000      -0.00814347 </v>
   <v>       0.00000000       0.00000000      -0.01122910 </v>
   <v>       0.00207535      -0.00014852       0.00269425 </v>
   <v>       0.00207535       0.00014852       0.00269425 </v>
   <v>      -0.00207535      -0.00014852       0.00269425 </v>
   <v>      -0.00207535       0.00014852       0.00269425 </v>
   <v>       0.00000000       0.00000000      -0.00923701 </v>
   <v>       0.00000000       0.00000000      -0.01707448 </v>
   <v>       0.00000000       0.00000000       0.01624780 </v>
   <v>       0.00000000       0.00000000       0.00531244 </v>
   <v>       0.00137748       0.00188071      -0.00295950 </v>
   <v>       0.00137748      -0.00188071      -0.00295950 </v>
   <v>      -0.00137748       0.00188071      -0.00295950 </v>
   <v>      -0.00137748      -0.00188071      -0.00295950 </v>
   <v>       0.00000000       0.00000000      -0.00469203 </v>
   <v>       0.00000000       0.00000000      -0.06002575 </v>
   <v>       0.00000000       0.00000000       0.00725900 </v>
   <v>       0.00000000       0.00000000       0.01370417 </v>
   <v>       0.02876064      -0.01372083      -0.01887931 </v>
   <v>       0.02876064       0.01372083      -0.01887931 </v>
   <v>      -0.02876064      -0.01372083      -0.01887931 </v>
   <v>      -0.02876064       0.01372083      -0.01887931 </v>
   <v>       0.00000000       0.00000000       0.86144026 </v>
   <v>       0.00000000       0.00000000      -0.61475249 </v>
  </varray>
  <varray name="stress" >
   <v>     -30.16002618       0.00000000       0.00000000 </v>
   <v>       0.00000000     -27.21888933       0.00000000 </v>
   <v>       0.00000000       0.00000000      -6.52025388 </v>
  </varray>
  <energy>
   <i name="e_fr_energy">   -130.64757720 </i>
   <i name="e_wo_entrp">   -130.68306093 </i>
   <i name="e_0_energy">   -130.65940511 </i>
  </energy>
  <time name="totalsc">   66.53   67.04</time>
 </calculation>
 <calculation>
  <scstep>
   <time name="dav">    7.68    7.74</time>
   <time name="total">    8.11    8.17</time>
   <energy>
    <i name="alphaZ">    844.48149002 </i>
    <i name="ewald"> 172990.68985514 </i>
    <i name="hartreedc">-215745.01295391 </i>
    <i name="XCdc">   1431.72121612 </i>
    <i name="pawpsdc">  41946.23212361 </i>
    <i name="pawaedc"> -45394.12741360 </i>
    <i name="eentropy">      0.03473081 </i>
    <i name="bandstr">   -727.86743833 </i>
    <i name="atom">  44535.60175172 </i>
    <i name="e_fr_energy">   -118.24663841 </i>
    <i name="e_wo_entrp">   -118.28136922 </i>
    <i name="e_0_energy">   -118.25821535 </i>
   </energy>
  </scstep>
  <scstep>
   <time name="dav">    9.19    9.26</time>
   <time name="total">    9.62    9.69</time>
   <energy>
    <i name="e_fr_energy">   -118.24737000 </i>
    <i name="e_wo_entrp">   -118.28242617 </i>
    <i name="e_0_energy">   -118.25905539 </i>
   </energy>
  </scstep>
  <scstep>
   <time name="dav">    8.17    8.23</time>
   <time name="total">    8.25    8.32</time>
   <energy>
    <i name="alphaZ">    844.48149002 </i>
    <i name="ewald"> 172990.68985514 </i>
    <i name="hartreedc">-215745.77585849 </i>
    <i name="XCdc">   1431.77136646 </i>
    <i name="pawpsdc">  41946.83673771 </i>
    <i name="pawaedc"> -45394.82314764 </i>
    <i name="eentropy">      0.03501446 </i>
    <i name="bandstr">   -727.06437999 </i>
    <i name="atom">  44535.60175172 </i>
    <i name="e_fr_energy">   -118.24717061 </i>
    <i name="e_wo_entrp">   -118.28218507 </i>
    <i name="e_0_energy">   -118.25884210 </i>
   </energy>
  </scstep>
  <structure>
   <crystal>
    <varray name="basis" >
     <v>       7.26000023       0.00000000       0.00000000 </v>
     <v>       0.00000000       5.13359547       0.00000000 </v>
     <v>       0.00000000       0.00000000      23.98379135 </v>
    </varray>
    <i name="volume">    893.87360752 </i>
    <varray name="rec_basis" >
     <v>       0.13774104       0.00000000       0.00000000 </v>
     <v>       0.00000000       0.19479525       0.00000000 </v>
     <v>       0.00000000       0.00000000       0.04169483 </v>
    </varray>
   </crystal>
   <varray name="positions" >
    <v>       0.00000000       0.00000000       0.00000000 </v>
    <v>       0.00000000       0.50000000       0.00000000 </v>
    <v>       0.50000000       0.00000000       0.00000000 </v>
    <v>       0.50000000       0.50000000       0.00000000 </v>
    <v>       0.25000000       0.25000000       0.05351109 </v>
    <v>       0.25000000       0.75000000       0.05351109 </v>
    <v>       0.75000000       0.25000000       0.05351109 </v>
    <v>       0.75000000       0.75000000       0.05351109 </v>
    <v>       0.00000000       0.00000000       0.10541371 </v>
    <v>       0.00000000       0.50000000       0.10541371 </v>
    <v>       0.50000000       0.00000000       0.10541371 </v>
    <v>       0.50000000       0.50000000       0.10541371 </v>
    <v>       0.24999057       0.25001870       0.15716108 </v>
    <v>       0.24999057       0.74998130       0.15716108 </v>
    <v>       0.75000943       0.25001870       0.15716108 </v>
    <v>       0.75000943       0.74998130       0.15716108 </v>
    <v>      -0.00000000       0.00000000       0.20864296 </v>
    <v>      -0.00000000       0.50000000       0.20865712 </v>
    <v>       0.50000000       0.00000000       0.20869236 </v>
    <v>       0.50000000       0.50000000       0.20866850 </v>
    <v>       0.24999000       0.25005158       0.25948671 </v>
    <v>       0.24999000       0.74994842       0.25948671 </v>
    <v>       0.75001000       0.25005158       0.25948671 </v>
    <v>       0.75001000       0.74994842       0.25948671 </v>
    <v>      -0.00000000       0.00000000       0.31414939 </v>
    <v>      -0.00000000       0.50000000       0.31403515 </v>
    <v>       0.50000000       0.00000000       0.31418833 </v>
    <v>       0.50000000       0.50000000       0.31418767 </v>
    <v>       0.25019927       0.24980822       0.36177092 </v>
    <v>       0.25019927       0.75019178       0.36177092 </v>
    <v>       0.74980073       0.24980822       0.36177092 </v>
    <v>       0.74980073       0.75019178       0.36177092 </v>
    <v>       1.00000000       0.50000000       0.42656039 </v>
    <v>       1.00000000       0.50000000       0.45860422 </v>
   </varray>
  </structure>
  <varray name="forces" >
   <v>      -0.00000000       0.00000000       0.46319144 </v>
   <v>      -0.00000000       0.00000000       0.46090235 </v>
   <v>      -0.00000000       0.00000000       0.45375130 </v>
   <v>      -0.00000000       0.00000000       0.44376539 </v>
   <v>       0.00178827       0.00536680      -0.45364804 </v>
   <v>       0.00178827      -0.00536680      -0.45364804 </v>
   <v>      -0.00178827       0.00536680      -0.45364804 </v>
   <v>      -0.00178827      -0.00536680      -0.45364804 </v>
   <v>      -0.00000000       0.00000000      -0.03766826 </v>
   <v>      -0.00000000       0.00000000      -0.02263313 </v>
   <v>      -0.00000000       0.00000000      -0.00937939 </v>
   <v>      -0.00000000       0.00000000      -0.00939572 </v>
   <v>      -0.00318686       0.00524258       0.01612875 </v>
   <v>      -0.00318686      -0.00524258       0.01612875 </v>
   <v>       0.00318686       0.00524258       0.01612875 </v>
   <v>       0.00318686      -0.00524258       0.01612875 </v>
   <v>      -0.00000000       0.00000000      -0.02342183 </v>
   <v>      -0.00000000       0.00000000      -0.00936189 </v>
   <v>      -0.00000000       0.00000000       0.04112672 </v>
   <v>      -0.00000000       0.00000000       0.01089355 </v>
   <v>      -0.00249192       0.01304340       0.00446835 </v>
   <v>      -0.00249192      -0.01304340       0.00446835 </v>
   <v>       0.00249192       0.01304340       0.00446835 </v>
   <v>       0.00249192      -0.01304340       0.00446835 </v>
   <v>      -0.00000000       0.00000000      -0.01402607 </v>
   <v>      -0.00000000       0.00000000      -0.14914446 </v>
   <v>      -0.00000000       0.00000000       0.03675953 </v>
   <v>      -0.00000000       0.00000000       0.03652014 </v>
   <v>       0.07212084      -0.04711945      -0.05344008 </v>
   <v>       0.07212084       0.04711945      -0.05344008 </v>
   <v>      -0.07212084      -0.04711945      -0.05344008 </v>
   <v>      -0.07212084       0.04711945      -0.05344008 </v>
   <v>      -0.00000000       0.00000000       0.25566617 </v>
   <v>      -0.00000000       0.00000000       0.01841824 </v>
  </varray>
  <varray name="stress" >
   <v>     -32.27164713       0.00000000       0.00000000 </v>
   <v>       0.00000000     -29.38812199       0.00000000 </v>
   <v>       0.00000000       0.00000000      -7.91034767 </v>
  </varray>
  <energy>
   <i name="e_fr_energy">   -130.65917927 </i>
   <i name="e_wo_entrp">   -130.69419373 </i>
   <i name="e_0_energy">   -130.67085076 </i>
  </energy>
  <time name="totalsc">   40.93   41.28</time>
 </calculation>
 <calculation>
  <scstep>
   <time name="dav">    8.15    8.22</time>
   <time name="total">    8.58    8.65</time>
   <energy>
    <i name="alphaZ">    844.48149002 </i>
    <i name="ewald"> 173050.30228547 </i>
    <i name="hartreedc">-215805.21566450 </i>
    <i name="XCdc">   1431.78935712 </i>
    <i name="pawpsdc">  41946.86910206 </i>
    <i name="pawaedc"> -45394.83339858 </i>
    <i name="eentropy">      0.03532068 </i>
    <i name="bandstr">   -727.27782992 </i>
    <i name="atom">  44535.60175172 </i>
    <i name="e_fr_energy">   -118.24758593 </i>
    <i name="e_wo_entrp">   -118.28290661 </i>
    <i name="e_0_energy">   -118.25935949 </i>
   </energy>
  </scstep>
  <scstep>
   <time name="dav">   11.90   11.99</time>
   <time name="total">   12.33   12.42</time>
   <energy>
    <i name="e_fr_energy">   -118.25299250 </i>
    <i name="e_wo_entrp">   -118.28904849 </i>
    <i name="e_0_energy">   -118.26501116 </i>
   </energy>
  </scstep>
  <scstep>
   <time name="dav">   10.09   10.17</time>
   <time name="total">   10.51   10.59</time>
   <energy>
    <i name="e_fr_energy">   -118.24943256 </i>
    <i name="e_wo_entrp">   -118.28491624 </i>
    <i name="e_0_energy">   -118.26126046 </i>
   </energy>
  </scstep>
  <scstep>
   <time name="dav">    7.80    7.86</time>
   <time name="total">    8.23    8.30</time>
   <energy>
    <i name="e_fr_energy">   -118.24968179 </i>
    <i name="e_wo_entrp">   -118.28519663 </i>
    <i name="e_0_energy">   -118.26152007 </i>
   </energy>
  </scstep>
  <scstep>
   <time name="dav">    5.48    5.52</time>
   <time name="total">    5.56    5.60</time>
   <energy>
    <i name="alphaZ">    844.48149002 </i>
    <i name="ewald"> 173050.30228547 </i>
    <i name="hartreedc">-215804.66594191 </i>
    <i name="XCdc">   1431.77866814 </i>
    <i name="pawpsdc">  41948.71235270 </i>
    <i name="pawaedc"> -45396.66961267 </i>
    <i name="eentropy">      0.03551094 </i>
    <i name="bandstr">   -727.82616732 </i>
    <i name="atom">  44535.60175172 </i>
    <i name="e_fr_energy">   -118.24966291 </i>
    <i name="e_wo_entrp">   -118.28517385 </i>
    <i name="e_0_energy">   -118.26149989 </i>
   </energy>
  </scstep>
  <structure>
   <crystal>
    <varray name="basis" >
     <v>       7.26000023       0.00000000       0.00000000 </v>
     <v>       0.00000000       5.13359547       0.00000000 </v>
     <v>       0.00000000       0.00000000      23.98379135 </v>
    </varray>
    <i name="volume">    893.87360752 </i>
    <varray name="rec_basis" >
     <v>       0.13774104       0.00000000       0.00000000 </v>
     <v>       0.00000000       0.19479525       0.00000000 </v>
     <v>       0.00000000       0.00000000       0.04169483 </v>
    </varray>
   </crystal>
   <varray name="positions" >
    <v>       0.00000000       0.00000000       0.00000000 </v>
    <v>       0.00000000       0.50000000       0.00000000 </v>
    <v>       0.50000000       0.00000000       0.00000000 </v>
    <v>       0.50000000       0.50000000       0.00000000 </v>
    <v>       0.25000000       0.25000000       0.05351109 </v>
    <v>       0.25000000       0.75000000       0.05351109 </v>
    <v>       0.75000000       0.25000000       0.05351109 </v>
    <v>       0.75000000       0.75000000       0.05351109 </v>
    <v>       0.00000000       0.00000000       0.10541371 </v>
    <v>       0.00000000       0.50000000       0.10541371 </v>
    <v>       0.50000000       0.00000000       0.10541371 </v>
    <v>       0.50000000       0.50000000       0.10541371 </v>
    <v>       0.24996753       0.25007081       0.15719479 </v>
    <v>       0.24996753       0.74992919       0.15719479 </v>
    <v>       0.75003247       0.25007081       0.15719479 </v>
    <v>       0.75003247       0.74992919       0.15719479 </v>
    <v>      -0.00000000       0.00000000       0.20859234 </v>
    <v>      -0.00000000       0.50000000       0.20863798 </v>
    <v>       0.50000000       0.00000000       0.20877913 </v>
    <v>       0.50000000       0.50000000       0.20869059 </v>
    <v>       0.24997079       0.25018355       0.25949789 </v>
    <v>       0.24997079       0.74981645       0.25949789 </v>
    <v>       0.75002921       0.25018355       0.25949789 </v>
    <v>       0.75002921       0.74981645       0.25949789 </v>
    <v>      -0.00000000       0.00000000       0.31412227 </v>
    <v>      -0.00000000       0.50000000       0.31371548 </v>
    <v>       0.50000000       0.00000000       0.31426934 </v>
    <v>       0.50000000       0.50000000       0.31426795 </v>
    <v>       0.25071413       0.24932900       0.36165435 </v>
    <v>       0.25071413       0.75067100       0.36165435 </v>
    <v>       0.74928587       0.24932900       0.36165435 </v>
    <v>       0.74928587       0.75067100       0.36165435 </v>
    <v>       1.00000000       0.50000000       0.42685573 </v>
    <v>       1.00000000       0.50000000       0.45890813 </v>
   </varray>
  </structure>
  <varray name="forces" >
   <v>       0.00000000      -0.00000000       0.45927719 </v>
   <v>       0.00000000      -0.00000000       0.45599033 </v>
   <v>       0.00000000      -0.00000000       0.44862006 </v>
   <v>       0.00000000      -0.00000000       0.43814869 </v>
   <v>       0.00154540       0.00499072      -0.45154542 </v>
   <v>       0.00154540      -0.00499072      -0.45154542 </v>
   <v>      -0.00154540       0.00499072      -0.45154542 </v>
   <v>      -0.00154540      -0.00499072      -0.45154542 </v>
   <v>       0.00000000      -0.00000000      -0.04040511 </v>
   <v>       0.00000000      -0.00000000      -0.02546397 </v>
   <v>       0.00000000      -0.00000000      -0.00122126 </v>
   <v>       0.00000000      -0.00000000      -0.00645066 </v>
   <v>       0.00333686      -0.00096239       0.00356877 </v>
   <v>       0.00333686       0.00096239       0.00356877 </v>
   <v>      -0.00333686      -0.00096239       0.00356877 </v>
   <v>      -0.00333686       0.00096239       0.00356877 </v>
   <v>       0.00000000      -0.00000000      -0.00847125 </v>
   <v>       0.00000000      -0.00000000      -0.02253513 </v>
   <v>       0.00000000      -0.00000000       0.01745252 </v>
   <v>       0.00000000      -0.00000000       0.00649256 </v>
   <v>       0.00327195       0.00031263      -0.00686688 </v>
   <v>       0.00327195      -0.00031263      -0.00686688 </v>
   <v>      -0.00327195       0.00031263      -0.00686688 </v>
   <v>      -0.00327195      -0.00031263      -0.00686688 </v>
   <v>       0.00000000      -0.00000000      -0.00333945 </v>
   <v>       0.00000000      -0.00000000      -0.06711970 </v>
   <v>       0.00000000      -0.00000000       0.00032792 </v>
   <v>       0.00000000      -0.00000000       0.01055466 </v>
   <v>       0.02799447      -0.01231582      -0.02775891 </v>
   <v>       0.02799447       0.01231582      -0.02775891 </v>
   <v>      -0.02799447      -0.01231582      -0.02775891 </v>
   <v>      -0.02799447       0.01231582      -0.02775891 </v>
   <v>       0.00000000      -0.00000000       0.24002672 </v>
   <v>       0.00000000      -0.00000000       0.02852559 </v>
  </varray>
  <varray name="stress" >
   <v>     -31.24122575       0.00000000       0.00000000 </v>
   <v>       0.00000000     -28.40743514       0.00000000 </v>
   <v>       0.00000000       0.00000000      -6.70410178 </v>
  </varray>
  <energy>
   <i name="e_fr_energy">   -130.66322177 </i>
   <i name="e_wo_entrp">   -130.69873271 </i>
   <i name="e_0_energy">   -130.67505875 </i>
  </energy>
  <time name="totalsc">   60.15   60.59</time>
 </calculation>
 <calculation>
  <scstep>
   <time name="dav">    7.76    7.82</time>
   <time name="total">    8.20    8.26</time>
   <energy>
    <i name="alphaZ">    844.48149002 </i>
    <i name="ewald"> 173139.51387535 </i>
    <i name="hartreedc">-215893.61822638 </i>
    <i name="XCdc">   1431.80509329 </i>
    <i name="pawpsdc">  41949.30453848 </i>
    <i name="pawaedc"> -45397.27795320 </i>
    <i name="eentropy">      0.03622284 </i>
    <i name="bandstr">   -728.09324788 </i>
    <i name="atom">  44535.60175172 </i>
    <i name="e_fr_energy">   -118.24645575 </i>
    <i name="e_wo_entrp">   -118.28267859 </i>
    <i name="e_0_energy">   -118.25853003 </i>
   </energy>
  </scstep>
  <scstep>
   <time name="dav">    9.71    9.79</time>
   <time name="total">   10.15   10.22</time>
   <energy>
    <i name="e_fr_energy">   -118.25096437 </i>
    <i name="e_wo_entrp">   -118.28707631 </i>
    <i name="e_0_energy">   -118.26300168 </i>
   </energy>
  </scstep>
  <scstep>
   <time name="dav">    7.78    7.84</time>
   <time name="total">    8.21    8.27</time>
   <energy>
    <i name="e_fr_energy">   -118.25093387 </i>
    <i name="e_wo_entrp">   -118.28732871 </i>
    <i name="e_0_energy">   -118.26306548 </i>
   </energy>
  </scstep>
  <scstep>
   <time name="dav">    6.56    6.61</time>
   <time name="total">    6.64    6.69</time>
   <energy>
    <i name="alphaZ">    844.48149002 </i>
    <i name="ewald"> 173139.51387535 </i>
    <i name="hartreedc">-215893.09137668 </i>
    <i name="XCdc">   1431.79526169 </i>
    <i name="pawpsdc">  41952.09560719 </i>
    <i name="pawaedc"> -45400.05387643 </i>
    <i name="eentropy">      0.03619439 </i>
    <i name="bandstr">   -728.62981525 </i>
    <i name="atom">  44535.60175172 </i>
    <i name="e_fr_energy">   -118.25088800 </i>
    <i name="e_wo_entrp">   -118.28708239 </i>
    <i name="e_0_energy">   -118.26295280 </i>
   </energy>
  </scstep>
  <structure>
   <crystal>
    <varray name="basis" >
     <v>       7.26000023       0.00000000       0.00000000 </v>
     <v>       0.00000000       5.13359547       0.00000000 </v>
     <v>       0.00000000       0.00000000      23.98379135 </v>
    </varray>
    <i name="volume">    893.87360752 </i>
    <varray name="rec_basis" >
     <v>       0.13774104       0.00000000       0.00000000 </v>
     <v>       0.00000000       0.19479525       0.00000000 </v>
     <v>       0.00000000       0.00000000       0.04169483 </v>
    </varray>
   </crystal>
   <varray name="positions" >
    <v>       0.00000000       0.00000000       0.00000000 </v>
    <v>       0.00000000       0.50000000       0.00000000 </v>
    <v>       0.50000000       0.00000000       0.00000000 </v>
    <v>       0.50000000       0.50000000       0.00000000 </v>
    <v>       0.25000000       0.25000000       0.05351109 </v>
    <v>       0.25000000       0.75000000       0.05351109 </v>
    <v>       0.75000000       0.25000000       0.05351109 </v>
    <v>       0.75000000       0.75000000       0.05351109 </v>
    <v>       0.00000000       0.00000000       0.10541371 </v>
    <v>       0.00000000       0.50000000       0.10541371 </v>
    <v>       0.50000000       0.00000000       0.10541371 </v>
    <v>       0.50000000       0.50000000       0.10541371 </v>
    <v>       0.24993314       0.25014860       0.15724511 </v>
    <v>       0.24993314       0.74985140       0.15724511 </v>
    <v>       0.75006686       0.25014860       0.15724511 </v>
    <v>       0.75006686       0.74985140       0.15724511 </v>
    <v>      -0.00000000       0.00000000       0.20851677 </v>
    <v>      -0.00000000       0.50000000       0.20860941 </v>
    <v>       0.50000000       0.00000000       0.20890865 </v>
    <v>       0.50000000       0.50000000       0.20872356 </v>
    <v>       0.24994210       0.25038055       0.25951458 </v>
    <v>       0.24994210       0.74961945       0.25951458 </v>
    <v>       0.75005790       0.25038055       0.25951458 </v>
    <v>       0.75005790       0.74961945       0.25951458 </v>
    <v>      -0.00000000       0.00000000       0.31408179 </v>
    <v>      -0.00000000       0.50000000       0.31323827 </v>
    <v>       0.50000000       0.00000000       0.31439028 </v>
    <v>       0.50000000       0.50000000       0.31438780 </v>
    <v>       0.25148273       0.24861361       0.36148034 </v>
    <v>       0.25148273       0.75138639       0.36148034 </v>
    <v>       0.74851727       0.24861361       0.36148034 </v>
    <v>       0.74851727       0.75138639       0.36148034 </v>
    <v>       1.00000000       0.50000000       0.42729662 </v>
    <v>       1.00000000       0.50000000       0.45936181 </v>
   </varray>
  </structure>
  <varray name="forces" >
   <v>       0.00000000       0.00000000       0.45613268 </v>
   <v>       0.00000000       0.00000000       0.45305621 </v>
   <v>       0.00000000       0.00000000       0.44640848 </v>
   <v>       0.00000000       0.00000000       0.43516341 </v>
   <v>       0.00195346       0.00475074      -0.44978107 </v>
   <v>       0.00195346      -0.00475074      -0.44978107 </v>
   <v>      -0.00195346       0.00475074      -0.44978107 </v>
   <v>      -0.00195346      -0.00475074      -0.44978107 </v>
   <v>       0.00000000       0.00000000      -0.04346593 </v>
   <v>       0.00000000       0.00000000      -0.02880113 </v>
   <v>       0.00000000       0.00000000       0.00984184 </v>
   <v>       0.00000000       0.00000000      -0.00253401 </v>
   <v>       0.01173036      -0.00784110      -0.01016364 </v>
   <v>       0.01173036       0.00784110      -0.01016364 </v>
   <v>      -0.01173036      -0.00784110      -0.01016364 </v>
   <v>      -0.01173036       0.00784110      -0.01016364 </v>
   <v>       0.00000000       0.00000000       0.00880130 </v>
   <v>       0.00000000       0.00000000      -0.04104150 </v>
   <v>       0.00000000       0.00000000      -0.01069662 </v>
   <v>       0.00000000       0.00000000       0.00081630 </v>
   <v>       0.00977396      -0.01496065      -0.02425049 </v>
   <v>       0.00977396       0.01496065      -0.02425049 </v>
   <v>      -0.00977396      -0.01496065      -0.02425049 </v>
   <v>      -0.00977396       0.01496065      -0.02425049 </v>
   <v>       0.00000000       0.00000000       0.00260454 </v>
   <v>       0.00000000       0.00000000       0.04851676 </v>
   <v>       0.00000000       0.00000000      -0.05012783 </v>
   <v>       0.00000000       0.00000000      -0.02523603 </v>
   <v>      -0.03295421       0.03524804       0.00589412 </v>
   <v>      -0.03295421      -0.03524804       0.00589412 </v>
   <v>       0.03295421       0.03524804       0.00589412 </v>
   <v>       0.03295421      -0.03524804       0.00589412 </v>
   <v>       0.00000000       0.00000000       0.25245385 </v>
   <v>       0.00000000       0.00000000       0.00131199 </v>
  </varray>
  <varray name="stress" >
   <v>     -29.44093830       0.00000000       0.00000000 </v>
   <v>       0.00000000     -26.67028024       0.00000000 </v>
   <v>       0.00000000       0.00000000      -4.86681437 </v>
  </varray>
  <energy>
   <i name="e_fr_energy">   -130.66665643 </i>
   <i name="e_wo_entrp">   -130.70285082 </i>
   <i name="e_0_energy">   -130.67872123 </i>
  </energy>
  <time name="totalsc">   48.13   48.50</time>
 </calculation>
 <calculation>
  <scstep>
   <time name="dav">    8.26    8.33</time>
   <time name="total">    8.69    8.76</time>
   <energy>
    <i name="alphaZ">    844.48149002 </i>
    <i name="ewald"> 173172.39309844 </i>
    <i name="hartreedc">-215925.80750446 </i>
    <i name="XCdc">   1431.81295628 </i>
    <i name="pawpsdc">  41952.74865136 </i>
    <i name="pawaedc"> -45400.75605505 </i>
    <i name="eentropy">      0.03597589 </i>
    <i name="bandstr">   -728.76320597 </i>
    <i name="atom">  44535.60175172 </i>
    <i name="e_fr_energy">   -118.25284177 </i>
    <i name="e_wo_entrp">   -118.28881766 </i>
    <i name="e_0_energy">   -118.26483374 </i>
   </energy>
  </scstep>
  <scstep>
   <time name="dav">   10.45   10.53</time>
   <time name="total">   10.88   10.96</time>
   <energy>
    <i name="e_fr_energy">   -118.25351965 </i>
    <i name="e_wo_entrp">   -118.28993362 </i>
    <i name="e_0_energy">   -118.26565764 </i>
   </energy>
  </scstep>
  <scstep>
   <time name="dav">    7.14    7.19</time>
   <time name="total">    7.57    7.63</time>
   <energy>
    <i name="e_fr_energy">   -118.25330519 </i>
    <i name="e_wo_entrp">   -118.28964455 </i>
    <i name="e_0_energy">   -118.26541831 </i>
   </energy>
  </scstep>
  <scstep>
   <time name="dav">    6.09    6.14</time>
   <time name="total">    6.18    6.22</time>
   <energy>
    <i name="alphaZ">    844.48149002 </i>
    <i name="ewald"> 173172.39309844 </i>
    <i name="hartreedc">-215925.64311940 </i>
    <i name="XCdc">   1431.82633519 </i>
    <i name="pawpsdc">  41955.06273069 </i>
    <i name="pawaedc"> -45403.12416001 </i>
    <i name="eentropy">      0.03592169 </i>
    <i name="bandstr">   -728.88717028 </i>
    <i name="atom">  44535.60175172 </i>
    <i name="e_fr_energy">   -118.25312194 </i>
    <i name="e_wo_entrp">   -118.28904363 </i>
    <i name="e_0_energy">   -118.26509584 </i>
   </energy>
  </scstep>
  <structure>
   <crystal>
    <varray name="basis" >
     <v>       7.26000023       0.00000000       0.00000000 </v>
     <v>       0.00000000       5.13359547       0.00000000 </v>
     <v>       0.00000000       0.00000000      23.98379135 </v>
    </varray>
    <i name="volume">    893.87360752 </i>
    <varray name="rec_basis" >
     <v>       0.13774104       0.00000000       0.00000000 </v>
     <v>       0.00000000       0.19479525       0.00000000 </v>
     <v>       0.00000000       0.00000000       0.04169483 </v>
    </varray>
   </crystal>
   <varray name="positions" >
    <v>       0.00000000       0.00000000       0.00000000 </v>
    <v>       0.00000000       0.50000000       0.00000000 </v>
    <v>       0.50000000       0.00000000       0.00000000 </v>
    <v>       0.50000000       0.50000000       0.00000000 </v>
    <v>       0.25000000       0.25000000       0.05351109 </v>
    <v>       0.25000000       0.75000000       0.05351109 </v>
    <v>       0.75000000       0.25000000       0.05351109 </v>
    <v>       0.75000000       0.75000000       0.05351109 </v>
    <v>       0.00000000       0.00000000       0.10541371 </v>
    <v>       0.00000000       0.50000000       0.10541371 </v>
    <v>       0.50000000       0.00000000       0.10541371 </v>
    <v>       0.50000000       0.50000000       0.10541371 </v>
    <v>       0.25001145       0.25008925       0.15723796 </v>
    <v>       0.25001145       0.74991075       0.15723796 </v>
    <v>       0.74998855       0.25008925       0.15723796 </v>
    <v>       0.74998855       0.74991075       0.15723796 </v>
    <v>      -0.00000000       0.00000000       0.20851259 </v>
    <v>      -0.00000000       0.50000000       0.20850539 </v>
    <v>       0.50000000       0.00000000       0.20892595 </v>
    <v>       0.50000000       0.50000000       0.20873613 </v>
    <v>       0.25000734       0.25028306       0.25946400 </v>
    <v>       0.25000734       0.74971694       0.25946400 </v>
    <v>       0.74999266       0.25028306       0.25946400 </v>
    <v>       0.74999266       0.74971694       0.25946400 </v>
    <v>      -0.00000000       0.00000000       0.31407467 </v>
    <v>      -0.00000000       0.50000000       0.31319556 </v>
    <v>       0.50000000       0.00000000       0.31431376 </v>
    <v>       0.50000000       0.50000000       0.31436839 </v>
    <v>       0.25148060       0.24876184       0.36143752 </v>
    <v>       0.25148060       0.75123816       0.36143752 </v>
    <v>       0.74851940       0.24876184       0.36143752 </v>
    <v>       0.74851940       0.75123816       0.36143752 </v>
    <v>       1.00000000       0.50000000       0.42802240 </v>
    <v>       1.00000000       0.50000000       0.45951193 </v>
   </varray>
  </structure>
  <varray name="forces" >
   <v>       0.00000000       0.00000000       0.45902255 </v>
   <v>       0.00000000       0.00000000       0.45594338 </v>
   <v>       0.00000000       0.00000000       0.44834542 </v>
   <v>       0.00000000       0.00000000       0.43794360 </v>
   <v>       0.00105169       0.00460235      -0.44908397 </v>
   <v>       0.00105169      -0.00460235      -0.44908397 </v>
   <v>      -0.00105169       0.00460235      -0.44908397 </v>
   <v>      -0.00105169      -0.00460235      -0.44908397 </v>
   <v>       0.00000000       0.00000000      -0.04089186 </v>
   <v>       0.00000000       0.00000000      -0.03097845 </v>
   <v>       0.00000000       0.00000000       0.00852276 </v>
   <v>       0.00000000       0.00000000      -0.00210648 </v>
   <v>       0.00312403      -0.00177109      -0.00622070 </v>
   <v>       0.00312403       0.00177109      -0.00622070 </v>
   <v>      -0.00312403      -0.00177109      -0.00622070 </v>
   <v>      -0.00312403       0.00177109      -0.00622070 </v>
   <v>       0.00000000       0.00000000       0.00077963 </v>
   <v>       0.00000000       0.00000000      -0.01894464 </v>
   <v>       0.00000000       0.00000000      -0.00980146 </v>
   <v>       0.00000000       0.00000000      -0.00139188 </v>
   <v>       0.00166289      -0.00320883      -0.01499027 </v>
   <v>       0.00166289       0.00320883      -0.01499027 </v>
   <v>      -0.00166289      -0.00320883      -0.01499027 </v>
   <v>      -0.00166289       0.00320883      -0.01499027 </v>
   <v>       0.00000000       0.00000000      -0.00721232 </v>
   <v>       0.00000000       0.00000000       0.00762261 </v>
   <v>       0.00000000       0.00000000      -0.02889473 </v>
   <v>       0.00000000       0.00000000      -0.01759571 </v>
   <v>      -0.01042291       0.01461582      -0.00795360 </v>
   <v>      -0.01042291      -0.01461582      -0.00795360 </v>
   <v>       0.01042291       0.01461582      -0.00795360 </v>
   <v>       0.01042291      -0.01461582      -0.00795360 </v>
   <v>       0.00000000       0.00000000      -0.11229037 </v>
   <v>       0.00000000       0.00000000       0.36492213 </v>
  </varray>
  <varray name="stress" >
   <v>     -31.19953558       0.00000000       0.00000000 </v>
   <v>       0.00000000     -28.49873992       0.00000000 </v>
   <v>       0.00000000       0.00000000      -6.25443608 </v>
  </varray>
  <energy>
   <i name="e_fr_energy">   -130.66862016 </i>
   <i name="e_wo_entrp">   -130.70454185 </i>
   <i name="e_0_energy">   -130.68059406 </i>
  </energy>
  <time name="totalsc">   48.27   48.64</time>
 </calculation>
 <calculation>
  <scstep>
   <time name="dav">    7.69    7.75</time>
   <time name="total">    8.12    8.19</time>
   <energy>
    <i name="alphaZ">    844.48149002 </i>
    <i name="ewald"> 173170.06045330 </i>
    <i name="hartreedc">-215922.76673656 </i>
    <i name="XCdc">   1431.82799257 </i>
    <i name="pawpsdc">  41956.11116804 </i>
    <i name="pawaedc"> -45404.16806730 </i>
    <i name="eentropy">      0.03648470 </i>
    <i name="bandstr">   -729.43759805 </i>
    <i name="atom">  44535.60175172 </i>
    <i name="e_fr_energy">   -118.25306156 </i>
    <i name="e_wo_entrp">   -118.28954626 </i>
    <i name="e_0_energy">   -118.26522313 </i>
   </energy>
  </scstep>
  <scstep>
   <time name="dav">    5.83    5.87</time>
   <time name="total">    5.91    5.95</time>
   <energy>
    <i name="alphaZ">    844.48149002 </i>
    <i name="ewald"> 173170.06045330 </i>
    <i name="hartreedc">-215923.40461799 </i>
    <i name="XCdc">   1431.82889666 </i>
    <i name="pawpsdc">  41956.28512559 </i>
    <i name="pawaedc"> -45404.36141030 </i>
    <i name="eentropy">      0.03592560 </i>
[...]
       <r>    10.5302    -0.0005   232.0000 </r>
       <r>    10.6040    -0.0001   232.0000 </r>
       <r>    10.6779    -0.0000   232.0000 </r>
       <r>    10.7517    -0.0000   232.0000 </r>
       <r>    10.8255    -0.0000   232.0000 </r>
       <r>    10.8993    -0.0000   232.0000 </r>
       <r>    10.9731    -0.0000   232.0000 </r>
       <r>    11.0469    -0.0000   232.0000 </r>
       <r>    11.1207    -0.0000   232.0000 </r>
       <r>    11.1946     0.0000   232.0000 </r>
       <r>    11.2684     0.0000   232.0000 </r>
       <r>    11.3422     0.0000   232.0000 </r>
       <r>    11.4160     0.0000   232.0000 </r>
       <r>    11.4898     0.0000   232.0000 </r>
       <r>    11.5636     0.0000   232.0000 </r>
       <r>    11.6375     0.0000   232.0000 </r>
       <r>    11.7113     0.0000   232.0000 </r>
       <r>    11.7851     0.0000   232.0000 </r>
       <r>    11.8589     0.0000   232.0000 </r>
      </set>
      <set comment="spin 2">
       <r>   -10.2858     0.0000     0.0000 </r>
       <r>   -10.2120     0.0000     0.0000 </r>
       <r>   -10.1382     0.0000     0.0000 </r>
       <r>   -10.0643     0.0000     0.0000 </r>
       <r>    -9.9905     0.0000     0.0000 </r>
       <r>    -9.9167    -0.0000    -0.0000 </r>
       <r>    -9.8429    -0.0000    -0.0000 </r>
       <r>    -9.7691    -0.0000    -0.0000 </r>
       <r>    -9.6953    -0.0000    -0.0000 </r>
       <r>    -9.6214    -0.0000    -0.0000 </r>
       <r>    -9.5476    -0.0000    -0.0000 </r>
       <r>    -9.4738    -0.0000    -0.0000 </r>
       <r>    -9.4000    -0.0000    -0.0000 </r>
       <r>    -9.3262    -0.0000    -0.0000 </r>
       <r>    -9.2524    -0.0000    -0.0000 </r>
       <r>    -9.1786    -0.0000    -0.0000 </r>
       <r>    -9.1047    -0.0000    -0.0000 </r>
       <r>    -9.0309    -0.0000    -0.0000 </r>
       <r>    -8.9571    -0.0000    -0.0000 </r>
       <r>    -8.8833    -0.0001    -0.0000 </r>
       <r>    -8.8095    -0.0009    -0.0001 </r>
       <r>    -8.7357    -0.0039    -0.0004 </r>
       <r>    -8.6618    -0.0124    -0.0013 </r>
       <r>    -8.5880    -0.0236    -0.0030 </r>
       <r>    -8.5142    -0.0115    -0.0039 </r>
       <r>    -8.4404     0.0733     0.0015 </r>
       <r>    -8.3666     0.2403     0.0193 </r>
       <r>    -8.2928     0.3885     0.0480 </r>
       <r>    -8.2189     0.3994     0.0774 </r>
       <r>    -8.1451     0.3408     0.1026 </r>
       <r>    -8.0713     0.4289     0.1342 </r>
       <r>    -7.9975     0.6895     0.1851 </r>
       <r>    -7.9237     0.8490     0.2478 </r>
       <r>    -7.8499     0.7304     0.3017 </r>
       <r>    -7.7761     0.5538     0.3426 </r>
       <r>    -7.7022     0.5930     0.3864 </r>
       <r>    -7.6284     0.7349     0.4406 </r>
       <r>    -7.5546     0.7338     0.4948 </r>
       <r>    -7.4808     0.7601     0.5509 </r>
       <r>    -7.4070     1.2025     0.6397 </r>
       <r>    -7.3332     1.8933     0.7794 </r>
       <r>    -7.2593     2.1303     0.9367 </r>
       <r>    -7.1855     1.7065     1.0626 </r>
       <r>    -7.1117     1.2899     1.1579 </r>
       <r>    -7.0379     1.4029     1.2614 </r>
       <r>    -6.9641     1.6524     1.3834 </r>
       <r>    -6.8903     1.4398     1.4897 </r>
       <r>    -6.8165     0.8920     1.5555 </r>
       <r>    -6.7426     0.5553     1.5965 </r>
       <r>    -6.6688     0.5952     1.6404 </r>
       <r>    -6.5950     0.8910     1.7062 </r>
       <r>    -6.5212     1.5683     1.8220 </r>
       <r>    -6.4474     2.6649     2.0187 </r>
       <r>    -6.3736     3.4791     2.2755 </r>
       <r>    -6.2997     3.1987     2.5116 </r>
       <r>    -6.2259     2.0816     2.6652 </r>
       <r>    -6.1521     1.1251     2.7483 </r>
       <r>    -6.0783     0.7947     2.8070 </r>
       <r>    -6.0045     0.8398     2.8689 </r>
       <r>    -5.9307     0.9910     2.9421 </r>
       <r>    -5.8568     1.2757     3.0363 </r>
       <r>    -5.7830     2.0000     3.1839 </r>
       <r>    -5.7092     3.5154     3.4434 </r>
       <r>    -5.6354     5.5167     3.8506 </r>
       <r>    -5.5616     6.8588     4.3569 </r>
       <r>    -5.4878     6.6344     4.8466 </r>
       <r>    -5.4140     5.0627     5.2203 </r>
       <r>    -5.3401     3.1392     5.4520 </r>
       <r>    -5.2663     1.9698     5.5974 </r>
       <r>    -5.1925     2.3218     5.7688 </r>
       <r>    -5.1187     4.1221     6.0731 </r>
       <r>    -5.0449     6.2639     6.5355 </r>
       <r>    -4.9711     7.3261     7.0763 </r>
       <r>    -4.8972     6.7169     7.5721 </r>
       <r>    -4.8234     4.9065     7.9342 </r>
       <r>    -4.7496     2.7076     8.1341 </r>
       <r>    -4.6758     0.8666     8.1981 </r>
       <r>    -4.6020     0.1308     8.2077 </r>
       <r>    -4.5282     1.0601     8.2860 </r>
       <r>    -4.4543     3.5707     8.5496 </r>
       <r>    -4.3805     6.6950     9.0438 </r>
       <r>    -4.3067     9.0026     9.7083 </r>
       <r>    -4.2329     9.7027    10.4245 </r>
       <r>    -4.1591     9.4900    11.1250 </r>
       <r>    -4.0853     9.9743    11.8613 </r>
       <r>    -4.0115    11.9724    12.7450 </r>
       <r>    -3.9376    14.5439    13.8186 </r>
       <r>    -3.8638    16.2223    15.0161 </r>
       <r>    -3.7900    17.0298    16.2731 </r>
       <r>    -3.7162    18.1256    17.6111 </r>
       <r>    -3.6424    19.6245    19.0597 </r>
       <r>    -3.5686    20.7148    20.5887 </r>
       <r>    -3.4947    21.9571    22.2095 </r>
       <r>    -3.4209    25.1348    24.0649 </r>
       <r>    -3.3471    30.1372    26.2895 </r>
       <r>    -3.2733    33.9571    28.7960 </r>
       <r>    -3.1995    34.1764    31.3188 </r>
       <r>    -3.1257    31.9431    33.6767 </r>
       <r>    -3.0519    29.8303    35.8786 </r>
       <r>    -2.9780    28.4569    37.9792 </r>
       <r>    -2.9042    27.4244    40.0035 </r>
       <r>    -2.8304    27.9335    42.0655 </r>
       <r>    -2.7566    31.6886    44.4046 </r>
       <r>    -2.6828    37.8303    47.1971 </r>
       <r>    -2.6090    43.1697    50.3837 </r>
       <r>    -2.5351    45.5278    53.7443 </r>
       <r>    -2.4613    45.6930    57.1172 </r>
       <r>    -2.3875    46.2665    60.5324 </r>
       <r>    -2.3137    49.2777    64.1698 </r>
       <r>    -2.2399    54.6500    68.2039 </r>
       <r>    -2.1661    60.3231    72.6566 </r>
       <r>    -2.0922    63.5548    77.3480 </r>
       <r>    -2.0184    62.6848    81.9751 </r>
       <r>    -1.9446    58.4327    86.2883 </r>
       <r>    -1.8708    53.1877    90.2144 </r>
       <r>    -1.7970    48.9356    93.8266 </r>
       <r>    -1.7232    46.4150    97.2528 </r>
       <r>    -1.6494    45.9631   100.6456 </r>
       <r>    -1.5755    48.1580   104.2004 </r>
       <r>    -1.5017    52.6482   108.0867 </r>
       <r>    -1.4279    56.9976   112.2940 </r>
       <r>    -1.3541    59.0151   116.6502 </r>
       <r>    -1.2803    59.7616   121.0615 </r>
       <r>    -1.2065    61.4527   125.5977 </r>
       <r>    -1.1326    63.6897   130.2990 </r>
       <r>    -1.0588    65.3625   135.1238 </r>
       <r>    -0.9850    68.4785   140.1786 </r>
       <r>    -0.9112    75.4040   145.7446 </r>
       <r>    -0.8374    82.9652   151.8687 </r>
       <r>    -0.7636    83.2185   158.0115 </r>
       <r>    -0.6898    70.9893   163.2516 </r>
       <r>    -0.6159    49.4997   166.9055 </r>
       <r>    -0.5421    27.8976   168.9648 </r>
       <r>    -0.4683    13.5687   169.9664 </r>
       <r>    -0.3945     7.5945   170.5269 </r>
       <r>    -0.3207     6.6167   171.0154 </r>
       <r>    -0.2469     6.7812   171.5159 </r>
       <r>    -0.1730     5.8731   171.9494 </r>
       <r>    -0.0992     3.6940   172.2221 </r>
       <r>    -0.0254     1.4217   172.3271 </r>
       <r>     0.0484     0.3695   172.3543 </r>
       <r>     0.1222     1.0195   172.4296 </r>
       <r>     0.1960     2.8746   172.6418 </r>
       <r>     0.2699     4.9369   173.0062 </r>
       <r>     0.3437     6.4696   173.4837 </r>
       <r>     0.4175     7.5489   174.0410 </r>
       <r>     0.4913     8.6881   174.6823 </r>
       <r>     0.5651     9.6991   175.3982 </r>
       <r>     0.6389     9.5276   176.1015 </r>
       <r>     0.7127     7.7785   176.6757 </r>
       <r>     0.7866     5.5915   177.0884 </r>
       <r>     0.8604     4.3478   177.4094 </r>
       <r>     0.9342     4.3029   177.7270 </r>
       <r>     1.0080     4.8971   178.0885 </r>
       <r>     1.0818     5.5732   178.4999 </r>
       <r>     1.1556     5.8093   178.9287 </r>
       <r>     1.2295     5.0689   179.3028 </r>
       <r>     1.3033     3.4674   179.5588 </r>
       <r>     1.3771     2.1479   179.7173 </r>
       <r>     1.4509     2.3321   179.8895 </r>
       <r>     1.5247     3.9059   180.1778 </r>
       <r>     1.5985     5.3099   180.5697 </r>
       <r>     1.6723     5.3074   180.9615 </r>
       <r>     1.7462     4.5500   181.2974 </r>
       <r>     1.8200     4.5318   181.6319 </r>
       <r>     1.8938     5.4174   182.0318 </r>
       <r>     1.9676     6.1173   182.4833 </r>
       <r>     2.0414     6.1286   182.9357 </r>
       <r>     2.1152     5.9530   183.3752 </r>
       <r>     2.1891     5.9220   183.8123 </r>
       <r>     2.2629     5.7794   184.2389 </r>
       <r>     2.3367     5.4013   184.6376 </r>
       <r>     2.4105     5.1430   185.0172 </r>
       <r>     2.4843     5.2552   185.4052 </r>
       <r>     2.5581     5.3553   185.8005 </r>
       <r>     2.6320     4.8869   186.1612 </r>
       <r>     2.7058     3.9248   186.4509 </r>
       <r>     2.7796     3.1276   186.6818 </r>
       <r>     2.8534     3.1576   186.9149 </r>
       <r>     2.9272     4.3308   187.2345 </r>
       <r>     3.0010     6.1147   187.6859 </r>
       <r>     3.0748     6.9375   188.1980 </r>
       <r>     3.1487     5.6948   188.6184 </r>
       <r>     3.2225     3.3810   188.8679 </r>
       <r>     3.2963     2.0564   189.0197 </r>
       <r>     3.3701     2.5391   189.2071 </r>
       <r>     3.4439     3.9713   189.5003 </r>
       <r>     3.5177     5.0645   189.8741 </r>
       <r>     3.5916     5.1774   190.2563 </r>
       <r>     3.6654     4.6567   190.6000 </r>
       <r>     3.7392     4.3323   190.9198 </r>
       <r>     3.8130     4.5305   191.2542 </r>
       <r>     3.8868     4.9141   191.6170 </r>
       <r>     3.9606     5.1458   191.9968 </r>
       <r>     4.0344     5.1016   192.3734 </r>
       <r>     4.1083     4.7022   192.7205 </r>
       <r>     4.1821     4.0032   193.0160 </r>
       <r>     4.2559     3.3321   193.2620 </r>
       <r>     4.3297     3.1486   193.4944 </r>
       <r>     4.4035     3.5313   193.7550 </r>
       <r>     4.4773     3.8815   194.0416 </r>
       <r>     4.5512     3.7552   194.3188 </r>
       <r>     4.6250     3.8000   194.5993 </r>
       <r>     4.6988     4.9004   194.9610 </r>
       <r>     4.7726     6.5612   195.4453 </r>
       <r>     4.8464     7.2157   195.9779 </r>
       <r>     4.9202     6.1886   196.4347 </r>
       <r>     4.9941     4.4225   196.7612 </r>
       <r>     5.0679     3.1411   196.9931 </r>
       <r>     5.1417     2.7493   197.1960 </r>
       <r>     5.2155     3.2542   197.4362 </r>
       <r>     5.2893     4.6518   197.7796 </r>
       <r>     5.3631     6.3692   198.2497 </r>
       <r>     5.4369     7.4209   198.7975 </r>
       <r>     5.5108     7.6365   199.3612 </r>
       <r>     5.5846     7.6003   199.9222 </r>
       <r>     5.6584     7.4254   200.4703 </r>
       <r>     5.7322     6.9530   200.9836 </r>
       <r>     5.8060     6.7067   201.4786 </r>
       <r>     5.8798     7.3207   202.0190 </r>
       <r>     5.9537     8.4006   202.6391 </r>
       <r>     6.0275     8.8933   203.2956 </r>
       <r>     6.1013     8.3447   203.9115 </r>
       <r>     6.1751     7.1989   204.4429 </r>
       <r>     6.2489     6.1944   204.9002 </r>
       <r>     6.3227     5.8842   205.3345 </r>
       <r>     6.3965     6.3670   205.8045 </r>
       <r>     6.4704     7.2179   206.3373 </r>
       <r>     6.5442     7.7712   206.9109 </r>
       <r>     6.6180     7.6379   207.4747 </r>
       <r>     6.6918     7.1411   208.0019 </r>
       <r>     6.7656     7.0282   208.5206 </r>
       <r>     6.8394     7.5265   209.0762 </r>
       <r>     6.9133     7.9960   209.6664 </r>
       <r>     6.9871     7.7208   210.2364 </r>
       <r>     7.0609     6.7401   210.7339 </r>
       <r>     7.1347     5.6853   211.1536 </r>
       <r>     7.2085     5.2006   211.5374 </r>
       <r>     7.2823     5.7511   211.9620 </r>
       <r>     7.3562     7.2919   212.5002 </r>
       <r>     7.4300     8.8132   213.1508 </r>
       <r>     7.5038     9.0868   213.8215 </r>
       <r>     7.5776     8.1440   214.4227 </r>
       <r>     7.6514     7.2188   214.9555 </r>
       <r>     7.7252     7.2120   215.4879 </r>
       <r>     7.7990     8.0327   216.0808 </r>
       <r>     7.8729     9.2810   216.7659 </r>
       <r>     7.9467    10.4825   217.5397 </r>
       <r>     8.0205    10.7690   218.3346 </r>
       <r>     8.0943     9.6539   219.0472 </r>
       <r>     8.1681     8.0911   219.6445 </r>
       <r>     8.2419     7.4915   220.1975 </r>
       <r>     8.3158     7.8610   220.7777 </r>
       <r>     8.3896     8.0260   221.3702 </r>
       <r>     8.4634     7.3668   221.9140 </r>
       <r>     8.5372     6.4314   222.3887 </r>
       <r>     8.6110     6.1708   222.8442 </r>
       <r>     8.6848     7.1004   223.3683 </r>
       <r>     8.7586     8.8759   224.0235 </r>
       <r>     8.8325    10.4426   224.7943 </r>
       <r>     8.9063    10.8939   225.5985 </r>
       <r>     8.9801    10.2469   226.3549 </r>
       <r>     9.0539     9.2014   227.0341 </r>
       <r>     9.1277     8.3406   227.6497 </r>
       <r>     9.2015     7.8018   228.2256 </r>
       <r>     9.2754     7.4332   228.7743 </r>
       <r>     9.3492     6.9357   229.2863 </r>
       <r>     9.4230     6.1248   229.7384 </r>
       <r>     9.4968     5.3265   230.1315 </r>
       <r>     9.5706     5.0645   230.5054 </r>
       <r>     9.6444     5.2084   230.8899 </r>
       <r>     9.7183     5.0677   231.2639 </r>
       <r>     9.7921     4.3021   231.5815 </r>
       <r>     9.8659     3.1369   231.8130 </r>
       <r>     9.9397     1.8933   231.9528 </r>
       <r>    10.0135     0.8186   232.0132 </r>
       <r>    10.0873     0.1323   232.0230 </r>
       <r>    10.1611    -0.1204   232.0141 </r>
       <r>    10.2350    -0.1163   232.0055 </r>
       <r>    10.3088    -0.0542   232.0015 </r>
       <r>    10.3826    -0.0165   232.0003 </r>
       <r>    10.4564    -0.0035   232.0000 </r>
       <r>    10.5302    -0.0005   232.0000 </r>
       <r>    10.6040    -0.0001   232.0000 </r>
       <r>    10.6779    -0.0000   232.0000 </r>
       <r>    10.7517    -0.0000   232.0000 </r>
       <r>    10.8255    -0.0000   232.0000 </r>
       <r>    10.8993    -0.0000   232.0000 </r>
       <r>    10.9731    -0.0000   232.0000 </r>
       <r>    11.0469    -0.0000   232.0000 </r>
       <r>    11.1207    -0.0000   232.0000 </r>
       <r>    11.1946     0.0000   232.0000 </r>
       <r>    11.2684     0.0000   232.0000 </r>
       <r>    11.3422     0.0000   232.0000 </r>
       <r>    11.4160     0.0000   232.0000 </r>
       <r>    11.4898     0.0000   232.0000 </r>
       <r>    11.5636     0.0000   232.0000 </r>
       <r>    11.6375     0.0000   232.0000 </r>
       <r>    11.7113     0.0000   232.0000 </r>
       <r>    11.7851     0.0000   232.0000 </r>
       <r>    11.8589     0.0000   232.0000 </r>
      </set>
     </set>
    </array>
   </total>
  </dos>
 </calculation>
 <structure name="finalpos" >
  <crystal>
   <varray name="basis" >
    <v>       7.26000023       0.00000000       0.00000000 </v>
    <v>       0.00000000       5.13359547       0.00000000 </v>
    <v>       0.00000000       0.00000000      23.98379135 </v>
   </varray>
   <i name="volume">    893.87360752 </i>
   <varray name="rec_basis" >
    <v>       0.13774104       0.00000000       0.00000000 </v>
    <v>       0.00000000       0.19479525       0.00000000 </v>
    <v>       0.00000000       0.00000000       0.04169483 </v>
   </varray>
  </crystal>
  <varray name="positions" >
   <v>       0.00000000       0.00000000       0.00000000 </v>
   <v>       0.00000000       0.50000000       0.00000000 </v>
   <v>       0.50000000       0.00000000       0.00000000 </v>
   <v>       0.50000000       0.50000000       0.00000000 </v>
   <v>       0.25000000       0.25000000       0.05351109 </v>
   <v>       0.25000000       0.75000000       0.05351109 </v>
   <v>       0.75000000       0.25000000       0.05351109 </v>
   <v>       0.75000000       0.75000000       0.05351109 </v>
   <v>       0.00000000       0.00000000       0.10541371 </v>
   <v>       0.00000000       0.50000000       0.10541371 </v>
   <v>       0.50000000       0.00000000       0.10541371 </v>
   <v>       0.50000000       0.50000000       0.10541371 </v>
   <v>       0.24983362       0.25028044       0.15699751 </v>
   <v>       0.24983362       0.74971956       0.15699751 </v>
   <v>       0.75016638       0.25028044       0.15699751 </v>
   <v>       0.75016638       0.74971956       0.15699751 </v>
   <v>      -0.00000000       0.00000000       0.20824013 </v>
   <v>      -0.00000000       0.50000000       0.20830391 </v>
   <v>       0.50000000       0.00000000       0.20855350 </v>
   <v>       0.50000000       0.50000000       0.20846416 </v>
   <v>       0.25008223       0.25033948       0.25903793 </v>
   <v>       0.25008223       0.74966052       0.25903793 </v>
   <v>       0.74991777       0.25033948       0.25903793 </v>
   <v>       0.74991777       0.74966052       0.25903793 </v>
   <v>      -0.00000000       0.00000000       0.31363444 </v>
   <v>      -0.00000000       0.50000000       0.31362349 </v>
   <v>       0.50000000       0.00000000       0.31369753 </v>
   <v>       0.50000000       0.50000000       0.31367954 </v>
   <v>       0.25054107       0.24963939       0.36114606 </v>
   <v>       0.25054107       0.75036061       0.36114606 </v>
   <v>       0.74945893       0.24963939       0.36114606 </v>
   <v>       0.74945893       0.75036061       0.36114606 </v>
   <v>       1.00000000       0.50000000       0.44252595 </v>
   <v>       1.00000000       0.50000000       0.47420910 </v>
  </varray>
  <varray name="selective"  type="logical" >
   <v type="logical" >  F  F  F </v>
   <v type="logical" >  F  F  F </v>
   <v type="logical" >  F  F  F </v>
   <v type="logical" >  F  F  F </v>
   <v type="logical" >  F  F  F </v>
   <v type="logical" >  F  F  F </v>
   <v type="logical" >  F  F  F </v>
   <v type="logical" >  F  F  F </v>
   <v type="logical" >  F  F  F </v>
   <v type="logical" >  F  F  F </v>
   <v type="logical" >  F  F  F </v>
   <v type="logical" >  F  F  F </v>
   <v type="logical" >  T  T  T </v>
   <v type="logical" >  T  T  T </v>
   <v type="logical" >  T  T  T </v>
   <v type="logical" >  T  T  T </v>
   <v type="logical" >  T  T  T </v>
   <v type="logical" >  T  T  T </v>
   <v type="logical" >  T  T  T </v>
   <v type="logical" >  T  T  T </v>
   <v type="logical" >  T  T  T </v>
   <v type="logical" >  T  T  T </v>
   <v type="logical" >  T  T  T </v>
   <v type="logical" >  T  T  T </v>
   <v type="logical" >  T  T  T </v>
   <v type="logical" >  T  T  T </v>
   <v type="logical" >  T  T  T </v>
   <v type="logical" >  T  T  T </v>
   <v type="logical" >  T  T  T </v>
   <v type="logical" >  T  T  T </v>
   <v type="logical" >  T  T  T </v>
   <v type="logical" >  T  T  T </v>
   <v type="logical" >  T  T  T </v>
   <v type="logical" >  T  T  T </v>
  </varray>
  <nose>
   <v>      -3.00000000       0.00000000       0.00010000       0.00010000 </v>
  </nose>
 </structure>
</modeling>
