unknown system                          
           1
     7.260000    0.000000    0.000000
     0.000000    5.133595    0.000000
     0.000000    0.000000   23.983791
   Cu   H 
    32     2
Direct configuration=     1
   0.00000000  0.00000000  0.00000000
   0.00000000  0.50000000  0.00000000
   0.50000000  0.00000000  0.00000000
   0.50000000  0.50000000  0.00000000
   0.25000000  0.25000000  0.05351109
   0.25000000  0.75000000  0.05351109
   0.75000000  0.25000000  0.05351109
   0.75000000  0.75000000  0.05351109
   0.00000000  0.00000000  0.10541371
   0.00000000  0.50000000  0.10541371
   0.50000000  0.00000000  0.10541371
   0.50000000  0.50000000  0.10541371
   0.25000000  0.25000000  0.15715010
   0.25000000  0.75000000  0.15715010
   0.75000000  0.25000000  0.15715010
   0.75000000  0.75000000  0.15715010
   0.00000000  0.00000000  0.20866257
   0.00000000  0.50000000  0.20866257
   0.50000000  0.00000000  0.20866257
   0.50000000  0.50000000  0.20866257
   0.25000000  0.25000000  0.25947965
   0.25000000  0.75000000  0.25947965
   0.75000000  0.25000000  0.25947965
   0.75000000  0.75000000  0.25947965
   0.00000000  0.00000000  0.31415415
   0.00000000  0.50000000  0.31415415
   0.50000000  0.00000000  0.31415415
   0.50000000  0.50000000  0.31415415
   0.25000000  0.25000000  0.36181799
   0.25000000  0.75000000  0.36181799
   0.75000000  0.25000000  0.36181799
   0.75000000  0.75000000  0.36181799
   1.00000000  0.50000000  0.42690792
   1.00000000  0.50000000  0.45801226
Direct configuration=     2
   0.00000000  0.00000000  0.00000000
   0.00000000  0.50000000  0.00000000
   0.50000000  0.00000000  0.00000000
   0.50000000  0.50000000  0.00000000
   0.25000000  0.25000000  0.05351109
   0.25000000  0.75000000  0.05351109
   0.75000000  0.25000000  0.05351109
   0.75000000  0.75000000  0.05351109
   0.00000000  0.00000000  0.10541371
   0.00000000  0.50000000  0.10541371
   0.50000000  0.00000000  0.10541371
   0.50000000  0.50000000  0.10541371
   0.24997751  0.25004460  0.15717630
   0.24997751  0.74995540  0.15717630
   0.75002249  0.25004460  0.15717630
   0.75002249  0.74995540  0.15717630
  -0.00000000  0.00000000  0.20861581
  -0.00000000  0.50000000  0.20864957
   0.50000000  0.00000000  0.20873363
   0.50000000  0.50000000  0.20867672
   0.24997616  0.25012302  0.25949649
   0.24997616  0.74987698  0.25949649
   0.75002384  0.25012302  0.25949649
   0.75002384  0.74987698  0.25949649
  -0.00000000  0.00000000  0.31414279
  -0.00000000  0.50000000  0.31387034
   0.50000000  0.00000000  0.31423567
   0.50000000  0.50000000  0.31423409
   0.25047525  0.24954262  0.36170574
   0.25047525  0.75045738  0.36170574
   0.74952475  0.24954262  0.36170574
   0.74952475  0.75045738  0.36170574
   1.00000000  0.50000000  0.42607907
   1.00000000  0.50000000  0.45942406
Direct configuration=     3
   0.00000000  0.00000000  0.00000000
   0.00000000  0.50000000  0.00000000
   0.50000000  0.00000000  0.00000000
   0.50000000  0.50000000  0.00000000
   0.25000000  0.25000000  0.05351109
   0.25000000  0.75000000  0.05351109
   0.75000000  0.25000000  0.05351109
   0.75000000  0.75000000  0.05351109
   0.00000000  0.00000000  0.10541371
   0.00000000  0.50000000  0.10541371
   0.50000000  0.00000000  0.10541371
   0.50000000  0.50000000  0.10541371
   0.24999057  0.25001870  0.15716108
   0.24999057  0.74998130  0.15716108
   0.75000943  0.25001870  0.15716108
   0.75000943  0.74998130  0.15716108
  -0.00000000  0.00000000  0.20864296
  -0.00000000  0.50000000  0.20865712
   0.50000000  0.00000000  0.20869236
   0.50000000  0.50000000  0.20866850
   0.24999000  0.25005158  0.25948671
   0.24999000  0.74994842  0.25948671
   0.75001000  0.25005158  0.25948671
   0.75001000  0.74994842  0.25948671
  -0.00000000  0.00000000  0.31414939
  -0.00000000  0.50000000  0.31403515
   0.50000000  0.00000000  0.31418833
   0.50000000  0.50000000  0.31418767
   0.25019927  0.24980822  0.36177092
   0.25019927  0.75019178  0.36177092
   0.74980073  0.24980822  0.36177092
   0.74980073  0.75019178  0.36177092
   1.00000000  0.50000000  0.42656039
   1.00000000  0.50000000  0.45860422
Direct configuration=     4
   0.00000000  0.00000000  0.00000000
   0.00000000  0.50000000  0.00000000
   0.50000000  0.00000000  0.00000000
   0.50000000  0.50000000  0.00000000
   0.25000000  0.25000000  0.05351109
   0.25000000  0.75000000  0.05351109
   0.75000000  0.25000000  0.05351109
   0.75000000  0.75000000  0.05351109
   0.00000000  0.00000000  0.10541371
   0.00000000  0.50000000  0.10541371
   0.50000000  0.00000000  0.10541371
   0.50000000  0.50000000  0.10541371
   0.24996753  0.25007081  0.15719479
   0.24996753  0.74992919  0.15719479
   0.75003247  0.25007081  0.15719479
   0.75003247  0.74992919  0.15719479
  -0.00000000  0.00000000  0.20859234
  -0.00000000  0.50000000  0.20863798
   0.50000000  0.00000000  0.20877913
   0.50000000  0.50000000  0.20869059
   0.24997079  0.25018355  0.25949789
   0.24997079  0.74981645  0.25949789
   0.75002921  0.25018355  0.25949789
   0.75002921  0.74981645  0.25949789
  -0.00000000  0.00000000  0.31412227
  -0.00000000  0.50000000  0.31371548
   0.50000000  0.00000000  0.31426934
   0.50000000  0.50000000  0.31426795
   0.25071413  0.24932900  0.36165435
   0.25071413  0.75067100  0.36165435
   0.74928587  0.24932900  0.36165435
   0.74928587  0.75067100  0.36165435
   1.00000000  0.50000000  0.42685573
   1.00000000  0.50000000  0.45890813
Direct configuration=     5
   0.00000000  0.00000000  0.00000000
   0.00000000  0.50000000  0.00000000
   0.50000000  0.00000000  0.00000000
   0.50000000  0.50000000  0.00000000
   0.25000000  0.25000000  0.05351109
   0.25000000  0.75000000  0.05351109
   0.75000000  0.25000000  0.05351109
   0.75000000  0.75000000  0.05351109
   0.00000000  0.00000000  0.10541371
   0.00000000  0.50000000  0.10541371
   0.50000000  0.00000000  0.10541371
   0.50000000  0.50000000  0.10541371
   0.24993314  0.25014860  0.15724511
   0.24993314  0.74985140  0.15724511
   0.75006686  0.25014860  0.15724511
   0.75006686  0.74985140  0.15724511
  -0.00000000  0.00000000  0.20851677
  -0.00000000  0.50000000  0.20860941
   0.50000000  0.00000000  0.20890865
   0.50000000  0.50000000  0.20872356
   0.24994210  0.25038055  0.25951458
   0.24994210  0.74961945  0.25951458
   0.75005790  0.25038055  0.25951458
   0.75005790  0.74961945  0.25951458
  -0.00000000  0.00000000  0.31408179
  -0.00000000  0.50000000  0.31323827
   0.50000000  0.00000000  0.31439028
   0.50000000  0.50000000  0.31438780
   0.25148273  0.24861361  0.36148034
   0.25148273  0.75138639  0.36148034
   0.74851727  0.24861361  0.36148034
   0.74851727  0.75138639  0.36148034
   1.00000000  0.50000000  0.42729662
   1.00000000  0.50000000  0.45936181
Direct configuration=     6
   0.00000000  0.00000000  0.00000000
   0.00000000  0.50000000  0.00000000
   0.50000000  0.00000000  0.00000000
   0.50000000  0.50000000  0.00000000
   0.25000000  0.25000000  0.05351109
   0.25000000  0.75000000  0.05351109
   0.75000000  0.25000000  0.05351109
   0.75000000  0.75000000  0.05351109
   0.00000000  0.00000000  0.10541371
   0.00000000  0.50000000  0.10541371
   0.50000000  0.00000000  0.10541371
   0.50000000  0.50000000  0.10541371
   0.25001145  0.25008925  0.15723796
   0.25001145  0.74991075  0.15723796
   0.74998855  0.25008925  0.15723796
   0.74998855  0.74991075  0.15723796
  -0.00000000  0.00000000  0.20851259
  -0.00000000  0.50000000  0.20850539
   0.50000000  0.00000000  0.20892595
   0.50000000  0.50000000  0.20873613
   0.25000734  0.25028306  0.25946400
   0.25000734  0.74971694  0.25946400
   0.74999266  0.25028306  0.25946400
   0.74999266  0.74971694  0.25946400
  -0.00000000  0.00000000  0.31407467
  -0.00000000  0.50000000  0.31319556
   0.50000000  0.00000000  0.31431376
   0.50000000  0.50000000  0.31436839
   0.25148060  0.24876184  0.36143752
   0.25148060  0.75123816  0.36143752
   0.74851940  0.24876184  0.36143752
   0.74851940  0.75123816  0.36143752
   1.00000000  0.50000000  0.42802240
   1.00000000  0.50000000  0.45951193
Direct configuration=     7
   0.00000000  0.00000000  0.00000000
   0.00000000  0.50000000  0.00000000
   0.50000000  0.00000000  0.00000000
   0.50000000  0.50000000  0.00000000
   0.25000000  0.25000000  0.05351109
   0.25000000  0.75000000  0.05351109
   0.75000000  0.25000000  0.05351109
   0.75000000  0.75000000  0.05351109
   0.00000000  0.00000000  0.10541371
   0.00000000  0.50000000  0.10541371
   0.50000000  0.00000000  0.10541371
   0.50000000  0.50000000  0.10541371
   0.25000590  0.25009346  0.15723847
   0.25000590  0.74990654  0.15723847
   0.74999410  0.25009346  0.15723847
   0.74999410  0.74990654  0.15723847
  -0.00000000  0.00000000  0.20851289
  -0.00000000  0.50000000  0.20851277
   0.50000000  0.00000000  0.20892473
   0.50000000  0.50000000  0.20873524
   0.25000272  0.25028997  0.25946759
   0.25000272  0.74971003  0.25946759
   0.74999728  0.25028997  0.25946759
   0.74999728  0.74971003  0.25946759
  -0.00000000  0.00000000  0.31407518
  -0.00000000  0.50000000  0.31319859
   0.50000000  0.00000000  0.31431918
   0.50000000  0.50000000  0.31436977
   0.25148075  0.24875133  0.36144056
   0.25148075  0.75124867  0.36144056
   0.74851925  0.24875133  0.36144056
   0.74851925  0.75124867  0.36144056
   1.00000000  0.50000000  0.42797094
   1.00000000  0.50000000  0.45950129
Direct configuration=     8
   0.00000000  0.00000000  0.00000000
   0.00000000  0.50000000  0.00000000
   0.50000000  0.00000000  0.00000000
   0.50000000  0.50000000  0.00000000
   0.25000000  0.25000000  0.05351109
   0.25000000  0.75000000  0.05351109
   0.75000000  0.25000000  0.05351109
   0.75000000  0.75000000  0.05351109
   0.00000000  0.00000000  0.10541371
   0.00000000  0.50000000  0.10541371
   0.50000000  0.00000000  0.10541371
   0.50000000  0.50000000  0.10541371
   0.25006011  0.25005190  0.15723841
   0.25006011  0.74994810  0.15723841
   0.74993989  0.25005190  0.15723841
   0.74993989  0.74994810  0.15723841
  -0.00000000  0.00000000  0.20851648
  -0.00000000  0.50000000  0.20844928
   0.50000000  0.00000000  0.20893881
   0.50000000  0.50000000  0.20874881
   0.25004587  0.25022363  0.25943834
   0.25004587  0.74977637  0.25943834
   0.74995413  0.25022363  0.25943834
   0.74995413  0.74977637  0.25943834
  -0.00000000  0.00000000  0.31407485
  -0.00000000  0.50000000  0.31318157
   0.50000000  0.00000000  0.31426765
   0.50000000  0.50000000  0.31435820
   0.25146671  0.24886495  0.36141732
   0.25146671  0.75113505  0.36141732
   0.74853329  0.24886495  0.36141732
   0.74853329  0.75113505  0.36141732
   1.00000000  0.50000000  0.42815961
   1.00000000  0.50000000  0.45965702
Direct configuration=     9
   0.00000000  0.00000000  0.00000000
   0.00000000  0.50000000  0.00000000
   0.50000000  0.00000000  0.00000000
   0.50000000  0.50000000  0.00000000
   0.25000000  0.25000000  0.05351109
   0.25000000  0.75000000  0.05351109
   0.75000000  0.25000000  0.05351109
   0.75000000  0.75000000  0.05351109
   0.00000000  0.00000000  0.10541371
   0.00000000  0.50000000  0.10541371
   0.50000000  0.00000000  0.10541371
   0.50000000  0.50000000  0.10541371
   0.25010769  0.25001543  0.15723835
   0.25010769  0.74998457  0.15723835
   0.74989231  0.25001543  0.15723835
   0.74989231  0.74998457  0.15723835
  -0.00000000  0.00000000  0.20851964
  -0.00000000  0.50000000  0.20839356
   0.50000000  0.00000000  0.20895117
   0.50000000  0.50000000  0.20876073
   0.25008375  0.25016540  0.25941266
   0.25008375  0.74983460  0.25941266
   0.74991625  0.25016540  0.25941266
   0.74991625  0.74983460  0.25941266
  -0.00000000  0.00000000  0.31407456
  -0.00000000  0.50000000  0.31316663
   0.50000000  0.00000000  0.31422242
   0.50000000  0.50000000  0.31434804
   0.25145438  0.24896467  0.36139693
   0.25145438  0.75103533  0.36139693
   0.74854562  0.24896467  0.36139693
   0.74854562  0.75103533  0.36139693
   1.00000000  0.50000000  0.42832522
   1.00000000  0.50000000  0.45979370
Direct configuration=    10
   0.00000000  0.00000000  0.00000000
   0.00000000  0.50000000  0.00000000
   0.50000000  0.00000000  0.00000000
   0.50000000  0.50000000  0.00000000
   0.25000000  0.25000000  0.05351109
   0.25000000  0.75000000  0.05351109
   0.75000000  0.25000000  0.05351109
   0.75000000  0.75000000  0.05351109
   0.00000000  0.00000000  0.10541371
   0.00000000  0.50000000  0.10541371
   0.50000000  0.00000000  0.10541371
   0.50000000  0.50000000  0.10541371
   0.25020285  0.24994248  0.15723825
   0.25020285  0.75005752  0.15723825
   0.74979715  0.24994248  0.15723825
   0.74979715  0.75005752  0.15723825
  -0.00000000  0.00000000  0.20852595
  -0.00000000  0.50000000  0.20828213
   0.50000000  0.00000000  0.20897589
   0.50000000  0.50000000  0.20878455
   0.25015950  0.25004895  0.25936131
   0.25015950  0.74995105  0.25936131
   0.74984050  0.25004895  0.25936131
   0.74984050  0.74995105  0.25936131
  -0.00000000  0.00000000  0.31407399
  -0.00000000  0.50000000  0.31313676
   0.50000000  0.00000000  0.31413195
   0.50000000  0.50000000  0.31432773
   0.25142974  0.24916411  0.36135614
   0.25142974  0.75083589  0.36135614
   0.74857026  0.24916411  0.36135614
   0.74857026  0.75083589  0.36135614
   1.00000000  0.50000000  0.42865642
   1.00000000  0.50000000  0.46006707
Direct configuration=    11
   0.00000000  0.00000000  0.00000000
   0.00000000  0.50000000  0.00000000
   0.50000000  0.00000000  0.00000000
   0.50000000  0.50000000  0.00000000
   0.25000000  0.25000000  0.05351109
   0.25000000  0.75000000  0.05351109
   0.75000000  0.25000000  0.05351109
   0.75000000  0.75000000  0.05351109
   0.00000000  0.00000000  0.10541371
   0.00000000  0.50000000  0.10541371
   0.50000000  0.00000000  0.10541371
   0.50000000  0.50000000  0.10541371
   0.25039316  0.24979658  0.15723803
   0.25039316  0.75020342  0.15723803
   0.74960684  0.24979658  0.15723803
   0.74960684  0.75020342  0.15723803
  -0.00000000  0.00000000  0.20853858
  -0.00000000  0.50000000  0.20805925
   0.50000000  0.00000000  0.20902534
   0.50000000  0.50000000  0.20883221
   0.25031100  0.24981604  0.25925861
   0.25031100  0.75018396  0.25925861
   0.74968900  0.24981604  0.25925861
   0.74968900  0.75018396  0.25925861
  -0.00000000  0.00000000  0.31407283
  -0.00000000  0.50000000  0.31307701
   0.50000000  0.00000000  0.31395103
   0.50000000  0.50000000  0.31428711
   0.25138044  0.24956300  0.36127456
   0.25138044  0.75043700  0.36127456
   0.74861956  0.24956300  0.36127456
   0.74861956  0.75043700  0.36127456
   1.00000000  0.50000000  0.42931883
   1.00000000  0.50000000  0.46061382
Direct configuration=    12
   0.00000000  0.00000000  0.00000000
   0.00000000  0.50000000  0.00000000
   0.50000000  0.00000000  0.00000000
   0.50000000  0.50000000  0.00000000
   0.25000000  0.25000000  0.05351109
   0.25000000  0.75000000  0.05351109
   0.75000000  0.25000000  0.05351109
   0.75000000  0.75000000  0.05351109
   0.00000000  0.00000000  0.10541371
   0.00000000  0.50000000  0.10541371
   0.50000000  0.00000000  0.10541371
   0.50000000  0.50000000  0.10541371
   0.25045402  0.24976089  0.15722220
   0.25045402  0.75023911  0.15722220
   0.74954598  0.24976089  0.15722220
   0.74954598  0.75023911  0.15722220
  -0.00000000  0.00000000  0.20853645
  -0.00000000  0.50000000  0.20800130
   0.50000000  0.00000000  0.20900962
   0.50000000  0.50000000  0.20883244
   0.25030843  0.24979122  0.25922431
   0.25030843  0.75020878  0.25922431
   0.74969156  0.24979122  0.25922431
   0.74969156  0.75020878  0.25922431
  -0.00000000  0.00000000  0.31406650
  -0.00000000  0.50000000  0.31304612
   0.50000000  0.00000000  0.31389292
   0.50000000  0.50000000  0.31426024
   0.25134385  0.24968228  0.36123698
   0.25134385  0.75031772  0.36123698
   0.74865615  0.24968228  0.36123698
   0.74865615  0.75031772  0.36123698
   1.00000000  0.50000000  0.42947382
   1.00000000  0.50000000  0.46112241
Direct configuration=    13
   0.00000000  0.00000000  0.00000000
   0.00000000  0.50000000  0.00000000
   0.50000000  0.00000000  0.00000000
   0.50000000  0.50000000  0.00000000
   0.25000000  0.25000000  0.05351109
   0.25000000  0.75000000  0.05351109
   0.75000000  0.25000000  0.05351109
   0.75000000  0.75000000  0.05351109
   0.00000000  0.00000000  0.10541371
   0.00000000  0.50000000  0.10541371
   0.50000000  0.00000000  0.10541371
   0.50000000  0.50000000  0.10541371
   0.25052248  0.24972073  0.15720438
   0.25052248  0.75027927  0.15720438
   0.74947752  0.24972073  0.15720438
   0.74947752  0.75027927  0.15720438
  -0.00000000  0.00000000  0.20853405
  -0.00000000  0.50000000  0.20793611
   0.50000000  0.00000000  0.20899193
   0.50000000  0.50000000  0.20883271
   0.25030555  0.24976329  0.25918572
   0.25030555  0.75023671  0.25918572
   0.74969445  0.24976329  0.25918572
   0.74969445  0.75023671  0.25918572
  -0.00000000  0.00000000  0.31405939
  -0.00000000  0.50000000  0.31301138
   0.50000000  0.00000000  0.31382757
   0.50000000  0.50000000  0.31423002
   0.25130268  0.24981645  0.36119470
   0.25130268  0.75018355  0.36119470
   0.74869732  0.24981645  0.36119470
   0.74869732  0.75018355  0.36119470
   1.00000000  0.50000000  0.42964816
   1.00000000  0.50000000  0.46169453
Direct configuration=    14
   0.00000000  0.00000000  0.00000000
   0.00000000  0.50000000  0.00000000
   0.50000000  0.00000000  0.00000000
   0.50000000  0.50000000  0.00000000
   0.25000000  0.25000000  0.05351109
   0.25000000  0.75000000  0.05351109
   0.75000000  0.25000000  0.05351109
   0.75000000  0.75000000  0.05351109
   0.00000000  0.00000000  0.10541371
   0.00000000  0.50000000  0.10541371
   0.50000000  0.00000000  0.10541371
   0.50000000  0.50000000  0.10541371
   0.25053074  0.24971588  0.15720223
   0.25053074  0.75028412  0.15720223
   0.74946926  0.24971588  0.15720223
   0.74946926  0.75028412  0.15720223
  -0.00000000  0.00000000  0.20853376
  -0.00000000  0.50000000  0.20792823
   0.50000000  0.00000000  0.20898980
   0.50000000  0.50000000  0.20883274
   0.25030521  0.24975992  0.25918106
   0.25030521  0.75024008  0.25918106
   0.74969479  0.24975992  0.25918106
   0.74969479  0.75024008  0.25918106
  -0.00000000  0.00000000  0.31405853
  -0.00000000  0.50000000  0.31300718
   0.50000000  0.00000000  0.31381967
   0.50000000  0.50000000  0.31422637
   0.25129770  0.24983266  0.36118959
   0.25129770  0.75016734  0.36118959
   0.74870230  0.24983266  0.36118959
   0.74870230  0.75016734  0.36118959
   1.00000000  0.50000000  0.42966922
   1.00000000  0.50000000  0.46176364
Direct configuration=    15
   0.00000000  0.00000000  0.00000000
   0.00000000  0.50000000  0.00000000
   0.50000000  0.00000000  0.00000000
   0.50000000  0.50000000  0.00000000
   0.25000000  0.25000000  0.05351109
   0.25000000  0.75000000  0.05351109
   0.75000000  0.25000000  0.05351109
   0.75000000  0.75000000  0.05351109
   0.00000000  0.00000000  0.10541371
   0.00000000  0.50000000  0.10541371
   0.50000000  0.00000000  0.10541371
   0.50000000  0.50000000  0.10541371
   0.25052454  0.24971952  0.15720384
   0.25052454  0.75028048  0.15720384
   0.74947546  0.24971952  0.15720384
   0.74947546  0.75028048  0.15720384
  -0.00000000  0.00000000  0.20853398
  -0.00000000  0.50000000  0.20793414
   0.50000000  0.00000000  0.20899140
   0.50000000  0.50000000  0.20883272
   0.25030547  0.24976245  0.25918456
   0.25030547  0.75023755  0.25918456
   0.74969453  0.24976245  0.25918456
   0.74969453  0.75023755  0.25918456
  -0.00000000  0.00000000  0.31405917
  -0.00000000  0.50000000  0.31301033
   0.50000000  0.00000000  0.31382560
   0.50000000  0.50000000  0.31422911
   0.25130144  0.24982049  0.36119343
   0.25130144  0.75017951  0.36119343
   0.74869856  0.24982049  0.36119343
   0.74869856  0.75017951  0.36119343
   1.00000000  0.50000000  0.42965342
   1.00000000  0.50000000  0.46171177
Direct configuration=    16
   0.00000000  0.00000000  0.00000000
   0.00000000  0.50000000  0.00000000
   0.50000000  0.00000000  0.00000000
   0.50000000  0.50000000  0.00000000
   0.25000000  0.25000000  0.05351109
   0.25000000  0.75000000  0.05351109
   0.75000000  0.25000000  0.05351109
   0.75000000  0.75000000  0.05351109
   0.00000000  0.00000000  0.10541371
   0.00000000  0.50000000  0.10541371
   0.50000000  0.00000000  0.10541371
   0.50000000  0.50000000  0.10541371
   0.25052764  0.24971770  0.15720304
   0.25052764  0.75028230  0.15720304
   0.74947236  0.24971770  0.15720304
   0.74947236  0.75028230  0.15720304
  -0.00000000  0.00000000  0.20853387
  -0.00000000  0.50000000  0.20793119
   0.50000000  0.00000000  0.20899060
   0.50000000  0.50000000  0.20883273
   0.25030534  0.24976119  0.25918281
   0.25030534  0.75023881  0.25918281
   0.74969466  0.24976119  0.25918281
   0.74969466  0.75023881  0.25918281
  -0.00000000  0.00000000  0.31405885
  -0.00000000  0.50000000  0.31300876
   0.50000000  0.00000000  0.31382263
   0.50000000  0.50000000  0.31422774
   0.25129957  0.24982658  0.36119151
   0.25129957  0.75017342  0.36119151
   0.74870043  0.24982658  0.36119151
   0.74870043  0.75017342  0.36119151
   1.00000000  0.50000000  0.42966132
   1.00000000  0.50000000  0.46173771
Direct configuration=    17
   0.00000000  0.00000000  0.00000000
   0.00000000  0.50000000  0.00000000
   0.50000000  0.00000000  0.00000000
   0.50000000  0.50000000  0.00000000
   0.25000000  0.25000000  0.05351109
   0.25000000  0.75000000  0.05351109
   0.75000000  0.25000000  0.05351109
   0.75000000  0.75000000  0.05351109
   0.00000000  0.00000000  0.10541371
   0.00000000  0.50000000  0.10541371
   0.50000000  0.00000000  0.10541371
   0.50000000  0.50000000  0.10541371
   0.25052664  0.24971829  0.15720330
   0.25052664  0.75028171  0.15720330
   0.74947336  0.24971829  0.15720330
   0.74947336  0.75028171  0.15720330
  -0.00000000  0.00000000  0.20853391
  -0.00000000  0.50000000  0.20793214
   0.50000000  0.00000000  0.20899086
   0.50000000  0.50000000  0.20883273
   0.25030538  0.24976160  0.25918337
   0.25030538  0.75023840  0.25918337
   0.74969462  0.24976160  0.25918337
   0.74969462  0.75023840  0.25918337
  -0.00000000  0.00000000  0.31405895
  -0.00000000  0.50000000  0.31300927
   0.50000000  0.00000000  0.31382359
   0.50000000  0.50000000  0.31422818
   0.25130017  0.24982462  0.36119213
   0.25130017  0.75017538  0.36119213
   0.74869983  0.24982462  0.36119213
   0.74869983  0.75017538  0.36119213
   1.00000000  0.50000000  0.42965877
   1.00000000  0.50000000  0.46172934
Direct configuration=    18
   0.00000000  0.00000000  0.00000000
   0.00000000  0.50000000  0.00000000
   0.50000000  0.00000000  0.00000000
   0.50000000  0.50000000  0.00000000
   0.25000000  0.25000000  0.05351109
   0.25000000  0.75000000  0.05351109
   0.75000000  0.25000000  0.05351109
   0.75000000  0.75000000  0.05351109
   0.00000000  0.00000000  0.10541371
   0.00000000  0.50000000  0.10541371
   0.50000000  0.00000000  0.10541371
   0.50000000  0.50000000  0.10541371
   0.25052790  0.24973536  0.15717856
   0.25052790  0.75026464  0.15717856
   0.74947210  0.24973536  0.15717856
   0.74947210  0.75026464  0.15717856
  -0.00000000  0.00000000  0.20852078
  -0.00000000  0.50000000  0.20795132
   0.50000000  0.00000000  0.20894079
   0.50000000  0.50000000  0.20880780
   0.25022754  0.24983694  0.25917625
   0.25022754  0.75016306  0.25917625
   0.74977246  0.24983694  0.25917625
   0.74977246  0.75016306  0.25917625
  -0.00000000  0.00000000  0.31404548
  -0.00000000  0.50000000  0.31298709
   0.50000000  0.00000000  0.31381811
   0.50000000  0.50000000  0.31420092
   0.25126290  0.24981690  0.36117134
   0.25126290  0.75018310  0.36117134
   0.74873710  0.24981690  0.36117134
   0.74873710  0.75018310  0.36117134
   1.00000000  0.50000000  0.42991104
   1.00000000  0.50000000  0.46197539
Direct configuration=    19
   0.00000000  0.00000000  0.00000000
   0.00000000  0.50000000  0.00000000
   0.50000000  0.00000000  0.00000000
   0.50000000  0.50000000  0.00000000
   0.25000000  0.25000000  0.05351109
   0.25000000  0.75000000  0.05351109
   0.75000000  0.25000000  0.05351109
   0.75000000  0.75000000  0.05351109
   0.00000000  0.00000000  0.10541371
   0.00000000  0.50000000  0.10541371
   0.50000000  0.00000000  0.10541371
   0.50000000  0.50000000  0.10541371
   0.25053169  0.24978656  0.15710435
   0.25053169  0.75021345  0.15710435
   0.74946831  0.24978656  0.15710435
   0.74946831  0.75021345  0.15710435
  -0.00000000  0.00000000  0.20848140
  -0.00000000  0.50000000  0.20800885
   0.50000000  0.00000000  0.20879060
   0.50000000  0.50000000  0.20873304
   0.24999404  0.25006297  0.25915490
   0.24999404  0.74993703  0.25915490
   0.75000596  0.25006297  0.25915490
   0.75000596  0.74993703  0.25915490
  -0.00000000  0.00000000  0.31400505
  -0.00000000  0.50000000  0.31292057
   0.50000000  0.00000000  0.31380166
   0.50000000  0.50000000  0.31411914
   0.25115107  0.24979374  0.36110896
   0.25115107  0.75020626  0.36110896
   0.74884893  0.24979374  0.36110896
   0.74884893  0.75020626  0.36110896
   1.00000000  0.50000000  0.43066786
   1.00000000  0.50000000  0.46271355
Direct configuration=    20
   0.00000000  0.00000000  0.00000000
   0.00000000  0.50000000  0.00000000
   0.50000000  0.00000000  0.00000000
   0.50000000  0.50000000  0.00000000
   0.25000000  0.25000000  0.05351109
   0.25000000  0.75000000  0.05351109
   0.75000000  0.25000000  0.05351109
   0.75000000  0.75000000  0.05351109
   0.00000000  0.00000000  0.10541371
   0.00000000  0.50000000  0.10541371
   0.50000000  0.00000000  0.10541371
   0.50000000  0.50000000  0.10541371
   0.25053926  0.24988895  0.15695593
   0.25053926  0.75011105  0.15695593
   0.74946074  0.24988895  0.15695593
   0.74946074  0.75011105  0.15695593
  -0.00000000  0.00000000  0.20840264
  -0.00000000  0.50000000  0.20812392
   0.50000000  0.00000000  0.20849022
   0.50000000  0.50000000  0.20858350
   0.24952702  0.25051504  0.25911219
   0.24952702  0.74948496  0.25911219
   0.75047298  0.25051504  0.25911219
   0.75047298  0.74948496  0.25911219
  -0.00000000  0.00000000  0.31392420
  -0.00000000  0.50000000  0.31278752
   0.50000000  0.00000000  0.31376877
   0.50000000  0.50000000  0.31395558
   0.25092743  0.24974743  0.36098419
   0.25092743  0.75025257  0.36098419
   0.74907257  0.24974743  0.36098419
   0.74907257  0.75025257  0.36098419
   1.00000000  0.50000000  0.43218151
   1.00000000  0.50000000  0.46418986
Direct configuration=    21
   0.00000000  0.00000000  0.00000000
   0.00000000  0.50000000  0.00000000
   0.50000000  0.00000000  0.00000000
   0.50000000  0.50000000  0.00000000
   0.25000000  0.25000000  0.05351109
   0.25000000  0.75000000  0.05351109
   0.75000000  0.25000000  0.05351109
   0.75000000  0.75000000  0.05351109
   0.00000000  0.00000000  0.10541371
   0.00000000  0.50000000  0.10541371
   0.50000000  0.00000000  0.10541371
   0.50000000  0.50000000  0.10541371
   0.25055439  0.25009375  0.15665910
   0.25055439  0.74990625  0.15665910
   0.74944561  0.25009375  0.15665910
   0.74944561  0.74990625  0.15665910
  -0.00000000  0.00000000  0.20824512
  -0.00000000  0.50000000  0.20835405
   0.50000000  0.00000000  0.20788945
   0.50000000  0.50000000  0.20828443
   0.24859300  0.25141916  0.25902678
   0.24859300  0.74858084  0.25902678
   0.75140700  0.25141916  0.25902678
   0.75140700  0.74858084  0.25902678
  -0.00000000  0.00000000  0.31376250
  -0.00000000  0.50000000  0.31252143
   0.50000000  0.00000000  0.31370298
   0.50000000  0.50000000  0.31362846
   0.25048013  0.24965481  0.36073467
   0.25048013  0.75034519  0.36073467
   0.74951987  0.24965481  0.36073467
   0.74951987  0.75034519  0.36073467
   1.00000000  0.50000000  0.43520879
   1.00000000  0.50000000  0.46714247
Direct configuration=    22
   0.00000000  0.00000000  0.00000000
   0.00000000  0.50000000  0.00000000
   0.50000000  0.00000000  0.00000000
   0.50000000  0.50000000  0.00000000
   0.25000000  0.25000000  0.05351109
   0.25000000  0.75000000  0.05351109
   0.75000000  0.25000000  0.05351109
   0.75000000  0.75000000  0.05351109
   0.00000000  0.00000000  0.10541371
   0.00000000  0.50000000  0.10541371
   0.50000000  0.00000000  0.10541371
   0.50000000  0.50000000  0.10541371
   0.25054834  0.25001188  0.15677776
   0.25054834  0.74998812  0.15677776
   0.74945166  0.25001188  0.15677776
   0.74945166  0.74998812  0.15677776
  -0.00000000  0.00000000  0.20830809
  -0.00000000  0.50000000  0.20826205
   0.50000000  0.00000000  0.20812962
   0.50000000  0.50000000  0.20840399
   0.24896640  0.25105772  0.25906093
   0.24896640  0.74894228  0.25906093
   0.75103360  0.25105772  0.25906093
   0.75103360  0.74894228  0.25906093
  -0.00000000  0.00000000  0.31382715
  -0.00000000  0.50000000  0.31262780
   0.50000000  0.00000000  0.31372928
   0.50000000  0.50000000  0.31375924
   0.25065895  0.24969184  0.36083443
   0.25065895  0.75030816  0.36083443
   0.74934105  0.24969184  0.36083443
   0.74934105  0.75030816  0.36083443
   1.00000000  0.50000000  0.43399857
   1.00000000  0.50000000  0.46596210
Direct configuration=    23
   0.00000000  0.00000000  0.00000000
   0.00000000  0.50000000  0.00000000
   0.50000000  0.00000000  0.00000000
   0.50000000  0.50000000  0.00000000
   0.25000000  0.25000000  0.05351109
   0.25000000  0.75000000  0.05351109
   0.75000000  0.25000000  0.05351109
   0.75000000  0.75000000  0.05351109
   0.00000000  0.00000000  0.10541371
   0.00000000  0.50000000  0.10541371
   0.50000000  0.00000000  0.10541371
   0.50000000  0.50000000  0.10541371
   0.25033551  0.25011557  0.15678360
   0.25033551  0.74988443  0.15678360
   0.74966449  0.25011557  0.15678360
   0.74966449  0.74988443  0.15678360
  -0.00000000  0.00000000  0.20822639
  -0.00000000  0.50000000  0.20818938
   0.50000000  0.00000000  0.20820230