  18  18   0   0
  0.2028145E+02  0.3630000E-09  0.3630000E-09  0.2770500E-08  0.5000000E-15
  1.000000000000000E-004
  CAR 
 unknown system                          
     13.22891981     -9.44240277  301      1.96743244      1.00000000
     -9.442  0.0000E+00  0.0000E+00  0.0000E+00  0.0000E+00
     -9.367  0.0000E+00  0.0000E+00  0.0000E+00  0.0000E+00
     -9.291  0.0000E+00  0.0000E+00  0.0000E+00  0.0000E+00
     -9.216  0.0000E+00  0.0000E+00  0.0000E+00  0.0000E+00
     -9.140  0.0000E+00  0.0000E+00  0.0000E+00  0.0000E+00
     -9.065 -0.1133E-30 -0.1133E-30 -0.8562E-32 -0.8562E-32
     -8.989 -0.4288E-28 -0.4288E-28 -0.3249E-29 -0.3249E-29
     -8.913 -0.1219E-25 -0.1219E-25 -0.9246E-27 -0.9246E-27
     -8.838 -0.2598E-23 -0.2598E-23 -0.1972E-24 -0.1972E-24
     -8.762 -0.4146E-21 -0.4146E-21 -0.3153E-22 -0.3153E-22
     -8.687 -0.4954E-19 -0.4954E-19 -0.3776E-20 -0.3776E-20
     -8.611 -0.4328E-17 -0.4328E-17 -0.3309E-18 -0.3309E-18
     -8.536 -0.2864E-15 -0.2864E-15 -0.2198E-16 -0.2198E-16
     -8.460 -0.1423E-13 -0.1423E-13 -0.1098E-14 -0.1098E-14
     -8.384 -0.5270E-12 -0.5270E-12 -0.4092E-13 -0.4092E-13
     -8.309 -0.1451E-10 -0.1451E-10 -0.1137E-11 -0.1137E-11
     -8.233 -0.2962E-09 -0.2962E-09 -0.2352E-10 -0.2352E-10
     -8.158 -0.4464E-08 -0.4464E-08 -0.3609E-09 -0.3609E-09
     -8.082 -0.4939E-07 -0.4939E-07 -0.4093E-08 -0.4093E-08
     -8.007 -0.3972E-06 -0.3972E-06 -0.3411E-07 -0.3411E-07
     -7.931 -0.2285E-05 -0.2285E-05 -0.2068E-06 -0.2068E-06
     -7.855 -0.9105E-05 -0.9105E-05 -0.8949E-06 -0.8949E-06
     -7.780 -0.2328E-04 -0.2328E-04 -0.2654E-05 -0.2654E-05
     -7.704 -0.2825E-04 -0.2825E-04 -0.4789E-05 -0.4789E-05
     -7.629  0.3308E-04  0.3308E-04 -0.2289E-05 -0.2289E-05
     -7.553  0.2175E-03  0.2175E-03  0.1415E-04  0.1415E-04
     -7.478  0.4625E-03  0.4625E-03  0.4910E-04  0.4910E-04
     -7.402  0.5735E-03  0.5735E-03  0.9244E-04  0.9244E-04
     -7.326  0.4378E-03  0.4378E-03  0.1255E-03  0.1255E-03
     -7.251  0.1766E-03  0.1766E-03  0.1389E-03  0.1389E-03
     -7.175 -0.1806E-05 -0.1806E-05  0.1387E-03  0.1387E-03
     -7.100  0.1314E-04  0.1314E-04  0.1397E-03  0.1397E-03
     -7.024  0.2134E-03  0.2134E-03  0.1558E-03  0.1558E-03
     -6.949  0.4700E-03  0.4700E-03  0.1914E-03  0.1914E-03
     -6.873  0.5726E-03  0.5726E-03  0.2346E-03  0.2346E-03
     -6.797  0.4303E-03  0.4303E-03  0.2672E-03  0.2672E-03
     -6.722  0.1823E-03  0.1823E-03  0.2809E-03  0.2809E-03
     -6.646  0.8702E-05  0.8702E-05  0.2816E-03  0.2816E-03
     -6.571 -0.6591E-04 -0.6591E-04  0.2766E-03  0.2766E-03
     -6.495 -0.1203E-03 -0.1203E-03  0.2675E-03  0.2675E-03
     -6.420 -0.1508E-03 -0.1508E-03  0.2561E-03  0.2561E-03
     -6.344  0.6928E-04  0.6928E-04  0.2614E-03  0.2614E-03
     -6.268  0.8493E-03  0.8493E-03  0.3255E-03  0.3255E-03
     -6.193  0.2039E-02  0.2039E-02  0.4796E-03  0.4796E-03
     -6.117  0.2785E-02  0.2785E-02  0.6901E-03  0.6901E-03
     -6.042  0.2371E-02  0.2371E-02  0.8693E-03  0.8693E-03
     -5.966  0.1170E-02  0.1170E-02  0.9577E-03  0.9577E-03
     -5.891  0.2476E-03  0.2476E-03  0.9764E-03  0.9764E-03
     -5.815  0.3087E-03  0.3087E-03  0.9997E-03  0.9997E-03
     -5.739  0.1215E-02  0.1215E-02  0.1091E-02  0.1091E-02
     -5.664  0.2119E-02  0.2119E-02  0.1252E-02  0.1252E-02
     -5.588  0.2157E-02  0.2157E-02  0.1415E-02  0.1415E-02
     -5.513  0.1326E-02  0.1326E-02  0.1515E-02  0.1515E-02
     -5.437  0.3764E-03  0.3764E-03  0.1543E-02  0.1543E-02
     -5.362 -0.1619E-03 -0.1619E-03  0.1531E-02  0.1531E-02
     -5.286 -0.3278E-03 -0.3278E-03  0.1506E-02  0.1506E-02
     -5.210 -0.1612E-03 -0.1612E-03  0.1494E-02  0.1494E-02
     -5.135  0.6761E-03  0.6761E-03  0.1545E-02  0.1545E-02
     -5.059  0.2375E-02  0.2375E-02  0.1725E-02  0.1725E-02
     -4.984  0.4153E-02  0.4153E-02  0.2039E-02  0.2039E-02
     -4.908  0.4626E-02  0.4626E-02  0.2388E-02  0.2388E-02
     -4.833  0.3453E-02  0.3453E-02  0.2649E-02  0.2649E-02
     -4.757  0.1985E-02  0.1985E-02  0.2799E-02  0.2799E-02
     -4.681  0.1640E-02  0.1640E-02  0.2923E-02  0.2923E-02
     -4.606  0.2240E-02  0.2240E-02  0.3092E-02  0.3092E-02
     -4.530  0.2660E-02  0.2660E-02  0.3293E-02  0.3293E-02
     -4.455  0.2562E-02  0.2562E-02  0.3487E-02  0.3487E-02
     -4.379  0.2478E-02  0.2478E-02  0.3674E-02  0.3674E-02
     -4.304  0.2674E-02  0.2674E-02  0.3876E-02  0.3876E-02
     -4.228  0.2992E-02  0.2992E-02  0.4102E-02  0.4102E-02
     -4.152  0.3388E-02  0.3388E-02  0.4358E-02  0.4358E-02
     -4.077  0.3900E-02  0.3900E-02  0.4653E-02  0.4653E-02
     -4.001  0.4379E-02  0.4379E-02  0.4984E-02  0.4984E-02
     -3.926  0.4443E-02  0.4443E-02  0.5320E-02  0.5320E-02
     -3.850  0.3685E-02  0.3685E-02  0.5598E-02  0.5598E-02
     -3.775  0.2172E-02  0.2172E-02  0.5762E-02  0.5762E-02
     -3.699  0.7165E-03  0.7165E-03  0.5817E-02  0.5817E-02
     -3.623  0.4028E-03  0.4028E-03  0.5847E-02  0.5847E-02
     -3.548  0.1666E-02  0.1666E-02  0.5973E-02  0.5973E-02
     -3.472  0.3560E-02  0.3560E-02  0.6242E-02  0.6242E-02
     -3.397  0.4269E-02  0.4269E-02  0.6565E-02  0.6565E-02
     -3.321  0.3122E-02  0.3122E-02  0.6800E-02  0.6800E-02
     -3.246  0.1643E-02  0.1643E-02  0.6925E-02  0.6925E-02
     -3.170  0.1893E-02  0.1893E-02  0.7068E-02  0.7068E-02
     -3.094  0.4440E-02  0.4440E-02  0.7403E-02  0.7403E-02
     -3.019  0.8414E-02  0.8414E-02  0.8039E-02  0.8039E-02
     -2.943  0.1260E-01  0.1260E-01  0.8991E-02  0.8991E-02
     -2.868  0.1567E-01  0.1567E-01  0.1018E-01  0.1018E-01
     -2.792  0.1619E-01  0.1619E-01  0.1140E-01  0.1140E-01
     -2.717  0.1409E-01  0.1409E-01  0.1246E-01  0.1246E-01
     -2.641  0.1166E-01  0.1166E-01  0.1334E-01  0.1334E-01
     -2.565  0.1134E-01  0.1134E-01  0.1420E-01  0.1420E-01
     -2.490  0.1343E-01  0.1343E-01  0.1522E-01  0.1522E-01
     -2.414  0.1713E-01  0.1713E-01  0.1651E-01  0.1651E-01
     -2.339  0.2170E-01  0.2170E-01  0.1815E-01  0.1815E-01
     -2.263  0.2573E-01  0.2573E-01  0.2010E-01  0.2010E-01
     -2.188  0.2712E-01  0.2712E-01  0.2214E-01  0.2214E-01
     -2.112  0.2479E-01  0.2479E-01  0.2402E-01  0.2402E-01
     -2.036  0.2013E-01  0.2013E-01  0.2554E-01  0.2554E-01
     -1.961  0.1601E-01  0.1601E-01  0.2675E-01  0.2675E-01
     -1.885  0.1461E-01  0.1461E-01  0.2785E-01  0.2785E-01
     -1.810  0.1628E-01  0.1628E-01  0.2908E-01  0.2908E-01
     -1.734  0.1979E-01  0.1979E-01  0.3058E-01  0.3058E-01
     -1.659  0.2320E-01  0.2320E-01  0.3233E-01  0.3233E-01
     -1.583  0.2485E-01  0.2485E-01  0.3421E-01  0.3421E-01
     -1.507  0.2443E-01  0.2443E-01  0.3606E-01  0.3606E-01
     -1.432  0.2349E-01  0.2349E-01  0.3783E-01  0.3783E-01
     -1.356  0.2417E-01  0.2417E-01  0.3966E-01  0.3966E-01
     -1.281  0.2721E-01  0.2721E-01  0.4171E-01  0.4171E-01
     -1.205  0.3193E-01  0.3193E-01  0.4413E-01  0.4413E-01
     -1.130  0.3708E-01  0.3708E-01  0.4693E-01  0.4693E-01
     -1.054  0.4092E-01  0.4092E-01  0.5002E-01  0.5002E-01
     -0.978  0.4163E-01  0.4163E-01  0.5317E-01  0.5317E-01
     -0.903  0.3916E-01  0.3916E-01  0.5613E-01  0.5613E-01
     -0.827  0.3566E-01  0.3566E-01  0.5882E-01  0.5882E-01
     -0.752  0.3278E-01  0.3278E-01  0.6130E-01  0.6130E-01
     -0.676  0.3062E-01  0.3062E-01  0.6361E-01  0.6361E-01
     -0.601  0.2964E-01  0.2964E-01  0.6585E-01  0.6585E-01
     -0.525  0.3036E-01  0.3036E-01  0.6815E-01  0.6815E-01
     -0.449  0.3132E-01  0.3132E-01  0.7051E-01  0.7051E-01
     -0.374  0.3119E-01  0.3119E-01  0.7287E-01  0.7287E-01
     -0.298  0.3165E-01  0.3165E-01  0.7526E-01  0.7526E-01
     -0.223  0.3510E-01  0.3510E-01  0.7792E-01  0.7792E-01
     -0.147  0.4076E-01  0.4076E-01  0.8100E-01  0.8100E-01
     -0.072  0.4518E-01  0.4518E-01  0.8441E-01  0.8441E-01
      0.004  0.4604E-01  0.4604E-01  0.8789E-01  0.8789E-01
      0.080  0.4480E-01  0.4480E-01  0.9128E-01  0.9128E-01
      0.155  0.4459E-01  0.4459E-01  0.9465E-01  0.9465E-01
      0.231  0.4573E-01  0.4573E-01  0.9810E-01  0.9810E-01
      0.306  0.4429E-01  0.4429E-01  0.1014E+00  0.1014E+00
      0.382  0.3660E-01  0.3660E-01  0.1042E+00  0.1042E+00
      0.457  0.2402E-01  0.2402E-01  0.1060E+00  0.1060E+00
      0.533  0.1165E-01  0.1165E-01  0.1069E+00  0.1069E+00
      0.609  0.3421E-02  0.3421E-02  0.1072E+00  0.1072E+00
      0.684 -0.1045E-03 -0.1045E-03  0.1072E+00  0.1072E+00
      0.760 -0.2294E-03 -0.2294E-03  0.1071E+00  0.1071E+00
      0.835  0.1703E-02  0.1703E-02  0.1073E+00  0.1073E+00
      0.911  0.4268E-02  0.4268E-02  0.1076E+00  0.1076E+00
      0.986  0.5749E-02  0.5749E-02  0.1080E+00  0.1080E+00
      1.062  0.5209E-02  0.5209E-02  0.1084E+00  0.1084E+00
      1.138  0.3267E-02  0.3267E-02  0.1087E+00  0.1087E+00
      1.213  0.1290E-02  0.1290E-02  0.1088E+00  0.1088E+00
      1.289  0.1747E-03  0.1747E-03  0.1088E+00  0.1088E+00
      1.364 -0.6143E-04 -0.6143E-04  0.1088E+00  0.1088E+00
      1.440  0.9871E-04  0.9871E-04  0.1088E+00  0.1088E+00
      1.515  0.3683E-03  0.3683E-03  0.1088E+00  0.1088E+00
      1.591  0.1073E-02  0.1073E-02  0.1089E+00  0.1089E+00
      1.667  0.2791E-02  0.2791E-02  0.1091E+00  0.1091E+00
      1.742  0.5397E-02  0.5397E-02  0.1095E+00  0.1095E+00
      1.818  0.7632E-02  0.7632E-02  0.1101E+00  0.1101E+00
      1.893  0.8215E-02  0.8215E-02  0.1107E+00  0.1107E+00
      1.969  0.7297E-02  0.7297E-02  0.1113E+00  0.1113E+00
      2.044  0.5812E-02  0.5812E-02  0.1117E+00  0.1117E+00
      2.120  0.3986E-02  0.3986E-02  0.1120E+00  0.1120E+00
      2.196  0.2107E-02  0.2107E-02  0.1122E+00  0.1122E+00
      2.271  0.1599E-02  0.1599E-02  0.1123E+00  0.1123E+00
      2.347  0.3412E-02  0.3412E-02  0.1125E+00  0.1125E+00
      2.422  0.6065E-02  0.6065E-02  0.1130E+00  0.1130E+00
      2.498  0.7006E-02  0.7006E-02  0.1135E+00  0.1135E+00
      2.573  0.5696E-02  0.5696E-02  0.1140E+00  0.1140E+00
      2.649  0.3910E-02  0.3910E-02  0.1143E+00  0.1143E+00
      2.725  0.3367E-02  0.3367E-02  0.1145E+00  0.1145E+00
      2.800  0.4133E-02  0.4133E-02  0.1148E+00  0.1148E+00
      2.876  0.4826E-02  0.4826E-02  0.1152E+00  0.1152E+00
      2.951  0.4136E-02  0.4136E-02  0.1155E+00  0.1155E+00
      3.027  0.2487E-02  0.2487E-02  0.1157E+00  0.1157E+00
      3.102  0.1484E-02  0.1484E-02  0.1158E+00  0.1158E+00
      3.178  0.1664E-02  0.1664E-02  0.1159E+00  0.1159E+00
      3.254  0.2004E-02  0.2004E-02  0.1161E+00  0.1161E+00
      3.329  0.1667E-02  0.1667E-02  0.1162E+00  0.1162E+00
      3.405  0.1051E-02  0.1051E-02  0.1163E+00  0.1163E+00
      3.480  0.8251E-03  0.8251E-03  0.1163E+00  0.1163E+00
      3.556  0.1017E-02  0.1017E-02  0.1164E+00  0.1164E+00
      3.631  0.1460E-02  0.1460E-02  0.1165E+00  0.1165E+00
      3.707  0.2204E-02  0.2204E-02  0.1167E+00  0.1167E+00
      3.783  0.3071E-02  0.3071E-02  0.1169E+00  0.1169E+00
      3.858  0.3573E-02  0.3573E-02  0.1172E+00  0.1172E+00
      3.934  0.3417E-02  0.3417E-02  0.1175E+00  0.1175E+00
      4.009  0.2624E-02  0.2624E-02  0.1177E+00  0.1177E+00
      4.085  0.1453E-02  0.1453E-02  0.1178E+00  0.1178E+00
      4.160  0.3940E-03  0.3940E-03  0.1178E+00  0.1178E+00
      4.236 -0.1569E-03 -0.1569E-03  0.1178E+00  0.1178E+00
      4.312 -0.1301E-03 -0.1301E-03  0.1178E+00  0.1178E+00
      4.387  0.4220E-03  0.4220E-03  0.1178E+00  0.1178E+00
      4.463  0.1406E-02  0.1406E-02  0.1179E+00  0.1179E+00
      4.538  0.2437E-02  0.2437E-02  0.1181E+00  0.1181E+00
      4.614  0.2860E-02  0.2860E-02  0.1183E+00  0.1183E+00
      4.689  0.2385E-02  0.2385E-02  0.1185E+00  0.1185E+00
      4.765  0.1636E-02  0.1636E-02  0.1186E+00  0.1186E+00
      4.841  0.1490E-02  0.1490E-02  0.1187E+00  0.1187E+00
      4.916  0.1912E-02  0.1912E-02  0.1189E+00  0.1189E+00
      4.992  0.2180E-02  0.2180E-02  0.1190E+00  0.1190E+00
      5.067  0.2135E-02  0.2135E-02  0.1192E+00  0.1192E+00
      5.143  0.2176E-02  0.2176E-02  0.1194E+00  0.1194E+00
      5.218  0.2349E-02  0.2349E-02  0.1195E+00  0.1195E+00
      5.294  0.2510E-02  0.2510E-02  0.1197E+00  0.1197E+00
      5.370  0.2824E-02  0.2824E-02  0.1199E+00  0.1199E+00
      5.445  0.3271E-02  0.3271E-02  0.1202E+00  0.1202E+00
      5.521  0.3348E-02  0.3348E-02  0.1204E+00  0.1204E+00
      5.596  0.2860E-02  0.2860E-02  0.1207E+00  0.1207E+00
      5.672  0.2565E-02  0.2565E-02  0.1209E+00  0.1209E+00
      5.747  0.3567E-02  0.3567E-02  0.1211E+00  0.1211E+00
      5.823  0.5973E-02  0.5973E-02  0.1216E+00  0.1216E+00
      5.899  0.8293E-02  0.8293E-02  0.1222E+00  0.1222E+00
      5.974  0.8475E-02  0.8475E-02  0.1228E+00  0.1228E+00
      6.050  0.5970E-02  0.5970E-02  0.1233E+00  0.1233E+00
      6.125  0.2566E-02  0.2566E-02  0.1235E+00  0.1235E+00
      6.201  0.6237E-03  0.6237E-03  0.1235E+00  0.1235E+00
      6.276  0.8424E-03  0.8424E-03  0.1236E+00  0.1236E+00
      6.352  0.2023E-02  0.2023E-02  0.1237E+00  0.1237E+00
      6.428  0.2611E-02  0.2611E-02  0.1239E+00  0.1239E+00
      6.503  0.2343E-02  0.2343E-02  0.1241E+00  0.1241E+00
      6.579  0.2170E-02  0.2170E-02  0.1243E+00  0.1243E+00
      6.654  0.2631E-02  0.2631E-02  0.1245E+00  0.1245E+00
      6.730  0.3256E-02  0.3256E-02  0.1247E+00  0.1247E+00
      6.805  0.3757E-02  0.3757E-02  0.1250E+00  0.1250E+00
      6.881  0.4562E-02  0.4562E-02  0.1254E+00  0.1254E+00
      6.957  0.5766E-02  0.5766E-02  0.1258E+00  0.1258E+00
      7.032  0.6465E-02  0.6465E-02  0.1263E+00  0.1263E+00
      7.108  0.5851E-02  0.5851E-02  0.1267E+00  0.1267E+00
      7.183  0.4352E-02  0.4352E-02  0.1271E+00  0.1271E+00
      7.259  0.2997E-02  0.2997E-02  0.1273E+00  0.1273E+00
      7.334  0.2374E-02  0.2374E-02  0.1275E+00  0.1275E+00
      7.410  0.2776E-02  0.2776E-02  0.1277E+00  0.1277E+00
      7.486  0.4264E-02  0.4264E-02  0.1280E+00  0.1280E+00
      7.561  0.5973E-02  0.5973E-02  0.1284E+00  0.1284E+00
      7.637  0.6430E-02  0.6430E-02  0.1289E+00  0.1289E+00
      7.712  0.5112E-02  0.5112E-02  0.1293E+00  0.1293E+00
      7.788  0.3054E-02  0.3054E-02  0.1295E+00  0.1295E+00
      7.863  0.1677E-02  0.1677E-02  0.1297E+00  0.1297E+00
      7.939  0.1564E-02  0.1564E-02  0.1298E+00  0.1298E+00
      8.015  0.2427E-02  0.2427E-02  0.1300E+00  0.1300E+00
      8.090  0.3584E-02  0.3584E-02  0.1302E+00  0.1302E+00
      8.166  0.4188E-02  0.4188E-02  0.1306E+00  0.1306E+00
      8.241  0.3735E-02  0.3735E-02  0.1308E+00  0.1308E+00
      8.317  0.2696E-02  0.2696E-02  0.1310E+00  0.1310E+00
      8.392  0.2011E-02  0.2011E-02  0.1312E+00  0.1312E+00
      8.468  0.2003E-02  0.2003E-02  0.1314E+00  0.1314E+00
      8.544  0.2384E-02  0.2383E-02  0.1315E+00  0.1315E+00
      8.619  0.3101E-02  0.3101E-02  0.1318E+00  0.1318E+00
      8.695  0.4353E-02  0.4353E-02  0.1321E+00  0.1321E+00
      8.770  0.5751E-02  0.5751E-02  0.1325E+00  0.1325E+00
      8.846  0.6601E-02  0.6601E-02  0.1330E+00  0.1330E+00
      8.921  0.7036E-02  0.7036E-02  0.1336E+00  0.1336E+00
      8.997  0.7545E-02  0.7545E-02  0.1341E+00  0.1341E+00
      9.073  0.7749E-02  0.7749E-02  0.1347E+00  0.1347E+00
      9.148  0.6875E-02  0.6875E-02  0.1352E+00  0.1352E+00
      9.224  0.5003E-02  0.5003E-02  0.1356E+00  0.1356E+00
      9.299  0.3168E-02  0.3168E-02  0.1359E+00  0.1359E+00
      9.375  0.2475E-02  0.2475E-02  0.1360E+00  0.1360E+00
      9.450  0.3202E-02  0.3202E-02  0.1363E+00  0.1363E+00
      9.526  0.4612E-02  0.4612E-02  0.1366E+00  0.1366E+00
      9.602  0.5621E-02  0.5621E-02  0.1371E+00  0.1371E+00
      9.677  0.5632E-02  0.5632E-02  0.1375E+00  0.1375E+00
      9.753  0.4664E-02  0.4664E-02  0.1378E+00  0.1378E+00
      9.828  0.3002E-02  0.3002E-02  0.1381E+00  0.1381E+00
      9.904  0.1239E-02  0.1239E-02  0.1382E+00  0.1382E+00
      9.979  0.4124E-03  0.4124E-03  0.1382E+00  0.1382E+00
     10.055  0.1357E-02  0.1357E-02  0.1383E+00  0.1383E+00
     10.131  0.3730E-02  0.3730E-02  0.1386E+00  0.1386E+00
     10.206  0.5984E-02  0.5984E-02  0.1390E+00  0.1390E+00
     10.282  0.6921E-02  0.6921E-02  0.1395E+00  0.1395E+00
     10.357  0.7172E-02  0.7172E-02  0.1401E+00  0.1401E+00
     10.433  0.8239E-02  0.8239E-02  0.1407E+00  0.1407E+00
     10.508  0.1003E-01  0.1003E-01  0.1415E+00  0.1415E+00
     10.584  0.1053E-01  0.1053E-01  0.1423E+00  0.1423E+00
     10.660  0.8408E-02  0.8408E-02  0.1429E+00  0.1429E+00
     10.735  0.4664E-02  0.4664E-02  0.1433E+00  0.1433E+00
     10.811  0.1370E-02  0.1370E-02  0.1434E+00  0.1434E+00
     10.886 -0.2272E-03 -0.2272E-03  0.1433E+00  0.1433E+00
     10.962  0.1332E-03  0.1332E-03  0.1433E+00  0.1433E+00
     11.037  0.2196E-02  0.2196E-02  0.1435E+00  0.1435E+00
     11.113  0.4866E-02  0.4866E-02  0.1439E+00  0.1439E+00
     11.189  0.6263E-02  0.6263E-02  0.1444E+00  0.1444E+00
     11.264  0.5318E-02  0.5318E-02  0.1448E+00  0.1448E+00
     11.340  0.2931E-02  0.2931E-02  0.1450E+00  0.1450E+00
     11.415  0.8432E-03  0.8432E-03  0.1450E+00  0.1450E+00
     11.491 -0.1172E-03 -0.1172E-03  0.1450E+00  0.1450E+00
     11.566 -0.2552E-03 -0.2552E-03  0.1450E+00  0.1450E+00
     11.642 -0.1384E-03 -0.1384E-03  0.1450E+00  0.1450E+00
     11.717 -0.4577E-04 -0.4577E-04  0.1450E+00  0.1450E+00
     11.793 -0.1042E-04 -0.1043E-04  0.1450E+00  0.1450E+00
     11.869 -0.1702E-05 -0.1702E-05  0.1450E+00  0.1450E+00
     11.944 -0.2027E-06 -0.2027E-06  0.1450E+00  0.1450E+00
     12.020 -0.1777E-07 -0.1777E-07  0.1450E+00  0.1450E+00
     12.095 -0.1152E-08 -0.1152E-08  0.1450E+00  0.1450E+00
     12.171 -0.5548E-10 -0.5548E-10  0.1450E+00  0.1450E+00
     12.246 -0.1988E-11 -0.1988E-11  0.1450E+00  0.1450E+00
     12.322 -0.5310E-13 -0.5310E-13  0.1450E+00  0.1450E+00
     12.398 -0.1059E-14 -0.1059E-14  0.1450E+00  0.1450E+00
     12.473 -0.1632E-16 -0.1632E-16  0.1450E+00  0.1450E+00
     12.549  0.0000E+00  0.0000E+00  0.1450E+00  0.1450E+00
     12.624  0.0000E+00  0.0000E+00  0.1450E+00  0.1450E+00
     12.700  0.0000E+00  0.0000E+00  0.1450E+00  0.1450E+00
     12.775  0.0000E+00  0.0000E+00  0.1450E+00  0.1450E+00
     12.851  0.0000E+00  0.0000E+00  0.1450E+00  0.1450E+00
     12.927  0.0000E+00  0.0000E+00  0.1450E+00  0.1450E+00
     13.002  0.0000E+00  0.0000E+00  0.1450E+00  0.1450E+00
     13.078  0.0000E+00  0.0000E+00  0.1450E+00  0.1450E+00
     13.153  0.0000E+00  0.0000E+00  0.1450E+00  0.1450E+00
     13.229  0.0000E+00  0.0000E+00  0.1450E+00  0.1450E+00
