   18   18  800    2
  0.2028145E+02  0.3630000E-09  0.3630000E-09  0.2770500E-08  0.5000000E-15
  1.000000000000000E-004
  CAR 
 unknown system                          
    178      5    116
 
  0.0000000E+00  0.0000000E+00  0.0000000E+00  0.1111111E+00
      1         -7.442403       -7.442403   1.000000   1.000000
      2         -6.919019       -6.919019   1.000000   1.000000
      3         -6.095792       -6.095792   1.000000   1.000000
      4         -5.032746       -5.032746   1.000000   1.000000
      5         -4.549250       -4.549250   1.000000   1.000000
      6         -3.836649       -3.836649   1.000000   1.000000
      7         -3.149605       -3.149605   1.000000   1.000000
      8         -3.022790       -3.022790   1.000000   1.000000
      9         -3.022437       -3.022437   1.000000   1.000000
     10         -2.986896       -2.986896   1.000000   1.000000
     11         -2.957648       -2.957648   1.000000   1.000000
     12         -2.798267       -2.798267   1.000000   1.000000
     13         -2.796244       -2.796244   1.000000   1.000000
     14         -2.578421       -2.578421   1.000000   1.000000
     15         -2.546343       -2.546343   1.000000   1.000000
     16         -2.546231       -2.546231   1.000000   1.000000
     17         -2.474467       -2.474467   1.000000   1.000000
     18         -2.471073       -2.471073   1.000000   1.000000
     19         -2.450452       -2.450452   1.000000   1.000000
     20         -2.407895       -2.407895   1.000000   1.000000
     21         -2.407790       -2.407790   1.000000   1.000000
     22         -2.217834       -2.217834   1.000000   1.000000
     23         -2.153652       -2.153652   1.000000   1.000000
     24         -2.153594       -2.153594   1.000000   1.000000
     25         -2.061890       -2.061890   1.000000   1.000000
     26         -2.053297       -2.053297   1.000000   1.000000
     27         -1.901124       -1.901124   1.000000   1.000000
     28         -1.748755       -1.748755   1.000000   1.000000
     29         -1.748611       -1.748611   1.000000   1.000000
     30         -1.601010       -1.601010   1.000000   1.000000
     31         -1.343130       -1.343130   1.000000   1.000000
     32         -1.258714       -1.258714   1.000000   1.000000
     33         -1.258493       -1.258493   1.000000   1.000000
     34         -1.200883       -1.200883   1.000000   1.000000
     35         -1.173067       -1.173067   1.000000   1.000000
     36         -1.171901       -1.171901   1.000000   1.000000
     37         -1.059171       -1.059171   1.000000   1.000000
     38         -1.058587       -1.058587   1.000000   1.000000
     39         -1.034979       -1.034979   1.000000   1.000000
     40         -0.849051       -0.849051   1.000000   1.000000
     41         -0.848674       -0.848674   1.000000   1.000000
     42         -0.688699       -0.688699   1.000000   1.000000
     43         -0.688347       -0.688347   1.000000   1.000000
     44         -0.565072       -0.565072   1.000000   1.000000
     45         -0.535090       -0.535090   1.000000   1.000000
     46         -0.533992       -0.533992   1.000000   1.000000
     47         -0.521992       -0.521992   1.000000   1.000000
     48         -0.416953       -0.416953   1.000000   1.000000
     49         -0.375441       -0.375441   1.000000   1.000000
     50         -0.342779       -0.342779   1.000000   1.000000
     51         -0.332005       -0.332005   1.000000   1.000000
     52         -0.219673       -0.219673   1.000000   1.000000
     53         -0.219404       -0.219404   1.000000   1.000000
     54         -0.216750       -0.216750   1.000000   1.000000
     55         -0.207739       -0.207739   1.000000   1.000000
     56         -0.206779       -0.206779   1.000000   1.000000
     57         -0.205916       -0.205916   1.000000   1.000000
     58         -0.140698       -0.140698   1.000000   1.000000
     59         -0.140339       -0.140339   1.000000   1.000000
     60         -0.063298       -0.063298   1.000000   1.000000
     61         -0.051400       -0.051400   1.000000   1.000000
     62         -0.045428       -0.045428   1.000000   1.000000
     63          0.083685        0.083685   1.000000   1.000000
     64          0.088182        0.088182   1.000000   1.000000
     65          0.088266        0.088266   1.000000   1.000000
     66          0.132905        0.132905   1.000000   1.000000
     67          0.134216        0.134216   1.000000   1.000000
     68          0.143363        0.143363   1.000000   1.000000
     69          0.226083        0.226083   1.000000   1.000000
     70          0.261541        0.261541   1.000000   1.000000
     71          0.261889        0.261889   1.000000   1.000000
     72          0.263959        0.263959   1.000000   1.000000
     73          0.270735        0.270735   1.000000   1.000000
     74          0.275698        0.275698   1.000000   1.000000
     75          0.276686        0.276686   1.000000   1.000000
     76          0.280900        0.280900   1.000000   1.000000
     77          0.294736        0.294736   1.000000   1.000000
     78          0.341706        0.341706   1.000000   1.000000
     79          0.342116        0.342116   1.000000   1.000000
     80          0.373641        0.373641   1.000000   1.000000
     81          0.387916        0.387916   1.000000   1.000000
     82          0.423219        0.423219   1.000000   1.000000
     83          0.424055        0.424055   1.000000   1.000000
     84          0.424928        0.424928   1.000000   1.000000
     85          0.429821        0.429821   1.000000   1.000000
     86          0.576629        0.576629   1.000000   1.000000
     87          0.586386        0.586386   1.000000   1.000000
     88          1.456228        1.456228   1.000898   1.000898
     89          2.769291        2.769291  -0.000000  -0.000000
     90          3.519667        3.519667  -0.000000  -0.000000
     91          3.520257        3.520257  -0.000000  -0.000000
     92          3.720659        3.720659  -0.000000  -0.000000
     93          4.480031        4.480031  -0.000000  -0.000000
     94          4.481187        4.481187  -0.000000  -0.000000
     95          5.733402        5.733402  -0.000000  -0.000000
     96          5.741898        5.741898  -0.000000  -0.000000
     97          5.842474        5.842477  -0.000000  -0.000000
     98          6.380377        6.380381  -0.000000  -0.000000
     99          7.251851        7.251851  -0.000000  -0.000000
    100          7.257199        7.257199  -0.000000  -0.000000
    101          7.572110        7.572116   0.000000   0.000000
    102          8.867804        8.867804   0.000000   0.000000
    103          8.887065        8.887065   0.000000   0.000000
    104          8.983471        8.983472   0.000000   0.000000
    105          8.989248        8.989248   0.000000   0.000000
    106          9.069264        9.069267   0.000000   0.000000
    107          9.174624        9.174624   0.000000   0.000000
    108          9.194080        9.194080   0.000000   0.000000
    109          9.529865        9.529865   0.000000   0.000000
    110          9.587236        9.587236   0.000000   0.000000
    111          9.592246        9.592247   0.000000   0.000000
    112         10.214802       10.214802   0.000000   0.000000
    113         10.233047       10.233047   0.000000   0.000000
    114         10.493955       10.493956   0.000000   0.000000
    115         10.660491       10.660491   0.000000   0.000000
    116         10.684228       10.684229   0.000000   0.000000
 
  0.3333333E+00  0.0000000E+00  0.0000000E+00  0.2222222E+00
      1         -6.151565       -6.151565   1.000000   1.000000
      2         -5.663916       -5.663916   1.000000   1.000000
      3         -4.914948       -4.914948   1.000000   1.000000
      4         -4.348332       -4.348332   1.000000   1.000000
      5         -3.899279       -3.899279   1.000000   1.000000
      6         -3.431664       -3.431664   1.000000   1.000000
      7         -3.093296       -3.093296   1.000000   1.000000
      8         -2.989623       -2.989623   1.000000   1.000000
      9         -2.636676       -2.636676   1.000000   1.000000
     10         -2.534779       -2.534779   1.000000   1.000000
     11         -2.510369       -2.510369   1.000000   1.000000
     12         -2.360361       -2.360361   1.000000   1.000000
     13         -2.352744       -2.352744   1.000000   1.000000
     14         -2.322883       -2.322883   1.000000   1.000000
     15         -2.250708       -2.250708   1.000000   1.000000
     16         -2.230167       -2.230167   1.000000   1.000000
     17         -2.202780       -2.202780   1.000000   1.000000
     18         -2.199407       -2.199407   1.000000   1.000000
     19         -2.178135       -2.178135   1.000000   1.000000
     20         -2.132900       -2.132900   1.000000   1.000000
     21         -2.130531       -2.130531   1.000000   1.000000
     22         -2.121124       -2.121124   1.000000   1.000000
     23         -2.001765       -2.001765   1.000000   1.000000
     24         -1.967456       -1.967456   1.000000   1.000000
     25         -1.958912       -1.958912   1.000000   1.000000
     26         -1.773062       -1.773062   1.000000   1.000000
     27         -1.735583       -1.735583   1.000000   1.000000
     28         -1.694395       -1.694395   1.000000   1.000000
     29         -1.642343       -1.642343   1.000000   1.000000
     30         -1.600858       -1.600858   1.000000   1.000000
     31         -1.576521       -1.576521   1.000000   1.000000
     32         -1.568568       -1.568568   1.000000   1.000000
     33         -1.457591       -1.457591   1.000000   1.000000
     34         -1.437393       -1.437393   1.000000   1.000000
     35         -1.327483       -1.327483   1.000000   1.000000
     36         -1.260569       -1.260569   1.000000   1.000000
     37         -1.213442       -1.213442   1.000000   1.000000
     38         -1.197990       -1.197990   1.000000   1.000000
     39         -1.111684       -1.111684   1.000000   1.000000
     40         -1.072834       -1.072834   1.000000   1.000000
     41         -1.058002       -1.058002   1.000000   1.000000
     42         -1.020537       -1.020537   1.000000   1.000000
     43         -0.958901       -0.958901   1.000000   1.000000
     44         -0.927805       -0.927805   1.000000   1.000000
     45         -0.921690       -0.921690   1.000000   1.000000
     46         -0.803124       -0.803124   1.000000   1.000000
     47         -0.747329       -0.747329   1.000000   1.000000
     48         -0.710665       -0.710665   1.000000   1.000000
     49         -0.700958       -0.700958   1.000000   1.000000
     50         -0.693523       -0.693523   1.000000   1.000000
     51         -0.532502       -0.532502   1.000000   1.000000
     52         -0.516476       -0.516476   1.000000   1.000000
     53         -0.488157       -0.488157   1.000000   1.000000
     54         -0.485475       -0.485475   1.000000   1.000000
     55         -0.435424       -0.435424   1.000000   1.000000
     56         -0.396318       -0.396318   1.000000   1.000000
     57         -0.372811       -0.372811   1.000000   1.000000
     58         -0.325003       -0.325003   1.000000   1.000000
     59         -0.311506       -0.311506   1.000000   1.000000
     60         -0.310595       -0.310595   1.000000   1.000000
     61         -0.263622       -0.263622   1.000000   1.000000
     62         -0.247905       -0.247905   1.000000   1.000000
     63         -0.214146       -0.214146   1.000000   1.000000
     64         -0.188755       -0.188755   1.000000   1.000000
     65         -0.151878       -0.151878   1.000000   1.000000
     66         -0.133505       -0.133505   1.000000   1.000000
     67         -0.104248       -0.104248   1.000000   1.000000
     68         -0.097481       -0.097481   1.000000   1.000000
     69         -0.090352       -0.090352   1.000000   1.000000
     70         -0.077064       -0.077064   1.000000   1.000000
     71         -0.072996       -0.072996   1.000000   1.000000
     72         -0.066093       -0.066093   1.000000   1.000000
     73         -0.056424       -0.056424   1.000000   1.000000
     74          0.005196        0.005196   1.000000   1.000000
     75          0.009420        0.009420   1.000000   1.000000
     76          0.031289        0.031289   1.000000   1.000000
     77          0.065968        0.065968   1.000000   1.000000
     78          0.074517        0.074517   1.000000   1.000000
     79          0.121700        0.121700   1.000000   1.000000
     80          0.153989        0.153989   1.000000   1.000000
     81          0.262565        0.262565   1.000000   1.000000
     82          0.276479        0.276479   1.000000   1.000000
     83          0.289423        0.289423   1.000000   1.000000
     84          0.410107        0.410107   1.000000   1.000000
     85          0.428890        0.428890   1.000000   1.000000
     86          0.446015        0.446015   1.000000   1.000000
     87          0.914997        0.914997   1.000000   1.000000
     88          0.936171        0.936171   1.000000   1.000000
     89          1.691691        1.691691   1.032522   1.032522
     90          1.848467        1.848467   0.917680   0.917680
     91          2.625441        2.625441  -0.000017  -0.000017
     92          3.209625        3.209625  -0.000000  -0.000000
     93          3.779265        3.779265  -0.000000  -0.000000
     94          4.609792        4.609792  -0.000000  -0.000000
     95          5.175635        5.175635  -0.000000  -0.000000
     96          5.813458        5.813458  -0.000000  -0.000000
     97          5.961282        5.961282  -0.000000  -0.000000
     98          6.367881        6.367881  -0.000000  -0.000000
     99          6.649117        6.649117  -0.000000  -0.000000
    100          7.058734        7.058735  -0.000000  -0.000000
    101          7.535884        7.535889   0.000000   0.000000
    102          7.690536        7.690536   0.000000   0.000000
    103          8.152672        8.152674   0.000000   0.000000
    104          8.748241        8.748242   0.000000   0.000000
    105          8.978466        8.978469   0.000000   0.000000
    106          9.053816        9.053818   0.000000   0.000000
    107          9.567745        9.567745   0.000000   0.000000
    108          9.768706        9.768706   0.000000   0.000000
    109         10.170431       10.170432   0.000000   0.000000
    110         10.423556       10.423556   0.000000   0.000000
    111         10.479886       10.479887   0.000000   0.000000
    112         10.547894       10.547894   0.000000   0.000000
    113         10.584393       10.584395   0.000000   0.000000
    114         11.112846       11.112848   0.000000   0.000000
    115         11.132139       11.132140   0.000000   0.000000
    116         11.228919       11.228920   0.000000   0.000000
 
  0.0000000E+00  0.3333333E+00  0.0000000E+00  0.2222222E+00
      1         -6.151572       -6.151572   1.000000   1.000000
      2         -5.663922       -5.663922   1.000000   1.000000
      3         -4.915000       -4.915000   1.000000   1.000000
      4         -4.350797       -4.350797   1.000000   1.000000
      5         -3.899438       -3.899438   1.000000   1.000000
      6         -3.431743       -3.431743   1.000000   1.000000
      7         -3.093330       -3.093330   1.000000   1.000000
      8         -2.989700       -2.989700   1.000000   1.000000
      9         -2.636544       -2.636544   1.000000   1.000000
     10         -2.534863       -2.534863   1.000000   1.000000
     11         -2.510399       -2.510399   1.000000   1.000000
     12         -2.360529       -2.360529   1.000000   1.000000
     13         -2.352818       -2.352818   1.000000   1.000000
     14         -2.322748       -2.322748   1.000000   1.000000
     15         -2.249489       -2.249489   1.000000   1.000000
     16         -2.230296       -2.230296   1.000000   1.000000
     17         -2.202708       -2.202708   1.000000   1.000000
     18         -2.195616       -2.195616   1.000000   1.000000
     19         -2.182611       -2.182611   1.000000   1.000000
     20         -2.133066       -2.133066   1.000000   1.000000
     21         -2.131397       -2.131397   1.000000   1.000000
     22         -2.120974       -2.120974   1.000000   1.000000
     23         -2.001934       -2.001934   1.000000   1.000000
     24         -1.967516       -1.967516   1.000000   1.000000
     25         -1.958743       -1.958743   1.000000   1.000000
     26         -1.772985       -1.772985   1.000000   1.000000
     27         -1.735657       -1.735657   1.000000   1.000000
     28         -1.694269       -1.694269   1.000000   1.000000
     29         -1.642220       -1.642220   1.000000   1.000000
     30         -1.600948       -1.600948   1.000000   1.000000
     31         -1.576486       -1.576486   1.000000   1.000000
     32         -1.569161       -1.569161   1.000000   1.000000
     33         -1.457715       -1.457715   1.000000   1.000000
     34         -1.437160       -1.437160   1.000000   1.000000
     35         -1.326326       -1.326326   1.000000   1.000000
     36         -1.260816       -1.260816   1.000000   1.000000
     37         -1.213297       -1.213297   1.000000   1.000000
     38         -1.198151       -1.198151   1.000000   1.000000
     39         -1.109223       -1.109223   1.000000   1.000000
     40         -1.075267       -1.075267   1.000000   1.000000
     41         -1.057967       -1.057967   1.000000   1.000000
     42         -1.020536       -1.020536   1.000000   1.000000
     43         -0.960210       -0.960210   1.000000   1.000000
     44         -0.927683       -0.927683   1.000000   1.000000
     45         -0.921515       -0.921515   1.000000   1.000000
     46         -0.803225       -0.803225   1.000000   1.000000
     47         -0.747031       -0.747031   1.000000   1.000000
     48         -0.711439       -0.711439   1.000000   1.000000
     49         -0.699248       -0.699248   1.000000   1.000000
     50         -0.694075       -0.694075   1.000000   1.000000
     51         -0.529189       -0.529189   1.000000   1.000000
     52         -0.519039       -0.519039   1.000000   1.000000
     53         -0.487843       -0.487843   1.000000   1.000000
     54         -0.486465       -0.486465   1.000000   1.000000
     55         -0.435700       -0.435700   1.000000   1.000000
     56         -0.390386       -0.390386   1.000000   1.000000
     57         -0.378280       -0.378280   1.000000   1.000000
     58         -0.324592       -0.324592   1.000000   1.000000
     59         -0.311510       -0.311510   1.000000   1.000000
     60         -0.310616       -0.310616   1.000000   1.000000
     61         -0.259701       -0.259701   1.000000   1.000000
     62         -0.251942       -0.251942   1.000000   1.000000
     63         -0.214173       -0.214173   1.000000   1.000000
     64         -0.189055       -0.189055   1.000000   1.000000
     65         -0.151852       -0.151852   1.000000   1.000000
     66         -0.133391       -0.133391   1.000000   1.000000
     67         -0.104059       -0.104059   1.000000   1.000000
     68         -0.097798       -0.097798   1.000000   1.000000
     69         -0.090434       -0.090434   1.000000   1.000000
     70         -0.076207       -0.076207   1.000000   1.000000
     71         -0.073068       -0.073068   1.000000   1.000000
     72         -0.066122       -0.066122   1.000000   1.000000
     73         -0.056493       -0.056493   1.000000   1.000000
     74          0.004710        0.004710   1.000000   1.000000
     75          0.009875        0.009875   1.000000   1.000000
     76          0.031132        0.031132   1.000000   1.000000
     77          0.066048        0.066048   1.000000   1.000000
     78          0.074477        0.074477   1.000000   1.000000
     79          0.121713        0.121713   1.000000   1.000000
     80          0.153910        0.153910   1.000000   1.000000
     81          0.262747        0.262747   1.000000   1.000000
     82          0.276381        0.276381   1.000000   1.000000
     83          0.289442        0.289442   1.000000   1.000000
     84          0.410138        0.410138   1.000000   1.000000
     85          0.429061        0.429061   1.000000   1.000000
     86          0.446062        0.446062   1.000000   1.000000
     87          0.915305        0.915305   1.000000   1.000000
     88          0.935861        0.935861   1.000000   1.000000
     89          1.691917        1.691917   1.032560   1.032560
     90          1.848643        1.848643   0.917281   0.917281
     91          2.625702        2.625702  -0.000017  -0.000017
     92          3.210793        3.210793  -0.000000  -0.000000
     93          3.779799        3.779799  -0.000000  -0.000000
     94          4.613859        4.613859  -0.000000  -0.000000
     95          5.177873        5.177873  -0.000000  -0.000000
     96          5.819917        5.819917  -0.000000  -0.000000
     97          5.961789        5.961789  -0.000000  -0.000000
     98          6.377645        6.377645  -0.000000  -0.000000
     99          6.649016        6.649016  -0.000000  -0.000000
    100          7.058769        7.058770  -0.000000  -0.000000
    101          7.540121        7.540126   0.000000   0.000000
    102          7.691190        7.691190   0.000000   0.000000
    103          8.168009        8.168011   0.000000   0.000000
    104          8.738109        8.738110   0.000000   0.000000
    105          8.998504        8.998508   0.000000   0.000000
    106          9.031483        9.031484   0.000000   0.000000
    107          9.567456        9.567456   0.000000   0.000000
    108          9.756046        9.756046   0.000000   0.000000
    109         10.160172       10.160173   0.000000   0.000000
    110         10.419169       10.419169   0.000000   0.000000
    111         10.521159       10.521160   0.000000   0.000000
    112         10.541075       10.541077   0.000000   0.000000
    113         10.549176       10.549176   0.000000   0.000000
    114         11.120113       11.120114   0.000000   0.000000
    115         11.138433       11.138434   0.000000   0.000000
    116         11.225526       11.225527   0.000000   0.000000
 
  0.3333333E+00  0.3333333E+00  0.0000000E+00  0.2222222E+00
      1         -4.990657       -4.990657   1.000000   1.000000
      2         -4.605946       -4.605946   1.000000   1.000000
      3         -4.165258       -4.165258   1.000000   1.000000
      4         -4.022093       -4.022093   1.000000   1.000000
      5         -3.452463       -3.452463   1.000000   1.000000
      6         -2.956805       -2.956805   1.000000   1.000000
      7         -2.870570       -2.870570   1.000000   1.000000
      8         -2.865580       -2.865580   1.000000   1.000000
      9         -2.820305       -2.820305   1.000000   1.000000
     10         -2.816369       -2.816369   1.000000   1.000000
     11         -2.766169       -2.766169   1.000000   1.000000
     12         -2.764942       -2.764942   1.000000   1.000000
     13         -2.568997       -2.568997   1.000000   1.000000
     14         -2.366419       -2.366419   1.000000   1.000000
     15         -2.365560       -2.365560   1.000000   1.000000
     16         -2.306830       -2.306830   1.000000   1.000000
     17         -2.215391       -2.215391   1.000000   1.000000
     18         -2.020745       -2.020745   1.000000   1.000000
     19         -1.843054       -1.843054   1.000000   1.000000
     20         -1.842486       -1.842486   1.000000   1.000000
     21         -1.814252       -1.814252   1.000000   1.000000
     22         -1.697012       -1.697012   1.000000   1.000000
     23         -1.695018       -1.695018   1.000000   1.000000
     24         -1.571896       -1.571896   1.000000   1.000000
     25         -1.570339       -1.570339   1.000000   1.000000
     26         -1.513048       -1.513048   1.000000   1.000000
     27         -1.508604       -1.508604   1.000000   1.000000
     28         -1.385871       -1.385871   1.000000   1.000000
     29         -1.383768       -1.383768   1.000000   1.000000
     30         -1.338824       -1.338824   1.000000   1.000000
     31         -1.336819       -1.336819   1.000000   1.000000
     32         -1.335466       -1.335466   1.000000   1.000000
     33         -1.229563       -1.229563   1.000000   1.000000
     34         -1.226310       -1.226310   1.000000   1.000000
     35         -1.184918       -1.184918   1.000000   1.000000
     36         -1.148255       -1.148255   1.000000   1.000000
     37         -1.134805       -1.134805   1.000000   1.000000
     38         -1.126485       -1.126485   1.000000   1.000000
     39         -1.112804       -1.112804   1.000000   1.000000
     40         -1.066349       -1.066349   1.000000   1.000000
     41         -1.020442       -1.020442   1.000000   1.000000
     42         -1.005909       -1.005909   1.000000   1.000000
     43         -1.000574       -1.000574   1.000000   1.000000
     44         -0.996823       -0.996823   1.000000   1.000000
     45         -0.990077       -0.990077   1.000000   1.000000
     46         -0.973791       -0.973791   1.000000   1.000000
     47         -0.916055       -0.916055   1.000000   1.000000
     48         -0.895536       -0.895536   1.000000   1.000000
     49         -0.892416       -0.892416   1.000000   1.000000
     50         -0.818483       -0.818483   1.000000   1.000000
     51         -0.797710       -0.797710   1.000000   1.000000
     52         -0.793065       -0.793065   1.000000   1.000000
     53         -0.784947       -0.784947   1.000000   1.000000
     54         -0.755085       -0.755085   1.000000   1.000000
     55         -0.748066       -0.748066   1.000000   1.000000
     56         -0.641756       -0.641756   1.000000   1.000000
     57         -0.639704       -0.639704   1.000000   1.000000
     58         -0.587721       -0.587721   1.000000   1.000000
     59         -0.556868       -0.556868   1.000000   1.000000
     60         -0.518743       -0.518743   1.000000   1.000000
     61         -0.492988       -0.492988   1.000000   1.000000
     62         -0.444644       -0.444644   1.000000   1.000000
     63         -0.441341       -0.441341   1.000000   1.000000
     64         -0.290948       -0.290948   1.000000   1.000000
     65         -0.176157       -0.176157   1.000000   1.000000
     66         -0.173562       -0.173562   1.000000   1.000000
     67         -0.139379       -0.139379   1.000000   1.000000
     68         -0.020185       -0.020185   1.000000   1.000000
     69         -0.013280       -0.013280   1.000000   1.000000
     70          0.002101        0.002101   1.000000   1.000000
     71          0.048985        0.048985   1.000000   1.000000
     72          0.070639        0.070639   1.000000   1.000000
     73          0.161454        0.161454   1.000000   1.000000
     74          0.164276        0.164276   1.000000   1.000000
     75          0.165250        0.165250   1.000000   1.000000
     76          0.178059        0.178059   1.000000   1.000000
     77          0.195613        0.195613   1.000000   1.000000
     78          0.205314        0.205314   1.000000   1.000000
     79          0.259877        0.259877   1.000000   1.000000
     80          0.280617        0.280617   1.000000   1.000000
     81          0.282067        0.282067   1.000000   1.000000
     82          0.300403        0.300403   1.000000   1.000000
     83          0.303112        0.303112   1.000000   1.000000
     84          0.331121        0.331121   1.000000   1.000000
     85          0.350342        0.350342   1.000000   1.000000
     86          1.060982        1.060982   1.000000   1.000000
     87          1.827213        1.827213   0.960256   0.960256
     88          1.827410        1.827410   0.959913   0.959913
     89          2.044726        2.044726   0.198451   0.198451
     90          2.047215        2.047215   0.190351   0.190351
     91          2.419142        2.419142  -0.003179  -0.003179
     92          2.428306        2.428306  -0.002653  -0.002653
     93          2.442230        2.442230  -0.001996  -0.001996
     94          2.851302        2.851302  -0.000000  -0.000000
     95          2.876632        2.876632  -0.000000  -0.000000
     96          3.956557        3.956557  -0.000000  -0.000000
     97          4.926865        4.926865  -0.000000  -0.000000
     98          5.413010        5.413010  -0.000000  -0.000000
     99          5.539984        5.539984  -0.000000  -0.000000
    100          5.923844        5.923844  -0.000000  -0.000000
    101          5.955722        5.955722  -0.000000  -0.000000
    102          6.838119        6.838119  -0.000000  -0.000000
    103          6.915350        6.915350  -0.000000  -0.000000
    104          7.020163        7.020163  -0.000000  -0.000000
    105          7.410193        7.410193  -0.000000  -0.000000
    106          7.582798        7.582798   0.000000   0.000000
    107          7.914539        7.914540   0.000000   0.000000
    108          8.152479        8.152479   0.000000   0.000000
    109          8.547789        8.547790   0.000000   0.000000
    110          8.766985        8.766986   0.000000   0.000000
    111          8.833060        8.833064   0.000000   0.000000
    112          9.164743        9.164743   0.000000   0.000000
    113          9.694805        9.694808   0.000000   0.000000