<?xml version="1.0" encoding="ISO-8859-1"?>
<modeling>
 <generator>
  <i name="program" type="string">vasp </i>
  <i name="version" type="string">6.3.2  </i>
  <i name="subversion" type="string">27Jun22 (build Aug 17 2022 15:43:34) complex                          parallel </i>
  <i name="platform" type="string">tv2STDVTST </i>
  <i name="date" type="string">2025 02 04 </i>
  <i name="time" type="string">12:00:02 </i>
 </generator>
 <incar>
  <i type="int" name="ISTART">     0</i>
  <i type="string" name="PREC">Normal</i>
  <i type="int" name="ISPIN">     2</i>
  <i type="int" name="ICHARG">     2</i>
  <i type="int" name="IBRION">     2</i>
  <i name="EDIFF">      0.00020000</i>
  <i name="EDIFFG">     -0.03000000</i>
  <i type="int" name="NSW">   800</i>
  <i type="int" name="ISIF">     2</i>
  <i type="int" name="ISYM">     1</i>
  <i name="ENCUT">    400.00000000</i>
  <i name="POTIM">      0.50000000</i>
  <i type="logical" name="LREAL"> F  </i>
  <i type="int" name="ISMEAR">     1</i>
  <i name="SIGMA">      0.20000000</i>
  <i type="logical" name="LWAVE"> F  </i>
  <i type="logical" name="LCHARG"> F  </i>
  <i type="string" name="GGA">PE</i>
  <i type="int" name="IVDW">    11</i>
 </incar>
 <primitive_cell>
  <structure name="primitive_cell" >
   <crystal>
    <varray name="basis" >
     <v>       3.63000011       0.00000000       0.00000000 </v>
     <v>       0.00000000       3.63000011       0.00000000 </v>
     <v>       0.00000000       0.00000000      27.70499992 </v>
    </varray>
    <i name="volume">    365.06603650 </i>
    <varray name="rec_basis" >
     <v>       0.27548208       0.00000000       0.00000000 </v>
     <v>       0.00000000       0.27548208       0.00000000 </v>
     <v>       0.00000000       0.00000000       0.03609457 </v>
    </varray>
   </crystal>
   <varray name="positions" >
    <v>       0.00000000       0.00000000       0.00000000 </v>
    <v>       0.50000000       0.50000000       0.00000000 </v>
    <v>       0.00000000       0.50000000       0.06551164 </v>
    <v>       0.50000000       0.00000000       0.06551164 </v>
    <v>       0.00000000       0.00000000       0.12876120 </v>
    <v>       0.50000000       0.50000000       0.12876120 </v>
    <v>       0.00000000       0.50000000       0.19193187 </v>
    <v>       0.50000000       0.00000000       0.19193187 </v>
    <v>       0.00000000       0.00000000       0.25406550 </v>
    <v>       0.50000000       0.50000000       0.25406550 </v>
    <v>       0.00000000       0.50000000       0.31747855 </v>
    <v>       0.50000000       0.00000000       0.31747855 </v>
    <v>       0.00000000       0.00000000       0.38132233 </v>
    <v>       0.50000000       0.50000000       0.38132233 </v>
    <v>       0.00000000       0.50000000       0.44440075 </v>
    <v>       0.50000000       0.00000000       0.44440075 </v>
    <v>       0.75000000       0.25000000       0.50150658 </v>
    <v>       0.75000000       0.45550964       0.50150658 </v>
   </varray>
  </structure>
  <varray name="primitive_index" >
   <v type="int" >        1 </v>
   <v type="int" >        2 </v>
   <v type="int" >        3 </v>
   <v type="int" >        4 </v>
   <v type="int" >        5 </v>
   <v type="int" >        6 </v>
   <v type="int" >        7 </v>
   <v type="int" >        8 </v>
   <v type="int" >        9 </v>
   <v type="int" >       10 </v>
   <v type="int" >       11 </v>
   <v type="int" >       12 </v>
   <v type="int" >       13 </v>
   <v type="int" >       14 </v>
   <v type="int" >       15 </v>
   <v type="int" >       16 </v>
   <v type="int" >       17 </v>
   <v type="int" >       18 </v>
  </varray>
 </primitive_cell>
 <kpoints>
  <generation param="Monkhorst-Pack">
   <v type="int" name="divisions">       3        3        1 </v>
   <v name="usershift">      0.00000000       0.00000000       0.00000000 </v>
   <v name="genvec1">      0.33333333       0.00000000       0.00000000 </v>
   <v name="genvec2">      0.00000000       0.33333333       0.00000000 </v>
   <v name="genvec3">      0.00000000       0.00000000       1.00000000 </v>
   <v name="shift">      0.00000000       0.00000000       0.00000000 </v>
  </generation>
  <varray name="kpointlist" >
   <v>       0.00000000       0.00000000       0.00000000 </v>
   <v>       0.33333333       0.00000000       0.00000000 </v>
   <v>       0.00000000       0.33333333       0.00000000 </v>
   <v>       0.33333333       0.33333333       0.00000000 </v>
   <v>      -0.33333333       0.33333333       0.00000000 </v>
  </varray>
  <varray name="weights" >
   <v>       0.11111111 </v>
   <v>       0.22222222 </v>
   <v>       0.22222222 </v>
   <v>       0.22222222 </v>
   <v>       0.22222222 </v>
  </varray>
 </kpoints>
 <parameters>
  <separator name="general" >
   <i type="string" name="SYSTEM">unknown system</i>
   <i type="logical" name="LCOMPAT"> F  </i>
  </separator>
  <separator name="electronic" >
   <i type="string" name="PREC">normal</i>
   <i name="ENMAX">    400.00000000</i>
   <i name="ENAUG">    586.98000000</i>
   <i name="EDIFF">      0.00020000</i>
   <i type="int" name="IALGO">    38</i>
   <i type="int" name="IWAVPR">    11</i>
   <i type="int" name="NBANDS">   116</i>
   <i type="int" name="NBANDSLOW">    -1</i>
   <i type="int" name="NBANDSHIGH">    -1</i>
   <i name="NELECT">    178.00000000</i>
   <i type="int" name="TURBO">     0</i>
   <i type="int" name="IRESTART">     0</i>
   <i type="int" name="NREBOOT">     0</i>
   <i type="int" name="NMIN">     0</i>
   <i name="EREF">      0.00000000</i>
   <separator name="electronic smearing" >
    <i type="int" name="ISMEAR">     1</i>
    <i name="SIGMA">      0.20000000</i>
    <i name="KSPACING">      0.50000000</i>
    <i type="logical" name="KGAMMA"> T  </i>
    <i type="logical" name="KBLOWUP"> T  </i>
   </separator>
   <separator name="electronic projectors" >
    <i type="logical" name="LREAL"> F  </i>
    <v name="ROPT">      0.00000000      0.00000000</v>
    <i type="int" name="LMAXPAW">  -100</i>
    <i type="int" name="LMAXMIX">     2</i>
    <i type="logical" name="NLSPLINE"> F  </i>
   </separator>
   <separator name="electronic startup" >
    <i type="int" name="ISTART">     0</i>
    <i type="int" name="ICHARG">     2</i>
    <i type="int" name="INIWAV">     1</i>
   </separator>
   <separator name="electronic spin" >
    <i type="int" name="ISPIN">     2</i>
    <i type="logical" name="LNONCOLLINEAR"> F  </i>
    <v name="MAGMOM">      1.00000000      1.00000000      1.00000000      1.00000000      1.00000000      1.00000000      1.00000000      1.00000000      1.00000000      1.00000000      1.00000000      1.00000000      1.00000000      1.00000000      1.00000000      1.00000000      1.00000000      1.00000000</v>
    <i name="NUPDOWN">     -1.00000000</i>
    <i type="logical" name="LSORBIT"> F  </i>
    <v name="SAXIS">      0.00000000      0.00000000      1.00000000</v>
    <i type="logical" name="LSPIRAL"> F  </i>
    <v name="QSPIRAL">      0.00000000      0.00000000      0.00000000</v>
    <i type="logical" name="LZEROZ"> F  </i>
   </separator>
   <separator name="electronic exchange-correlation" >
    <i type="logical" name="LASPH"> F  </i>
    <i type="logical" name="LMETAGGA"> F  </i>
   </separator>
   <separator name="electronic convergence" >
    <i type="int" name="NELM">    60</i>
    <i type="int" name="NELMDL">    -5</i>
    <i type="int" name="NELMIN">     2</i>
    <i name="ENINI">    400.00000000</i>
    <separator name="electronic convergence detail" >
     <i type="logical" name="LDIAG"> T  </i>
     <i type="logical" name="LSUBROT"> F  </i>
     <i name="WEIMIN">      0.00100000</i>
     <i name="EBREAK">      0.00000043</i>
     <i name="DEPER">      0.30000000</i>
     <i type="int" name="NRMM">     4</i>
     <i name="TIME">      0.40000000</i>
    </separator>
   </separator>
   <separator name="electronic mixer" >
    <i name="AMIX">      0.40000000</i>
    <i name="BMIX">      1.00000000</i>
    <i name="AMIN">      0.10000000</i>
    <i name="AMIX_MAG">      1.60000000</i>
    <i name="BMIX_MAG">      1.00000000</i>
    <separator name="electronic mixer details" >
     <i type="int" name="IMIX">     4</i>
     <i type="logical" name="MIXFIRST"> F  </i>
     <i type="int" name="MAXMIX">   -45</i>
     <i name="WC">    100.00000000</i>
     <i type="int" name="INIMIX">     1</i>
     <i type="int" name="MIXPRE">     1</i>
     <i type="int" name="MREMOVE">     5</i>
    </separator>
   </separator>
   <separator name="electronic dipolcorrection" >
    <i type="logical" name="LDIPOL"> F  </i>
    <i type="logical" name="LMONO"> F  </i>
    <i type="int" name="IDIPOL">     0</i>
    <i name="EPSILON">      1.00000000</i>
    <v name="DIPOL">   -100.00000000   -100.00000000   -100.00000000</v>
    <i name="EFIELD">      0.00000000</i>
   </separator>
  </separator>
  <separator name="grids" >
   <i type="int" name="NGX">    18</i>
   <i type="int" name="NGY">    18</i>
   <i type="int" name="NGZ">   140</i>
   <i type="int" name="NGXF">    36</i>
   <i type="int" name="NGYF">    36</i>
   <i type="int" name="NGZF">   280</i>
   <i type="logical" name="ADDGRID"> F  </i>
  </separator>
  <separator name="ionic" >
   <i type="int" name="NSW">   800</i>
   <i type="int" name="IBRION">     2</i>
   <i type="int" name="MDALGO">     0</i>
   <i type="int" name="ISIF">     2</i>
   <i name="PSTRESS">      0.00000000</i>
   <i name="EDIFFG">     -0.03000000</i>
   <i type="int" name="NFREE">     1</i>
   <i name="POTIM">      0.50000000</i>
   <i name="SMASS">     -3.00000000</i>
   <i name="SCALEE">      1.00000000</i>
  </separator>
  <separator name="ionic md" >
   <i name="TEBEG">      0.00010000</i>
   <i name="TEEND">      0.00010000</i>
   <i type="int" name="NBLOCK">     1</i>
   <i type="int" name="KBLOCK">   800</i>
   <i type="int" name="NPACO">   256</i>
   <i name="APACO">     10.00000000</i>
  </separator>
  <separator name="symmetry" >
   <i type="int" name="ISYM">     1</i>
   <i name="SYMPREC">      0.00001000</i>
  </separator>
  <separator name="dos" >
   <i type="int" name="LORBIT">     0</i>
   <v name="RWIGS">     -1.00000000     -1.00000000</v>
   <i type="int" name="NEDOS">   301</i>
   <i name="EMIN">     10.00000000</i>
   <i name="EMAX">    -10.00000000</i>
   <i name="EFERMI">      0.00000000</i>
  </separator>
  <separator name="writing" >
   <i type="int" name="NWRITE">     2</i>
   <i type="logical" name="LWAVE"> F  </i>
   <i type="logical" name="LDOWNSAMPLE"> F  </i>
   <i type="logical" name="LCHARG"> F  </i>
   <i type="logical" name="LPARD"> F  </i>
   <i type="logical" name="LVTOT"> F  </i>
   <i type="logical" name="LVHAR"> F  </i>
   <i type="logical" name="LELF"> F  </i>
   <i type="logical" name="LOPTICS"> F  </i>
   <v name="STM">      0.00000000      0.00000000      0.00000000      0.00000000      0.00000000      0.00000000      0.00000000</v>
  </separator>
  <separator name="performance" >
   <i type="int" name="NPAR">     4</i>
   <i type="int" name="NSIM">     4</i>
   <i type="int" name="NBLK">    -1</i>
   <i type="logical" name="LPLANE"> T  </i>
   <i type="logical" name="LSCALAPACK"> T  </i>
   <i type="logical" name="LSCAAWARE"> F  </i>
   <i type="logical" name="LSCALU"> F  </i>
   <i type="logical" name="LASYNC"> F  </i>
   <i type="logical" name="LORBITALREAL"> F  </i>
  </separator>
  <separator name="miscellaneous" >
   <i type="int" name="IDIOT">     3</i>
   <i type="int" name="PHON_NSTRUCT">    -1</i>
   <i type="logical" name="LMUSIC"> F  </i>
   <v name="POMASS">     63.54600000      1.00000000</v>
   <v name="DARWINR">      0.00000000      0.00000000</v>
   <v name="DARWINV">      1.00000000      1.00000000</v>
   <i type="logical" name="LCORR"> T  </i>
  </separator>
  <i type="logical" name="GGA_COMPAT"> T  </i>
  <i type="logical" name="LBERRY"> F  </i>
  <i type="int" name="ICORELEVEL">     0</i>
  <i type="logical" name="LDAU"> F  </i>
  <i type="int" name="I_CONSTRAINED_M">     0</i>
  <separator name="electronic exchange-correlation" >
   <i type="string" name="GGA">PE</i>
   <i type="int" name="VOSKOWN">     0</i>
   <i type="logical" name="LHFCALC"> F  </i>
   <i type="string" name="PRECFOCK"></i>
   <i type="logical" name="LSYMGRAD"> F  </i>
   <i type="logical" name="LHFONE"> F  </i>
   <i type="logical" name="LRHFCALC"> F  </i>
   <i type="logical" name="LTHOMAS"> F  </i>
   <i type="logical" name="LMODELHF"> F  </i>
   <i type="logical" name="LFOCKACE"> F  </i>
   <i name="ENCUT4O">     -1.00000000</i>
   <i type="int" name="EXXOEP">     0</i>
   <i type="int" name="FOURORBIT">     0</i>
   <i name="AEXX">      0.00000000</i>
   <i name="HFALPHA">      0.00000000</i>
   <i name="MCALPHA">      0.00000000</i>
   <i name="ALDAX">      1.00000000</i>
   <i name="AGGAX">      1.00000000</i>
   <i name="ALDAC">      1.00000000</i>
   <i name="AGGAC">      1.00000000</i>
   <i type="int" name="NKREDX">     1</i>
   <i type="int" name="NKREDY">     1</i>
   <i type="int" name="NKREDZ">     1</i>
   <i type="logical" name="SHIFTRED"> F  </i>
   <i type="logical" name="ODDONLY"> F  </i>
   <i type="logical" name="EVENONLY"> F  </i>
   <i type="int" name="LMAXFOCK">     0</i>
   <i type="int" name="NMAXFOCKAE">     0</i>
   <i type="logical" name="LFOCKAEDFT"> F  </i>
   <i name="HFSCREEN">      0.00000000</i>
   <i name="HFSCREENC">      0.00000000</i>
   <i type="int" name="NBANDSGWLOW">     0</i>
  </separator>
  <separator name="vdW DFT" >
   <i type="logical" name="LUSE_VDW"> F  </i>
   <i name="Zab_VDW">     -0.84910000</i>
   <i name="PARAM1">      0.12340000</i>
   <i name="PARAM2">      1.00000000</i>
   <i name="PARAM3">      0.00000000</i>
  </separator>
  <separator name="model GW" >
   <i type="int" name="MODEL_GW">     0</i>
   <i name="MODEL_EPS0">     12.16886788</i>
   <i name="MODEL_ALPHA">      1.00000000</i>
  </separator>
  <separator name="linear response parameters" >
   <i type="logical" name="LEPSILON"> F  </i>
   <i type="logical" name="LRPA"> F  </i>
   <i type="logical" name="LNABLA"> F  </i>
   <i type="logical" name="LVEL"> F  </i>
   <i name="CSHIFT">      0.10000000</i>
   <i name="OMEGAMAX">     -1.00000000</i>
   <i name="DEG_THRESHOLD">      0.00200000</i>
   <i name="RTIME">     -0.10000000</i>
   <i name="WPLASMAI">      0.00000000</i>
   <v name="DFIELD">      0.00000000      0.00000000      0.00000000</v>
   <v name="WPLASMA">      0.00000000      0.00000000      0.00000000      0.00000000      0.00000000      0.00000000      0.00000000      0.00000000      0.00000000</v>
  </separator>
  <separator name="orbital magnetization" >
   <i type="logical" name="NUCIND"> F  </i>
   <v name="MAGPOS">      0.00000000      0.00000000      0.00000000</v>
   <i type="logical" name="LNICSALL"> T  </i>
   <i type="logical" name="ORBITALMAG"> F  </i>
   <i type="logical" name="LMAGBLOCH"> F  </i>
   <i type="logical" name="LCHIMAG"> F  </i>
   <i type="logical" name="LGAUGE"> T  </i>
   <i type="int" name="MAGATOM">     0</i>
   <v name="MAGDIPOL">      0.00000000      0.00000000      0.00000000</v>
   <v name="AVECCONST">      0.00000000      0.00000000      0.00000000</v>
  </separator>
  <separator name="response functions" >
   <i type="logical" name="LFINITE_TEMPERATURE"> F  </i>
   <i type="logical" name="LADDER"> F  </i>
   <i type="logical" name="LRPAFORCE"> F  </i>
   <i type="logical" name="LFXC"> F  </i>
   <i type="logical" name="LHARTREE"> T  </i>
   <i type="int" name="IBSE">     0</i>
   <v type="int" name="KPOINT">    -1     0     0     0</v>
   <i type="logical" name="LTCTC"> F  </i>
   <i type="logical" name="LTCTE"> F  </i>
   <i type="logical" name="LTETE"> F  </i>
   <i type="logical" name="LTRIPLET"> F  </i>
   <i type="logical" name="LFXCEPS"> F  </i>
   <i type="logical" name="LFXHEG"> F  </i>
   <i type="int" name="NATURALO">     2</i>
   <i type="logical" name="LHOLEGF"> F  </i>
   <i type="logical" name="L2ORDER"> F  </i>
   <i type="logical" name="LDMP1"> F  </i>
   <i type="logical" name="LMP2LT"> F  </i>
   <i type="logical" name="LSMP2LT"> F  </i>
   <i type="logical" name="LGWLF"> F  </i>
   <i name="ENCUTGW">     -2.00000000</i>
   <i name="ENCUTGWSOFT">     -2.00000000</i>
   <i name="ENCUTLF">     -1.00000000</i>
   <i type="logical" name="LESF_SPLINES"> F  </i>
   <i type="int" name="LMAXMP2">    -1</i>
   <i name="SCISSOR">      0.00000000</i>
   <i type="int" name="NOMEGA">     0</i>
   <i type="int" name="NOMEGAR">     0</i>
   <i type="int" name="NBANDSGW">    -1</i>
   <i type="int" name="NBANDSO">    -1</i>
   <i type="int" name="NBANDSV">    -1</i>
   <i type="int" name="NELMGW">     1</i>
   <i type="int" name="NELMHF">     1</i>
   <i type="int" name="DIM">     3</i>
   <i type="int" name="IESPILON">     4</i>
   <i type="int" name="ANTIRES">     0</i>
   <i name="OMEGAMAX">    -30.00000000</i>
   <i name="OMEGAMIN">    -30.00000000</i>
   <i name="OMEGATL">   -200.00000000</i>
   <i type="int" name="OMEGAGRID">     0</i>
   <i name="CSHIFT">     -0.10000000</i>
   <i type="logical" name="LSELFENERGY"> F  </i>
   <i type="logical" name="LSPECTRAL"> F  </i>
   <i type="logical" name="LSPECTRALGW"> F  </i>
   <i type="logical" name="LSINGLES"> F  </i>
   <i type="logical" name="LFERMIGW"> F  </i>
   <i type="logical" name="ODDONLYGW"> F  </i>
   <i type="logical" name="EVENONLYGW"> F  </i>
   <i type="int" name="NKREDLFX">     1</i>
   <i type="int" name="NKREDLFY">     1</i>
   <i type="int" name="NKREDLFZ">     1</i>
   <i type="int" name="MAXMEM">  2800</i>
   <i type="int" name="TELESCOPE">     0</i>
   <i type="int" name="NTAUPAR">    -1</i>
   <i type="int" name="NOMEGAPAR">    -1</i>
   <i name="DAMP_NEWTON">      0.80000001</i>
   <i name="LAMBDA">      1.00000000</i>
  </separator>
  <separator name="External order field" >
   <i name="OFIELD_KAPPA">      0.00000000</i>
   <v name="OFIELD_K">      0.00000000      0.00000000      0.00000000</v>
   <i name="OFIELD_Q6_NEAR">      0.00000000</i>
   <i name="OFIELD_Q6_FAR">      0.00000000</i>
   <i name="OFIELD_A">      0.00000000</i>
  </separator>
  <separator name="optional k-points parameters" >
   <i type="int" name="KPOINTS_OPT_MODE">     1</i>
   <i type="logical" name="LKPOINTS_OPT"> F  </i>
  </separator>
 </parameters>
 <atominfo>
  <atoms>      18 </atoms>
  <types>       2 </types>
  <array name="atoms" >
   <dimension dim="1">ion</dimension>
   <field type="string">element</field>
   <field type="int">atomtype</field>
   <set>
    <rc><c>Cu</c><c>   1</c></rc>
    <rc><c>Cu</c><c>   1</c></rc>
    <rc><c>Cu</c><c>   1</c></rc>
    <rc><c>Cu</c><c>   1</c></rc>
    <rc><c>Cu</c><c>   1</c></rc>
    <rc><c>Cu</c><c>   1</c></rc>
    <rc><c>Cu</c><c>   1</c></rc>
    <rc><c>Cu</c><c>   1</c></rc>
    <rc><c>Cu</c><c>   1</c></rc>
    <rc><c>Cu</c><c>   1</c></rc>
    <rc><c>Cu</c><c>   1</c></rc>
    <rc><c>Cu</c><c>   1</c></rc>
    <rc><c>Cu</c><c>   1</c></rc>
    <rc><c>Cu</c><c>   1</c></rc>
    <rc><c>Cu</c><c>   1</c></rc>
    <rc><c>Cu</c><c>   1</c></rc>
    <rc><c>H </c><c>   2</c></rc>
    <rc><c>H </c><c>   2</c></rc>
   </set>
  </array>
  <array name="atomtypes" >
   <dimension dim="1">type</dimension>
   <field type="int">atomspertype</field>
   <field type="string">element</field>
   <field>mass</field>
   <field>valence</field>
   <field type="string">pseudopotential</field>
   <set>
    <rc><c>  16</c><c>Cu</c><c>     63.54600000</c><c>     11.00000000</c><c>  PAW_PBE Cu 22Jun2005                  </c></rc>
    <rc><c>   2</c><c>H </c><c>      1.00000000</c><c>      1.00000000</c><c>  PAW_PBE H 15Jun2001                   </c></rc>
   </set>
  </array>
 </atominfo>
 <structure name="initialpos" >
  <crystal>
   <varray name="basis" >
    <v>       3.63000011       0.00000000       0.00000000 </v>
    <v>       0.00000000       3.63000011       0.00000000 </v>
    <v>       0.00000000       0.00000000      27.70499992 </v>
   </varray>
   <i name="volume">    365.06603650 </i>
   <varray name="rec_basis" >
    <v>       0.27548208       0.00000000       0.00000000 </v>
    <v>       0.00000000       0.27548208       0.00000000 </v>
    <v>       0.00000000       0.00000000       0.03609457 </v>
   </varray>
  </crystal>
  <varray name="positions" >
   <v>       0.00000000       0.00000000       0.00000000 </v>
   <v>       0.50000000       0.50000000       0.00000000 </v>
   <v>       0.00000000       0.50000000       0.06551164 </v>
   <v>       0.50000000       0.00000000       0.06551164 </v>
   <v>       0.00000000       0.00000000       0.12876120 </v>
   <v>       0.50000000       0.50000000       0.12876120 </v>
   <v>       0.00000000       0.50000000       0.19193187 </v>
   <v>       0.50000000       0.00000000       0.19193187 </v>
   <v>       0.00000000       0.00000000       0.25406550 </v>
   <v>       0.50000000       0.50000000       0.25406550 </v>
   <v>       0.00000000       0.50000000       0.31747855 </v>
   <v>       0.50000000       0.00000000       0.31747855 </v>
   <v>       0.00000000       0.00000000       0.38132233 </v>
   <v>       0.50000000       0.50000000       0.38132233 </v>
   <v>       0.00000000       0.50000000       0.44440075 </v>
   <v>       0.50000000       0.00000000       0.44440075 </v>
   <v>       0.75000000       0.25000000       0.50150658 </v>
   <v>       0.75000000       0.45550964       0.50150658 </v>
  </varray>
 </structure>
 <calculation>
  <scstep>
   <time name="dav">    1.44    1.45</time>
   <time name="total">    1.47    1.49</time>
   <energy>
    <i name="alphaZ">    521.04204123 </i>
    <i name="ewald"> 102940.78606225 </i>
    <i name="hartreedc">-124847.75725797 </i>
    <i name="XCdc">    738.70358810 </i>
    <i name="pawpsdc">  19653.14859652 </i>
    <i name="pawaedc"> -21346.34030725 </i>
    <i name="eentropy">      0.01291388 </i>
    <i name="bandstr">   1729.21763184 </i>
    <i name="atom">  22280.27950853 </i>
    <i name="e_fr_energy">   1669.09277713 </i>
    <i name="e_wo_entrp">   1669.07986324 </i>
    <i name="e_0_energy">   1669.08847250 </i>
   </energy>
  </scstep>
  <scstep>
   <time name="dav">    1.40    1.41</time>
   <time name="total">    1.40    1.41</time>
   <energy>
    <i name="e_fr_energy">    199.18790736 </i>
    <i name="e_wo_entrp">    199.18896712 </i>
    <i name="e_0_energy">    199.18826061 </i>
   </energy>
  </scstep>
  <scstep>
   <time name="dav">    1.42    1.43</time>
   <time name="total">    1.42    1.43</time>
   <energy>
    <i name="e_fr_energy">    -53.53640076 </i>
    <i name="e_wo_entrp">    -53.54194608 </i>
    <i name="e_0_energy">    -53.53824920 </i>
   </energy>
  </scstep>
  <scstep>
   <time name="dav">    1.56    1.57</time>
   <time name="total">    1.56    1.57</time>
   <energy>
    <i name="e_fr_energy">    -69.28226049 </i>
    <i name="e_wo_entrp">    -69.28249768 </i>
    <i name="e_0_energy">    -69.28233955 </i>
   </energy>
  </scstep>
  <scstep>
   <time name="dav">    1.58    1.59</time>
   <time name="total">    1.64    1.66</time>
   <energy>
    <i name="e_fr_energy">    -69.63221597 </i>
    <i name="e_wo_entrp">    -69.63203750 </i>
    <i name="e_0_energy">    -69.63215648 </i>
   </energy>
  </scstep>
  <scstep>
   <time name="dav">    1.52    1.53</time>
   <time name="total">    1.61    1.62</time>
   <energy>
    <i name="e_fr_energy">    -57.79110943 </i>
    <i name="e_wo_entrp">    -57.77740333 </i>
    <i name="e_0_energy">    -57.78654073 </i>
   </energy>
  </scstep>
  <scstep>
   <time name="dav">    1.56    1.57</time>
   <time name="total">    1.65    1.66</time>
   <energy>
    <i name="e_fr_energy">    -51.83409126 </i>
    <i name="e_wo_entrp">    -51.81726144 </i>
    <i name="e_0_energy">    -51.82848132 </i>
   </energy>
  </scstep>
  <scstep>
   <time name="dav">    1.59    1.61</time>
   <time name="total">    1.68    1.70</time>
   <energy>
    <i name="e_fr_energy">    -51.62729807 </i>
    <i name="e_wo_entrp">    -51.63342631 </i>
    <i name="e_0_energy">    -51.62934081 </i>
   </energy>
  </scstep>
  <scstep>
   <time name="dav">    1.78    1.80</time>
   <time name="total">    1.88    1.89</time>
   <energy>
    <i name="e_fr_energy">    -51.11173103 </i>
    <i name="e_wo_entrp">    -51.09835781 </i>
    <i name="e_0_energy">    -51.10727329 </i>
   </energy>
  </scstep>
  <scstep>
   <time name="dav">    2.09    2.11</time>
   <time name="total">    2.18    2.20</time>
   <energy>
    <i name="e_fr_energy">    -51.30713102 </i>
    <i name="e_wo_entrp">    -51.29905974 </i>
    <i name="e_0_energy">    -51.30444059 </i>
   </energy>
  </scstep>
  <scstep>
   <time name="dav">    2.01    2.04</time>
   <time name="total">    2.10    2.13</time>
   <energy>
    <i name="e_fr_energy">    -52.86840883 </i>
    <i name="e_wo_entrp">    -52.88477424 </i>
    <i name="e_0_energy">    -52.87386397 </i>
   </energy>
  </scstep>
  <scstep>
   <time name="dav">    1.92    1.94</time>
   <time name="total">    2.01    2.03</time>
   <energy>
    <i name="e_fr_energy">    -51.92718482 </i>
    <i name="e_wo_entrp">    -51.90277972 </i>
    <i name="e_0_energy">    -51.91904978 </i>
   </energy>
  </scstep>
  <scstep>
   <time name="dav">    1.81    1.83</time>
   <time name="total">    1.91    1.92</time>
   <energy>
    <i name="e_fr_energy">    -54.06161647 </i>
    <i name="e_wo_entrp">    -54.04111375 </i>
    <i name="e_0_energy">    -54.05478223 </i>
   </energy>
  </scstep>
  <scstep>
   <time name="dav">    1.70    1.72</time>
   <time name="total">    1.79    1.81</time>
   <energy>
    <i name="e_fr_energy">    -55.40584104 </i>
    <i name="e_wo_entrp">    -55.40461559 </i>
    <i name="e_0_energy">    -55.40543255 </i>
   </energy>
  </scstep>
  <scstep>
   <time name="dav">    1.77    1.78</time>
   <time name="total">    1.86    1.87</time>
   <energy>
    <i name="e_fr_energy">    -58.53848821 </i>
    <i name="e_wo_entrp">    -58.55186353 </i>
    <i name="e_0_energy">    -58.54294665 </i>
   </energy>
  </scstep>
  <scstep>
   <time name="dav">    1.63    1.64</time>
   <time name="total">    1.72    1.74</time>
   <energy>
    <i name="e_fr_energy">    -59.80173392 </i>
    <i name="e_wo_entrp">    -59.79934122 </i>
    <i name="e_0_energy">    -59.80093635 </i>
   </energy>
  </scstep>
  <scstep>
   <time name="dav">    1.79    1.80</time>
   <time name="total">    1.88    1.89</time>
   <energy>
    <i name="e_fr_energy">    -60.37457450 </i>
    <i name="e_wo_entrp">    -60.35561698 </i>
    <i name="e_0_energy">    -60.36825533 </i>
   </energy>
  </scstep>
  <scstep>
   <time name="dav">    1.67    1.68</time>
   <time name="total">    1.77    1.78</time>
   <energy>
    <i name="e_fr_energy">    -60.68826338 </i>
    <i name="e_wo_entrp">    -60.66459752 </i>
    <i name="e_0_energy">    -60.68037476 </i>
   </energy>
  </scstep>
  <scstep>
   <time name="dav">    1.52    1.53</time>
   <time name="total">    1.61    1.63</time>
   <energy>
    <i name="e_fr_energy">    -60.90397482 </i>
    <i name="e_wo_entrp">    -60.87412188 </i>
    <i name="e_0_energy">    -60.89402384 </i>
   </energy>
  </scstep>
  <scstep>
   <time name="dav">    1.80    1.82</time>
   <time name="total">    1.89    1.91</time>
   <energy>
    <i name="e_fr_energy">    -61.32204014 </i>
    <i name="e_wo_entrp">    -61.29036367 </i>
    <i name="e_0_energy">    -61.31148131 </i>
   </energy>
  </scstep>
  <scstep>
   <time name="dav">    1.88    1.90</time>
   <time name="total">    1.97    1.99</time>
   <energy>
    <i name="e_fr_energy">    -61.48301388 </i>
    <i name="e_wo_entrp">    -61.44542916 </i>
    <i name="e_0_energy">    -61.47048564 </i>
   </energy>
  </scstep>
  <scstep>
   <time name="dav">    1.63    1.65</time>
   <time name="total">    1.72    1.74</time>
   <energy>
    <i name="e_fr_energy">    -61.75514445 </i>
    <i name="e_wo_entrp">    -61.71779567 </i>
    <i name="e_0_energy">    -61.74269486 </i>
   </energy>
  </scstep>
  <scstep>
   <time name="dav">    1.75    1.77</time>
   <time name="total">    1.85    1.86</time>
   <energy>
    <i name="e_fr_energy">    -61.97709930 </i>
    <i name="e_wo_entrp">    -61.93898491 </i>
    <i name="e_0_energy">    -61.96439451 </i>
   </energy>
  </scstep>
  <scstep>
   <time name="dav">    1.67    1.68</time>
   <time name="total">    1.77    1.79</time>
   <energy>
    <i name="e_fr_energy">    -62.25918114 </i>
    <i name="e_wo_entrp">    -62.22031051 </i>
    <i name="e_0_energy">    -62.24622426 </i>
   </energy>
  </scstep>
  <scstep>
   <time name="dav">    1.58    1.59</time>
   <time name="total">    1.68    1.69</time>
   <energy>
    <i name="e_fr_energy">    -62.42745842 </i>
    <i name="e_wo_entrp">    -62.38810057 </i>
    <i name="e_0_energy">    -62.41433914 </i>
   </energy>
  </scstep>
  <scstep>
   <time name="dav">    1.64    1.66</time>
   <time name="total">    1.74    1.75</time>
   <energy>
    <i name="e_fr_energy">    -62.53076747 </i>
    <i name="e_wo_entrp">    -62.49210454 </i>
    <i name="e_0_energy">    -62.51787983 </i>
   </energy>
  </scstep>
  <scstep>
   <time name="dav">    1.56    1.58</time>
   <time name="total">    1.66    1.67</time>
   <energy>
    <i name="e_fr_energy">    -62.61048015 </i>
    <i name="e_wo_entrp">    -62.57135044 </i>
    <i name="e_0_energy">    -62.59743691 </i>
   </energy>
  </scstep>
  <scstep>
   <time name="dav">    1.37    1.38</time>
   <time name="total">    1.46    1.48</time>
   <energy>
    <i name="e_fr_energy">    -62.63447021 </i>
    <i name="e_wo_entrp">    -62.59503298 </i>
    <i name="e_0_energy">    -62.62132446 </i>
   </energy>
  </scstep>
  <scstep>
   <time name="dav">    1.20    1.21</time>
   <time name="total">    1.30    1.31</time>
   <energy>
    <i name="e_fr_energy">    -62.64136376 </i>
    <i name="e_wo_entrp">    -62.60228657 </i>
    <i name="e_0_energy">    -62.62833803 </i>
   </energy>
  </scstep>
  <scstep>
   <time name="dav">    1.10    1.11</time>
   <time name="total">    1.20    1.21</time>
   <energy>
    <i name="e_fr_energy">    -62.64280107 </i>
    <i name="e_wo_entrp">    -62.60377236 </i>
    <i name="e_0_energy">    -62.62979150 </i>
   </energy>
  </scstep>
  <scstep>
   <time name="dav">    1.08    1.09</time>
   <time name="total">    1.12    1.13</time>
   <energy>
    <i name="alphaZ">    521.04204123 </i>
    <i name="ewald"> 102940.78606225 </i>
    <i name="hartreedc">-124634.41625317 </i>
    <i name="XCdc">    719.66228298 </i>
    <i name="pawpsdc">  21084.14308043 </i>
    <i name="pawaedc"> -22810.53115665 </i>
    <i name="eentropy">     -0.03926023 </i>
    <i name="bandstr">   -163.56913948 </i>
    <i name="atom">  22280.27950853 </i>
    <i name="e_fr_energy">    -62.64283411 </i>
    <i name="e_wo_entrp">    -62.60357388 </i>
    <i name="e_0_energy">    -62.62974737 </i>
   </energy>
  </scstep>
  <structure>
   <crystal>
    <varray name="basis" >
     <v>       3.63000011       0.00000000       0.00000000 </v>
     <v>       0.00000000       3.63000011       0.00000000 </v>
     <v>       0.00000000       0.00000000      27.70499992 </v>
    </varray>
    <i name="volume">    365.06603650 </i>
    <varray name="rec_basis" >
     <v>       0.27548208       0.00000000       0.00000000 </v>
     <v>       0.00000000       0.27548208       0.00000000 </v>
     <v>       0.00000000       0.00000000       0.03609457 </v>
    </varray>
   </crystal>
   <varray name="positions" >
    <v>       0.00000000       0.00000000       0.00000000 </v>
    <v>       0.50000000       0.50000000       0.00000000 </v>
    <v>       0.00000000       0.50000000       0.06551164 </v>
    <v>       0.50000000       0.00000000       0.06551164 </v>
    <v>       0.00000000       0.00000000       0.12876120 </v>
    <v>       0.50000000       0.50000000       0.12876120 </v>
    <v>       0.00000000       0.50000000       0.19193187 </v>
    <v>       0.50000000       0.00000000       0.19193187 </v>
    <v>       0.00000000       0.00000000       0.25406550 </v>
    <v>       0.50000000       0.50000000       0.25406550 </v>
    <v>       0.00000000       0.50000000       0.31747855 </v>
    <v>       0.50000000       0.00000000       0.31747855 </v>
    <v>       0.00000000       0.00000000       0.38132233 </v>
    <v>       0.50000000       0.50000000       0.38132233 </v>
    <v>       0.00000000       0.50000000       0.44440075 </v>
    <v>       0.50000000       0.00000000       0.44440075 </v>
    <v>       0.75000000       0.25000000       0.50150658 </v>
    <v>       0.75000000       0.45550964       0.50150658 </v>
   </varray>
  </structure>
  <varray name="forces" >
   <v>       0.00080148      -0.00406659       0.25992480 </v>
   <v>      -0.00020483       0.00400969       0.27175462 </v>
   <v>      -0.00264156      -0.00265922      -0.20423707 </v>
   <v>       0.00033544       0.00336200      -0.21895593 </v>
   <v>       0.00664287       0.00646308       0.01795387 </v>
   <v>      -0.00435718      -0.00761098       0.00879453 </v>
   <v>      -0.01613782      -0.01634313      -0.03234222 </v>
   <v>       0.02040849       0.01573902      -0.04985063 </v>
   <v>       0.02060527      -0.02530195       0.08080399 </v>
   <v>      -0.02810279       0.02875161       0.01213895 </v>
   <v>      -0.03239606      -0.00455077       0.05730921 </v>
   <v>       0.02642619       0.00509273      -0.02491282 </v>
   <v>       0.08401676      -0.05110259       0.02003192 </v>
   <v>      -0.08704569       0.03402682      -0.08507546 </v>
   <v>       0.08078825       0.08218828      -0.23937128 </v>
   <v>      -0.20062311      -0.20966539      -0.47420276 </v>
   <v>       0.19766160      -1.50649427       0.19156080 </v>
   <v>      -0.06617734       1.64816167       0.40867547 </v>
  </varray>
  <varray name="stress" >
   <v>     -16.23500978      -1.57172272       1.06426956 </v>
   <v>      -1.57172269     -10.53452910       1.07407787 </v>
   <v>       1.06426955       1.07407775      -8.02759260 </v>
  </varray>
  <energy>
   <i name="e_fr_energy">    -69.59319072 </i>
   <i name="e_wo_entrp">    -69.55393049 </i>
   <i name="e_0_energy">    -69.58010398 </i>
  </energy>
  <time name="totalsc">   54.76   55.24</time>
 </calculation>
 <calculation>
  <scstep>
   <time name="dav">    1.45    1.47</time>
   <time name="total">    1.55    1.56</time>
   <energy>
    <i name="alphaZ">    521.04204123 </i>
    <i name="ewald"> 103178.43619240 </i>
    <i name="hartreedc">-124873.57652710 </i>
    <i name="XCdc">    719.59568433 </i>
    <i name="pawpsdc">  21084.68064211 </i>
    <i name="pawaedc"> -22811.13362232 </i>
    <i name="eentropy">     -0.03779194 </i>
    <i name="bandstr">   -161.91369228 </i>
    <i name="atom">  22280.27950853 </i>
    <i name="e_fr_energy">    -62.62756503 </i>
    <i name="e_wo_entrp">    -62.58977309 </i>
    <i name="e_0_energy">    -62.61496772 </i>
   </energy>
  </scstep>
  <scstep>
   <time name="dav">    1.98    2.00</time>
   <time name="total">    2.08    2.10</time>
   <energy>
    <i name="e_fr_energy">    -62.65301934 </i>
    <i name="e_wo_entrp">    -62.62132475 </i>
    <i name="e_0_energy">    -62.64245447 </i>
   </energy>
  </scstep>
  <scstep>
   <time name="dav">    1.63    1.65</time>
   <time name="total">    1.73    1.74</time>
   <energy>
    <i name="e_fr_energy">    -62.71558904 </i>
    <i name="e_wo_entrp">    -62.68945689 </i>
    <i name="e_0_energy">    -62.70687832 </i>
   </energy>
  </scstep>
  <scstep>
   <time name="dav">    1.78    1.79</time>
   <time name="total">    1.87    1.89</time>
   <energy>
    <i name="e_fr_energy">    -62.64363654 </i>
    <i name="e_wo_entrp">    -62.60302304 </i>
    <i name="e_0_energy">    -62.63009870 </i>
   </energy>
  </scstep>
  <scstep>
   <time name="dav">    1.91    1.93</time>
   <time name="total">    2.01    2.02</time>
   <energy>
    <i name="e_fr_energy">    -62.64361952 </i>
    <i name="e_wo_entrp">    -62.61435100 </i>
    <i name="e_0_energy">    -62.63386335 </i>
   </energy>
  </scstep>
  <scstep>
   <time name="dav">    1.82    1.83</time>
   <time name="total">    1.91    1.93</time>
   <energy>
    <i name="e_fr_energy">    -62.63640996 </i>
    <i name="e_wo_entrp">    -62.59556654 </i>
    <i name="e_0_energy">    -62.62279548 </i>
   </energy>
  </scstep>
  <scstep>
   <time name="dav">    1.97    1.99</time>
   <time name="total">    2.07    2.09</time>
   <energy>
    <i name="e_fr_energy">    -62.63519648 </i>
    <i name="e_wo_entrp">    -62.59824428 </i>
    <i name="e_0_energy">    -62.62287908 </i>
   </energy>
  </scstep>
  <scstep>
   <time name="dav">    1.56    1.57</time>
   <time name="total">    1.65    1.67</time>
   <energy>
    <i name="e_fr_energy">    -62.63535875 </i>
    <i name="e_wo_entrp">    -62.59801049 </i>
    <i name="e_0_energy">    -62.62290933 </i>
   </energy>
  </scstep>
  <scstep>
   <time name="dav">    1.45    1.46</time>
   <time name="total">    1.48    1.49</time>
   <energy>
    <i name="alphaZ">    521.04204123 </i>
    <i name="ewald"> 103178.43619240 </i>
    <i name="hartreedc">-124864.43691444 </i>
    <i name="XCdc">    719.40238809 </i>
    <i name="pawpsdc">  21083.21479628 </i>
    <i name="pawaedc"> -22809.78045920 </i>
    <i name="eentropy">     -0.03721136 </i>
    <i name="bandstr">   -170.75582621 </i>
    <i name="atom">  22280.27950853 </i>
    <i name="e_fr_energy">    -62.63548467 </i>
    <i name="e_wo_entrp">    -62.59827331 </i>
    <i name="e_0_energy">    -62.62308089 </i>
   </energy>
  </scstep>
  <structure>
   <crystal>
    <varray name="basis" >
     <v>       3.63000011       0.00000000       0.00000000 </v>
     <v>       0.00000000       3.63000011       0.00000000 </v>
     <v>       0.00000000       0.00000000      27.70499992 </v>
    </varray>
    <i name="volume">    365.06603650 </i>
    <varray name="rec_basis" >
     <v>       0.27548208       0.00000000       0.00000000 </v>
     <v>       0.00000000       0.27548208       0.00000000 </v>
     <v>       0.00000000       0.00000000       0.03609457 </v>
    </varray>
   </crystal>
   <varray name="positions" >
    <v>       0.00001065      -0.00005404       0.00045261 </v>
    <v>       0.49999728       0.50005329       0.00047321 </v>
    <v>      -0.00003511       0.49996466       0.06515600 </v>
    <v>       0.50000446       0.00004468       0.06513037 </v>
    <v>       0.00008828       0.00008589       0.12879246 </v>
    <v>       0.49994209       0.49989885       0.12877651 </v>
    <v>      -0.00021447       0.49978280       0.19187555 </v>
    <v>       0.50027123       0.00020917       0.19184506 </v>
    <v>       0.00027384      -0.00033626       0.25420621 </v>
    <v>       0.49962651       0.50038211       0.25408664 </v>
    <v>      -0.00043054       0.49993952       0.31757835 </v>
    <v>       0.50035120       0.00006768       0.31743517 </v>
    <v>       0.00111658      -0.00067915       0.38135721 </v>
    <v>       0.49884316       0.50045222       0.38117418 </v>
    <v>       0.00107367       0.50109228       0.44398393 </v>
    <v>       0.49733372      -0.00278645       0.44357502 </v>
    <v>       0.75262692       0.22997871       0.50184014 </v>
    <v>       0.74912050       0.47741368       0.50221821 </v>
   </varray>
  </structure>
  <varray name="forces" >
   <v>      -0.00206747      -0.00393981       0.16950384 </v>
   <v>       0.00182167       0.00349037       0.18429416 </v>
   <v>      -0.00198541      -0.00228099      -0.08000586 </v>
   <v>      -0.00091350       0.00194866      -0.09165450 </v>
   <v>       0.01296277       0.00111713      -0.02752229 </v>
   <v>      -0.01035593      -0.00324646      -0.03935548 </v>
   <v>      -0.01093842      -0.01040480      -0.01639855 </v>
   <v>       0.01289319       0.01017375      -0.02757576 </v>
   <v>       0.01124009      -0.01726851       0.04989503 </v>
   <v>      -0.02067951       0.02023272      -0.00007691 </v>
   <v>      -0.04062623      -0.01114086       0.03814029 </v>
   <v>       0.03510957       0.00712091      -0.01824887 </v>
   <v>       0.03959682      -0.01003268      -0.05834354 </v>
   <v>      -0.04653850      -0.02091601      -0.13172104 </v>
   <v>      -0.09392826      -0.01777588       0.01868582 </v>
   <v>      -0.03992793      -0.10176003      -0.20162211 </v>
   <v>       0.17271511       0.99798726       0.02690742 </v>
   <v>      -0.01837806      -0.84330476       0.20509833 </v>
  </varray>
  <varray name="stress" >
   <v>     -17.00371364      -1.86720537       1.31044864 </v>
   <v>      -1.86720541     -19.86116288       1.30677610 </v>
   <v>       1.31044866       1.30677610     -11.07077624 </v>
  </varray>
  <energy>
   <i name="e_fr_energy">    -69.62050528 </i>
   <i name="e_wo_entrp">    -69.58329392 </i>
   <i name="e_0_energy">    -69.60810149 </i>
  </energy>
  <time name="totalsc">   18.61   18.82</time>
 </calculation>
 <calculation>
  <scstep>
   <time name="dav">    1.45    1.46</time>
   <time name="total">    1.55    1.56</time>
   <energy>
    <i name="alphaZ">    521.04204123 </i>
    <i name="ewald"> 103059.35531932 </i>
    <i name="hartreedc">-124744.36758811 </i>
    <i name="XCdc">    719.43397588 </i>
    <i name="pawpsdc">  21083.50122216 </i>
    <i name="pawaedc"> -22810.09741901 </i>
    <i name="eentropy">     -0.03773423 </i>
    <i name="bandstr">   -171.80312594 </i>
    <i name="atom">  22280.27950853 </i>
    <i name="e_fr_energy">    -62.69380018 </i>
    <i name="e_wo_entrp">    -62.65606595 </i>
    <i name="e_0_energy">    -62.68122210 </i>
   </energy>
  </scstep>
  <scstep>
   <time name="dav">    2.22    2.24</time>
   <time name="total">    2.32    2.34</time>
   <energy>
    <i name="e_fr_energy">    -62.70955268 </i>
    <i name="e_wo_entrp">    -62.66969331 </i>
    <i name="e_0_energy">    -62.69626623 </i>
   </energy>
  </scstep>
  <scstep>
   <time name="dav">    2.09    2.11</time>
   <time name="total">    2.19    2.21</time>
   <energy>
    <i name="e_fr_energy">    -62.70298127 </i>
    <i name="e_wo_entrp">    -62.66413992 </i>
    <i name="e_0_energy">    -62.69003415 </i>
   </energy>
  </scstep>
  <scstep>
   <time name="dav">    1.69    1.70</time>
   <time name="total">    1.79    1.80</time>
   <energy>
    <i name="e_fr_energy">    -62.70459135 </i>
    <i name="e_wo_entrp">    -62.67337874 </i>
    <i name="e_0_energy">    -62.69418715 </i>
   </energy>
  </scstep>
  <scstep>
   <time name="dav">    1.69    1.70</time>
   <time name="total">    1.79    1.80</time>
   <energy>
    <i name="e_fr_energy">    -62.69922103 </i>
    <i name="e_wo_entrp">    -62.65924439 </i>
    <i name="e_0_energy">    -62.68589549 </i>
   </energy>
  </scstep>
  <scstep>
   <time name="dav">    1.69    1.70</time>
   <time name="total">    1.79    1.80</time>
   <energy>
    <i name="e_fr_energy">    -62.69887011 </i>
    <i name="e_wo_entrp">    -62.66123825 </i>
    <i name="e_0_energy">    -62.68632616 </i>
   </energy>
  </scstep>
  <scstep>
   <time name="dav">    1.59    1.60</time>
   <time name="total">    1.69    1.70</time>
   <energy>
    <i name="e_fr_energy">    -62.69877606 </i>
    <i name="e_wo_entrp">    -62.66021190 </i>
    <i name="e_0_energy">    -62.68592134 </i>
   </energy>
  </scstep>
  <scstep>
   <time name="dav">    1.29    1.30</time>
   <time name="total">    1.33    1.34</time>
   <energy>
    <i name="alphaZ">    521.04204123 </i>
    <i name="ewald"> 103059.35531932 </i>
    <i name="hartreedc">-124747.77550893 </i>
    <i name="XCdc">    719.52360265 </i>
    <i name="pawpsdc">  21084.17985331 </i>
    <i name="pawaedc"> -22810.74948517 </i>
    <i name="eentropy">     -0.03850659 </i>
    <i name="bandstr">   -168.51562886 </i>
    <i name="atom">  22280.27950853 </i>
    <i name="e_fr_energy">    -62.69880451 </i>
    <i name="e_wo_entrp">    -62.66029793 </i>
    <i name="e_0_energy">    -62.68596898 </i>
   </energy>
  </scstep>
  <structure>
   <crystal>
    <varray name="basis" >
     <v>       3.63000011       0.00000000       0.00000000 </v>
     <v>       0.00000000       3.63000011       0.00000000 </v>
     <v>       0.00000000       0.00000000      27.70499992 </v>
    </varray>
    <i name="volume">    365.06603650 </i>
    <varray name="rec_basis" >
     <v>       0.27548208       0.00000000       0.00000000 </v>
     <v>       0.00000000       0.27548208       0.00000000 </v>
     <v>       0.00000000       0.00000000       0.03609457 </v>
    </varray>
   </crystal>
   <varray name="positions" >
    <v>       0.00000533      -0.00002703       0.00022635 </v>
    <v>       0.49999864       0.50002665       0.00023666 </v>
    <v>      -0.00001756       0.49998233       0.06533378 </v>
    <v>       0.50000223       0.00002235       0.06532096 </v>
    <v>       0.00004415       0.00004296       0.12877683 </v>
    <v>       0.49997104       0.49994941       0.12876886 </v>
    <v>      -0.00010726       0.49989138       0.19190370 </v>
    <v>       0.50013565       0.00010461       0.19188846 </v>
    <v>       0.00013695      -0.00016817       0.25413587 </v>
    <v>       0.49981321       0.50019110       0.25407607 </v>
    <v>      -0.00021532       0.49996975       0.31752846 </v>
    <v>       0.50017564       0.00003385       0.31745686 </v>
    <v>       0.00055842      -0.00033965       0.38133977 </v>
    <v>       0.49942145       0.50022616       0.38124824 </v>
    <v>       0.00053696       0.50054626       0.44419229 </v>
    <v>       0.49866656      -0.00139354       0.44398779 </v>
    <v>       0.75131376       0.23998708       0.50167340 </v>
    <v>       0.74956015       0.46646415       0.50186247 </v>
   </varray>
  </structure>
  <varray name="forces" >
   <v>      -0.00037879      -0.00399544       0.20636905 </v>
   <v>       0.00063072       0.00350275       0.21905011 </v>
   <v>      -0.00263891      -0.00255822      -0.14277967 </v>
   <v>       0.00007728       0.00256815      -0.15583980 </v>
   <v>       0.01002102       0.00379620      -0.00432866 </v>
   <v>      -0.00718827      -0.00557246      -0.01496083 </v>
   <v>      -0.01421530      -0.01396105      -0.02373314 </v>
   <v>       0.01777406       0.01331098      -0.03867405 </v>
   <v>       0.01687643      -0.02210073       0.07118119 </v>
   <v>      -0.02546420       0.02538059       0.01025332 </v>
   <v>      -0.03700731      -0.00817436       0.05537067 </v>
   <v>       0.03148207       0.00668062      -0.01669436 </v>
   <v>       0.06259713      -0.03204868      -0.01837922 </v>
   <v>      -0.06674815       0.00770888      -0.11046253 </v>
   <v>      -0.03182061       0.02107816      -0.06820537 </v>
   <v>      -0.11690444      -0.14798286      -0.33251827 </v>
   <v>       0.18998198       0.29938630       0.08596577 </v>
   <v>      -0.02707472      -0.14701882       0.27838578 </v>
  </varray>
  <varray name="stress" >
   <v>     -19.73741120      -1.82191901       1.30618349 </v>
   <v>      -1.82191917     -19.84315608       1.21691521 </v>
   <v>       1.30618353       1.21691515     -12.82126251 </v>
  </varray>
  <energy>
   <i name="e_fr_energy">    -69.65537805 </i>
   <i name="e_wo_entrp">    -69.61687146 </i>
   <i name="e_0_energy">    -69.64254252 </i>
  </energy>
  <time name="totalsc">   16.70   16.89</time>
 </calculation>
 <calculation>
  <scstep>
   <time name="dav">    1.46    1.48</time>
   <time name="total">    1.56    1.58</time>
   <energy>
    <i name="alphaZ">    521.04204123 </i>
    <i name="ewald"> 103232.98785503 </i>
    <i name="hartreedc">-124921.00822186 </i>
    <i name="XCdc">    719.56885050 </i>
    <i name="pawpsdc">  21084.12875351 </i>
    <i name="pawaedc"> -22810.67100493 </i>
    <i name="eentropy">     -0.03914983 </i>
    <i name="bandstr">   -168.99606474 </i>
    <i name="atom">  22280.27950853 </i>
    <i name="e_fr_energy">    -62.70743256 </i>
    <i name="e_wo_entrp">    -62.66828273 </i>
    <i name="e_0_energy">    -62.69438262 </i>
   </energy>
  </scstep>
  <scstep>
   <time name="dav">    1.88    1.89</time>
   <time name="total">    1.98    1.99</time>
   <energy>
    <i name="e_fr_energy">    -62.71607832 </i>
    <i name="e_wo_entrp">    -62.67674657 </i>
    <i name="e_0_energy">    -62.70296774 </i>
   </energy>
  </scstep>
  <scstep>
   <time name="dav">    1.63    1.65</time>
   <time name="total">    1.73    1.75</time>
   <energy>
    <i name="e_fr_energy">    -62.71761465 </i>
    <i name="e_wo_entrp">    -62.67986385 </i>
    <i name="e_0_energy">    -62.70503105 </i>
   </energy>
  </scstep>
  <scstep>
   <time name="dav">    1.50    1.51</time>
   <time name="total">    1.60    1.61</time>
   <energy>
    <i name="e_fr_energy">    -62.71578804 </i>
    <i name="e_wo_entrp">    -62.67737786 </i>
    <i name="e_0_energy">    -62.70298465 </i>
   </energy>
  </scstep>
  <scstep>
   <time name="dav">    1.22    1.23</time>
   <time name="total">    1.25    1.26</time>
   <energy>
    <i name="alphaZ">    521.04204123 </i>
    <i name="ewald"> 103232.98785503 </i>
    <i name="hartreedc">-124921.73652085 </i>
    <i name="XCdc">    719.55945823 </i>
    <i name="pawpsdc">  21088.61029995 </i>
    <i name="pawaedc"> -22815.13884937 </i>
    <i name="eentropy">     -0.04002348 </i>
    <i name="bandstr">   -168.27947419 </i>
    <i name="atom">  22280.27950853 </i>
    <i name="e_fr_energy">    -62.71570491 </i>
    <i name="e_wo_entrp">    -62.67568144 </i>
    <i name="e_0_energy">    -62.70236375 </i>
   </energy>
  </scstep>
  <structure>
   <crystal>
    <varray name="basis" >
     <v>       3.63000011       0.00000000       0.00000000 </v>
     <v>       0.00000000       3.63000011       0.00000000 </v>
     <v>       0.00000000       0.00000000      27.70499992 </v>
    </varray>
    <i name="volume">    365.06603650 </i>
    <varray name="rec_basis" >
     <v>       0.27548208       0.00000000       0.00000000 </v>
     <v>       0.00000000       0.27548208       0.00000000 </v>
     <v>       0.00000000       0.00000000       0.03609457 </v>
    </varray>
   </crystal>
   <varray name="positions" >
    <v>       0.00000184      -0.00008010       0.00059397 </v>
    <v>       0.50000592       0.50007375       0.00062615 </v>
    <v>      -0.00005255       0.49994828       0.06507530 </v>
    <v>       0.50000359       0.00005743       0.06503951 </v>
    <v>       0.00017264       0.00009675       0.12877310 </v>
    <v>       0.49987941       0.49987288       0.12874690 </v>
    <v>      -0.00029823       0.49970318       0.19186101 </v>
    <v>       0.50037473       0.00028425       0.19181937 </v>
    <v>       0.00036555      -0.00046535       0.25426116 </v>
    <v>       0.49947217       0.50053199       0.25409421 </v>
    <v>      -0.00070001       0.49986607       0.31762498 </v>
    <v>       0.50058650       0.00012037       0.31742646 </v>
    <v>       0.00141617      -0.00078930       0.38131437 </v>
    <v>       0.49851012       0.50036252       0.38106066 </v>
    <v>       0.00026117       0.50090502       0.44404471 </v>
    <v>       0.49700792      -0.00343565       0.44338605 </v>
    <v>       0.75384265       0.24161347       0.50184069 </v>
    <v>       0.74915044       0.46684408       0.50236824 </v>
   </varray>
  </structure>
  <varray name="forces" >
   <v>      -0.00143470      -0.00330430       0.11887966 </v>
   <v>      -0.00069771       0.00022675       0.12652070 </v>
   <v>      -0.00330302      -0.00158154      -0.03958327 </v>
   <v>      -0.00077539      -0.00131713      -0.04713216 </v>
   <v>       0.00512961      -0.00300977      -0.03742200 </v>
   <v>      -0.00564301      -0.00080447      -0.04062160 </v>
   <v>      -0.00851716      -0.00843784      -0.00568744 </v>
   <v>       0.00816337       0.00555601      -0.01440212 </v>
   <v>       0.00773076      -0.00944994       0.02059472 </v>
   <v>      -0.01570056       0.00748870      -0.00878627 </v>
   <v>      -0.02533852      -0.01152831       0.01295563 </v>
   <v>       0.01640777       0.00485213      -0.01850361 </v>
   <v>       0.00010545      -0.00759629      -0.04890840 </v>
   <v>      -0.02188902      -0.02576480      -0.09482997 </v>
   <v>      -0.05926893      -0.02128529      -0.03911869 </v>
   <v>      -0.06250190      -0.07536010      -0.23649264 </v>
   <v>       0.17831583       0.29572929       0.08875443 </v>
   <v>      -0.01078284      -0.14441310       0.26378303 </v>
  </varray>
  <varray name="stress" >
   <v>     -14.59134495      -1.72387116       1.53380286 </v>
   <v>      -1.72387109     -14.63182956       1.34861092 </v>
   <v>       1.53380283       1.34861079      -7.60387652 </v>
  </varray>
  <energy>
   <i name="e_fr_energy">    -69.67708635 </i>
   <i name="e_wo_entrp">    -69.63706287 </i>
   <i name="e_0_energy">    -69.66374519 </i>
  </energy>
  <time name="totalsc">   10.40   10.57</time>
 </calculation>
 <calculation>
  <scstep>
   <time name="dav">    1.47    1.48</time>
   <time name="total">    1.57    1.58</time>
   <energy>
    <i name="alphaZ">    521.04204123 </i>
    <i name="ewald"> 103358.92897378 </i>
    <i name="hartreedc">-125046.70751490 </i>
    <i name="XCdc">    719.59904537 </i>
    <i name="pawpsdc">  21089.10065625 </i>
    <i name="pawaedc"> -22815.67657603 </i>
    <i name="eentropy">     -0.03845260 </i>
    <i name="bandstr">   -169.24780264 </i>
    <i name="atom">  22280.27950853 </i>
    <i name="e_fr_energy">    -62.72012101 </i>
    <i name="e_wo_entrp">    -62.68166841 </i>
    <i name="e_0_energy">    -62.70730348 </i>
   </energy>
  </scstep>
  <scstep>
   <time name="dav">    2.18    2.20</time>
   <time name="total">    2.28    2.30</time>
   <energy>
    <i name="e_fr_energy">    -62.72747230 </i>
    <i name="e_wo_entrp">    -62.68424286 </i>
    <i name="e_0_energy">    -62.71306249 </i>
   </energy>
  </scstep>
  <scstep>
   <time name="dav">    1.94    1.95</time>
   <time name="total">    2.03    2.05</time>
   <energy>
    <i name="e_fr_energy">    -62.72553548 </i>
    <i name="e_wo_entrp">    -62.68518282 </i>
    <i name="e_0_energy">    -62.71208460 </i>
   </energy>
  </scstep>
  <scstep>
   <time name="dav">    1.46    1.48</time>
   <time name="total">    1.56    1.57</time>
   <energy>
    <i name="e_fr_energy">    -62.72444526 </i>
    <i name="e_wo_entrp">    -62.68629703 </i>
    <i name="e_0_energy">    -62.71172918 </i>
   </energy>
  </scstep>
  <scstep>
   <time name="dav">    1.44    1.45</time>
   <time name="total">    1.54    1.55</time>
   <energy>
    <i name="e_fr_energy">    -62.72421438 </i>
    <i name="e_wo_entrp">    -62.68494053 </i>
    <i name="e_0_energy">    -62.71112310 </i>
   </energy>
  </scstep>
  <scstep>
   <time name="dav">    1.35    1.36</time>
   <time name="total">    1.39    1.40</time>
   <energy>
    <i name="alphaZ">    521.04204123 </i>
    <i name="ewald"> 103358.92897378 </i>
    <i name="hartreedc">-125047.59658649 </i>
    <i name="XCdc">    719.59556396 </i>
    <i name="pawpsdc">  21096.37104543 </i>
    <i name="pawaedc"> -22823.14225251 </i>
    <i name="eentropy">     -0.04005693 </i>
    <i name="bandstr">   -168.16249441 </i>
    <i name="atom">  22280.27950853 </i>
    <i name="e_fr_energy">    -62.72425741 </i>
    <i name="e_wo_entrp">    -62.68420048 </i>
    <i name="e_0_energy">    -62.71090510 </i>
   </energy>
  </scstep>
  <structure>
   <crystal>
    <varray name="basis" >
     <v>       3.63000011       0.00000000       0.00000000 </v>
     <v>       0.00000000       3.63000011       0.00000000 </v>
     <v>       0.00000000       0.00000000      27.70499992 </v>
    </varray>
    <i name="volume">    365.06603650 </i>
    <varray name="rec_basis" >
     <v>       0.27548208       0.00000000       0.00000000 </v>
     <v>       0.00000000       0.27548208       0.00000000 </v>
     <v>       0.00000000       0.00000000       0.03609457 </v>
    </varray>
   </crystal>
   <varray name="positions" >
    <v>      -0.00000069      -0.00011850       0.00086001 </v>
    <v>       0.50001118       0.50010784       0.00090803 </v>
    <v>      -0.00007787       0.49992363       0.06488823 </v>
    <v>       0.50000457       0.00008281       0.06483582 </v>
    <v>       0.00026562       0.00013568       0.12877040 </v>
    <v>       0.49981309       0.49981750       0.12873102 </v>
    <v>      -0.00043644       0.49956698       0.19183011 </v>
    <v>       0.50054775       0.00041425       0.19176937 </v>
    <v>       0.00053099      -0.00068042       0.25435184 </v>
    <v>       0.49922535       0.50077869       0.25410733 </v>
    <v>      -0.00105078       0.49979104       0.31769483 </v>
    <v>       0.50088383       0.00018298       0.31740446 </v>
    <v>       0.00203693      -0.00111472       0.38129599 </v>
    <v>       0.49785058       0.50046120       0.38092490 </v>
    <v>       0.00006157       0.50116466       0.44393790 </v>
    <v>       0.49580756      -0.00491353       0.44295057 </v>
    <v>       0.75567283       0.24279051       0.50196176 </v>
    <v>       0.74885393       0.46711903       0.50273426 </v>
   </varray>
  </structure>
  <varray name="forces" >
   <v>      -0.00054316      -0.00148169       0.11107113 </v>
   <v>      -0.00004924       0.00044875       0.11760627 </v>
   <v>      -0.00213528       0.00085084      -0.00223004 </v>
   <v>      -0.00007817      -0.00184874      -0.00733273 </v>
   <v>       0.00582671      -0.00474762      -0.06275274 </v>
   <v>      -0.00429375       0.00321707      -0.06254209 </v>
   <v>      -0.00617319      -0.00549963       0.00581691 </v>
   <v>       0.00712980       0.00504324      -0.00284110 </v>
   <v>       0.00706953      -0.00432132       0.01554724 </v>
   <v>      -0.01346290       0.00358255      -0.00582044 </v>
   <v>      -0.02394252      -0.01395789       0.00716067 </v>
   <v>       0.01566603       0.00784064      -0.00958831 </v>
   <v>      -0.02728469       0.00158375      -0.07206775 </v>
   <v>      -0.00656060      -0.04334658      -0.10413146 </v>
   <v>      -0.07925258      -0.04146560      -0.04123072 </v>
   <v>      -0.04825871      -0.05442461      -0.23344602 </v>
   <v>       0.17517523       0.27853127       0.09199945 </v>
   <v>       0.00116748      -0.13000443       0.25478173 </v>
  </varray>
  <varray name="stress" >
   <v>     -18.96877332      -1.63953034       1.66944893 </v>
   <v>      -1.63953041     -18.91035185       1.40704315 </v>
   <v>       1.66944888       1.40704308     -11.35123712 </v>
  </varray>
  <energy>
   <i name="e_fr_energy">    -69.68915563 </i>
   <i name="e_wo_entrp">    -69.64909869 </i>
   <i name="e_0_energy">    -69.67580332 </i>
  </energy>
  <time name="totalsc">   12.63   12.78</time>
 </calculation>
 <calculation>
  <scstep>
   <time name="dav">    1.46    1.48</time>
   <time name="total">    1.56    1.58</time>
   <energy>
    <i name="alphaZ">    521.04204123 </i>
    <i name="ewald"> 103611.51432885 </i>
    <i name="hartreedc">-125299.68963857 </i>
    <i name="XCdc">    719.67035917 </i>
    <i name="pawpsdc">  21096.96847960 </i>
    <i name="pawaedc"> -22823.74818203 </i>
    <i name="eentropy">     -0.04100032 </i>
    <i name="bandstr">   -168.71065221 </i>
    <i name="atom">  22280.27950853 </i>
    <i name="e_fr_energy">    -62.71475575 </i>
    <i name="e_wo_entrp">    -62.67375542 </i>
    <i name="e_0_energy">    -62.70108897 </i>
   </energy>
  </scstep>
  <scstep>
   <time name="dav">    1.91    1.93</time>
   <time name="total">    2.01    2.02</time>
   <energy>
    <i name="e_fr_energy">    -62.73598892 </i>
    <i name="e_wo_entrp">    -62.69809135 </i>
    <i name="e_0_energy">    -62.72335639 </i>
   </energy>
  </scstep>
  <scstep>
   <time name="dav">    1.65    1.66</time>
   <time name="total">    1.75    1.76</time>
   <energy>
    <i name="e_fr_energy">    -62.73914556 </i>
    <i name="e_wo_entrp">    -62.70114255 </i>
    <i name="e_0_energy">    -62.72647789 </i>
   </energy>
  </scstep>
  <scstep>
   <time name="dav">    1.56    1.57</time>
   <time name="total">    1.66    1.67</time>
   <energy>
    <i name="e_fr_energy">    -62.73298295 </i>
    <i name="e_wo_entrp">    -62.69166227 </i>
    <i name="e_0_energy">    -62.71920939 </i>
   </energy>
  </scstep>
  <scstep>
   <time name="dav">    1.65    1.67</time>
   <time name="total">    1.75    1.77</time>
   <energy>
    <i name="e_fr_energy">    -62.73308329 </i>
    <i name="e_wo_entrp">    -62.69470468 </i>
    <i name="e_0_energy">    -62.72029042 </i>
   </energy>
  </scstep>
  <scstep>
   <time name="dav">    1.56    1.57</time>
   <time name="total">    1.66    1.67</time>
   <energy>
    <i name="e_fr_energy">    -62.73285440 </i>
    <i name="e_wo_entrp">    -62.69170296 </i>
    <i name="e_0_energy">    -62.71913725 </i>
   </energy>
  </scstep>
  <scstep>
   <time name="dav">    1.50    1.52</time>
   <time name="total">    1.60    1.61</time>
   <energy>
    <i name="e_fr_energy">    -62.73264990 </i>
    <i name="e_wo_entrp">    -62.69269699 </i>
    <i name="e_0_energy">    -62.71933226 </i>
   </energy>
  </scstep>
  <scstep>
   <time name="dav">    1.41    1.43</time>
   <time name="total">    1.45    1.46</time>
   <energy>
    <i name="alphaZ">    521.04204123 </i>
    <i name="ewald"> 103611.51432885 </i>
    <i name="hartreedc">-125299.52814291 </i>
    <i name="XCdc">    719.65314470 </i>
    <i name="pawpsdc">  21108.55916470 </i>
    <i name="pawaedc"> -22835.57297580 </i>
    <i name="eentropy">     -0.04025456 </i>
    <i name="bandstr">   -168.63945547 </i>
    <i name="atom">  22280.27950853 </i>
    <i name="e_fr_energy">    -62.73264073 </i>
    <i name="e_wo_entrp">    -62.69238617 </i>
    <i name="e_0_energy">    -62.71922254 </i>
   </energy>
  </scstep>
  <structure>
   <crystal>
    <varray name="basis" >
     <v>       3.63000011       0.00000000       0.00000000 </v>
     <v>       0.00000000       3.63000011       0.00000000 </v>
     <v>       0.00000000       0.00000000      27.70499992 </v>
    </varray>
    <i name="volume">    365.06603650 </i>
    <varray name="rec_basis" >
     <v>       0.27548208       0.00000000       0.00000000 </v>
     <v>       0.00000000       0.27548208       0.00000000 </v>
     <v>       0.00000000       0.00000000       0.03609457 </v>
    </varray>
   </crystal>
   <varray name="positions" >
    <v>      -0.00000574      -0.00019531       0.00139209 </v>
    <v>       0.50002172       0.50017601       0.00147179 </v>
    <v>      -0.00012852       0.49987435       0.06451409 </v>
    <v>       0.50000654       0.00013359       0.06442843 </v>
    <v>       0.00045159       0.00021354       0.12876500 </v>
    <v>       0.49968046       0.49970673       0.12869924 </v>
    <v>      -0.00071286       0.49929458       0.19176832 </v>
    <v>       0.50089380       0.00067426       0.19166938 </v>
    <v>       0.00086187      -0.00111057       0.25453319 </v>
    <v>       0.49873171       0.50127210       0.25413357 </v>
    <v>      -0.00175233       0.49964097       0.31783454 </v>
    <v>       0.50147851       0.00030820       0.31736046 </v>
    <v>       0.00327846      -0.00176554       0.38125923 </v>
    <v>       0.49653150       0.50065857       0.38065340 </v>
    <v>      -0.00033762       0.50168394       0.44372428 </v>
    <v>       0.49340683      -0.00786930       0.44207960 </v>
    <v>       0.75933318       0.24514457       0.50220390 </v>
    <v>       0.74826090       0.46766895       0.50346631 </v>
   </varray>
  </structure>
  <varray name="forces" >
   <v>      -0.00062010       0.00096929       0.01169555 </v>
   <v>      -0.00106534      -0.00195965       0.01329431 </v>
   <v>      -0.00182379       0.00346385       0.13630271 </v>
   <v>      -0.00034459      -0.00497696       0.14012267 </v>
   <v>       0.00165859      -0.01175414      -0.10882073 </v>
   <v>      -0.00146944       0.01110517      -0.10026786 </v>
   <v>       0.00121295       0.00292194       0.03192885 </v>
   <v>      -0.00265302      -0.00262285       0.02927276 </v>
   <v>      -0.00177054       0.01209974      -0.03810510 </v>
   <v>      -0.00201664      -0.01606997      -0.02247338 </v>
   <v>      -0.01188286      -0.01856891      -0.04389469 </v>
   <v>       0.00116665       0.00973517      -0.00808375 </v>
   <v>      -0.11205373       0.03218699      -0.12674404 </v>
   <v>       0.04691714      -0.08867092      -0.10141433 </v>
   <v>      -0.11330994      -0.09641370      -0.01594457 </v>
   <v>       0.01511915       0.02602178      -0.12628595 </v>
   <v>       0.16295647       0.25859692       0.09604915 </v>
   <v>       0.01997905      -0.11606375       0.23336840 </v>
  </varray>
  <varray name="stress" >
   <v>     -15.17104140      -1.48067332       1.97315543 </v>
   <v>      -1.48067322     -15.01169881       1.55592049 </v>
   <v>       1.97315551       1.55592054      -6.66454037 </v>
  </varray>
  <energy>
   <i name="e_fr_energy">    -69.70466192 </i>
   <i name="e_wo_entrp">    -69.66440736 </i>
   <i name="e_0_energy">    -69.69124373 </i>
  </energy>
  <time name="totalsc">   15.70   15.90</time>
 </calculation>
 <calculation>
  <scstep>
   <time name="dav">    1.49    1.50</time>
   <time name="total">    1.59    1.60</time>
   <energy>
    <i name="alphaZ">    521.04204123 </i>
    <i name="ewald"> 104119.44976807 </i>
    <i name="hartreedc">-125806.50419222 </i>
    <i name="XCdc">    719.83276010 </i>
    <i name="pawpsdc">  21108.78017749 </i>
    <i name="pawaedc"> -22835.80603837 </i>
    <i name="eentropy">     -0.04271844 </i>
    <i name="bandstr">   -169.66775711 </i>
    <i name="atom">  22280.27950853 </i>
    <i name="e_fr_energy">    -62.63645073 </i>
    <i name="e_wo_entrp">    -62.59373229 </i>
    <i name="e_0_energy">    -62.62221125 </i>
   </energy>
  </scstep>
  <scstep>
   <time name="dav">    1.91    1.93</time>
   <time name="total">    2.02    2.03</time>
   <energy>
    <i name="e_fr_energy">    -62.72278578 </i>
    <i name="e_wo_entrp">    -62.68062892 </i>
    <i name="e_0_energy">    -62.70873349 </i>
   </energy>
  </scstep>
  <scstep>
   <time name="dav">    1.63    1.65</time>
   <time name="total">    1.73    1.75</time>
   <energy>
    <i name="e_fr_energy">    -62.75073383 </i>
    <i name="e_wo_entrp">    -62.71964765 </i>
    <i name="e_0_energy">    -62.74037177 </i>
   </energy>
  </scstep>
  <scstep>
   <time name="dav">    1.63    1.64</time>
   <time name="total">    1.72    1.74</time>
   <energy>
    <i name="e_fr_energy">    -62.71441070 </i>
    <i name="e_wo_entrp">    -62.67426886 </i>
    <i name="e_0_energy">    -62.70103009 </i>
   </energy>
  </scstep>
  <scstep>
   <time name="dav">    1.95    1.97</time>
   <time name="total">    2.05    2.07</time>
   <energy>
    <i name="e_fr_energy">    -62.71446319 </i>
    <i name="e_wo_entrp">    -62.66884401 </i>
    <i name="e_0_energy">    -62.69925680 </i>
   </energy>
  </scstep>
  <scstep>
   <time name="dav">    1.54    1.55</time>
   <time name="total">    1.64    1.65</time>
   <energy>
    <i name="e_fr_energy">    -62.71376969 </i>
    <i name="e_wo_entrp">    -62.67395526 </i>
    <i name="e_0_energy">    -62.70049821 </i>
   </energy>
  </scstep>
  <scstep>
   <time name="dav">    1.81    1.82</time>
   <time name="total">    1.91    1.92</time>
   <energy>
    <i name="e_fr_energy">    -62.71254783 </i>
    <i name="e_wo_entrp">    -62.67041869 </i>
    <i name="e_0_energy">    -62.69850478 </i>
   </energy>
  </scstep>
  <scstep>
   <time name="dav">    1.53    1.54</time>
   <time name="total">    1.63    1.64</time>
   <energy>
    <i name="e_fr_energy">    -62.71252303 </i>
    <i name="e_wo_entrp">    -62.67073452 </i>
    <i name="e_0_energy">    -62.69859352 </i>
   </energy>
  </scstep>
  <scstep>
   <time name="dav">    1.39    1.41</time>
   <time name="total">    1.43    1.44</time>
   <energy>
    <i name="alphaZ">    521.04204123 </i>
    <i name="ewald"> 104119.44976807 </i>
    <i name="hartreedc">-125806.85627748 </i>
    <i name="XCdc">    719.79310578 </i>
    <i name="pawpsdc">  21136.60308671 </i>
    <i name="pawaedc"> -22864.16190263 </i>
    <i name="eentropy">     -0.04224114 </i>
    <i name="bandstr">   -168.81953141 </i>
    <i name="atom">  22280.27950853 </i>
    <i name="e_fr_energy">    -62.71244234 </i>
    <i name="e_wo_entrp">    -62.67020120 </i>
    <i name="e_0_energy">    -62.69836196 </i>
   </energy>
  </scstep>
  <structure>
   <crystal>
    <varray name="basis" >
     <v>       3.63000011       0.00000000       0.00000000 </v>
     <v>       0.00000000       3.63000011       0.00000000 </v>
     <v>       0.00000000       0.00000000      27.70499992 </v>
    </varray>
    <i name="volume">    365.06603650 </i>
    <varray name="rec_basis" >
     <v>       0.27548208       0.00000000       0.00000000 </v>
     <v>       0.00000000       0.27548208       0.00000000 </v>
     <v>       0.00000000       0.00000000       0.03609457 </v>
    </varray>
   </crystal>
   <varray name="positions" >
    <v>      -0.00001585      -0.00034893       0.00245626 </v>
    <v>       0.50004279       0.50031236       0.00259932 </v>
    <v>      -0.00022982       0.49977578       0.06376582 </v>
    <v>       0.50001048       0.00023514       0.06361367 </v>
    <v>       0.00082353       0.00036926       0.12875420 </v>
    <v>       0.49941519       0.49948519       0.12863570 </v>
    <v>      -0.00126569       0.49874978       0.19164473 </v>
    <v>       0.50158589       0.00119428       0.19146939 </v>
    <v>       0.00152362      -0.00197086       0.25489589 </v>
    <v>       0.49774444       0.50225891       0.25418607 </v>
    <v>      -0.00315542       0.49934083       0.31811395 </v>
    <v>       0.50266786       0.00055865       0.31727246 </v>
    <v>       0.00576150      -0.00306720       0.38118570 </v>
    <v>       0.49389334       0.50105330       0.38011038 </v>
    <v>      -0.00113599       0.50272248       0.44329705 </v>
    <v>       0.48860537      -0.01378084       0.44033767 </v>
    <v>       0.76665389       0.24985270       0.50268818 </v>
    <v>       0.74707486       0.46876877       0.50493041 </v>
   </varray>
  </structure>
  <varray name="forces" >
   <v>       0.00033501       0.00660607      -0.19074662 </v>
   <v>      -0.00251291      -0.00572824      -0.20236002 </v>
   <v>      -0.00007194       0.00884018       0.42896336 </v>
   <v>       0.00032614      -0.00908692       0.44652302 </v>
   <v>      -0.00398263      -0.02447777      -0.20302533 </v>
   <v>       0.00357056       0.02711214      -0.17964633 </v>
   <v>       0.01474667       0.01886412       0.07449949 </v>
   <v>      -0.01853272      -0.01537819       0.08211616 </v>
   <v>      -0.01472481       0.04082026      -0.12160673 </v>
   <v>       0.01720335      -0.04923119      -0.04367283 </v>
   <v>       0.00511778      -0.02873367      -0.12490483 </v>
   <v>      -0.02274586       0.01505368       0.00539214 </v>
   <v>      -0.29217601       0.09472789      -0.24953244 </v>
   <v>       0.14731671      -0.19125333      -0.10631407 </v>
   <v>      -0.18403572      -0.20185633       0.01730085 </v>
   <v>       0.15755281       0.18334357       0.08055742 </v>
   <v>       0.14389431       0.21189176       0.09973490 </v>
   <v>       0.04871925      -0.08151404       0.18672185 </v>
  </varray>
  <varray name="stress" >
   <v>     -13.92642694      -1.13575075       2.70733083 </v>
   <v>      -1.13575072     -13.66541374       1.91809097 </v>
   <v>       2.70733091       1.91809118      -4.65436848 </v>
  </varray>
  <energy>
   <i name="e_fr_energy">    -69.69902159 </i>
   <i name="e_wo_entrp">    -69.65678045 </i>
   <i name="e_0_energy">    -69.68494121 </i>
  </energy>
  <time name="totalsc">   17.98   18.18</time>
 </calculation>
 <calculation>
  <scstep>
   <time name="dav">    1.46    1.48</time>
   <time name="total">    1.57    1.58</time>
   <energy>
    <i name="alphaZ">    521.04204123 </i>
    <i name="ewald"> 103796.19643558 </i>
    <i name="hartreedc">-125484.68925506 </i>
    <i name="XCdc">    719.68992466 </i>
    <i name="pawpsdc">  21136.54409898 </i>
    <i name="pawaedc"> -22864.09122892 </i>
    <i name="eentropy">     -0.04040673 </i>
    <i name="bandstr">   -167.63268867 </i>
    <i name="atom">  22280.27950853 </i>
    <i name="e_fr_energy">    -62.70157041 </i>
    <i name="e_wo_entrp">    -62.66116367 </i>
    <i name="e_0_energy">    -62.68810149 </i>
   </energy>
  </scstep>
  <scstep>
   <time name="dav">    2.01    2.03</time>
   <time name="total">    2.11    2.13</time>
   <energy>
    <i name="e_fr_energy">    -62.74089544 </i>
    <i name="e_wo_entrp">    -62.70058564 </i>
    <i name="e_0_energy">    -62.72745884 </i>
   </energy>
  </scstep>
  <scstep>
   <time name="dav">    1.69    1.71</time>
   <time name="total">    1.79    1.81</time>
   <energy>
    <i name="e_fr_energy">    -62.73589769 </i>
    <i name="e_wo_entrp">    -62.69398956 </i>
    <i name="e_0_energy">    -62.72192832 </i>
   </energy>
  </scstep>
  <scstep>
   <time name="dav">    1.61    1.62</time>
   <time name="total">    1.71    1.72</time>
   <energy>
    <i name="e_fr_energy">    -62.73255340 </i>
    <i name="e_wo_entrp">    -62.69353242 </i>
    <i name="e_0_energy">    -62.71954641 </i>
   </energy>
  </scstep>
  <scstep>
   <time name="dav">    1.57    1.59</time>
   <time name="total">    1.67    1.69</time>
   <energy>
    <i name="e_fr_energy">    -62.73229366 </i>
    <i name="e_wo_entrp">    -62.68940800 </i>
    <i name="e_0_energy">    -62.71799844 </i>
   </energy>
  </scstep>
  <scstep>
   <time name="dav">    1.54    1.55</time>
   <time name="total">    1.64    1.65</time>
   <energy>
    <i name="e_fr_energy">    -62.73181083 </i>
    <i name="e_wo_entrp">    -62.69105168 </i>
    <i name="e_0_energy">    -62.71822445 </i>
   </energy>
  </scstep>
  <scstep>
   <time name="dav">    1.70    1.71</time>
   <time name="total">    1.79    1.81</time>
   <energy>
    <i name="e_fr_energy">    -62.73123417 </i>
    <i name="e_wo_entrp">    -62.69033586 </i>
    <i name="e_0_energy">    -62.71760140 </i>
   </energy>
  </scstep>
  <scstep>
   <time name="dav">    1.41    1.42</time>
   <time name="total">    1.44    1.45</time>
   <energy>
    <i name="alphaZ">    521.04204123 </i>
    <i name="ewald"> 103796.19643558 </i>
    <i name="hartreedc">-125484.58672585 </i>
    <i name="XCdc">    719.69856067 </i>
    <i name="pawpsdc">  21118.21027332 </i>
    <i name="pawaedc"> -22845.42271737 </i>
    <i name="eentropy">     -0.04074624 </i>
    <i name="bandstr">   -168.10791450 </i>
    <i name="atom">  22280.27950853 </i>
    <i name="e_fr_energy">    -62.73128462 </i>
    <i name="e_wo_entrp">    -62.69053839 </i>
    <i name="e_0_energy">    -62.71770254 </i>
   </energy>
  </scstep>
  <structure>
   <crystal>
    <varray name="basis" >
     <v>       3.63000011       0.00000000       0.00000000 </v>
     <v>       0.00000000       3.63000011       0.00000000 </v>
     <v>       0.00000000       0.00000000      27.70499992 </v>
    </varray>
    <i name="volume">    365.06603650 </i>
    <varray name="rec_basis" >
     <v>       0.27548208       0.00000000       0.00000000 </v>
     <v>       0.00000000       0.27548208       0.00000000 </v>
     <v>       0.00000000       0.00000000       0.03609457 </v>
    </varray>
   </crystal>
   <varray name="positions" >
    <v>      -0.00000943      -0.00025129       0.00177990 </v>
    <v>       0.50002940       0.50022570       0.00188269 </v>
    <v>      -0.00016544       0.49983843       0.06424140 </v>
    <v>       0.50000798       0.00017060       0.06413151 </v>
    <v>       0.00058713       0.00027029       0.12876106 </v>
    <v>       0.49958379       0.49962600       0.12867609 </v>
    <v>      -0.00091432       0.49909604       0.19172328 </v>
    <v>       0.50114602       0.00086377       0.19159650 </v>
    <v>       0.00110303      -0.00142408       0.25466537 </v>
    <v>       0.49837192       0.50163172       0.25415270 </v>
    <v>      -0.00226365       0.49953159       0.31793636 </v>
    <v>       0.50191194       0.00039947       0.31732839 </v>
    <v>       0.00418334      -0.00223990       0.38123243 </v>
    <v>       0.49557008       0.50080242       0.38045551 </v>
    <v>      -0.00062857       0.50206241       0.44356859 </v>
    <v>       0.49165705      -0.01002362       0.44144479 </v>
    <v>       0.76200104       0.24686034       0.50238039 </v>
    <v>       0.74782868       0.46806975       0.50399987 </v>
   </varray>
  </structure>
  <varray name="forces" >
   <v>      -0.00025105       0.00262967      -0.06231918 </v>
   <v>      -0.00135983      -0.00309772      -0.06578831 </v>
   <v>      -0.00156005       0.00513453       0.23866628 </v>
   <v>       0.00021733      -0.00649354       0.24867559 </v>
   <v>       0.00026254      -0.01596715      -0.14295505 </v>
   <v>      -0.00013871       0.01615910      -0.13046797 </v>
   <v>       0.00452520       0.00699640       0.04646965 </v>
   <v>      -0.00637534      -0.00604489       0.04540981 </v>
   <v>      -0.00430748       0.02016155      -0.05977964 </v>
   <v>       0.00223096      -0.02540702      -0.02809057 </v>
   <v>      -0.00740245      -0.02188129      -0.06560067 </v>
   <v>      -0.00510659       0.01176001      -0.00264611 </v>
   <v>      -0.16875767       0.05341864      -0.16287289 </v>
   <v>       0.08110650      -0.12179042      -0.10069674 </v>
   <v>      -0.13909487      -0.13147917      -0.00205201 </v>
   <v>       0.06046010       0.07714432      -0.06513159 </v>
   <v>       0.15516361       0.23878057       0.09487652 </v>
   <v>       0.03038779      -0.10002359       0.21430288 </v>
  </varray>
  <varray name="stress" >
   <v>     -13.96552499      -1.34346858       2.22422262 </v>
   <v>      -1.34346853     -13.75724597       1.68228157 </v>
   <v>       2.22422254       1.68228158      -5.41344662 </v>
  </varray>
  <energy>
   <i name="e_fr_energy">    -69.70856662 </i>
   <i name="e_wo_entrp">    -69.66782038 </i>
   <i name="e_0_energy">    -69.69498454 </i>
  </energy>
  <time name="totalsc">   15.99   16.15</time>
 </calculation>
 <calculation>
  <scstep>
   <time name="dav">    1.44    1.45</time>
   <time name="total">    1.54    1.55</time>
   <energy>
    <i name="alphaZ">    521.04204123 </i>
    <i name="ewald"> 104075.87467328 </i>
    <i name="hartreedc">-125763.93805089 </i>
    <i name="XCdc">    719.74979693 </i>
    <i name="pawpsdc">  21118.08473951 </i>
    <i name="pawaedc"> -22845.29159789 </i>
    <i name="eentropy">     -0.04197490 </i>
    <i name="bandstr">   -168.49355859 </i>
    <i name="atom">  22280.27950853 </i>
    <i name="e_fr_energy">    -62.73442279 </i>
    <i name="e_wo_entrp">    -62.69244790 </i>
    <i name="e_0_energy">    -62.72043116 </i>
   </energy>
  </scstep>
  <scstep>
   <time name="dav">    1.87    1.89</time>
   <time name="total">    1.98    1.99</time>
   <energy>
    <i name="e_fr_energy">    -62.74768261 </i>
    <i name="e_wo_entrp">    -62.70406101 </i>
    <i name="e_0_energy">    -62.73314208 </i>
   </energy>
  </scstep>
  <scstep>
   <time name="dav">    1.59    1.60</time>
   <time name="total">    1.69    1.70</time>
   <energy>
    <i name="e_fr_energy">    -62.74800926 </i>
    <i name="e_wo_entrp">    -62.70833824 </i>
    <i name="e_0_energy">    -62.73478559 </i>
   </energy>
  </scstep>
  <scstep>
   <time name="dav">    1.55    1.56</time>
   <time name="total">    1.65    1.66</time>
   <energy>
    <i name="e_fr_energy">    -62.74816440 </i>
    <i name="e_wo_entrp">    -62.70679707 </i>
[...]
       <r>     8.1657     3.3505   104.4508 </r>
       <r>     8.2412     2.9883   104.6766 </r>
       <r>     8.3168     2.1570   104.8397 </r>
       <r>     8.3924     1.6090   104.9612 </r>
       <r>     8.4679     1.6027   105.0824 </r>
       <r>     8.5435     1.9068   105.2265 </r>
       <r>     8.6191     2.4807   105.4139 </r>
       <r>     8.6947     3.4824   105.6771 </r>
       <r>     8.7702     4.6006   106.0248 </r>
       <r>     8.8458     5.2811   106.4239 </r>
       <r>     8.9214     5.6288   106.8492 </r>
       <r>     8.9969     6.0362   107.3054 </r>
       <r>     9.0725     6.1995   107.7739 </r>
       <r>     9.1481     5.5002   108.1896 </r>
       <r>     9.2237     4.0025   108.4920 </r>
       <r>     9.2992     2.5341   108.6836 </r>
       <r>     9.3748     1.9802   108.8332 </r>
       <r>     9.4504     2.5618   109.0268 </r>
       <r>     9.5259     3.6892   109.3056 </r>
       <r>     9.6015     4.4967   109.6454 </r>
       <r>     9.6771     4.5055   109.9859 </r>
       <r>     9.7527     3.7315   110.2679 </r>
       <r>     9.8282     2.4014   110.4494 </r>
       <r>     9.9038     0.9913   110.5243 </r>
       <r>     9.9794     0.3299   110.5492 </r>
       <r>    10.0549     1.0859   110.6313 </r>
       <r>    10.1305     2.9838   110.8568 </r>
       <r>    10.2061     4.7873   111.2186 </r>
       <r>    10.2816     5.5370   111.6370 </r>
       <r>    10.3572     5.7379   112.0706 </r>
       <r>    10.4328     6.5915   112.5687 </r>
       <r>    10.5084     8.0209   113.1749 </r>
       <r>    10.5839     8.4259   113.8116 </r>
       <r>    10.6595     6.7266   114.3200 </r>
       <r>    10.7351     3.7312   114.6019 </r>
       <r>    10.8106     1.0960   114.6848 </r>
       <r>    10.8862    -0.1818   114.6710 </r>
       <r>    10.9618     0.1066   114.6791 </r>
       <r>    11.0374     1.7572   114.8119 </r>
       <r>    11.1129     3.8930   115.1061 </r>
       <r>    11.1885     5.0106   115.4847 </r>
       <r>    11.2641     4.2544   115.8062 </r>
       <r>    11.3396     2.3447   115.9834 </r>
       <r>    11.4152     0.6745   116.0344 </r>
       <r>    11.4908    -0.0938   116.0273 </r>
       <r>    11.5664    -0.2041   116.0119 </r>
       <r>    11.6419    -0.1107   116.0035 </r>
       <r>    11.7175    -0.0366   116.0007 </r>
       <r>    11.7931    -0.0083   116.0001 </r>
       <r>    11.8686    -0.0014   116.0000 </r>
       <r>    11.9442    -0.0002   116.0000 </r>
       <r>    12.0198    -0.0000   116.0000 </r>
       <r>    12.0954    -0.0000   116.0000 </r>
       <r>    12.1709    -0.0000   116.0000 </r>
       <r>    12.2465    -0.0000   116.0000 </r>
       <r>    12.3221    -0.0000   116.0000 </r>
       <r>    12.3976    -0.0000   116.0000 </r>
       <r>    12.4732    -0.0000   116.0000 </r>
       <r>    12.5488     0.0000   116.0000 </r>
       <r>    12.6244     0.0000   116.0000 </r>
       <r>    12.6999     0.0000   116.0000 </r>
       <r>    12.7755     0.0000   116.0000 </r>
       <r>    12.8511     0.0000   116.0000 </r>
       <r>    12.9266     0.0000   116.0000 </r>
       <r>    13.0022     0.0000   116.0000 </r>
       <r>    13.0778     0.0000   116.0000 </r>
       <r>    13.1533     0.0000   116.0000 </r>
       <r>    13.2289     0.0000   116.0000 </r>
      </set>
      <set comment="spin 2">
       <r>    -9.4424     0.0000     0.0000 </r>
       <r>    -9.3668     0.0000     0.0000 </r>
       <r>    -9.2913     0.0000     0.0000 </r>
       <r>    -9.2157     0.0000     0.0000 </r>
       <r>    -9.1401     0.0000     0.0000 </r>
       <r>    -9.0645    -0.0000    -0.0000 </r>
       <r>    -8.9890    -0.0000    -0.0000 </r>
       <r>    -8.9134    -0.0000    -0.0000 </r>
       <r>    -8.8378    -0.0000    -0.0000 </r>
       <r>    -8.7623    -0.0000    -0.0000 </r>
       <r>    -8.6867    -0.0000    -0.0000 </r>
       <r>    -8.6111    -0.0000    -0.0000 </r>
       <r>    -8.5355    -0.0000    -0.0000 </r>
       <r>    -8.4600    -0.0000    -0.0000 </r>
       <r>    -8.3844    -0.0000    -0.0000 </r>
       <r>    -8.3088    -0.0000    -0.0000 </r>
       <r>    -8.2333    -0.0000    -0.0000 </r>
       <r>    -8.1577    -0.0000    -0.0000 </r>
       <r>    -8.0821    -0.0000    -0.0000 </r>
       <r>    -8.0066    -0.0003    -0.0000 </r>
       <r>    -7.9310    -0.0018    -0.0002 </r>
       <r>    -7.8554    -0.0073    -0.0007 </r>
       <r>    -7.7798    -0.0186    -0.0021 </r>
       <r>    -7.7043    -0.0226    -0.0038 </r>
       <r>    -7.6287     0.0265    -0.0018 </r>
       <r>    -7.5531     0.1740     0.0113 </r>
       <r>    -7.4776     0.3700     0.0393 </r>
       <r>    -7.4020     0.4588     0.0739 </r>
       <r>    -7.3264     0.3502     0.1004 </r>
       <r>    -7.2508     0.1413     0.1111 </r>
       <r>    -7.1753    -0.0014     0.1110 </r>
       <r>    -7.0997     0.0105     0.1118 </r>
       <r>    -7.0241     0.1707     0.1247 </r>
       <r>    -6.9486     0.3760     0.1531 </r>
       <r>    -6.8730     0.4581     0.1877 </r>
       <r>    -6.7974     0.3442     0.2137 </r>
       <r>    -6.7218     0.1459     0.2247 </r>
       <r>    -6.6463     0.0070     0.2253 </r>
       <r>    -6.5707    -0.0527     0.2213 </r>
       <r>    -6.4951    -0.0962     0.2140 </r>
       <r>    -6.4196    -0.1206     0.2049 </r>
       <r>    -6.3440     0.0554     0.2091 </r>
       <r>    -6.2684     0.6795     0.2604 </r>
       <r>    -6.1928     1.6311     0.3837 </r>
       <r>    -6.1173     2.2277     0.5520 </r>
       <r>    -6.0417     1.8971     0.6954 </r>
       <r>    -5.9661     0.9358     0.7661 </r>
       <r>    -5.8906     0.1981     0.7811 </r>
       <r>    -5.8150     0.2470     0.7998 </r>
       <r>    -5.7394     0.9716     0.8732 </r>
       <r>    -5.6638     1.6953     1.0013 </r>
       <r>    -5.5883     1.7259     1.1317 </r>
       <r>    -5.5127     1.0607     1.2119 </r>
       <r>    -5.4371     0.3011     1.2346 </r>
       <r>    -5.3616    -0.1295     1.2249 </r>
       <r>    -5.2860    -0.2622     1.2050 </r>
       <r>    -5.2104    -0.1290     1.1953 </r>
       <r>    -5.1349     0.5408     1.2362 </r>
       <r>    -5.0593     1.8999     1.3797 </r>
       <r>    -4.9837     3.3226     1.6308 </r>
       <r>    -4.9081     3.7007     1.9105 </r>
       <r>    -4.8326     2.7628     2.1193 </r>
       <r>    -4.7570     1.5880     2.2393 </r>
       <r>    -4.6814     1.3117     2.3384 </r>
       <r>    -4.6059     1.7916     2.4738 </r>
       <r>    -4.5303     2.1282     2.6346 </r>
       <r>    -4.4547     2.0494     2.7895 </r>
       <r>    -4.3791     1.9821     2.9393 </r>
       <r>    -4.3036     2.1391     3.1010 </r>
       <r>    -4.2280     2.3935     3.2818 </r>
       <r>    -4.1524     2.7100     3.4866 </r>
       <r>    -4.0769     3.1199     3.7224 </r>
       <r>    -4.0013     3.5033     3.9872 </r>
       <r>    -3.9257     3.5546     4.2558 </r>
       <r>    -3.8501     2.9481     4.4786 </r>
       <r>    -3.7746     1.7377     4.6099 </r>
       <r>    -3.6990     0.5732     4.6532 </r>
       <r>    -3.6234     0.3222     4.6776 </r>
       <r>    -3.5479     1.3332     4.7783 </r>
       <r>    -3.4723     2.8484     4.9936 </r>
       <r>    -3.3967     3.4154     5.2517 </r>
       <r>    -3.3211     2.4973     5.4404 </r>
       <r>    -3.2456     1.3147     5.5397 </r>
       <r>    -3.1700     1.5148     5.6542 </r>
       <r>    -3.0944     3.5521     5.9227 </r>
       <r>    -3.0189     6.7309     6.4313 </r>
       <r>    -2.9433    10.0785     7.1930 </r>
       <r>    -2.8677    12.5350     8.1402 </r>
       <r>    -2.7921    12.9547     9.1192 </r>
       <r>    -2.7166    11.2729     9.9711 </r>
       <r>    -2.6410     9.3261    10.6759 </r>
       <r>    -2.5654     9.0722    11.3615 </r>
       <r>    -2.4899    10.7480    12.1738 </r>
       <r>    -2.4143    13.7042    13.2094 </r>
       <r>    -2.3387    17.3567    14.5211 </r>
       <r>    -2.2632    20.5814    16.0764 </r>
       <r>    -2.1876    21.6934    17.7158 </r>
       <r>    -2.1120    19.8356    19.2148 </r>
       <r>    -2.0364    16.1027    20.4317 </r>
       <r>    -1.9609    12.8094    21.3997 </r>
       <r>    -1.8853    11.6913    22.2833 </r>
       <r>    -1.8097    13.0200    23.2672 </r>
       <r>    -1.7342    15.8293    24.4634 </r>
       <r>    -1.6586    18.5614    25.8661 </r>
       <r>    -1.5830    19.8804    27.3685 </r>
       <r>    -1.5074    19.5408    28.8452 </r>
       <r>    -1.4319    18.7915    30.2653 </r>
       <r>    -1.3563    19.3348    31.7265 </r>
       <r>    -1.2807    21.7688    33.3716 </r>
       <r>    -1.2052    25.5413    35.3018 </r>
       <r>    -1.1296    29.6654    37.5436 </r>
       <r>    -1.0540    32.7377    40.0176 </r>
       <r>    -0.9784    33.3014    42.5343 </r>
       <r>    -0.9029    31.3282    44.9018 </r>
       <r>    -0.8273    28.5256    47.0575 </r>
       <r>    -0.7517    26.2265    49.0394 </r>
       <r>    -0.6762    24.4938    50.8905 </r>
       <r>    -0.6006    23.7087    52.6822 </r>
       <r>    -0.5250    24.2885    54.5177 </r>
       <r>    -0.4494    25.0596    56.4114 </r>
       <r>    -0.3739    24.9528    58.2971 </r>
       <r>    -0.2983    25.3217    60.2107 </r>
       <r>    -0.2227    28.0797    62.3327 </r>
       <r>    -0.1472    32.6119    64.7973 </r>
       <r>    -0.0716    36.1404    67.5284 </r>
       <r>     0.0040    36.8345    70.3120 </r>
       <r>     0.0796    35.8369    73.0203 </r>
       <r>     0.1551    35.6742    75.7162 </r>
       <r>     0.2307    36.5832    78.4808 </r>
       <r>     0.3063    35.4288    81.1582 </r>
       <r>     0.3818    29.2815    83.3711 </r>
       <r>     0.4574    19.2185    84.8234 </r>
       <r>     0.5330     9.3179    85.5276 </r>
       <r>     0.6086     2.7368    85.7344 </r>
       <r>     0.6841    -0.0836    85.7281 </r>
       <r>     0.7597    -0.1835    85.7142 </r>
       <r>     0.8353     1.3624    85.8172 </r>
       <r>     0.9108     3.4147    86.0752 </r>
       <r>     0.9864     4.5992    86.4228 </r>
       <r>     1.0620     4.1674    86.7377 </r>
       <r>     1.1375     2.6138    86.9353 </r>
       <r>     1.2131     1.0317    87.0132 </r>
       <r>     1.2887     0.1398    87.0238 </r>
       <r>     1.3643    -0.0491    87.0201 </r>
       <r>     1.4398     0.0790    87.0260 </r>
       <r>     1.5154     0.2946    87.0483 </r>
       <r>     1.5910     0.8583    87.1132 </r>
       <r>     1.6665     2.2326    87.2819 </r>
       <r>     1.7421     4.3175    87.6082 </r>
       <r>     1.8177     6.1057    88.0696 </r>
       <r>     1.8933     6.5718    88.5662 </r>
       <r>     1.9688     5.8377    89.0074 </r>
       <r>     2.0444     4.6493    89.3587 </r>
       <r>     2.1200     3.1891    89.5998 </r>
       <r>     2.1955     1.6853    89.7271 </r>
       <r>     2.2711     1.2793    89.8238 </r>
       <r>     2.3467     2.7298    90.0301 </r>
       <r>     2.4223     4.8516    90.3967 </r>
       <r>     2.4978     5.6048    90.8203 </r>
       <r>     2.5734     4.5565    91.1646 </r>
       <r>     2.6490     3.1282    91.4010 </r>
       <r>     2.7245     2.6932    91.6046 </r>
       <r>     2.8001     3.3060    91.8544 </r>
       <r>     2.8757     3.8610    92.1462 </r>
       <r>     2.9513     3.3087    92.3962 </r>
       <r>     3.0268     1.9899    92.5466 </r>
       <r>     3.1024     1.1873    92.6363 </r>
       <r>     3.1780     1.3315    92.7370 </r>
       <r>     3.2535     1.6028    92.8581 </r>
       <r>     3.3291     1.3333    92.9588 </r>
       <r>     3.4047     0.8405    93.0224 </r>
       <r>     3.4803     0.6601    93.0722 </r>
       <r>     3.5558     0.8134    93.1337 </r>
       <r>     3.6314     1.1677    93.2220 </r>
       <r>     3.7070     1.7628    93.3552 </r>
       <r>     3.7825     2.4565    93.5408 </r>
       <r>     3.8581     2.8587    93.7568 </r>
       <r>     3.9337     2.7340    93.9635 </r>
       <r>     4.0092     2.0993    94.1221 </r>
       <r>     4.0848     1.1627    94.2100 </r>
       <r>     4.1604     0.3152    94.2338 </r>
       <r>     4.2360    -0.1255    94.2243 </r>
       <r>     4.3115    -0.1041    94.2164 </r>
       <r>     4.3871     0.3376    94.2420 </r>
       <r>     4.4627     1.1246    94.3269 </r>
       <r>     4.5382     1.9500    94.4743 </r>
       <r>     4.6138     2.2879    94.6472 </r>
       <r>     4.6894     1.9081    94.7914 </r>
       <r>     4.7650     1.3084    94.8903 </r>
       <r>     4.8405     1.1922    94.9804 </r>
       <r>     4.9161     1.5296    95.0960 </r>
       <r>     4.9917     1.7442    95.2278 </r>
       <r>     5.0672     1.7084    95.3569 </r>
       <r>     5.1428     1.7408    95.4884 </r>
       <r>     5.2184     1.8796    95.6305 </r>
       <r>     5.2940     2.0084    95.7823 </r>
       <r>     5.3695     2.2590    95.9530 </r>
       <r>     5.4451     2.6165    96.1507 </r>
       <r>     5.5207     2.6787    96.3531 </r>
       <r>     5.5962     2.2879    96.5260 </r>
       <r>     5.6718     2.0518    96.6811 </r>
       <r>     5.7474     2.8533    96.8967 </r>
       <r>     5.8230     4.7783    97.2578 </r>
       <r>     5.8985     6.6346    97.7592 </r>
       <r>     5.9741     6.7803    98.2716 </r>
       <r>     6.0497     4.7763    98.6326 </r>
       <r>     6.1252     2.0528    98.7877 </r>
       <r>     6.2008     0.4990    98.8254 </r>
       <r>     6.2764     0.6739    98.8763 </r>
       <r>     6.3520     1.6180    98.9986 </r>
       <r>     6.4275     2.0888    99.1565 </r>
       <r>     6.5031     1.8740    99.2981 </r>
       <r>     6.5787     1.7360    99.4293 </r>
       <r>     6.6542     2.1045    99.5883 </r>
       <r>     6.7298     2.6051    99.7852 </r>
       <r>     6.8054     3.0052   100.0123 </r>
       <r>     6.8809     3.6496   100.2881 </r>
       <r>     6.9565     4.6125   100.6367 </r>
       <r>     7.0321     5.1721   101.0275 </r>
       <r>     7.1077     4.6808   101.3812 </r>
       <r>     7.1832     3.4813   101.6443 </r>
       <r>     7.2588     2.3980   101.8255 </r>
       <r>     7.3344     1.8995   101.9691 </r>
       <r>     7.4099     2.2206   102.1369 </r>
       <r>     7.4855     3.4108   102.3947 </r>
       <r>     7.5611     4.7786   102.7558 </r>
       <r>     7.6367     5.1437   103.1445 </r>
       <r>     7.7122     4.0898   103.4536 </r>
       <r>     7.7878     2.4433   103.6382 </r>
       <r>     7.8634     1.3420   103.7396 </r>
       <r>     7.9389     1.2513   103.8342 </r>
       <r>     8.0145     1.9413   103.9809 </r>
       <r>     8.0901     2.8675   104.1976 </r>
       <r>     8.1657     3.3505   104.4508 </r>
       <r>     8.2412     2.9883   104.6766 </r>
       <r>     8.3168     2.1571   104.8397 </r>
       <r>     8.3924     1.6091   104.9612 </r>
       <r>     8.4679     1.6027   105.0824 </r>
       <r>     8.5435     1.9068   105.2265 </r>
       <r>     8.6191     2.4807   105.4139 </r>
       <r>     8.6947     3.4824   105.6771 </r>
       <r>     8.7702     4.6006   106.0248 </r>
       <r>     8.8458     5.2811   106.4239 </r>
       <r>     8.9214     5.6288   106.8492 </r>
       <r>     8.9969     6.0362   107.3054 </r>
       <r>     9.0725     6.1996   107.7739 </r>
       <r>     9.1481     5.5002   108.1896 </r>
       <r>     9.2237     4.0025   108.4920 </r>
       <r>     9.2992     2.5341   108.6835 </r>
       <r>     9.3748     1.9801   108.8332 </r>
       <r>     9.4504     2.5618   109.0268 </r>
       <r>     9.5259     3.6892   109.3056 </r>
       <r>     9.6015     4.4967   109.6454 </r>
       <r>     9.6771     4.5055   109.9859 </r>
       <r>     9.7527     3.7315   110.2679 </r>
       <r>     9.8282     2.4014   110.4494 </r>
       <r>     9.9038     0.9913   110.5243 </r>
       <r>     9.9794     0.3299   110.5492 </r>
       <r>    10.0549     1.0859   110.6313 </r>
       <r>    10.1305     2.9838   110.8568 </r>
       <r>    10.2061     4.7873   111.2185 </r>
       <r>    10.2816     5.5370   111.6370 </r>
       <r>    10.3572     5.7379   112.0706 </r>
       <r>    10.4328     6.5915   112.5687 </r>
       <r>    10.5084     8.0209   113.1749 </r>
       <r>    10.5839     8.4259   113.8116 </r>
       <r>    10.6595     6.7266   114.3200 </r>
       <r>    10.7351     3.7313   114.6019 </r>
       <r>    10.8106     1.0960   114.6848 </r>
       <r>    10.8862    -0.1818   114.6710 </r>
       <r>    10.9618     0.1065   114.6791 </r>
       <r>    11.0374     1.7571   114.8119 </r>
       <r>    11.1129     3.8930   115.1061 </r>
       <r>    11.1885     5.0106   115.4847 </r>
       <r>    11.2641     4.2544   115.8062 </r>
       <r>    11.3396     2.3447   115.9834 </r>
       <r>    11.4152     0.6745   116.0344 </r>
       <r>    11.4908    -0.0938   116.0273 </r>
       <r>    11.5664    -0.2041   116.0119 </r>
       <r>    11.6419    -0.1107   116.0035 </r>
       <r>    11.7175    -0.0366   116.0007 </r>
       <r>    11.7931    -0.0083   116.0001 </r>
       <r>    11.8686    -0.0014   116.0000 </r>
       <r>    11.9442    -0.0002   116.0000 </r>
       <r>    12.0198    -0.0000   116.0000 </r>
       <r>    12.0954    -0.0000   116.0000 </r>
       <r>    12.1709    -0.0000   116.0000 </r>
       <r>    12.2465    -0.0000   116.0000 </r>
       <r>    12.3221    -0.0000   116.0000 </r>
       <r>    12.3976    -0.0000   116.0000 </r>
       <r>    12.4732    -0.0000   116.0000 </r>
       <r>    12.5488     0.0000   116.0000 </r>
       <r>    12.6244     0.0000   116.0000 </r>
       <r>    12.6999     0.0000   116.0000 </r>
       <r>    12.7755     0.0000   116.0000 </r>
       <r>    12.8511     0.0000   116.0000 </r>
       <r>    12.9266     0.0000   116.0000 </r>
       <r>    13.0022     0.0000   116.0000 </r>
       <r>    13.0778     0.0000   116.0000 </r>
       <r>    13.1533     0.0000   116.0000 </r>
       <r>    13.2289     0.0000   116.0000 </r>
      </set>
     </set>
    </array>
   </total>
  </dos>
 </calculation>
 <structure name="finalpos" >
  <crystal>
   <varray name="basis" >
    <v>       3.63000011       0.00000000       0.00000000 </v>
    <v>       0.00000000       3.63000011       0.00000000 </v>
    <v>       0.00000000       0.00000000      27.70499992 </v>
   </varray>
   <i name="volume">    365.06603650 </i>
   <varray name="rec_basis" >
    <v>       0.27548208       0.00000000       0.00000000 </v>
    <v>       0.00000000       0.27548208       0.00000000 </v>
    <v>       0.00000000       0.00000000       0.03609457 </v>
   </varray>
  </crystal>
  <varray name="positions" >
   <v>      -0.00628037      -0.00505236      -0.00213157 </v>
   <v>       0.49376958       0.49516290      -0.00213852 </v>
   <v>      -0.00910593       0.49374658       0.06077814 </v>
   <v>       0.49173190      -0.00555865       0.06080696 </v>
   <v>      -0.01464647      -0.00807065       0.12409874 </v>
   <v>       0.48548358       0.49136329       0.12411187 </v>
   <v>      -0.01893184       0.48921615       0.18701078 </v>
   <v>       0.48126295      -0.01036122       0.18702455 </v>
   <v>      -0.02124837      -0.01196731       0.24884238 </v>
   <v>       0.47901453       0.48786969       0.24889199 </v>
   <v>      -0.02317349       0.48665977       0.31179174 </v>
   <v>       0.47734478      -0.01320487       0.31180772 </v>
   <v>      -0.02372851      -0.01379573       0.37501030 </v>
   <v>       0.47607397       0.48635127       0.37506720 </v>
   <v>      -0.02419828       0.48674233       0.43768309 </v>
   <v>       0.47541460      -0.01351528       0.43802344 </v>
   <v>       0.94689300       0.38210543       0.53249847 </v>
   <v>       0.83432438       0.48781828       0.55077954 </v>
  </varray>
 </structure>
</modeling>
