unknown system                          
           1
     3.630000    0.000000    0.000000
     0.000000    3.630000    0.000000
     0.000000    0.000000   27.705000
   Cu   H 
    16     2
Direct configuration=     1
   0.00000000  0.00000000  0.00000000
   0.50000000  0.50000000  0.00000000
   0.00000000  0.50000000  0.06551164
   0.50000000  0.00000000  0.06551164
   0.00000000  0.00000000  0.12876120
   0.50000000  0.50000000  0.12876120
   0.00000000  0.50000000  0.19193187
   0.50000000  0.00000000  0.19193187
   0.00000000  0.00000000  0.25406550
   0.50000000  0.50000000  0.25406550
   0.00000000  0.50000000  0.31747855
   0.50000000  0.00000000  0.31747855
   0.00000000  0.00000000  0.38132233
   0.50000000  0.50000000  0.38132233
   0.00000000  0.50000000  0.44440075
   0.50000000  0.00000000  0.44440075
   0.75000000  0.25000000  0.50150658
   0.75000000  0.45550964  0.50150658
Direct configuration=     2
   0.00001065 -0.00005404  0.00045261
   0.49999728  0.50005329  0.00047321
  -0.00003511  0.49996466  0.06515600
   0.50000446  0.00004468  0.06513037
   0.00008828  0.00008589  0.12879246
   0.49994209  0.49989885  0.12877651
  -0.00021447  0.49978280  0.19187555
   0.50027123  0.00020917  0.19184506
   0.00027384 -0.00033626  0.25420621
   0.49962651  0.50038211  0.25408664
  -0.00043054  0.49993952  0.31757835
   0.50035120  0.00006768  0.31743517
   0.00111658 -0.00067915  0.38135721
   0.49884316  0.50045222  0.38117418
   0.00107367  0.50109228  0.44398393
   0.49733372 -0.00278645  0.44357502
   0.75262692  0.22997871  0.50184014
   0.74912050  0.47741368  0.50221821
Direct configuration=     3
   0.00000533 -0.00002703  0.00022635
   0.49999864  0.50002665  0.00023666
  -0.00001756  0.49998233  0.06533378
   0.50000223  0.00002235  0.06532096
   0.00004415  0.00004296  0.12877683
   0.49997104  0.49994941  0.12876886
  -0.00010726  0.49989138  0.19190370
   0.50013565  0.00010461  0.19188846
   0.00013695 -0.00016817  0.25413587
   0.49981321  0.50019110  0.25407607
  -0.00021532  0.49996975  0.31752846
   0.50017564  0.00003385  0.31745686
   0.00055842 -0.00033965  0.38133977
   0.49942145  0.50022616  0.38124824
   0.00053696  0.50054626  0.44419229
   0.49866656 -0.00139354  0.44398779
   0.75131376  0.23998708  0.50167340
   0.74956015  0.46646415  0.50186247
Direct configuration=     4
   0.00000184 -0.00008010  0.00059397
   0.50000592  0.50007375  0.00062615
  -0.00005255  0.49994828  0.06507530
   0.50000359  0.00005743  0.06503951
   0.00017264  0.00009675  0.12877310
   0.49987941  0.49987288  0.12874690
  -0.00029823  0.49970318  0.19186101
   0.50037473  0.00028425  0.19181937
   0.00036555 -0.00046535  0.25426116
   0.49947217  0.50053199  0.25409421
  -0.00070001  0.49986607  0.31762498
   0.50058650  0.00012037  0.31742646
   0.00141617 -0.00078930  0.38131437
   0.49851012  0.50036252  0.38106066
   0.00026117  0.50090502  0.44404471
   0.49700792 -0.00343565  0.44338605
   0.75384265  0.24161347  0.50184069
   0.74915044  0.46684408  0.50236824
Direct configuration=     5
  -0.00000069 -0.00011850  0.00086001
   0.50001118  0.50010784  0.00090803
  -0.00007787  0.49992363  0.06488823
   0.50000457  0.00008281  0.06483582
   0.00026562  0.00013568  0.12877040
   0.49981309  0.49981750  0.12873102
  -0.00043644  0.49956698  0.19183011
   0.50054775  0.00041425  0.19176937
   0.00053099 -0.00068042  0.25435184
   0.49922535  0.50077869  0.25410733
  -0.00105078  0.49979104  0.31769483
   0.50088383  0.00018298  0.31740446
   0.00203693 -0.00111472  0.38129599
   0.49785058  0.50046120  0.38092490
   0.00006157  0.50116466  0.44393790
   0.49580756 -0.00491353  0.44295057
   0.75567283  0.24279051  0.50196176
   0.74885393  0.46711903  0.50273426
Direct configuration=     6
  -0.00000574 -0.00019531  0.00139209
   0.50002172  0.50017601  0.00147179
  -0.00012852  0.49987435  0.06451409
   0.50000654  0.00013359  0.06442843
   0.00045159  0.00021354  0.12876500
   0.49968046  0.49970673  0.12869924
  -0.00071286  0.49929458  0.19176832
   0.50089380  0.00067426  0.19166938
   0.00086187 -0.00111057  0.25453319
   0.49873171  0.50127210  0.25413357
  -0.00175233  0.49964097  0.31783454
   0.50147851  0.00030820  0.31736046
   0.00327846 -0.00176554  0.38125923
   0.49653150  0.50065857  0.38065340
  -0.00033762  0.50168394  0.44372428
   0.49340683 -0.00786930  0.44207960
   0.75933318  0.24514457  0.50220390
   0.74826090  0.46766895  0.50346631
Direct configuration=     7
  -0.00001585 -0.00034893  0.00245626
   0.50004279  0.50031236  0.00259932
  -0.00022982  0.49977578  0.06376582
   0.50001048  0.00023514  0.06361367
   0.00082353  0.00036926  0.12875420
   0.49941519  0.49948519  0.12863570
  -0.00126569  0.49874978  0.19164473
   0.50158589  0.00119428  0.19146939
   0.00152362 -0.00197086  0.25489589
   0.49774444  0.50225891  0.25418607
  -0.00315542  0.49934083  0.31811395
   0.50266786  0.00055865  0.31727246
   0.00576150 -0.00306720  0.38118570
   0.49389334  0.50105330  0.38011038
  -0.00113599  0.50272248  0.44329705
   0.48860537 -0.01378084  0.44033767
   0.76665389  0.24985270  0.50268818
   0.74707486  0.46876877  0.50493041
Direct configuration=     8
  -0.00000943 -0.00025129  0.00177990
   0.50002940  0.50022570  0.00188269
  -0.00016544  0.49983843  0.06424140
   0.50000798  0.00017060  0.06413151
   0.00058713  0.00027029  0.12876106
   0.49958379  0.49962600  0.12867609
  -0.00091432  0.49909604  0.19172328
   0.50114602  0.00086377  0.19159650
   0.00110303 -0.00142408  0.25466537
   0.49837192  0.50163172  0.25415270
  -0.00226365  0.49953159  0.31793636
   0.50191194  0.00039947  0.31732839
   0.00418334 -0.00223990  0.38123243
   0.49557008  0.50080242  0.38045551
  -0.00062857  0.50206241  0.44356859
   0.49165705 -0.01002362  0.44144479
   0.76200104  0.24686034  0.50238039
   0.74782868  0.46806975  0.50399987
Direct configuration=     9
  -0.00001644 -0.00025888  0.00198679
   0.50001510  0.50022070  0.00210238
  -0.00022102  0.49988649  0.06448793
   0.50001254  0.00010260  0.06437742
   0.00070729  0.00007374  0.12847009
   0.49949883  0.49980495  0.12839377
  -0.00101744  0.49903337  0.19177818
   0.50126421  0.00093332  0.19162541
   0.00124350 -0.00138311  0.25465834
   0.49809793  0.50154971  0.25411258
  -0.00281539  0.49910190  0.31789162
   0.50220487  0.00065824  0.31729559
   0.00236737 -0.00182608  0.38088180
   0.49599176  0.49905560  0.38008338
  -0.00301361  0.50036784  0.44343107
   0.49108628 -0.01068481  0.44076989
   0.76666924  0.25199675  0.50272247
   0.74792496  0.46687731  0.50488813
Direct configuration=    10
  -0.00002375 -0.00026680  0.00220279
   0.50000016  0.50021549  0.00233175
  -0.00027905  0.49993668  0.06474533
   0.50001731  0.00003160  0.06463417
   0.00083275 -0.00013148  0.12816628
   0.49941014  0.49999179  0.12809899
  -0.00112512  0.49896794  0.19183550
   0.50138762  0.00100593  0.19165560
   0.00139017 -0.00134033  0.25465101
   0.49781185  0.50146408  0.25407069
  -0.00339146  0.49865326  0.31784491
   0.50251072  0.00092842  0.31726135
   0.00047131 -0.00139400  0.38051571
   0.49643204  0.49723174  0.37969484
  -0.00550384  0.49859853  0.44328748
   0.49049033 -0.01137515  0.44006522
   0.77154331  0.25735969  0.50307963
   0.74802550  0.46563227  0.50581557
Direct configuration=    11
  -0.00003131 -0.00025884  0.00226887
   0.49998534  0.50019598  0.00239868
  -0.00030519  0.49994876  0.06487508
   0.50001800  0.00000419  0.06476713
   0.00085550 -0.00021975  0.12807100
   0.49938691  0.50007145  0.12801147
  -0.00114925  0.49897003  0.19184435
   0.50139654  0.00100109  0.19165680
   0.00141270 -0.00130252  0.25462533
   0.49773084  0.50138240  0.25405154
  -0.00350298  0.49852951  0.31777779
   0.50244966  0.00090980  0.31722352
  -0.00045703 -0.00133431  0.38033907
   0.49655619  0.49648254  0.37953785
  -0.00652242  0.49776811  0.44320360
   0.49021262 -0.01154224  0.43978951
   0.77399276  0.25792700  0.50324224
   0.74797113  0.46697646  0.50627298
Direct configuration=    12
  -0.00005396 -0.00023498  0.00246711
   0.49994087  0.50013745  0.00259949
  -0.00038360  0.49998501  0.06526430
   0.50002006 -0.00007805  0.06516604
   0.00092373 -0.00048457  0.12778516
   0.49931724  0.50031043  0.12774890
  -0.00122165  0.49897631  0.19187090
   0.50142331  0.00098657  0.19166037
   0.00148027 -0.00118909  0.25454829
   0.49748780  0.50113737  0.25399410
  -0.00383754  0.49815826  0.31757645
   0.50226648  0.00085394  0.31711004
  -0.00324207 -0.00115526  0.37980915
   0.49692863  0.49423495  0.37906688
  -0.00957819  0.49527684  0.44295197
   0.48937950 -0.01204351  0.43896240
   0.78134108  0.25962893  0.50373007
   0.74780802  0.47100905  0.50764521
Direct configuration=    13
  -0.00009927 -0.00018726  0.00286358
   0.49985194  0.50002040  0.00300111
  -0.00054041  0.50005752  0.06604276
   0.50002420 -0.00024253  0.06596386
   0.00106021 -0.00101421  0.12721348
   0.49917791  0.50078839  0.12722377
  -0.00136645  0.49898887  0.19192400
   0.50147683  0.00095754  0.19166753
   0.00161541 -0.00096224  0.25439421
   0.49700171  0.50064731  0.25387923
  -0.00450666  0.49741576  0.31717375
   0.50190011  0.00074221  0.31688308
  -0.00881213 -0.00079714  0.37874931
   0.49767351  0.48973977  0.37812493
  -0.01568972  0.49029430  0.44244869
   0.48771325 -0.01304606  0.43730817
   0.79603774  0.26303279  0.50470573
   0.74748181  0.47907422  0.51038966
Direct configuration=    14
  -0.00006617 -0.00022212  0.00257398
   0.49991690  0.50010590  0.00270775
  -0.00042587  0.50000456  0.06547415
   0.50002118 -0.00012239  0.06538111
   0.00096053 -0.00062735  0.12763105
   0.49927968  0.50043927  0.12760734
  -0.00126068  0.49897969  0.19188522
   0.50143773  0.00097875  0.19166230
   0.00151670 -0.00112794  0.25450675
   0.49735676  0.50100527  0.25396314
  -0.00401792  0.49795810  0.31746789
   0.50216772  0.00082382  0.31704886
  -0.00474358 -0.00105872  0.37952345
   0.49712943  0.49302319  0.37881296
  -0.01122566  0.49393370  0.44281630
   0.48893033 -0.01231377  0.43851647
   0.78530283  0.26054650  0.50399308
   0.74772009  0.47318316  0.50838502
Direct configuration=    15
  -0.00007979 -0.00020094  0.00262437
   0.49989112  0.50005827  0.00275088
  -0.00044769  0.49995793  0.06552699
   0.50002391 -0.00010665  0.06544087
   0.00091579 -0.00063509  0.12771789
   0.49929327  0.50043550  0.12770387
  -0.00125014  0.49902415  0.19182107
   0.50136656  0.00090594  0.19160055
   0.00142209 -0.00113134  0.25443805
   0.49738724  0.50090372  0.25393671
  -0.00378198  0.49808557  0.31729300
   0.50157048  0.00032823  0.31692043
  -0.00516871 -0.00165335  0.37936266
   0.49659649  0.49294030  0.37871736
  -0.01188714  0.49331037  0.44271087
   0.48828451 -0.01251232  0.43836077
   0.78771158  0.26201157  0.50420811
   0.74815243  0.47378777  0.50882240
Direct configuration=    16
  -0.00012065 -0.00013742  0.00277553
   0.49981379  0.49991537  0.00288026
  -0.00051316  0.49981806  0.06568549
   0.50003209 -0.00005943  0.06562016
   0.00078158 -0.00065831  0.12797843
   0.49933403  0.50042420  0.12799345
  -0.00121853  0.49915752  0.19162863
   0.50115305  0.00068751  0.19141528
   0.00113826 -0.00114152  0.25423195
   0.49747866  0.50059907  0.25385745
  -0.00307419  0.49846797  0.31676830
   0.49977878 -0.00115854  0.31653514
  -0.00644412 -0.00343724  0.37888026
   0.49499768  0.49269163  0.37843057
  -0.01387159  0.49144035  0.44239456
   0.48634703 -0.01310797  0.43789365
   0.79493783  0.26640677  0.50485319
   0.74944944  0.47560161  0.51013452
Direct configuration=    17
  -0.00020235 -0.00001038  0.00307786
   0.49965912  0.49962957  0.00313903
  -0.00064409  0.49953832  0.06600249
   0.50004846  0.00003501  0.06597875
   0.00051317 -0.00070475  0.12849949
   0.49941555  0.50040159  0.12857262
  -0.00115530  0.49942427  0.19124375
   0.50072604  0.00025065  0.19104476
   0.00057059 -0.00116189  0.25381974
   0.49766151  0.49998978  0.25369891
  -0.00165861  0.49923278  0.31571892
   0.49619537 -0.00413209  0.31576455
  -0.00899492 -0.00700502  0.37791547
   0.49180006  0.49219429  0.37785699
  -0.01784048  0.48770032  0.44176195
   0.48247208 -0.01429926  0.43695943
   0.80939031  0.27519716  0.50614335
   0.75204348  0.47922928  0.51275877
Direct configuration=    18
  -0.00036577  0.00024371  0.00368252
   0.49934979  0.49905798  0.00365656
  -0.00090595  0.49897884  0.06663650
   0.50008119  0.00022390  0.06669592
  -0.00002367 -0.00079763  0.12954162
   0.49957859  0.50035637  0.12973094
  -0.00102884  0.49995776  0.19047399
   0.49987200 -0.00062307  0.19030370
  -0.00056473 -0.00120263  0.25299532
   0.49802720  0.49877119  0.25338183
   0.00117256  0.50076239  0.31362014
   0.48902855 -0.01007918  0.31422337
  -0.01409653 -0.01414058  0.37598590
   0.48540482  0.49119960  0.37670984
  -0.02577825  0.48022026  0.44049673
   0.47472218 -0.01668185  0.43509099
   0.83829529  0.29277796  0.50872368
   0.75723156  0.48648462  0.51800727
Direct configuration=    19
  -0.00025656  0.00007391  0.00327846
   0.49955650  0.49943995  0.00331072
  -0.00073096  0.49935271  0.06621282
   0.50005932  0.00009768  0.06621667
   0.00033507 -0.00073556  0.12884522
   0.49946964  0.50038659  0.12895689
  -0.00111334  0.49960125  0.19098839
   0.50044271 -0.00003920  0.19079891
   0.00019395 -0.00117540  0.25354624
   0.49778283  0.49958551  0.25359372
  -0.00071937  0.49974023  0.31502265
   0.49381779 -0.00610503  0.31525327
  -0.01068737 -0.00937223  0.37727534
   0.48967845  0.49186430  0.37747643
  -0.02047382  0.48521882  0.44134221
   0.47990107 -0.01508968  0.43633958
   0.81897948  0.28102956  0.50699937
   0.75376462  0.48163622  0.51449995
Direct configuration=    20
  -0.00027939  0.00001902  0.00338251
   0.49950864  0.49942653  0.00339717
  -0.00070813  0.49933244  0.06629082
   0.50000432  0.00005506  0.06629796
   0.00022824 -0.00066394  0.12898738
   0.49947181  0.50025774  0.12909709
  -0.00107465  0.49959637  0.19099925
   0.50023986 -0.00016929  0.19082407
  -0.00048728 -0.00104494  0.25322550
   0.49811400  0.49903944  0.25331223
  -0.00137003  0.49896596  0.31473522
   0.49331212 -0.00634194  0.31499068
  -0.01179285 -0.01020880  0.37698523
   0.48858327  0.49126388  0.37722030
  -0.02145177  0.48435640  0.44104630
   0.47849763 -0.01544665  0.43622413
   0.82331690  0.28649618  0.50761104
   0.75588730  0.48057617  0.51532996
Direct configuration=    21
  -0.00030937 -0.00005310  0.00351921
   0.49944574  0.49940889  0.00351076
  -0.00067814  0.49930581  0.06639330
   0.49993205 -0.00000092  0.06640477
   0.00008788 -0.00056984  0.12917418
   0.49947466  0.50008846  0.12928131
  -0.00102380  0.49958995  0.19101352
   0.49997335 -0.00034021  0.19085713
  -0.00138234 -0.00087354  0.25280407
   0.49854913  0.49832197  0.25294238
  -0.00222491  0.49794866  0.31435757
   0.49264773 -0.00665322  0.31464568
  -0.01324532 -0.01130795  0.37660405
   0.48714434  0.49047501  0.37688378
  -0.02273668  0.48322328  0.44065750
   0.47665368 -0.01591568  0.43607243
   0.82901575  0.29367868  0.50841471
   0.75867626  0.47918339  0.51642050
Direct configuration=    22
  -0.00033038 -0.00015306  0.00360449
   0.49941367  0.49944727  0.00358162
  -0.00063099  0.49934149  0.06645360
   0.49985583 -0.00008413  0.06646078
  -0.00001565 -0.00048596  0.12924686
   0.49945864  0.49993179  0.12933950
  -0.00097468  0.49954267  0.19108474
   0.49973844 -0.00047538  0.19094483
  -0.00211225 -0.00083162  0.25247011
   0.49878801  0.49777074  0.25260681
  -0.00338507  0.49678920  0.31415027
   0.49254006 -0.00649557  0.31440783
  -0.01438280 -0.01179802  0.37638271
   0.48619956  0.48971134  0.37663011
  -0.02333915  0.48277183  0.44031217
   0.47545947 -0.01624173  0.43607034
   0.83371947  0.29639569  0.50893309
   0.75999784  0.48037308  0.51727694
Direct configuration=    23
  -0.00039342 -0.00045292  0.00386032
   0.49931745  0.49956241  0.00379421
  -0.00048954  0.49944854  0.06663452
   0.49962717 -0.00033373  0.06662882
  -0.00032625 -0.00023432  0.12946489
   0.49941058  0.49946180  0.12951409
  -0.00082733  0.49940085  0.19129842
   0.49903371 -0.00088088  0.19120796
  -0.00430196 -0.00070587  0.25146822
   0.49950462  0.49611707  0.25160011
  -0.00686555  0.49331079  0.31352839
   0.49221706 -0.00602263  0.31369430
  -0.01779523 -0.01326823  0.37571871
   0.48336521  0.48742033  0.37586912
  -0.02514657  0.48141748  0.43927620
   0.47187684 -0.01721990  0.43606408
   0.84783061  0.30454671  0.51048822
   0.76396259  0.48394216  0.51984626
Direct configuration=    24
  -0.00041493 -0.00055528  0.00394764
   0.49928461  0.49960170  0.00386677
  -0.00044125  0.49948508  0.06669627
   0.49954912 -0.00041893  0.06668617
  -0.00043227 -0.00014843  0.12953931
   0.49939418  0.49930137  0.12957368
  -0.00077704  0.49935244  0.19137135
   0.49879316 -0.00101929  0.19129777
  -0.00504937 -0.00066295  0.25112624
   0.49974923  0.49555262  0.25125650
  -0.00805353  0.49212351  0.31331612
   0.49210681 -0.00586120  0.31345076
  -0.01895999 -0.01377005  0.37549206
   0.48239777  0.48663834  0.37560937
  -0.02576350  0.48095520  0.43892260
   0.47065399 -0.01755378  0.43606194
   0.85264715  0.30732888  0.51101903
   0.76531587  0.48516038  0.52072325
Direct configuration=    25
  -0.00046116 -0.00061191  0.00396491
   0.49929306  0.49961651  0.00388567
  -0.00046626  0.49952858  0.06673447
   0.49951102 -0.00048749  0.06671466
  -0.00055521 -0.00021742  0.12949853
   0.49936286  0.49924623  0.12951624
  -0.00074657  0.49933083  0.19126319
   0.49840359 -0.00135774  0.19119561
  -0.00490823 -0.00144932  0.25111651
   0.49886799  0.49577029  0.25118895
  -0.00889353  0.49165982  0.31316500
   0.49154431 -0.00626147  0.31319962
  -0.01967214 -0.01408984  0.37542294
   0.48162246  0.48630701  0.37545893
  -0.02598543  0.48112332  0.43857440
   0.47033723 -0.01792906  0.43612561
   0.85609188  0.30941670  0.51150270
   0.76665413  0.48591461  0.52142890
Direct configuration=    26
  -0.00059985 -0.00078182  0.00401673
   0.49931843  0.49966094  0.00394235
  -0.00054126  0.49965908  0.06684905
   0.49939670 -0.00069317  0.06680014
  -0.00092405 -0.00042439  0.12937619
   0.49926893  0.49908080  0.12934390
  -0.00065516  0.49926601  0.19093869
   0.49723486 -0.00237309  0.19088912
  -0.00448481 -0.00380844  0.25108731
   0.49622427  0.49642330  0.25098631
  -0.01141354  0.49026873  0.31271164
   0.48985683 -0.00746226  0.31244620
  -0.02180858 -0.01504920  0.37521556
   0.47929654  0.48531299  0.37500764
  -0.02665124  0.48162765  0.43752982
   0.46938695 -0.01905492  0.43631665
   0.86642608  0.31568013  0.51295368
   0.77066888  0.48817729  0.52354587
Direct configuration=    27
  -0.00087723 -0.00112163  0.00412037
   0.49936917  0.49974979  0.00405570
  -0.00069127  0.49992008  0.06707822
   0.49916807 -0.00110453  0.06697109
  -0.00166171 -0.00083833  0.12913152
   0.49908105  0.49874994  0.12899923
  -0.00047234  0.49913636  0.19028970
   0.49489742 -0.00440378  0.19027616
  -0.00363797 -0.00852669  0.25102891
   0.49093684  0.49772932  0.25058103
  -0.01645356  0.48748655  0.31180491
   0.48648187 -0.00986386  0.31093936
  -0.02608146 -0.01696792  0.37480079
   0.47464468  0.48332497  0.37410504
  -0.02798285  0.48263633  0.43544065
   0.46748640 -0.02130663  0.43669871
   0.88709448  0.32820700  0.51585566
   0.77869840  0.49270265  0.52777980
Direct configuration=    28
  -0.00069254 -0.00089536  0.00405136
   0.49933539  0.49969063  0.00398022
  -0.00059138  0.49974629  0.06692563
   0.49932031 -0.00083062  0.06685726
  -0.00117053 -0.00056270  0.12929444
   0.49920615  0.49897025  0.12922873
  -0.00059407  0.49922269  0.19072184
   0.49645383 -0.00305162  0.19068431
  -0.00420184 -0.00538501  0.25106780
   0.49445752  0.49685969  0.25085089
  -0.01309762  0.48933909  0.31240866
   0.48872912 -0.00826474  0.31194270
  -0.02323632 -0.01569032  0.37507697
   0.47774216  0.48464871  0.37470604
  -0.02709618  0.48196469  0.43683174
   0.46875190 -0.01980731  0.43644431
   0.87333224  0.31986587  0.51392335
   0.77335188  0.48968940  0.52496060
Direct configuration=    29
  -0.00074465 -0.00087958  0.00405356
   0.49934664  0.49963701  0.00399184
  -0.00064805  0.49970382  0.06690775
   0.49926630 -0.00083948  0.06683549
  -0.00141322 -0.00067112  0.12917323
   0.49915733  0.49881654  0.12909992
  -0.00118871  0.49869070  0.19053435
   0.49635199 -0.00313491  0.19050459
  -0.00446898 -0.00614794  0.25104977
   0.49340055  0.49669868  0.25079015
  -0.01409004  0.48900285  0.31231601
   0.48782595 -0.00891010  0.31177785
  -0.02393703 -0.01601473  0.37494873
   0.47682741  0.48431717  0.37452264
  -0.02729951  0.48224731  0.43644831
   0.46884664 -0.02005426  0.43649903
   0.87636642  0.32452954  0.51471714
   0.77640095  0.48851815  0.52578648
Direct configuration=    30
  -0.00075957 -0.00087506  0.00405419
   0.49934987  0.49962165  0.00399517
  -0.00066428  0.49969165  0.06690263
   0.49925083 -0.00084202  0.06682925
  -0.00148272 -0.00070217  0.12913851
   0.49914334  0.49877251  0.12906302
  -0.00135902  0.49853834  0.19048065
   0.49632282 -0.00315876  0.19045311
  -0.00454549 -0.00636646  0.25104461
   0.49309783  0.49665256  0.25077275
  -0.01437427  0.48890655  0.31228947
   0.48756727 -0.00909493  0.31173063
  -0.02413772 -0.01610765  0.37491201
   0.47656542  0.48422221  0.37447011
  -0.02735774  0.48232825  0.43633849
   0.46887377 -0.02012499  0.43651470
   0.87723543  0.32586525  0.51494449
   0.77727423  0.48818269  0.52602302
Direct configuration=    31
  -0.00078942 -0.00086602  0.00405544
   0.49935632  0.49959094  0.00400183
  -0.00069675  0.49966733  0.06689240
   0.49921990 -0.00084710  0.06681678
  -0.00162174 -0.00076428  0.12906908
   0.49911538  0.49868447  0.12898924
  -0.00169963  0.49823361  0.19037326
   0.49626449 -0.00320647  0.19035017
  -0.00469851 -0.00680348  0.25103429
   0.49249238  0.49656032  0.25073795
  -0.01494275  0.48871395  0.31223640
   0.48704992 -0.00946460  0.31163620
  -0.02453910 -0.01629348  0.37483856
   0.47604143  0.48403230  0.37436506
  -0.02747421  0.48249013  0.43611886
   0.46892804 -0.02026645  0.43654604
   0.87897346  0.32853667  0.51539919
   0.77902079  0.48751178  0.52649610
Direct configuration=    32
  -0.00076548 -0.00087327  0.00405443
   0.49935114  0.49961558  0.00399649
  -0.00067070  0.49968684  0.06690061
   0.49924471 -0.00084303  0.06682678
  -0.00151022 -0.00071446  0.12912478
   0.49913781  0.49875510  0.12904843
  -0.00142638  0.49847807  0.19045941
   0.49631129 -0.00316820  0.19043275
  -0.00457575 -0.00645289  0.25104257
   0.49297809  0.49663432  0.25076587
  -0.01448671  0.48886846  0.31227897
   0.48746495 -0.00916804  0.31171196
  -0.02421710 -0.01614440  0.37489748
   0.47646178  0.48418465  0.37444934
  -0.02738078  0.48236026  0.43629505
   0.46888451 -0.02015297  0.43652090
   0.87757917  0.32639359  0.51503442
   0.77761966  0.48805000  0.52611659
Direct configuration=    33
  -0.00080570 -0.00078689  0.00402759
   0.49933073  0.49950888  0.00398247
  -0.00074044  0.49955715  0.06679352
   0.49916543 -0.00079544  0.06672807
  -0.00172273 -0.00085533  0.12896731
   0.49900351  0.49859195  0.12890323
  -0.00243106  0.49766932  0.19031295
   0.49656366 -0.00292078  0.19029148
  -0.00537249 -0.00660448  0.25097620
   0.49246107  0.49595997  0.25072080
  -0.01510017  0.48882546  0.31232327
   0.48672968 -0.00963428  0.31179042
  -0.02445490 -0.01622940  0.37476533
   0.47600188  0.48402354  0.37434978
  -0.02744645  0.48249895  0.43611758
   0.46937376 -0.02001928  0.43650115
   0.88035191  0.32831598  0.51555633
   0.77909232  0.48840432  0.52684934
Direct configuration=    34
  -0.00092639 -0.00052773  0.00394704
   0.49926951  0.49918878  0.00394040
  -0.00094966  0.49916807  0.06647227
   0.49892760 -0.00065267  0.06643195
  -0.00236027 -0.00127796  0.12849491
   0.49860060  0.49810249  0.12846763
  -0.00544510  0.49524309  0.18987356
   0.49732076 -0.00217854  0.18986766
  -0.00776272 -0.00705926  0.25077709
   0.49091001  0.49393693  0.25058561
  -0.01694057  0.48869646  0.31245616
   0.48452388 -0.01103300  0.31202582
  -0.02516830 -0.01648441  0.37436888
   0.47462217  0.48354021  0.37405110
  -0.02764347  0.48291500  0.43558516
   0.47084152 -0.01961822  0.43644192
   0.88867012  0.33408313  0.51712206
   0.78351031  0.48946727  0.52904761
Direct configuration=    35
  -0.00116775 -0.00000943  0.00378596
   0.49914705  0.49854859  0.00385627
  -0.00136809  0.49838992  0.06582976
   0.49845192 -0.00036713  0.06583969
  -0.00363536 -0.00212321  0.12755011
   0.49779477  0.49712359  0.12759644
  -0.01147318  0.49039061  0.18899478
   0.49883498 -0.00069405  0.18902003
  -0.01254316 -0.00796883  0.25037887
   0.48780789  0.48989085  0.25031522
  -0.02062137  0.48843846  0.31272194
   0.48011228 -0.01383044  0.31249663
  -0.02659509 -0.01699444  0.37357599
   0.47186274  0.48257355  0.37345375
  -0.02803752  0.48374710  0.43452031
   0.47377705 -0.01881610  0.43632344
   0.90530655  0.34561743  0.52025351
   0.79234627  0.49159317  0.53344413
Direct configuration=    36
  -0.00101018 -0.00034780  0.00389112
   0.49922700  0.49896653  0.00391119
  -0.00109492  0.49889793  0.06624922
   0.49876246 -0.00055354  0.06622634
  -0.00280293 -0.00157140  0.12816691
   0.49832085  0.49776266  0.12816519
  -0.00753782  0.49355850  0.18956848
   0.49784644 -0.00166318  0.18957340
  -0.00942230 -0.00737503  0.25063884
   0.48983307  0.49253229  0.25049174
  -0.01821840  0.48860689  0.31254843
   0.48299235 -0.01200416  0.31218927
  -0.02566362 -0.01666147  0.37409362
   0.47366420  0.48320463  0.37384373
  -0.02778027  0.48320387  0.43521548
   0.47186063 -0.01933975  0.43640079
   0.89444564  0.33808739  0.51820917
   0.78657781  0.49020530  0.53057391
Direct configuration=    37
  -0.00104174 -0.00043328  0.00371584
   0.49913980  0.49900926  0.00374735
  -0.00120890  0.49888956  0.06594840
   0.49850141 -0.00087460  0.06594306
  -0.00244085 -0.00252177  0.12793613
   0.49715538  0.49808611  0.12795280
  -0.00754267  0.49385507  0.18947812
   0.49631922 -0.00295011  0.18945033
  -0.01033450 -0.00795068  0.25050286
   0.48857345  0.49205626  0.25042731
  -0.01910438  0.48832126  0.31242248
   0.48171812 -0.01250134  0.31219894
  -0.02537416 -0.01626579  0.37410291
   0.47386050  0.48319198  0.37396985
  -0.02749792  0.48310081  0.43523684
   0.47242630 -0.01871193  0.43619869
   0.89827778  0.34029063  0.51898222
   0.78857314  0.49091821  0.53174271
Direct configuration=    38
  -0.00107614 -0.00052645  0.00352478
   0.49904476  0.49905584  0.00356877
  -0.00133314  0.49888045  0.06562051
   0.49821686 -0.00122457  0.06563429
  -0.00204617 -0.00355771  0.12768458
   0.49588499  0.49843869  0.12772128
  -0.00754796  0.49417834  0.18937962
   0.49465450 -0.00435289  0.18931618
  -0.01132882 -0.00857816  0.25035464
   0.48720044  0.49153738  0.25035707
  -0.02007011  0.48800991  0.31228518
   0.48032917 -0.01304328  0.31220949
  -0.02505863 -0.01583449  0.37411303
   0.47407448  0.48317820  0.37410733
  -0.02719014  0.48298846  0.43526011
   0.47304290 -0.01802759  0.43597839
   0.90245491  0.34269222  0.51982486
   0.79074811  0.49169531  0.53301673
Direct configuration=    39
  -0.00114493 -0.00071280  0.00314266
   0.49885467  0.49914900  0.00321159
  -0.00158163  0.49886222  0.06496472
   0.49764776 -0.00192451  0.06501673
  -0.00125682 -0.00562957  0.12718147
   0.49334420  0.49914384  0.12725826
  -0.00755855  0.49482489  0.18918262
   0.49132506 -0.00715846  0.18904788
  -0.01331746 -0.00983312  0.25005819
   0.48445440  0.49049961  0.25021660
  -0.02200158  0.48738721  0.31201059
   0.47755127 -0.01412716  0.31223058
  -0.02442758 -0.01497187  0.37413328
   0.47450243  0.48315063  0.37438228
  -0.02657459  0.48276378  0.43530666
   0.47427611 -0.01665891  0.43553780
   0.91080918  0.34749539  0.52151015
   0.79509805  0.49324950  0.53556477
Direct configuration=    40
  -0.00110592 -0.00060712  0.00335935
   0.49896247  0.49909617  0.00341414
  -0.00144072  0.49887255  0.06533660
   0.49797048 -0.00152760  0.06536693
  -0.00170444 -0.00445467  0.12746677
   0.49478502  0.49874396  0.12752083
  -0.00755255  0.49445825  0.18929433
   0.49321311 -0.00556749  0.18920002
  -0.01218975 -0.00912146  0.25022630
   0.48601161  0.49108810  0.25029626
  -0.02090629  0.48774033  0.31216631
   0.47912655 -0.01351252  0.31221862
  -0.02478544 -0.01546104  0.37412180
   0.47425975  0.48316626  0.37422636
  -0.02692366  0.48289119  0.43528027
   0.47357679 -0.01743506  0.43578765
   0.90607167  0.34477163  0.52055446
   0.79263130  0.49236815  0.53411984
Direct configuration=    41
  -0.00114087 -0.00067332  0.00322031
   0.49891346  0.49911565  0.00327754
  -0.00161833  0.49877386  0.06516472
   0.49790264 -0.00164871  0.06520155
  -0.00177668 -0.00477619  0.12734879
   0.49433005  0.49867896  0.12740775
  -0.00763781  0.49455677  0.18924800
   0.49240289 -0.00620004  0.18914407
  -0.01279450 -0.00938391  0.25015908
   0.48538563  0.49081642  0.25025836
  -0.02135882  0.48754885  0.31208891
   0.47856063 -0.01369661  0.31220045
  -0.02460486 -0.01527370  0.37413715
   0.47447458  0.48325746  0.37429094
  -0.02669337  0.48287508  0.43536602
   0.47382302 -0.01711767  0.43569639
   0.90737018  0.34686172  0.52106415
   0.79446217  0.49179502  0.53468264
Direct configuration=    42
  -0.00118774 -0.00076209  0.00303385
   0.49884774  0.49914177  0.00309437
  -0.00185652  0.49864150  0.06493422
   0.49781167 -0.00181113  0.06497978
  -0.00187356 -0.00520736  0.12719058
   0.49371993  0.49859178  0.12725611
  -0.00775216  0.49468890  0.18918586
   0.49131639 -0.00704828  0.18906904
  -0.01360547 -0.00973585  0.25006894
   0.48454620  0.49045209  0.25020755
  -0.02196567  0.48729208  0.31198511
   0.47780173 -0.01394348  0.31217609
  -0.02436271 -0.01502248  0.37415773
   0.47476266  0.48337975  0.37437754
  -0.02638456  0.48285347  0.43548103