    7    7  800    2
  0.2247639E+02  0.2566798E-09  0.2566798E-09  0.2757469E-08  0.5000000E-15
  1.000000000000000E-004
  CAR 
 unknown system                          
     77      3     52
 
  0.0000000E+00  0.0000000E+00  0.0000000E+00  0.1111111E+00
      1         -7.764938       -7.764937   1.000000   1.000000
      2         -7.120807       -7.120806   1.000000   1.000000
      3         -6.229675       -6.229674   1.000000   1.000000
      4         -5.189962       -5.189961   1.000000   1.000000
      5         -4.212865       -4.212864   1.000000   1.000000
      6         -3.545125       -3.545124   1.000000   1.000000
      7         -3.458381       -3.458381   1.000000   1.000000
      8         -1.682176       -1.682175   1.000000   1.000000
      9         -1.613834       -1.613834   1.000000   1.000000
     10         -1.570734       -1.570734   1.000000   1.000000
     11         -1.570731       -1.570731   1.000000   1.000000
     12         -1.551149       -1.551149   1.000000   1.000000
     13         -1.551147       -1.551147   1.000000   1.000000
     14         -1.463466       -1.463466   1.000000   1.000000
     15         -1.454180       -1.454180   1.000000   1.000000
     16         -1.454176       -1.454176   1.000000   1.000000
     17         -1.361200       -1.361200   1.000000   1.000000
     18         -1.361197       -1.361197   1.000000   1.000000
     19         -1.263952       -1.263952   1.000000   1.000000
     20         -1.263948       -1.263948   1.000000   1.000000
     21         -1.140303       -1.140302   1.000000   1.000000
     22         -0.883246       -0.883245   1.000000   1.000000
     23         -0.837278       -0.837278   1.000000   1.000000
     24         -0.837277       -0.837277   1.000000   1.000000
     25         -0.736099       -0.736098   1.000000   1.000000
     26         -0.736096       -0.736096   1.000000   1.000000
     27         -0.712069       -0.712068   1.000000   1.000000
     28         -0.712068       -0.712068   1.000000   1.000000
     29         -0.557159       -0.557159   1.000000   1.000000
     30         -0.557158       -0.557158   1.000000   1.000000
     31         -0.375373       -0.375373   1.000000   1.000000
     32         -0.375370       -0.375370   1.000000   1.000000
     33         -0.360910       -0.360909   1.000000   1.000000
     34         -0.265956       -0.265955   1.000000   1.000000
     35         -0.265954       -0.265954   1.000000   1.000000
     36         -0.170846       -0.170845   1.000000   1.000000
     37         -0.170845       -0.170845   1.000000   1.000000
     38          0.259023        0.259023   1.000000   1.000000
     39          0.259026        0.259026   1.000000   1.000000
     40          0.353926        0.353926   1.000000   1.000000
     41          0.353927        0.353928   1.000000   1.000000
     42          1.154834        1.154837   1.021955   1.021956
     43          1.511618        1.511622   0.366647   0.366634
     44          5.973156        5.973594  -0.000000  -0.000000
     45          6.307454        6.307801  -0.000000  -0.000000
     46          6.831345        6.832252  -0.000000  -0.000000
     47          7.875179        7.875951   0.000000   0.000000
     48          8.346016        8.346782   0.000000   0.000000
     49         10.174319       10.174915   0.000000   0.000000
     50         10.390705       10.391299   0.000000   0.000000
     51         12.950704       12.951319   0.000000   0.000000
     52         13.025983       13.026473   0.000000   0.000000
 
  0.3333333E+00  0.0000000E+00  0.0000000E+00  0.6666667E+00
      1         -4.689452       -4.689451   1.000000   1.000000
      2         -4.246833       -4.246832   1.000000   1.000000
      3         -3.739791       -3.739790   1.000000   1.000000
      4         -3.268227       -3.268226   1.000000   1.000000
      5         -2.887793       -2.887793   1.000000   1.000000
      6         -2.708002       -2.708002   1.000000   1.000000
      7         -2.554703       -2.554703   1.000000   1.000000
      8         -2.497574       -2.497573   1.000000   1.000000
      9         -2.277086       -2.277086   1.000000   1.000000
     10         -2.033485       -2.033485   1.000000   1.000000
     11         -1.874895       -1.874895   1.000000   1.000000
     12         -1.688228       -1.688228   1.000000   1.000000
     13         -1.606663       -1.606662   1.000000   1.000000
     14         -1.515176       -1.515176   1.000000   1.000000
     15         -1.505246       -1.505246   1.000000   1.000000
     16         -1.397873       -1.397873   1.000000   1.000000
     17         -1.282968       -1.282968   1.000000   1.000000
     18         -1.264040       -1.264040   1.000000   1.000000
     19         -1.099586       -1.099585   1.000000   1.000000
     20         -0.937945       -0.937944   1.000000   1.000000
     21         -0.906962       -0.906962   1.000000   1.000000
     22         -0.694416       -0.694416   1.000000   1.000000
     23         -0.670018       -0.670018   1.000000   1.000000
     24         -0.507082       -0.507082   1.000000   1.000000
     25         -0.482021       -0.482020   1.000000   1.000000
     26         -0.462303       -0.462303   1.000000   1.000000
     27         -0.399156       -0.399156   1.000000   1.000000
     28         -0.391846       -0.391846   1.000000   1.000000
     29         -0.326596       -0.326596   1.000000   1.000000
     30         -0.253224       -0.253223   1.000000   1.000000
     31         -0.247101       -0.247101   1.000000   1.000000
     32         -0.148817       -0.148817   1.000000   1.000000
     33         -0.068061       -0.068061   1.000000   1.000000
     34          0.018484        0.018484   1.000000   1.000000
     35          0.198395        0.198396   1.000000   1.000000
     36          0.270650        0.270650   1.000000   1.000000
     37          0.385099        0.385099   1.000000   1.000000
     38          0.500798        0.500798   1.000000   1.000000
     39          0.544231        0.544232   1.000000   1.000000
     40          1.633276        1.633277   0.018568   0.018567
     41          3.088858        3.088859  -0.000000  -0.000000
     42          4.824968        4.824970  -0.000000  -0.000000
     43          6.272414        6.272418  -0.000000  -0.000000
     44          8.021086        8.021096   0.000000   0.000000
     45          8.523999        8.524029   0.000000   0.000000
     46          9.106144        9.106229   0.000000   0.000000
     47          9.657656        9.657962   0.000000   0.000000
     48          9.882567        9.883412   0.000000   0.000000
     49         10.321557       10.321858   0.000000   0.000000
     50         10.966207       10.966366   0.000000   0.000000
     51         11.186940       11.187705   0.000000   0.000000
     52         11.541652       11.542208   0.000000   0.000000
 
 -0.3333333E+00  0.3333333E+00  0.0000000E+00  0.2222222E+00
      1         -2.637135       -2.637134   1.000000   1.000000
      2         -2.606298       -2.606297   1.000000   1.000000
      3         -2.597997       -2.597997   1.000000   1.000000
      4         -2.504167       -2.504166   1.000000   1.000000
      5         -2.501701       -2.501700   1.000000   1.000000
      6         -2.443352       -2.443352   1.000000   1.000000
      7         -2.412189       -2.412189   1.000000   1.000000
      8         -2.399573       -2.399573   1.000000   1.000000
      9         -2.335549       -2.335549   1.000000   1.000000
     10         -2.148020       -2.148020   1.000000   1.000000
     11         -2.047860       -2.047859   1.000000   1.000000
     12         -1.913628       -1.913627   1.000000   1.000000
     13         -1.875091       -1.875091   1.000000   1.000000
     14         -1.741155       -1.741155   1.000000   1.000000
     15         -1.732667       -1.732666   1.000000   1.000000
     16         -1.695124       -1.695124   1.000000   1.000000
     17         -1.383357       -1.383357   1.000000   1.000000
     18         -1.227717       -1.227716   1.000000   1.000000
     19         -0.779423       -0.779423   1.000000   1.000000
     20         -0.777819       -0.777819   1.000000   1.000000
     21         -0.750418       -0.750417   1.000000   1.000000
     22         -0.722388       -0.722388   1.000000   1.000000
     23         -0.702767       -0.702766   1.000000   1.000000
     24         -0.691227       -0.691227   1.000000   1.000000
     25         -0.598773       -0.598773   1.000000   1.000000
     26         -0.572991       -0.572991   1.000000   1.000000
     27         -0.342296       -0.342296   1.000000   1.000000
     28         -0.311952       -0.311952   1.000000   1.000000
     29         -0.260108       -0.260108   1.000000   1.000000
     30         -0.126019       -0.126019   1.000000   1.000000
     31         -0.111444       -0.111444   1.000000   1.000000
     32          0.011225        0.011225   1.000000   1.000000
     33          0.048100        0.048100   1.000000   1.000000
     34          0.159440        0.159440   1.000000   1.000000
     35          0.231568        0.231568   1.000000   1.000000
     36          4.713301        4.713302  -0.000000  -0.000000
     37          4.718060        4.718061  -0.000000  -0.000000
     38          4.761612        4.761613  -0.000000  -0.000000
     39          4.981078        4.981078  -0.000000  -0.000000
     40          5.300604        5.300605  -0.000000  -0.000000
     41          5.395928        5.395928  -0.000000  -0.000000
     42          6.137585        6.137587  -0.000000  -0.000000
     43          6.247146        6.247146  -0.000000  -0.000000
     44          6.617085        6.617085  -0.000000  -0.000000
     45          6.932916        6.932917  -0.000000  -0.000000
     46          6.955636        6.955636   0.000000   0.000000
     47          7.177765        7.177766   0.000000   0.000000
     48          8.168732        8.168732   0.000000   0.000000
     49          8.190738        8.190740   0.000000   0.000000
     50          9.485155        9.485157   0.000000   0.000000
     51          9.778411        9.778414   0.000000   0.000000
     52         10.772967       10.772968   0.000000   0.000000
