unknown system                          
           1
     2.566798    0.000000    0.000000
     1.283399    2.222912    0.000000
     0.000000    0.000000   27.574689
   Cu
     7
Direct configuration=     1
   0.00000000  0.00000000  0.00000000
   0.33333333  0.33333333  0.07600381
   0.66666667  0.66666667  0.15200763
   0.00000000  0.00000000  0.22801144
   0.33333333  0.33333333  0.30401525
   0.66666667  0.66666667  0.38001907
   0.00000000  0.00000000  0.45602288
Direct configuration=     2
   0.00000000  0.00000000  0.00000000
   0.33333333  0.33333333  0.07600381
   0.66666667  0.66666667  0.15213784
   0.00000000  0.00000000  0.22801449
   0.33333333  0.33333333  0.30387786
   0.66666667  0.66666667  0.38038550
  -0.00000000  0.00000000  0.45515346
Direct configuration=     3
   0.00000000  0.00000000  0.00000000
   0.33333333  0.33333333  0.07600381
   0.66666667  0.66666667  0.15234366
   0.00000000  0.00000000  0.22801931
   0.33333333  0.33333333  0.30366068
   0.66666667  0.66666667  0.38096469
  -0.00000000  0.00000000  0.45377921
Direct configuration=     4
   0.00000000  0.00000000  0.00000000
   0.33333333  0.33333333  0.07600381
   0.66666667  0.66666667  0.15245149
   0.00000000  0.00000000  0.22803933
   0.33333333  0.33333333  0.30373082
   0.66666667  0.66666667  0.38046187
  -0.00000000  0.00000000  0.45307899
Direct configuration=     5
   0.00000000  0.00000000  0.00000000
   0.33333333  0.33333333  0.07600381
   0.66666667  0.66666667  0.15277499
   0.00000000  0.00000000  0.22809942
   0.33333333  0.33333333  0.30394122
   0.66666667  0.66666667  0.37895339
   0.00000000  0.00000000  0.45097831
Direct configuration=     6
   0.00000000  0.00000000  0.00000000
   0.33333333  0.33333333  0.07600381
   0.66666667  0.66666667  0.15287120
   0.00000000  0.00000000  0.22811729
   0.33333333  0.33333333  0.30400380
   0.66666667  0.66666667  0.37850473
   0.00000000  0.00000000  0.45035351
Direct configuration=     7
   0.00000000  0.00000000  0.00000000
   0.33333333  0.33333333  0.07600381
   0.66666667  0.66666667  0.15273283
   0.00000000  0.00000000  0.22829383
   0.33333333  0.33333333  0.30336295
   0.66666667  0.66666667  0.37752305
   0.00000000  0.00000000  0.44989867
Direct configuration=     8
   0.00000000  0.00000000  0.00000000
   0.33333333  0.33333333  0.07600381
   0.66666667  0.66666667  0.15255098
   0.00000000  0.00000000  0.22852585
   0.33333333  0.33333333  0.30252073
   0.66666667  0.66666667  0.37623288
   0.00000000  0.00000000  0.44930089
Direct configuration=     9
   0.00000000  0.00000000  0.00000000
   0.33333333  0.33333333  0.07600381
   0.66666667  0.66666667  0.15244206
   0.00000000  0.00000000  0.22799588
   0.33333333  0.33333333  0.30155432
   0.66666667  0.66666667  0.37561019
   0.00000000  0.00000000  0.44862453
Direct configuration=    10
   0.00000000  0.00000000  0.00000000
   0.33333333  0.33333333  0.07600381
   0.66666667  0.66666667  0.15214004
   0.00000000  0.00000000  0.22652630
   0.33333333  0.33333333  0.29887455
   0.66666667  0.66666667  0.37388351
   0.00000000 -0.00000000  0.44674903
Direct configuration=    11
   0.00000000  0.00000000  0.00000000
   0.33333333  0.33333333  0.07600381
   0.66666667  0.66666667  0.15185939
   0.00000000  0.00000000  0.22574174
   0.33333333  0.33333333  0.29850767
   0.66666667  0.66666667  0.37333773
   0.00000000 -0.00000000  0.44614004
Direct configuration=    12
   0.00000000  0.00000000  0.00000000
   0.33333333  0.33333333  0.07600381
   0.66666667  0.66666667  0.15115922
   0.00000000 -0.00000000  0.22378446
   0.33333333  0.33333333  0.29759237
   0.66666667  0.66666667  0.37197613
   0.00000000 -0.00000000  0.44462077
Direct configuration=    13
   0.00000000  0.00000000  0.00000000
   0.33333333  0.33333333  0.07600381
   0.66666667  0.66666667  0.15042903
   0.00000000 -0.00000000  0.22350992
   0.33333333  0.33333333  0.29733607
   0.66666667  0.66666667  0.37149220
   0.00000000 -0.00000000  0.44408157
Direct configuration=    14
   0.00000000  0.00000000  0.00000000
   0.33333333  0.33333333  0.07600381
   0.66666667  0.66666667  0.14987758
   0.00000000 -0.00000000  0.22330258
   0.33333333  0.33333333  0.29714251
   0.66666667  0.66666667  0.37112673
   0.00000000 -0.00000000  0.44367435
Direct configuration=    15
   0.00000000  0.00000000  0.00000000
   0.33333333  0.33333333  0.07600381
   0.66666667  0.66666667  0.14982462
   0.00000000 -0.00000000  0.22328267
   0.33333333  0.33333333  0.29712392
   0.66666667  0.66666667  0.37109163
   0.00000000 -0.00000000  0.44363524
Direct configuration=    16
   0.00000000  0.00000000  0.00000000
   0.33333333  0.33333333  0.07600381
   0.66666667  0.66666667  0.14983583
   0.00000000 -0.00000000  0.22328689
   0.33333333  0.33333333  0.29712786
   0.66666667  0.66666667  0.37109906
   0.00000000 -0.00000000  0.44364352
Direct configuration=    17
   0.00000000  0.00000000  0.00000000
   0.33333333  0.33333333  0.07600381
   0.66666667  0.66666667  0.14982500
   0.00000000 -0.00000000  0.22328281
   0.33333333  0.33333333  0.29712405
   0.66666667  0.66666667  0.37109188
   0.00000000 -0.00000000  0.44363552
Direct configuration=    18
   0.00000000  0.00000000  0.00000000
   0.33333333  0.33333333  0.07600381
   0.66666667  0.66666667  0.14983041
   0.00000000 -0.00000000  0.22328485
   0.33333333  0.33333333  0.29712595
   0.66666667  0.66666667  0.37109547
   0.00000000 -0.00000000  0.44363952
Direct configuration=    19
   0.00000000  0.00000000  0.00000000
   0.33333333  0.33333333  0.07600381
   0.66666667  0.66666667  0.14982615
   0.00000000 -0.00000000  0.22328325
   0.33333333  0.33333333  0.29712446
   0.66666667  0.66666667  0.37109264
   0.00000000 -0.00000000  0.44363637
Direct configuration=    20
   0.00000000  0.00000000  0.00000000
   0.33333333  0.33333333  0.07600381
   0.66666667  0.66666667  0.14982828
   0.00000000 -0.00000000  0.22328405
   0.33333333  0.33333333  0.29712521
   0.66666667  0.66666667  0.37109405
   0.00000000 -0.00000000  0.44363795
Direct configuration=    21
   0.00000000  0.00000000  0.00000000
   0.33333333  0.33333333  0.07600381
   0.66666667  0.66666667  0.14982703
   0.00000000 -0.00000000  0.22328358
   0.33333333  0.33333333  0.29712477
   0.66666667  0.66666667  0.37109322
   0.00000000 -0.00000000  0.44363703
Direct configuration=    22
   0.00000000  0.00000000  0.00000000
   0.33333333  0.33333333  0.07600381
   0.66666667  0.66666667  0.14985098
   0.00000000 -0.00000000  0.22339818
   0.33333333  0.33333333  0.29701782
   0.66666667  0.66666667  0.37111345
   0.00000000 -0.00000000  0.44360826
