  10  10   0   0
  0.1692928E+02  0.2566798E-09  0.2566798E-09  0.2967047E-08  0.5000000E-15
  1.000000000000000E-004
  CAR 
 unknown system                          
     18.24100560     -8.78779791  301      2.05767389      1.00000000
     -8.788  0.0000E+00  0.0000E+00  0.0000E+00  0.0000E+00
     -8.698  0.0000E+00  0.0000E+00  0.0000E+00  0.0000E+00
     -8.608  0.0000E+00  0.0000E+00  0.0000E+00  0.0000E+00
     -8.518  0.0000E+00  0.0000E+00  0.0000E+00  0.0000E+00
     -8.427 -0.2311E-31 -0.2311E-31 -0.2082E-32 -0.2082E-32
     -8.337 -0.2874E-28 -0.2874E-28 -0.2592E-29 -0.2592E-29
     -8.247 -0.2375E-25 -0.2375E-25 -0.2142E-26 -0.2143E-26
     -8.157 -0.1303E-22 -0.1303E-22 -0.1176E-23 -0.1176E-23
     -8.067 -0.4739E-20 -0.4739E-20 -0.4282E-21 -0.4282E-21
     -7.977 -0.1143E-17 -0.1143E-17 -0.1034E-18 -0.1034E-18
     -7.887 -0.1765E-15 -0.1765E-15 -0.1600E-16 -0.1600E-16
     -7.797 -0.1851E-13 -0.1851E-13 -0.1684E-14 -0.1684E-14
     -7.707 -0.1279E-11 -0.1279E-11 -0.1170E-12 -0.1170E-12
     -7.617 -0.5803E-10 -0.5803E-10 -0.5345E-11 -0.5345E-11
     -7.526 -0.1719E-08 -0.1719E-08 -0.1602E-09 -0.1602E-09
     -7.436 -0.3296E-07 -0.3296E-07 -0.3130E-08 -0.3130E-08
     -7.346 -0.4038E-06 -0.4038E-06 -0.3951E-07 -0.3951E-07
     -7.256 -0.3075E-05 -0.3075E-05 -0.3166E-06 -0.3166E-06
     -7.166 -0.1371E-04 -0.1371E-04 -0.1552E-05 -0.1552E-05
     -7.076 -0.2934E-04 -0.2934E-04 -0.4195E-05 -0.4195E-05
     -6.986  0.9013E-05  0.9013E-05 -0.3383E-05 -0.3383E-05
     -6.896  0.2020E-03  0.2020E-03  0.1481E-04  0.1481E-04
     -6.806  0.4739E-03  0.4739E-03  0.5751E-04  0.5751E-04
     -6.716  0.5258E-03  0.5258E-03  0.1049E-03  0.1049E-03
     -6.625  0.3257E-03  0.3257E-03  0.1342E-03  0.1342E-03
     -6.535  0.2540E-03  0.2540E-03  0.1571E-03  0.1571E-03
     -6.445  0.4326E-03  0.4326E-03  0.1961E-03  0.1961E-03
     -6.355  0.5095E-03  0.5095E-03  0.2420E-03  0.2420E-03
     -6.265  0.3708E-03  0.3708E-03  0.2754E-03  0.2754E-03
     -6.175  0.3532E-03  0.3532E-03  0.3072E-03  0.3072E-03
     -6.085  0.5106E-03  0.5106E-03  0.3532E-03  0.3532E-03
     -5.995  0.4858E-03  0.4858E-03  0.3970E-03  0.3970E-03
     -5.905  0.2128E-03  0.2128E-03  0.4162E-03  0.4162E-03
     -5.815  0.1139E-05  0.1139E-05  0.4163E-03  0.4163E-03
     -5.725  0.6176E-04  0.6176E-04  0.4218E-03  0.4218E-03
     -5.634  0.3462E-03  0.3462E-03  0.4530E-03  0.4530E-03
     -5.544  0.5626E-03  0.5626E-03  0.5037E-03  0.5037E-03
     -5.454  0.4533E-03  0.4533E-03  0.5446E-03  0.5446E-03
     -5.364  0.1679E-03  0.1679E-03  0.5597E-03  0.5597E-03
     -5.274 -0.3892E-05 -0.3892E-05  0.5593E-03  0.5593E-03
     -5.184 -0.3176E-04 -0.3176E-04  0.5565E-03  0.5565E-03
     -5.094 -0.2684E-04 -0.2684E-04  0.5541E-03  0.5541E-03
     -5.004 -0.3200E-04 -0.3200E-04  0.5512E-03  0.5512E-03
     -4.914  0.1953E-04  0.1953E-04  0.5529E-03  0.5529E-03
     -4.824  0.2310E-03  0.2310E-03  0.5737E-03  0.5737E-03
     -4.733  0.5068E-03  0.5068E-03  0.6194E-03  0.6194E-03
     -4.643  0.5421E-03  0.5421E-03  0.6682E-03  0.6682E-03
     -4.553  0.2829E-03  0.2829E-03  0.6937E-03  0.6937E-03
     -4.463 -0.5595E-05 -0.5595E-05  0.6932E-03  0.6932E-03
     -4.373 -0.1813E-03 -0.1813E-03  0.6769E-03  0.6769E-03
     -4.283 -0.1082E-03 -0.1082E-03  0.6671E-03  0.6671E-03
     -4.193  0.7284E-03  0.7284E-03  0.7328E-03  0.7328E-03
     -4.103  0.2352E-02  0.2352E-02  0.9447E-03  0.9447E-03
     -4.013  0.3253E-02  0.3253E-02  0.1238E-02  0.1238E-02
     -3.923  0.2445E-02  0.2445E-02  0.1458E-02  0.1458E-02
     -3.833  0.1648E-02  0.1648E-02  0.1606E-02  0.1606E-02
     -3.742  0.2459E-02  0.2459E-02  0.1828E-02  0.1828E-02
     -3.652  0.3471E-02  0.3471E-02  0.2141E-02  0.2141E-02
     -3.562  0.3158E-02  0.3158E-02  0.2425E-02  0.2425E-02
     -3.472  0.2768E-02  0.2768E-02  0.2675E-02  0.2675E-02
     -3.382  0.3147E-02  0.3147E-02  0.2958E-02  0.2958E-02
     -3.292  0.2710E-02  0.2710E-02  0.3202E-02  0.3202E-02
     -3.202  0.1270E-02  0.1270E-02  0.3317E-02  0.3317E-02
     -3.112  0.1061E-02  0.1061E-02  0.3412E-02  0.3412E-02
     -3.022  0.2714E-02  0.2714E-02  0.3657E-02  0.3657E-02
     -2.932  0.3776E-02  0.3776E-02  0.3997E-02  0.3997E-02
     -2.841  0.2515E-02  0.2515E-02  0.4224E-02  0.4224E-02
     -2.751  0.9190E-03  0.9190E-03  0.4306E-02  0.4306E-02
     -2.661  0.1762E-02  0.1762E-02  0.4465E-02  0.4465E-02
     -2.571  0.4372E-02  0.4372E-02  0.4859E-02  0.4859E-02
     -2.481  0.5258E-02  0.5258E-02  0.5333E-02  0.5333E-02
     -2.391  0.3301E-02  0.3301E-02  0.5630E-02  0.5630E-02
     -2.301  0.1546E-02  0.1546E-02  0.5769E-02  0.5769E-02
     -2.211  0.2083E-02  0.2083E-02  0.5957E-02  0.5957E-02
     -2.121  0.3009E-02  0.3009E-02  0.6228E-02  0.6228E-02
     -2.031  0.2402E-02  0.2402E-02  0.6445E-02  0.6445E-02
     -1.941  0.1640E-02  0.1640E-02  0.6592E-02  0.6592E-02
     -1.850  0.2321E-02  0.2321E-02  0.6801E-02  0.6801E-02
     -1.760  0.4075E-02  0.4075E-02  0.7169E-02  0.7169E-02
     -1.670  0.7260E-02  0.7260E-02  0.7823E-02  0.7823E-02
     -1.580  0.1254E-01  0.1254E-01  0.8952E-02  0.8952E-02
     -1.490  0.1758E-01  0.1758E-01  0.1054E-01  0.1054E-01
     -1.400  0.1842E-01  0.1842E-01  0.1220E-01  0.1220E-01
     -1.310  0.1438E-01  0.1438E-01  0.1349E-01  0.1349E-01
     -1.220  0.9636E-02  0.9636E-02  0.1436E-01  0.1436E-01
     -1.130  0.7612E-02  0.7612E-02  0.1505E-01  0.1505E-01
     -1.040  0.7257E-02  0.7257E-02  0.1570E-01  0.1570E-01
     -0.949  0.6626E-02  0.6626E-02  0.1630E-01  0.1630E-01
     -0.859  0.6281E-02  0.6281E-02  0.1686E-01  0.1686E-01
     -0.769  0.8186E-02  0.8186E-02  0.1760E-01  0.1760E-01
     -0.679  0.1213E-01  0.1213E-01  0.1869E-01  0.1869E-01
     -0.589  0.1577E-01  0.1577E-01  0.2011E-01  0.2011E-01
     -0.499  0.1873E-01  0.1873E-01  0.2180E-01  0.2180E-01
     -0.409  0.2139E-01  0.2139E-01  0.2373E-01  0.2373E-01
     -0.319  0.2139E-01  0.2139E-01  0.2565E-01  0.2565E-01
     -0.229  0.1749E-01  0.1749E-01  0.2723E-01  0.2723E-01
     -0.139  0.1285E-01  0.1285E-01  0.2839E-01  0.2839E-01
     -0.048  0.1068E-01  0.1068E-01  0.2935E-01  0.2935E-01
      0.042  0.1086E-01  0.1086E-01  0.3033E-01  0.3033E-01
      0.132  0.1233E-01  0.1233E-01  0.3144E-01  0.3144E-01
      0.222  0.1496E-01  0.1496E-01  0.3279E-01  0.3279E-01
      0.312  0.1806E-01  0.1806E-01  0.3442E-01  0.3442E-01
      0.402  0.1950E-01  0.1950E-01  0.3617E-01  0.3617E-01
      0.492  0.1936E-01  0.1936E-01  0.3792E-01  0.3792E-01
      0.582  0.2090E-01  0.2090E-01  0.3980E-01  0.3980E-01
      0.672  0.2483E-01  0.2483E-01  0.4204E-01  0.4204E-01
      0.762  0.2781E-01  0.2781E-01  0.4454E-01  0.4454E-01
      0.852  0.2695E-01  0.2695E-01  0.4697E-01  0.4697E-01
      0.943  0.2264E-01  0.2264E-01  0.4901E-01  0.4901E-01
      1.033  0.1832E-01  0.1832E-01  0.5066E-01  0.5066E-01
      1.123  0.1678E-01  0.1678E-01  0.5217E-01  0.5217E-01
      1.213  0.1599E-01  0.1599E-01  0.5361E-01  0.5361E-01
      1.303  0.1237E-01  0.1237E-01  0.5473E-01  0.5473E-01
      1.393  0.6888E-02  0.6888E-02  0.5535E-01  0.5535E-01
      1.483  0.2564E-02  0.2564E-02  0.5558E-01  0.5558E-01
      1.573  0.3040E-03  0.3040E-03  0.5561E-01  0.5561E-01
      1.663 -0.4552E-03 -0.4552E-03  0.5557E-01  0.5557E-01
      1.753 -0.3506E-03 -0.3506E-03  0.5553E-01  0.5553E-01
      1.844  0.6046E-03  0.6046E-03  0.5559E-01  0.5559E-01
      1.934  0.2398E-02  0.2398E-02  0.5580E-01  0.5580E-01
      2.024  0.3643E-02  0.3643E-02  0.5613E-01  0.5613E-01
      2.114  0.2996E-02  0.2996E-02  0.5640E-01  0.5640E-01
      2.204  0.1358E-02  0.1358E-02  0.5653E-01  0.5653E-01
      2.294  0.3925E-03  0.3925E-03  0.5656E-01  0.5656E-01
      2.384  0.3507E-03  0.3507E-03  0.5659E-01  0.5659E-01
      2.474  0.4777E-03  0.4777E-03  0.5664E-01  0.5664E-01
      2.564  0.3199E-03  0.3199E-03  0.5666E-01  0.5666E-01
      2.654  0.4661E-04  0.4661E-04  0.5667E-01  0.5667E-01
      2.744 -0.1447E-03 -0.1447E-03  0.5666E-01  0.5666E-01
      2.835 -0.1865E-03 -0.1865E-03  0.5664E-01  0.5664E-01
      2.925  0.3480E-03  0.3480E-03  0.5667E-01  0.5667E-01
      3.015  0.1862E-02  0.1862E-02  0.5684E-01  0.5684E-01
      3.105  0.3304E-02  0.3304E-02  0.5714E-01  0.5714E-01
      3.195  0.2968E-02  0.2968E-02  0.5740E-01  0.5740E-01
      3.285  0.1289E-02  0.1289E-02  0.5752E-01  0.5752E-01
      3.375  0.7972E-04  0.7972E-04  0.5753E-01  0.5753E-01
      3.465 -0.1767E-03 -0.1767E-03  0.5751E-01  0.5751E-01
      3.555 -0.8580E-04 -0.8580E-04  0.5750E-01  0.5750E-01
      3.645 -0.1967E-04 -0.1967E-04  0.5750E-01  0.5750E-01
      3.736 -0.2659E-05 -0.2659E-05  0.5750E-01  0.5750E-01
      3.826 -0.6820E-06 -0.6820E-06  0.5750E-01  0.5750E-01
      3.916 -0.4896E-05 -0.4896E-05  0.5750E-01  0.5750E-01
      4.006 -0.3161E-04 -0.3161E-04  0.5750E-01  0.5750E-01
      4.096 -0.1155E-03 -0.1155E-03  0.5749E-01  0.5749E-01
      4.186 -0.1678E-03 -0.1678E-03  0.5747E-01  0.5747E-01
      4.276  0.3104E-03  0.3104E-03  0.5750E-01  0.5750E-01
      4.366  0.1781E-02  0.1781E-02  0.5766E-01  0.5766E-01
      4.456  0.3266E-02  0.3266E-02  0.5795E-01  0.5795E-01
      4.546  0.3024E-02  0.3024E-02  0.5823E-01  0.5823E-01
      4.637  0.1367E-02  0.1367E-02  0.5835E-01  0.5835E-01
      4.727  0.1123E-03  0.1123E-03  0.5836E-01  0.5836E-01
      4.817 -0.1770E-03 -0.1770E-03  0.5834E-01  0.5834E-01
      4.907 -0.9046E-04 -0.9046E-04  0.5834E-01  0.5834E-01
      4.997 -0.2136E-04 -0.2136E-04  0.5833E-01  0.5833E-01
      5.087 -0.3019E-05 -0.3019E-05  0.5833E-01  0.5833E-01
      5.177 -0.1501E-05 -0.1501E-05  0.5833E-01  0.5833E-01
      5.267 -0.1102E-04 -0.1102E-04  0.5833E-01  0.5833E-01
      5.357 -0.5914E-04 -0.5914E-04  0.5833E-01  0.5833E-01
      5.447 -0.1778E-03 -0.1778E-03  0.5831E-01  0.5831E-01
      5.537 -0.1960E-03 -0.1960E-03  0.5829E-01  0.5829E-01
      5.628  0.4830E-03  0.4830E-03  0.5834E-01  0.5834E-01
      5.718  0.2355E-02  0.2355E-02  0.5855E-01  0.5855E-01
      5.808  0.4964E-02  0.4964E-02  0.5900E-01  0.5900E-01
      5.898  0.7022E-02  0.7022E-02  0.5963E-01  0.5963E-01
      5.988  0.6950E-02  0.6950E-02  0.6025E-01  0.6026E-01
      6.078  0.4572E-02  0.4572E-02  0.6067E-01  0.6067E-01
      6.168  0.2186E-02  0.2186E-02  0.6086E-01  0.6086E-01
      6.258  0.1424E-02  0.1424E-02  0.6099E-01  0.6099E-01
      6.348  0.1421E-02  0.1421E-02  0.6112E-01  0.6112E-01
      6.438  0.1149E-02  0.1149E-02  0.6122E-01  0.6122E-01
      6.529  0.7345E-03  0.7347E-03  0.6129E-01  0.6129E-01
      6.619  0.5053E-03  0.5054E-03  0.6134E-01  0.6134E-01
      6.709  0.4295E-03  0.4294E-03  0.6137E-01  0.6137E-01
      6.799  0.5532E-03  0.5530E-03  0.6142E-01  0.6142E-01
      6.889  0.8965E-03  0.8965E-03  0.6150E-01  0.6150E-01
      6.979  0.1544E-02  0.1544E-02  0.6164E-01  0.6164E-01
      7.069  0.2920E-02  0.2920E-02  0.6191E-01  0.6191E-01
      7.159  0.4304E-02  0.4304E-02  0.6229E-01  0.6229E-01
      7.249  0.3953E-02  0.3953E-02  0.6265E-01  0.6265E-01
      7.339  0.2097E-02  0.2098E-02  0.6284E-01  0.6284E-01
      7.429  0.6295E-03  0.6294E-03  0.6290E-01  0.6290E-01
      7.520  0.5083E-03  0.5080E-03  0.6294E-01  0.6294E-01
      7.610  0.1531E-02  0.1531E-02  0.6308E-01  0.6308E-01
      7.700  0.2685E-02  0.2685E-02  0.6332E-01  0.6332E-01
      7.790  0.2731E-02  0.2731E-02  0.6357E-01  0.6357E-01
      7.880  0.1590E-02  0.1590E-02  0.6371E-01  0.6371E-01
      7.970  0.3873E-03  0.3873E-03  0.6375E-01  0.6375E-01
      8.060  0.1575E-03  0.1575E-03  0.6376E-01  0.6376E-01
      8.150  0.1049E-02  0.1049E-02  0.6386E-01  0.6386E-01
      8.240  0.2414E-02  0.2414E-02  0.6407E-01  0.6407E-01
      8.330  0.3611E-02  0.3611E-02  0.6440E-01  0.6440E-01
      8.421  0.4281E-02  0.4281E-02  0.6478E-01  0.6478E-01
      8.511  0.3888E-02  0.3888E-02  0.6513E-01  0.6513E-01
      8.601  0.2591E-02  0.2591E-02  0.6537E-01  0.6537E-01
      8.691  0.1417E-02  0.1417E-02  0.6550E-01  0.6550E-01
      8.781  0.8086E-03  0.8088E-03  0.6557E-01  0.6557E-01
      8.871  0.8423E-03  0.8423E-03  0.6564E-01  0.6564E-01
      8.961  0.1846E-02  0.1846E-02  0.6581E-01  0.6581E-01
      9.051  0.3333E-02  0.3332E-02  0.6611E-01  0.6611E-01
      9.141  0.3773E-02  0.3773E-02  0.6645E-01  0.6645E-01
      9.231  0.2854E-02  0.2854E-02  0.6671E-01  0.6671E-01
      9.322  0.2248E-02  0.2248E-02  0.6691E-01  0.6691E-01
      9.412  0.2983E-02  0.2983E-02  0.6718E-01  0.6718E-01
      9.502  0.3773E-02  0.3773E-02  0.6752E-01  0.6752E-01
      9.592  0.3237E-02  0.3238E-02  0.6781E-01  0.6781E-01
      9.682  0.2402E-02  0.2402E-02  0.6803E-01  0.6803E-01
      9.772  0.2608E-02  0.2608E-02  0.6826E-01  0.6826E-01
      9.862  0.2813E-02  0.2813E-02  0.6852E-01  0.6852E-01
      9.952  0.1946E-02  0.1946E-02  0.6869E-01  0.6869E-01
     10.042  0.1374E-02  0.1375E-02  0.6881E-01  0.6881E-01
     10.132  0.2264E-02  0.2265E-02  0.6902E-01  0.6902E-01
     10.222  0.3058E-02  0.3058E-02  0.6929E-01  0.6929E-01
     10.313  0.2456E-02  0.2455E-02  0.6951E-01  0.6952E-01
     10.403  0.2167E-02  0.2167E-02  0.6971E-01  0.6971E-01
     10.493  0.3488E-02  0.3489E-02  0.7002E-01  0.7002E-01
     10.583  0.4419E-02  0.4419E-02  0.7042E-01  0.7042E-01
     10.673  0.3175E-02  0.3174E-02  0.7071E-01  0.7071E-01
     10.763  0.1474E-02  0.1474E-02  0.7084E-01  0.7084E-01
     10.853  0.1933E-02  0.1933E-02  0.7102E-01  0.7102E-01
     10.943  0.4044E-02  0.4044E-02  0.7138E-01  0.7138E-01
     11.033  0.4716E-02  0.4716E-02  0.7180E-01  0.7180E-01
     11.123  0.2844E-02  0.2844E-02  0.7206E-01  0.7206E-01
     11.214  0.5817E-03  0.5813E-03  0.7211E-01  0.7211E-01
     11.304 -0.3683E-03 -0.3683E-03  0.7208E-01  0.7208E-01
     11.394 -0.9525E-04 -0.9508E-04  0.7207E-01  0.7207E-01
     11.484  0.1134E-02  0.1134E-02  0.7217E-01  0.7217E-01
     11.574  0.2855E-02  0.2855E-02  0.7243E-01  0.7243E-01
     11.664  0.4079E-02  0.4079E-02  0.7280E-01  0.7280E-01
     11.754  0.4300E-02  0.4300E-02  0.7319E-01  0.7319E-01
     11.844  0.3547E-02  0.3547E-02  0.7351E-01  0.7351E-01
     11.934  0.2390E-02  0.2390E-02  0.7372E-01  0.7372E-01
     12.024  0.2186E-02  0.2187E-02  0.7392E-01  0.7392E-01
     12.114  0.2978E-02  0.2978E-02  0.7419E-01  0.7419E-01
     12.205  0.2931E-02  0.2931E-02  0.7445E-01  0.7445E-01
     12.295  0.1533E-02  0.1532E-02  0.7459E-01  0.7459E-01
     12.385  0.2409E-03  0.2405E-03  0.7461E-01  0.7461E-01
     12.475 -0.1593E-03 -0.1593E-03  0.7460E-01  0.7460E-01
     12.565 -0.1045E-03 -0.1045E-03  0.7459E-01  0.7459E-01
     12.655 -0.2855E-04 -0.2853E-04  0.7458E-01  0.7458E-01
     12.745 -0.4619E-05 -0.4615E-05  0.7458E-01  0.7458E-01
     12.835 -0.2064E-05 -0.2065E-05  0.7458E-01  0.7458E-01
     12.925 -0.1016E-04 -0.1016E-04  0.7458E-01  0.7458E-01
     13.015 -0.3581E-04 -0.3582E-04  0.7458E-01  0.7458E-01
     13.106 -0.5080E-04 -0.5079E-04  0.7457E-01  0.7457E-01
     13.196  0.9507E-04  0.9521E-04  0.7458E-01  0.7458E-01
     13.286  0.5478E-03  0.5480E-03  0.7463E-01  0.7463E-01
     13.376  0.1035E-02  0.1035E-02  0.7473E-01  0.7473E-01
     13.466  0.1014E-02  0.1013E-02  0.7482E-01  0.7482E-01
     13.556  0.5110E-03  0.5108E-03  0.7486E-01  0.7486E-01
     13.646  0.7635E-04  0.7620E-04  0.7487E-01  0.7487E-01
     13.736 -0.5239E-04 -0.5241E-04  0.7487E-01  0.7487E-01
     13.826 -0.3365E-04 -0.3363E-04  0.7486E-01  0.7486E-01
     13.916 -0.9130E-05 -0.9122E-05  0.7486E-01  0.7486E-01
     14.006 -0.1425E-05 -0.1423E-05  0.7486E-01  0.7486E-01
     14.097 -0.1381E-06 -0.1379E-06  0.7486E-01  0.7486E-01
     14.187 -0.8564E-08 -0.8550E-08  0.7486E-01  0.7486E-01
     14.277 -0.3452E-09 -0.3446E-09  0.7486E-01  0.7486E-01
     14.367 -0.9119E-11 -0.9098E-11  0.7486E-01  0.7486E-01
     14.457 -0.1586E-12 -0.1582E-12  0.7486E-01  0.7486E-01
     14.547 -0.1821E-14 -0.1816E-14  0.7486E-01  0.7486E-01
     14.637 -0.1403E-16 -0.1403E-16  0.7486E-01  0.7486E-01
     14.727 -0.4347E-27 -0.4359E-27  0.7486E-01  0.7486E-01
     14.817 -0.3053E-24 -0.3060E-24  0.7486E-01  0.7486E-01
     14.907 -0.1423E-21 -0.1426E-21  0.7486E-01  0.7486E-01
     14.998 -0.4396E-19 -0.4406E-19  0.7486E-01  0.7486E-01
     15.088 -0.8744E-17 -0.8762E-17  0.7486E-01  0.7486E-01
     15.178 -0.1177E-14 -0.1179E-14  0.7486E-01  0.7486E-01
     15.268 -0.1046E-12 -0.1048E-12  0.7486E-01  0.7486E-01
     15.358 -0.6121E-11 -0.6130E-11  0.7486E-01  0.7486E-01
     15.448 -0.2346E-09 -0.2349E-09  0.7486E-01  0.7486E-01
     15.538 -0.5854E-08 -0.5861E-08  0.7486E-01  0.7486E-01
     15.628 -0.9416E-07 -0.9426E-07  0.7486E-01  0.7486E-01
     15.718 -0.9592E-06 -0.9600E-06  0.7486E-01  0.7486E-01
     15.808 -0.5970E-05 -0.5974E-05  0.7486E-01  0.7486E-01
     15.899 -0.2073E-04 -0.2074E-04  0.7486E-01  0.7486E-01
     15.989 -0.2659E-04 -0.2658E-04  0.7486E-01  0.7486E-01
     16.079  0.6524E-04  0.6531E-04  0.7486E-01  0.7486E-01
     16.169  0.3212E-03  0.3213E-03  0.7489E-01  0.7489E-01
     16.259  0.5549E-03  0.5549E-03  0.7494E-01  0.7494E-01
     16.349  0.4869E-03  0.4869E-03  0.7498E-01  0.7498E-01
     16.439  0.2048E-03  0.2047E-03  0.7500E-01  0.7500E-01
     16.529  0.9381E-05  0.9339E-05  0.7500E-01  0.7500E-01
     16.619 -0.2931E-04 -0.2931E-04  0.7500E-01  0.7500E-01
     16.709 -0.1371E-04 -0.1371E-04  0.7500E-01  0.7500E-01
     16.799 -0.3075E-05 -0.3073E-05  0.7500E-01  0.7500E-01
     16.890 -0.4038E-06 -0.4034E-06  0.7500E-01  0.7500E-01
     16.980 -0.3296E-07 -0.3293E-07  0.7500E-01  0.7500E-01
     17.070 -0.1719E-08 -0.1716E-08  0.7500E-01  0.7500E-01
     17.160 -0.5803E-10 -0.5795E-10  0.7500E-01  0.7500E-01
     17.250 -0.1279E-11 -0.1277E-11  0.7500E-01  0.7500E-01
     17.340 -0.1851E-13 -0.1848E-13  0.7500E-01  0.7500E-01
     17.430 -0.1766E-15 -0.1763E-15  0.7500E-01  0.7500E-01
     17.520 -0.1027E-17 -0.1027E-17  0.7500E-01  0.7500E-01
     17.610  0.0000E+00  0.0000E+00  0.7500E-01  0.7500E-01
     17.700  0.0000E+00  0.0000E+00  0.7500E-01  0.7500E-01
     17.791  0.0000E+00  0.0000E+00  0.7500E-01  0.7500E-01
     17.881  0.0000E+00  0.0000E+00  0.7500E-01  0.7500E-01
     17.971  0.0000E+00  0.0000E+00  0.7500E-01  0.7500E-01
     18.061  0.0000E+00  0.0000E+00  0.7500E-01  0.7500E-01
     18.151  0.0000E+00  0.0000E+00  0.7500E-01  0.7500E-01
     18.241  0.0000E+00  0.0000E+00  0.7500E-01  0.7500E-01
