   10   10  800    2
  0.1692928E+02  0.2566798E-09  0.2566798E-09  0.2967047E-08  0.5000000E-15
  1.000000000000000E-004
  CAR 
 unknown system                          
     90      4     60
 
  0.0000000E+00  0.0000000E+00  0.0000000E+00  0.1111111E+00
      1         -6.787798       -6.787798   1.000000   1.000000
      2         -6.423745       -6.423745   1.000000   1.000000
      3         -6.090912       -6.090912   1.000000   1.000000
      4         -5.574592       -5.574592   1.000000   1.000000
      5         -4.723940       -4.723940   1.000000   1.000000
      6         -3.782351       -3.782351   1.000000   1.000000
      7         -2.978806       -2.978806   1.000000   1.000000
      8         -2.549301       -2.549301   1.000000   1.000000
      9         -2.475957       -2.475957   1.000000   1.000000
     10         -0.611241       -0.611241   1.000000   1.000000
     11         -0.585011       -0.585011   1.000000   1.000000
     12         -0.505526       -0.505526   1.000000   1.000000
     13         -0.503175       -0.503175   1.000000   1.000000
     14         -0.491037       -0.491037   1.000000   1.000000
     15         -0.490997       -0.490997   1.000000   1.000000
     16         -0.430663       -0.430663   1.000000   1.000000
     17         -0.414741       -0.414741   1.000000   1.000000
     18         -0.414375       -0.414375   1.000000   1.000000
     19         -0.394878       -0.394878   1.000000   1.000000
     20         -0.392104       -0.392104   1.000000   1.000000
     21         -0.346416       -0.346416   1.000000   1.000000
     22         -0.318522       -0.318522   1.000000   1.000000
     23         -0.317787       -0.317787   1.000000   1.000000
     24         -0.278465       -0.278465   1.000000   1.000000
     25         -0.277445       -0.277445   1.000000   1.000000
     26         -0.131457       -0.131457   1.000000   1.000000
     27          0.065839        0.065839   1.000000   1.000000
     28          0.069457        0.069457   1.000000   1.000000
     29          0.104694        0.104694   1.000000   1.000000
     30          0.194812        0.194812   1.000000   1.000000
     31          0.197237        0.197237   1.000000   1.000000
     32          0.352062        0.352062   1.000000   1.000000
     33          0.361481        0.361481   1.000000   1.000000
     34          0.366122        0.366122   1.000000   1.000000
     35          0.381397        0.381397   1.000000   1.000000
     36          0.485838        0.485838   1.000000   1.000000
     37          0.496521        0.496521   1.000000   1.000000
     38          0.611293        0.611293   1.000000   1.000000
     39          0.621584        0.621584   1.000000   1.000000
     40          0.731051        0.731051   1.000000   1.000000
     41          0.731110        0.731110   1.000000   1.000000
     42          0.808891        0.808891   1.000000   1.000000
     43          0.880713        0.880713   1.000000   1.000000
     44          0.894510        0.894510   1.000000   1.000000
     45          1.071644        1.071644   1.000000   1.000000
     46          1.099000        1.099000   1.000000   1.000000
     47          1.233129        1.233129   1.000000   1.000000
     48          1.234812        1.234812   1.000000   1.000000
     49          2.123771        2.123771   0.236534   0.236535
     50          2.412389        2.412388  -0.015468  -0.015468
     51          5.885686        5.885647  -0.000000  -0.000000
     52          6.590993        6.590927  -0.000000  -0.000000
     53          7.361834        7.361742  -0.000000  -0.000000
     54          8.336531        8.336487   0.000000   0.000000
     55          8.835877        8.835816   0.000000   0.000000
     56         10.631427       10.631390   0.000000   0.000000
     57         10.882311       10.882255   0.000000   0.000000
     58         13.344543       13.344509   0.000000   0.000000
     59         13.401185       13.401131   0.000000   0.000000
     60         16.241006       16.240969   0.000000   0.000000
 
  0.3333333E+00  0.5551115E-16  0.0000000E+00  0.4444444E+00
      1         -4.065414       -4.065414   1.000000   1.000000
      2         -3.675447       -3.675447   1.000000   1.000000
      3         -3.387400       -3.387400   1.000000   1.000000
      4         -2.978852       -2.978852   1.000000   1.000000
      5         -2.545262       -2.545262   1.000000   1.000000
      6         -2.159137       -2.159137   1.000000   1.000000
      7         -1.828650       -1.828650   1.000000   1.000000
      8         -1.652450       -1.652450   1.000000   1.000000
      9         -1.575969       -1.575969   1.000000   1.000000
     10         -1.474435       -1.474435   1.000000   1.000000
     11         -1.411934       -1.411934   1.000000   1.000000
     12         -1.194578       -1.194578   1.000000   1.000000
     13         -1.003482       -1.003482   1.000000   1.000000
     14         -0.852329       -0.852329   1.000000   1.000000
     15         -0.680720       -0.680720   1.000000   1.000000
     16         -0.669574       -0.669574   1.000000   1.000000
     17         -0.526666       -0.526666   1.000000   1.000000
     18         -0.466608       -0.466608   1.000000   1.000000
     19         -0.415171       -0.415171   1.000000   1.000000
     20         -0.334298       -0.334298   1.000000   1.000000
     21         -0.307144       -0.307144   1.000000   1.000000
     22         -0.232976       -0.232976   1.000000   1.000000
     23         -0.111916       -0.111916   1.000000   1.000000
     24         -0.073516       -0.073516   1.000000   1.000000
     25          0.069217        0.069217   1.000000   1.000000
     26          0.175952        0.175952   1.000000   1.000000
     27          0.289594        0.289594   1.000000   1.000000
     28          0.377581        0.377581   1.000000   1.000000
     29          0.435710        0.435710   1.000000   1.000000
     30          0.534477        0.534477   1.000000   1.000000
     31          0.546035        0.546035   1.000000   1.000000
     32          0.615972        0.615972   1.000000   1.000000
     33          0.640634        0.640634   1.000000   1.000000
     34          0.690096        0.690096   1.000000   1.000000
     35          0.714833        0.714833   1.000000   1.000000
     36          0.768617        0.768617   1.000000   1.000000
     37          0.795977        0.795977   1.000000   1.000000
     38          0.809460        0.809460   1.000000   1.000000
     39          0.912710        0.912710   1.000000   1.000000
     40          0.926478        0.926478   1.000000   1.000000
     41          1.052089        1.052089   1.000000   1.000000
     42          1.177561        1.177561   1.000000   1.000000
     43          1.186613        1.186613   1.000000   1.000000
     44          1.196789        1.196789   1.000000   1.000000
     45          1.365065        1.365065   1.000006   1.000006
     46          1.982258        1.982258   0.795352   0.795352
     47          3.092380        3.092380  -0.000000  -0.000000
     48          4.449316        4.449316  -0.000000  -0.000000
     49          5.947999        5.947999  -0.000000  -0.000000
     50          7.165284        7.165284  -0.000000  -0.000000
     51          8.435717        8.435710   0.000000   0.000000
     52          9.068658        9.068654   0.000000   0.000000
     53          9.476272        9.476269   0.000000   0.000000
     54          9.831049        9.831006   0.000000   0.000000
     55         10.188193       10.188122   0.000000   0.000000
     56         10.558389       10.558352   0.000000   0.000000
     57         10.984771       10.984743   0.000000   0.000000
     58         11.562600       11.562580   0.000000   0.000000
     59         11.765388       11.765361   0.000000   0.000000
     60         12.134237       12.134196   0.000000   0.000000
 
  0.0000000E+00  0.3333333E+00  0.0000000E+00  0.2222222E+00
      1         -4.037205       -4.037205   1.000000   1.000000
      2         -3.681448       -3.681448   1.000000   1.000000
      3         -3.391669       -3.391669   1.000000   1.000000
      4         -2.979997       -2.979997   1.000000   1.000000
      5         -2.545139       -2.545139   1.000000   1.000000
      6         -2.162595       -2.162595   1.000000   1.000000
      7         -1.837009       -1.837009   1.000000   1.000000
      8         -1.655834       -1.655834   1.000000   1.000000
      9         -1.582155       -1.582155   1.000000   1.000000
     10         -1.490208       -1.490208   1.000000   1.000000
     11         -1.414075       -1.414075   1.000000   1.000000
     12         -1.195870       -1.195871   1.000000   1.000000
     13         -1.004903       -1.004903   1.000000   1.000000
     14         -0.854254       -0.854254   1.000000   1.000000
     15         -0.683785       -0.683785   1.000000   1.000000
     16         -0.658903       -0.658903   1.000000   1.000000
     17         -0.533625       -0.533625   1.000000   1.000000
     18         -0.477183       -0.477183   1.000000   1.000000
     19         -0.404447       -0.404447   1.000000   1.000000
     20         -0.321791       -0.321791   1.000000   1.000000
     21         -0.317393       -0.317393   1.000000   1.000000
     22         -0.215379       -0.215379   1.000000   1.000000
     23         -0.096466       -0.096466   1.000000   1.000000
     24         -0.080509       -0.080509   1.000000   1.000000
     25          0.083432        0.083432   1.000000   1.000000
     26          0.175891        0.175891   1.000000   1.000000
     27          0.307623        0.307623   1.000000   1.000000
     28          0.379759        0.379759   1.000000   1.000000
     29          0.459179        0.459179   1.000000   1.000000
     30          0.533256        0.533256   1.000000   1.000000
     31          0.556267        0.556267   1.000000   1.000000
     32          0.619574        0.619574   1.000000   1.000000
     33          0.637856        0.637856   1.000000   1.000000
     34          0.693233        0.693233   1.000000   1.000000
     35          0.712241        0.712241   1.000000   1.000000
     36          0.768673        0.768673   1.000000   1.000000
     37          0.791294        0.791293   1.000000   1.000000
     38          0.805626        0.805626   1.000000   1.000000
     39          0.912195        0.912195   1.000000   1.000000
     40          0.928181        0.928181   1.000000   1.000000
     41          1.059574        1.059574   1.000000   1.000000
     42          1.180016        1.180016   1.000000   1.000000
     43          1.187362        1.187362   1.000000   1.000000
     44          1.199397        1.199397   1.000000   1.000000
     45          1.365182        1.365182   1.000006   1.000006
     46          1.981232        1.981232   0.798747   0.798747
     47          3.085746        3.085746  -0.000000  -0.000000
     48          4.438571        4.438571  -0.000000  -0.000000
     49          5.938166        5.938166  -0.000000  -0.000000
     50          7.151302        7.151302  -0.000000  -0.000000
     51          8.435577        8.435569   0.000000   0.000000
     52          9.023734        9.023731   0.000000   0.000000
     53          9.363470        9.363466   0.000000   0.000000
     54          9.738095        9.738069   0.000000   0.000000
     55         10.157154       10.157075   0.000000   0.000000
     56         10.507289       10.507234   0.000000   0.000000
     57         10.970403       10.970383   0.000000   0.000000
     58         11.641396       11.641382   0.000000   0.000000
     59         11.841452       11.841424   0.000000   0.000000
     60         12.073965       12.073917   0.000000   0.000000
 
 -0.3333333E+00  0.3333333E+00  0.0000000E+00  0.2222222E+00
      1         -2.580370       -2.580370   1.000000   1.000000
      2         -1.574338       -1.574339   1.000000   1.000000
      3         -1.563339       -1.563339   1.000000   1.000000
      4         -1.551850       -1.551850   1.000000   1.000000
      5         -1.490407       -1.490407   1.000000   1.000000
      6         -1.453961       -1.453961   1.000000   1.000000
      7         -1.436935       -1.436935   1.000000   1.000000
      8         -1.405212       -1.405212   1.000000   1.000000
      9         -1.398811       -1.398811   1.000000   1.000000
     10         -1.390554       -1.390554   1.000000   1.000000
     11         -1.376468       -1.376468   1.000000   1.000000
     12         -1.341425       -1.341425   1.000000   1.000000
     13         -1.241776       -1.241776   1.000000   1.000000
     14         -1.137199       -1.137199   1.000000   1.000000
     15         -1.099465       -1.099465   1.000000   1.000000
     16         -1.020846       -1.020846   1.000000   1.000000
     17         -0.733632       -0.733632   1.000000   1.000000
     18         -0.692912       -0.692912   1.000000   1.000000
     19         -0.681416       -0.681416   1.000000   1.000000
     20         -0.615977       -0.615977   1.000000   1.000000
     21         -0.461443       -0.461443   1.000000   1.000000
     22         -0.355112       -0.355112   1.000000   1.000000
     23          0.025057        0.025057   1.000000   1.000000
     24          0.078802        0.078802   1.000000   1.000000
     25          0.228333        0.228333   1.000000   1.000000
     26          0.243885        0.243885   1.000000   1.000000
     27          0.302162        0.302162   1.000000   1.000000
     28          0.307883        0.307883   1.000000   1.000000
     29          0.335802        0.335802   1.000000   1.000000
     30          0.344487        0.344487   1.000000   1.000000
     31          0.362661        0.362661   1.000000   1.000000
     32          0.618102        0.618102   1.000000   1.000000
     33          0.715478        0.715478   1.000000   1.000000
     34          0.824886        0.824886   1.000000   1.000000
     35          0.836134        0.836134   1.000000   1.000000
     36          0.858639        0.858639   1.000000   1.000000
     37          0.935641        0.935641   1.000000   1.000000
     38          0.981011        0.981011   1.000000   1.000000
     39          0.984254        0.984254   1.000000   1.000000
     40          1.059148        1.059148   1.000000   1.000000
     41          1.134208        1.134208   1.000000   1.000000
     42          5.753055        5.753055  -0.000000  -0.000000
     43          5.756065        5.756065  -0.000000  -0.000000
     44          5.779740        5.779740  -0.000000  -0.000000
     45          5.927429        5.927429  -0.000000  -0.000000
     46          5.953321        5.953321  -0.000000  -0.000000
     47          6.188332        6.188332  -0.000000  -0.000000
     48          6.343075        6.343075  -0.000000  -0.000000
     49          6.881763        6.881763  -0.000000  -0.000000
     50          7.093401        7.093401  -0.000000  -0.000000
     51          7.636012        7.636012   0.000000   0.000000
     52          7.692558        7.692558   0.000000   0.000000
     53          7.787703        7.787703   0.000000   0.000000
     54          8.191451        8.191451   0.000000   0.000000
     55          8.249287        8.249287   0.000000   0.000000
     56          8.644049        8.644049   0.000000   0.000000
     57          9.189105        9.189105   0.000000   0.000000
     58          9.516341        9.516341   0.000000   0.000000
     59         10.470855       10.470855   0.000000   0.000000
     60         10.940066       10.940066   0.000000   0.000000
