       N       E                     dE             d eps       ncg     rms          rms(c)
DAV:   1     0.796803663403E+03    0.79680E+03   -0.33482E+04   960   0.189E+03
DAV:   2     0.733552742950E+02   -0.72345E+03   -0.69260E+03   960   0.402E+02
DAV:   3    -0.327318144195E+02   -0.10609E+03   -0.99480E+02   980   0.197E+02
DAV:   4    -0.373167788192E+02   -0.45850E+01   -0.45464E+01  1080   0.571E+01
DAV:   5    -0.374185447207E+02   -0.10177E+00   -0.10170E+00  1084   0.723E+00    0.277E+01
DAV:   6    -0.348908684309E+02    0.25277E+01   -0.11007E+02  1304   0.197E+02    0.214E+01
DAV:   7    -0.937374446959E+02   -0.58847E+02   -0.32053E+02  1428   0.246E+02    0.600E+01
DAV:   8    -0.411906344427E+02    0.52547E+02   -0.21359E+02  1656   0.129E+02    0.232E+01
DAV:   9    -0.342812281486E+02    0.69094E+01   -0.62564E+01  1616   0.104E+02    0.172E+01
DAV:  10    -0.316411193409E+02    0.26401E+01   -0.17030E+01  1428   0.559E+01    0.122E+01
DAV:  11    -0.311764850050E+02    0.46463E+00   -0.18185E+00  1356   0.273E+01    0.106E+01
DAV:  12    -0.303174235774E+02    0.85906E+00   -0.14415E+00  1188   0.211E+01    0.838E+00
DAV:  13    -0.300504366251E+02    0.26699E+00   -0.16364E+00  1392   0.437E+01    0.647E+00
DAV:  14    -0.315267432348E+02   -0.14763E+01   -0.16865E+00  1560   0.342E+01    0.500E+00
DAV:  15    -0.334176379412E+02   -0.18909E+01   -0.22303E+00  1496   0.384E+01    0.469E+00
DAV:  16    -0.345855382298E+02   -0.11679E+01   -0.12579E+00  1480   0.228E+01    0.412E+00
DAV:  17    -0.351440058049E+02   -0.55847E+00   -0.86126E-01  1236   0.268E+01    0.230E+00
DAV:  18    -0.357113482058E+02   -0.56734E+00   -0.68084E-01  1252   0.157E+01    0.139E+00
DAV:  19    -0.359434491668E+02   -0.23210E+00   -0.20462E-01  1320   0.838E+00    0.984E-01
DAV:  20    -0.361038121047E+02   -0.16036E+00   -0.10949E-01  1428   0.500E+00    0.755E-01
DAV:  21    -0.362161787042E+02   -0.11237E+00   -0.89182E-02  1268   0.465E+00    0.640E-01
DAV:  22    -0.362643044523E+02   -0.48126E-01   -0.42462E-02  1072   0.340E+00    0.504E-01
DAV:  23    -0.363149354471E+02   -0.50631E-01   -0.29628E-02  1140   0.252E+00    0.394E-01
DAV:  24    -0.365581908836E+02   -0.24326E+00   -0.31535E-02  1196   0.259E+00    0.385E-01
DAV:  25    -0.367455508050E+02   -0.18736E+00   -0.10632E-02  1276   0.141E+00    0.302E-01
DAV:  26    -0.368570298198E+02   -0.11148E+00   -0.13427E-02  1308   0.231E+00    0.210E-01
DAV:  27    -0.368838387521E+02   -0.26809E-01   -0.74909E-03  1188   0.176E+00    0.125E-01
DAV:  28    -0.368899658019E+02   -0.61270E-02   -0.21707E-03  1280   0.765E-01    0.102E-01
DAV:  29    -0.368922828647E+02   -0.23171E-02   -0.72395E-04   824   0.680E-01    0.680E-02
DAV:  30    -0.368940348238E+02   -0.17520E-02   -0.66012E-04   892   0.415E-01    0.630E-02
DAV:  31    -0.368947524014E+02   -0.71758E-03   -0.38735E-04   832   0.241E-01    0.571E-02
DAV:  32    -0.368961039677E+02   -0.13516E-02   -0.37151E-04   736   0.250E-01    0.418E-02
DAV:  33    -0.368975474512E+02   -0.14435E-02   -0.22608E-04   700   0.272E-01    0.279E-02
DAV:  34    -0.368983964333E+02   -0.84898E-03   -0.13608E-04   640   0.151E-01    0.186E-02
DAV:  35    -0.368989866861E+02   -0.59025E-03   -0.91319E-05   640   0.176E-01    0.118E-02
DAV:  36    -0.368994183963E+02   -0.43171E-03   -0.84165E-05   632   0.889E-02    0.650E-03
DAV:  37    -0.368994977488E+02   -0.79353E-04   -0.25100E-05   648   0.499E-02
   1 F= -.40569913E+02 E0= -.40561846E+02  d E =-.405699E+02  mag=    -0.0004
       N       E                     dE             d eps       ncg     rms          rms(c)
DAV:   1    -0.368978116732E+02    0.16067E-02   -0.15313E+01  1016   0.156E+01    0.767E-01
DAV:   2    -0.369213136921E+02   -0.23502E-01   -0.33010E-01  1344   0.644E+00    0.576E-01
DAV:   3    -0.369290049878E+02   -0.76913E-02   -0.16003E-01  1152   0.112E+01    0.521E-01
DAV:   4    -0.369197354426E+02    0.92695E-02   -0.18728E-01  1312   0.107E+01    0.357E-01
DAV:   5    -0.369169013481E+02    0.28341E-02   -0.76611E-02  1536   0.840E+00    0.143E-01
DAV:   6    -0.369156685306E+02    0.12328E-02   -0.26486E-02  1744   0.436E+00    0.924E-02
DAV:   7    -0.369155451561E+02    0.12337E-03   -0.29677E-03  1340   0.142E+00    0.316E-02
DAV:   8    -0.369155849023E+02   -0.39746E-04   -0.63642E-04   776   0.485E-01
   2 F= -.40614670E+02 E0= -.40606441E+02  d E =-.447573E-01  mag=    -0.0004
       N       E                     dE             d eps       ncg     rms          rms(c)
DAV:   1    -0.369339924226E+02   -0.18447E-01   -0.12699E+00  1016   0.445E+00    0.190E-01
DAV:   2    -0.369360005702E+02   -0.20081E-02   -0.24744E-02  1288   0.118E+00    0.141E-01
DAV:   3    -0.369372231938E+02   -0.12226E-02   -0.13679E-02  1120   0.306E+00    0.161E-01
DAV:   4    -0.369358174266E+02    0.14058E-02   -0.15202E-02   704   0.329E+00    0.611E-02
DAV:   5    -0.369357024798E+02    0.11495E-03   -0.12239E-03   736   0.927E-01
   3 F= -.40618930E+02 E0= -.40610726E+02  d E =-.490170E-01  mag=    -0.0003
       N       E                     dE             d eps       ncg     rms          rms(c)
DAV:   1    -0.369570707314E+02   -0.21253E-01   -0.15076E+01   992   0.157E+01    0.335E-01
DAV:   2    -0.369937620016E+02   -0.36691E-01   -0.39076E-01  1632   0.895E+00    0.475E-01
DAV:   3    -0.369861346281E+02    0.76274E-02   -0.16024E-01  1704   0.108E+01    0.337E-01
DAV:   4    -0.369841509932E+02    0.19836E-02   -0.14973E-02  1412   0.276E+00    0.221E-01
DAV:   5    -0.369838879017E+02    0.26309E-03   -0.43929E-03  1280   0.123E+00    0.147E-01
DAV:   6    -0.369837192122E+02    0.16869E-03   -0.43063E-03  1156   0.212E+00    0.721E-02
DAV:   7    -0.369835781725E+02    0.14104E-03   -0.32340E-03   888   0.176E+00    0.304E-02
DAV:   8    -0.369835564488E+02    0.21724E-04   -0.42917E-04   596   0.654E-01
   4 F= -.40670871E+02 E0= -.40662689E+02  d E =-.519417E-01  mag=    -0.0003
       N       E                     dE             d eps       ncg     rms          rms(c)
DAV:   1    -0.369043071416E+02    0.79271E-01   -0.62697E+01  1040   0.338E+01    0.690E-01
DAV:   2    -0.370443889172E+02   -0.14008E+00   -0.14905E+00  1568   0.168E+01    0.967E-01
DAV:   3    -0.370237519442E+02    0.20637E-01   -0.54561E-01  1624   0.199E+01    0.646E-01
DAV:   4    -0.370143946533E+02    0.93573E-02   -0.72846E-02  1488   0.659E+00    0.439E-01
DAV:   5    -0.370141407977E+02    0.25386E-03   -0.20871E-02  1472   0.373E+00    0.351E-01
DAV:   6    -0.370126762515E+02    0.14645E-02   -0.28848E-02  1168   0.532E+00    0.196E-01
DAV:   7    -0.370120510352E+02    0.62522E-03   -0.11457E-02  1712   0.315E+00    0.626E-02
DAV:   8    -0.370120232367E+02    0.27798E-04   -0.19382E-03  1160   0.921E-01
   5 F= -.40709867E+02 E0= -.40701912E+02  d E =-.909372E-01  mag=    -0.0002
       N       E                     dE             d eps       ncg     rms          rms(c)
DAV:   1    -0.370112470810E+02    0.80395E-03   -0.19931E+01   992   0.186E+01    0.477E-01
DAV:   2    -0.370511544465E+02   -0.39907E-01   -0.44540E-01  1344   0.525E+00    0.450E-01
DAV:   3    -0.370508919479E+02    0.26250E-03   -0.39663E-02  1208   0.511E+00    0.362E-01
DAV:   4    -0.370501972267E+02    0.69472E-03   -0.15041E-02  1248   0.393E+00    0.264E-01
DAV:   5    -0.370532485125E+02   -0.30513E-02   -0.54052E-02  1632   0.622E+00    0.254E-01
DAV:   6    -0.370490482572E+02    0.42003E-02   -0.49085E-02  1408   0.565E+00    0.105E-01
DAV:   7    -0.370486861045E+02    0.36215E-03   -0.43230E-03  1376   0.196E+00    0.420E-02
DAV:   8    -0.370487087327E+02   -0.22628E-04   -0.91388E-04   916   0.544E-01
   6 F= -.40752599E+02 E0= -.40744734E+02  d E =-.427325E-01  mag=    -0.0002
       N       E                     dE             d eps       ncg     rms          rms(c)
DAV:   1    -0.370479054811E+02    0.78062E-03   -0.28636E-01   992   0.219E+00    0.609E-02
DAV:   2    -0.370484417801E+02   -0.53630E-03   -0.61696E-03  1488   0.820E-01    0.533E-02
DAV:   3    -0.370484422063E+02   -0.42621E-06   -0.99467E-04   752   0.959E-01
   7 F= -.40753342E+02 E0= -.40745589E+02  d E =-.434749E-01  mag=    -0.0002
       N       E                     dE             d eps       ncg     rms          rms(c)
DAV:   1    -0.370632461449E+02   -0.14804E-01   -0.61876E+00  1000   0.104E+01    0.261E-01
DAV:   2    -0.370761466805E+02   -0.12901E-01   -0.13720E-01  1576   0.442E+00    0.299E-01
DAV:   3    -0.370748970079E+02    0.12497E-02   -0.40972E-02  1568   0.503E+00    0.224E-01
DAV:   4    -0.370740368417E+02    0.86017E-03   -0.12065E-02  1184   0.297E+00    0.166E-01
DAV:   5    -0.370739641150E+02    0.72727E-04   -0.60138E-03  1200   0.240E+00    0.118E-01
DAV:   6    -0.370736322138E+02    0.33190E-03   -0.42152E-03  1184   0.220E+00    0.488E-02
DAV:   7    -0.370736294269E+02    0.27870E-05   -0.95168E-04   924   0.830E-01
   8 F= -.40783209E+02 E0= -.40775321E+02  d E =-.298676E-01  mag=    -0.0002
       N       E                     dE             d eps       ncg     rms          rms(c)
DAV:   1    -0.370551535151E+02    0.18479E-01   -0.15298E+01  1008   0.165E+01    0.399E-01
DAV:   2    -0.370851756766E+02   -0.30022E-01   -0.32352E-01  1376   0.507E+00    0.404E-01
DAV:   3    -0.370849182204E+02    0.25746E-03   -0.55061E-02  1272   0.591E+00    0.326E-01
DAV:   4    -0.370834180649E+02    0.15002E-02   -0.30622E-02  1296   0.459E+00    0.248E-01
DAV:   5    -0.370831496541E+02    0.26841E-03   -0.19177E-02  1360   0.395E+00    0.186E-01
DAV:   6    -0.370822478137E+02    0.90184E-03   -0.10242E-02  1552   0.316E+00    0.704E-02
DAV:   7    -0.370821783089E+02    0.69505E-04   -0.20356E-03  1216   0.136E+00    0.305E-02
DAV:   8    -0.370822195752E+02   -0.41266E-04   -0.63333E-04   760   0.399E-01
   9 F= -.40800301E+02 E0= -.40792481E+02  d E =-.469589E-01  mag=    -0.0001
       N       E                     dE             d eps       ncg     rms          rms(c)
DAV:   1    -0.370879380233E+02   -0.57597E-02   -0.21173E+00   984   0.595E+00    0.126E-01
DAV:   2    -0.370919179606E+02   -0.39799E-02   -0.42765E-02  1416   0.174E+00    0.138E-01
DAV:   3    -0.370918312259E+02    0.86735E-04   -0.27749E-03  1112   0.137E+00    0.108E-01
DAV:   4    -0.370917772406E+02    0.53985E-04   -0.84558E-04   688   0.805E-01
  10 F= -.40811186E+02 E0= -.40803451E+02  d E =-.108853E-01  mag=    -0.0001
       N       E                     dE             d eps       ncg     rms          rms(c)
DAV:   1    -0.370749998070E+02    0.16831E-01   -0.19213E+01   984   0.183E+01    0.433E-01
DAV:   2    -0.371212205974E+02   -0.46221E-01   -0.51835E-01  1576   0.112E+01    0.595E-01
DAV:   3    -0.371117424802E+02    0.94781E-02   -0.17396E-01  1744   0.102E+01    0.384E-01
DAV:   4    -0.371104558540E+02    0.12866E-02   -0.22745E-02  1552   0.340E+00    0.310E-01
DAV:   5    -0.371100810733E+02    0.37478E-03   -0.15413E-02  1360   0.363E+00    0.204E-01
DAV:   6    -0.371090897351E+02    0.99134E-03   -0.14719E-02  1440   0.402E+00    0.933E-02
DAV:   7    -0.371088551976E+02    0.23454E-03   -0.38368E-03  1480   0.166E+00    0.408E-02
DAV:   8    -0.371088677550E+02   -0.12557E-04   -0.53036E-04   788   0.476E-01
  11 F= -.40832551E+02 E0= -.40824381E+02  d E =-.322504E-01  mag=    -0.0001
       N       E                     dE             d eps       ncg     rms          rms(c)
DAV:   1    -0.369751142769E+02    0.13374E+00   -0.79338E+01  1072   0.392E+01    0.801E-01
DAV:   2    -0.371110577440E+02   -0.13594E+00   -0.14905E+00  1536   0.116E+01    0.909E-01
DAV:   3    -0.371028947146E+02    0.81630E-02   -0.16381E-01  1280   0.103E+01    0.674E-01
DAV:   4    -0.371002926034E+02    0.26021E-02   -0.41211E-02  1264   0.559E+00    0.509E-01
DAV:   5    -0.371095683993E+02   -0.92758E-02   -0.18936E-01  1616   0.111E+01    0.504E-01
DAV:   6    -0.370959950858E+02    0.13573E-01   -0.19976E-01  1752   0.103E+01    0.196E-01
DAV:   7    -0.370948748456E+02    0.11202E-02   -0.16134E-02  1744   0.328E+00    0.645E-02
DAV:   8    -0.370949517996E+02   -0.76954E-04   -0.26371E-03  1312   0.792E-01    0.331E-02
DAV:   9    -0.370949774190E+02   -0.25619E-04   -0.43796E-04   824   0.333E-01
  12 F= -.40828166E+02 E0= -.40819464E+02  d E =-.278649E-01  mag=    -0.0001
       N       E                     dE             d eps       ncg     rms          rms(c)
DAV:   1    -0.370655122229E+02    0.29440E-01   -0.25745E+01   984   0.215E+01    0.446E-01
DAV:   2    -0.371147684415E+02   -0.49256E-01   -0.53670E-01  1336   0.580E+00    0.480E-01
DAV:   3    -0.371138101436E+02    0.95830E-03   -0.30269E-02  1184   0.462E+00    0.380E-01
DAV:   4    -0.371130537835E+02    0.75636E-03   -0.11542E-02  1328   0.303E+00    0.302E-01
DAV:   5    -0.371171191025E+02   -0.40653E-02   -0.69038E-02  1552   0.667E+00    0.316E-01
DAV:   6    -0.371115783746E+02    0.55407E-02   -0.64047E-02  1520   0.653E+00    0.132E-01
DAV:   7    -0.371109256125E+02    0.65276E-03   -0.60215E-03  1560   0.206E+00    0.420E-02
DAV:   8    -0.371109796977E+02   -0.54085E-04   -0.10361E-03  1016   0.628E-01
  13 F= -.40838529E+02 E0= -.40830122E+02  d E =-.382282E-01  mag=    -0.0001
       N       E                     dE             d eps       ncg     rms          rms(c)
DAV:   1    -0.371130785603E+02   -0.21529E-02   -0.63280E+00  1008   0.105E+01    0.259E-01
DAV:   2    -0.371269379834E+02   -0.13859E-01   -0.15936E-01  1488   0.527E+00    0.300E-01
DAV:   3    -0.371256043750E+02    0.13336E-02   -0.58422E-02  1568   0.617E+00    0.237E-01
DAV:   4    -0.371247164566E+02    0.88792E-03   -0.80022E-03  1312   0.218E+00    0.164E-01
DAV:   5    -0.371245004801E+02    0.21598E-03   -0.24094E-03  1160   0.118E+00    0.977E-02
DAV:   6    -0.371244212013E+02    0.79279E-04   -0.23866E-03  1200   0.155E+00    0.450E-02
DAV:   7    -0.371243710999E+02    0.50101E-04   -0.80150E-04   736   0.935E-01
  14 F= -.40851200E+02 E0= -.40842950E+02  d E =-.126707E-01  mag=    -0.0000
       N       E                     dE             d eps       ncg     rms          rms(c)
DAV:   1    -0.371243850551E+02    0.36146E-04   -0.48426E-02  1016   0.952E-01    0.258E-02
DAV:   2    -0.371244985124E+02   -0.11346E-03   -0.14017E-03   976   0.719E-01
  15 F= -.40851313E+02 E0= -.40842828E+02  d E =-.127847E-01  mag=    -0.0000
       N       E                     dE             d eps       ncg     rms          rms(c)
DAV:   1    -0.371184506360E+02    0.59344E-02   -0.56335E+00   992   0.990E+00    0.260E-01
DAV:   2    -0.371310112862E+02   -0.12561E-01   -0.14824E-01  1560   0.545E+00    0.294E-01
DAV:   3    -0.371291974715E+02    0.18138E-02   -0.63565E-02  1616   0.646E+00    0.226E-01
DAV:   4    -0.371283844315E+02    0.81304E-03   -0.81082E-03  1328   0.220E+00    0.147E-01
DAV:   5    -0.371284035568E+02   -0.19125E-04   -0.33422E-03  1176   0.163E+00    0.101E-01
DAV:   6    -0.371282995207E+02    0.10404E-03   -0.41677E-03  1128   0.208E+00    0.596E-02
DAV:   7    -0.371281714461E+02    0.12807E-03   -0.85692E-04   696   0.940E-01
  16 F= -.40855647E+02 E0= -.40847254E+02  d E =-.433358E-02  mag=    -0.0000
       N       E                     dE             d eps       ncg     rms          rms(c)
DAV:   1    -0.371286789951E+02   -0.37947E-03   -0.54805E-01   984   0.307E+00    0.763E-02
DAV:   2    -0.371296998733E+02   -0.10209E-02   -0.11842E-02  1504   0.128E+00    0.799E-02
DAV:   3    -0.371296537264E+02    0.46147E-04   -0.33438E-03   960   0.147E+00    0.674E-02
DAV:   4    -0.371295755722E+02    0.78154E-04   -0.78126E-04   624   0.724E-01
  17 F= -.40856719E+02 E0= -.40848386E+02  d E =-.540553E-02  mag=    -0.0000
       N       E                     dE             d eps       ncg     rms          rms(c)
DAV:   1    -0.371295652170E+02    0.88509E-04   -0.38828E-03  1424   0.582E-01    0.275E-02
DAV:   2    -0.371297163753E+02   -0.15116E-03   -0.24661E-03   720   0.155E+00    0.561E-02
DAV:   3    -0.371295466553E+02    0.16972E-03   -0.17092E-03   696   0.121E+00
  18 F= -.40856712E+02 E0= -.40848407E+02  d E =-.539836E-02  mag=    -0.0000
       N       E                     dE             d eps       ncg     rms          rms(c)
DAV:   1    -0.371295223988E+02    0.19398E-03   -0.11600E-03  1048   0.411E-01    0.106E-02
DAV:   2    -0.371296048040E+02   -0.82405E-04   -0.98314E-04   632   0.794E-01
  19 F= -.40856757E+02 E0= -.40848541E+02  d E =-.544316E-02  mag=    -0.0000
       N       E                     dE             d eps       ncg     rms          rms(c)
DAV:   1    -0.371295052648E+02    0.17134E-04   -0.82583E-04   728   0.647E-01    0.924E-03
DAV:   2    -0.371295410812E+02   -0.35816E-04   -0.35733E-04   688   0.145E-01
  20 F= -.40856704E+02 E0= -.40848309E+02  d E =-.539069E-02  mag=    -0.0000
       N       E                     dE             d eps       ncg     rms          rms(c)
DAV:   1    -0.371295424054E+02   -0.37141E-04   -0.10890E-04   504   0.170E-01    0.105E-02
DAV:   2    -0.371295521304E+02   -0.97250E-05   -0.11712E-04   568   0.307E-01
  21 F= -.40856710E+02 E0= -.40848294E+02  d E =-.539608E-02  mag=    -0.0000
       N       E                     dE             d eps       ncg     rms          rms(c)
DAV:   1    -0.371295480379E+02   -0.56324E-05   -0.49583E-05   504   0.238E-01    0.305E-03
DAV:   2    -0.371295493861E+02   -0.13483E-05   -0.16485E-05   536   0.110E-01
  22 F= -.40856711E+02 E0= -.40848323E+02  d E =-.539727E-02  mag=    -0.0000
       N       E                     dE             d eps       ncg     rms          rms(c)
DAV:   1    -0.371295508491E+02   -0.28112E-05   -0.17714E-05   504   0.107E-01    0.236E-03
DAV:   2    -0.371295547504E+02   -0.39013E-05   -0.45711E-05   568   0.179E-01
  23 F= -.40856714E+02 E0= -.40848365E+02  d E =-.540067E-02  mag=    -0.0000
       N       E                     dE             d eps       ncg     rms          rms(c)
DAV:   1    -0.371295506501E+02    0.19895E-06   -0.31537E-05   504   0.147E-01    0.847E-04
DAV:   2    -0.371295511379E+02   -0.48774E-06   -0.27481E-06   504   0.241E-02
  24 F= -.40856712E+02 E0= -.40848332E+02  d E =-.539803E-02  mag=    -0.0000
       N       E                     dE             d eps       ncg     rms          rms(c)
DAV:   1    -0.371320973105E+02   -0.25467E-02   -0.64749E-01   984   0.332E+00    0.676E-02
DAV:   2    -0.371332727881E+02   -0.11755E-02   -0.12771E-02  1360   0.104E+00    0.751E-02
DAV:   3    -0.371332532074E+02    0.19581E-04   -0.17163E-03   832   0.110E+00
  25 F= -.40859506E+02 E0= -.40851247E+02  d E =-.279444E-02  mag=    -0.0000
       N       E                     dE             d eps       ncg     rms          rms(c)
DAV:   1    -0.371315462796E+02    0.17265E-02   -0.58599E+00  1000   0.101E+01    0.240E-01
DAV:   2    -0.371422613937E+02   -0.10715E-01   -0.11963E-01  1360   0.295E+00    0.260E-01
DAV:   3    -0.371419695315E+02    0.29186E-03   -0.10698E-02  1152   0.289E+00    0.209E-01
DAV:   4    -0.371417372040E+02    0.23233E-03   -0.87288E-03   944   0.239E+00    0.173E-01
DAV:   5    -0.371415150452E+02    0.22216E-03   -0.97101E-03   840   0.253E+00    0.114E-01
DAV:   6    -0.371410682051E+02    0.44684E-03   -0.57370E-03  1192   0.216E+00    0.584E-02
DAV:   7    -0.371409628278E+02    0.10538E-03   -0.17162E-03  1008   0.112E+00
  26 F= -.40864540E+02 E0= -.40856291E+02  d E =-.782812E-02  mag=    -0.0000
       N       E                     dE             d eps       ncg     rms          rms(c)
DAV:   1    -0.371411854903E+02   -0.11729E-03   -0.95953E-01  1000   0.406E+00    0.821E-02
DAV:   2    -0.371430127565E+02   -0.18273E-02   -0.19241E-02  1360   0.104E+00    0.842E-02
DAV:   3    -0.371429979508E+02    0.14806E-04   -0.12259E-03   816   0.937E-01
  27 F= -.40865510E+02 E0= -.40857363E+02  d E =-.879829E-02  mag=    -0.0000
       N       E                     dE             d eps       ncg     rms          rms(c)
DAV:   1    -0.371471099240E+02   -0.40972E-02   -0.14273E+00   976   0.507E+00    0.162E-01
DAV:   2    -0.371500929255E+02   -0.29830E-02   -0.35752E-02  1544   0.260E+00    0.169E-01
DAV:   3    -0.371495373059E+02    0.55562E-03   -0.13207E-02  1600   0.283E+00    0.138E-01
DAV:   4    -0.371493290095E+02    0.20830E-03   -0.40852E-03   880   0.185E+00    0.985E-02
DAV:   5    -0.371493297823E+02   -0.77274E-06   -0.38728E-03   812   0.187E+00    0.656E-02
DAV:   6    -0.371491495986E+02    0.18018E-03   -0.19371E-03   816   0.135E+00
  28 F= -.40868088E+02 E0= -.40859861E+02  d E =-.257778E-02  mag=    -0.0000
       N       E                     dE             d eps       ncg     rms          rms(c)
DAV:   1    -0.371507591466E+02   -0.14294E-02   -0.59861E-01   984   0.326E+00    0.826E-02
DAV:   2    -0.371519443255E+02   -0.11852E-02   -0.12888E-02  1440   0.111E+00    0.860E-02
DAV:   3    -0.371518654360E+02    0.78889E-04   -0.13573E-03   952   0.102E+00
  29 F= -.40868567E+02 E0= -.40860237E+02  d E =-.305744E-02  mag=    -0.0000
       N       E                     dE             d eps       ncg     rms          rms(c)
DAV:   1    -0.371534995103E+02   -0.15552E-02   -0.10380E-01  1080   0.149E+00    0.718E-02
DAV:   2    -0.371538570564E+02   -0.35755E-03   -0.54026E-03  1216   0.179E+00    0.834E-02
DAV:   3    -0.371535596476E+02    0.29741E-03   -0.46385E-03   720   0.183E+00    0.499E-02
DAV:   4    -0.371535432480E+02    0.16400E-04   -0.63019E-04   728   0.500E-01
  30 F= -.40869367E+02 E0= -.40861012E+02  d E =-.799856E-03  mag=    -0.0000
       N       E                     dE             d eps       ncg     rms          rms(c)
DAV:   1    -0.371568451070E+02   -0.32855E-02   -0.92005E-01   992   0.398E+00    0.883E-02
DAV:   2    -0.371585737557E+02   -0.17286E-02   -0.18545E-02  1328   0.116E+00    0.994E-02
DAV:   3    -0.371584982663E+02    0.75489E-04   -0.18590E-03   944   0.111E+00
  31 F= -.40871695E+02 E0= -.40863274E+02  d E =-.312817E-02  mag=    -0.0000
       N       E                     dE             d eps       ncg     rms          rms(c)
DAV:   1    -0.371609849148E+02   -0.24112E-02   -0.36955E+00   992   0.798E+00    0.239E-01
DAV:   2    -0.371676301187E+02   -0.66452E-02   -0.79907E-02  1480   0.343E+00    0.245E-01
DAV:   3    -0.371670499392E+02    0.58018E-03   -0.18387E-02  1584   0.357E+00    0.198E-01
DAV:   4    -0.371669226548E+02    0.12728E-03   -0.11500E-02  1168   0.266E+00    0.152E-01
DAV:   5    -0.371669347817E+02   -0.12127E-04   -0.13876E-02   960   0.319E+00    0.118E-01
DAV:   6    -0.371662573416E+02    0.67744E-03   -0.45028E-03  1048   0.195E+00    0.308E-02
DAV:   7    -0.371663197890E+02   -0.62447E-04   -0.83466E-04   952   0.410E-01
  32 F= -.40874300E+02 E0= -.40865795E+02  d E =-.573238E-02  mag=    -0.0000
       N       E                     dE             d eps       ncg     rms          rms(c)
DAV:   1    -0.371496533163E+02    0.16604E-01   -0.14784E+01   992   0.161E+01    0.397E-01
DAV:   2    -0.371796493912E+02   -0.29996E-01   -0.32453E-01  1264   0.512E+00    0.426E-01
DAV:   3    -0.371774138041E+02    0.22356E-02   -0.42969E-02  1264   0.527E+00    0.341E-01
DAV:   4    -0.371768685971E+02    0.54521E-03   -0.15943E-02  1120   0.340E+00    0.265E-01
DAV:   5    -0.371788269351E+02   -0.19583E-02   -0.48136E-02  1392   0.551E+00    0.258E-01
DAV:   6    -0.371755844911E+02    0.32424E-02   -0.35867E-02  1440   0.475E+00    0.565E-02
DAV:   7    -0.371756279777E+02   -0.43487E-04   -0.33086E-03  1480   0.944E-01    0.231E-02
DAV:   8    -0.371756576605E+02   -0.29683E-04   -0.57535E-04   880   0.423E-01
  33 F= -.40873383E+02 E0= -.40864604E+02  d E =-.481597E-02  mag=    -0.0000
       N       E                     dE             d eps       ncg     rms          rms(c)
DAV:   1    -0.371613689450E+02    0.14259E-01   -0.58238E+00   992   0.995E+00    0.244E-01
DAV:   2    -0.371726020124E+02   -0.11233E-01   -0.12341E-01  1376   0.395E+00    0.274E-01
DAV:   3    -0.371717884268E+02    0.81359E-03   -0.19582E-02  1480   0.366E+00    0.216E-01
DAV:   4    -0.371714467160E+02    0.34171E-03   -0.94651E-03  1088   0.243E+00    0.177E-01
DAV:   5    -0.371715060571E+02   -0.59341E-04   -0.11699E-02  1104   0.287E+00    0.145E-01
DAV:   6    -0.371708113588E+02    0.69470E-03   -0.71696E-03  1120   0.218E+00    0.442E-02
DAV:   7    -0.371708157217E+02   -0.43629E-05   -0.12436E-03   920   0.811E-01
  34 F= -.40874951E+02 E0= -.40866312E+02  d E =-.638395E-02  mag=    -0.0000
       N       E                     dE             d eps       ncg     rms          rms(c)
DAV:   1    -0.371735007793E+02   -0.26894E-02   -0.25347E-01  1008   0.212E+00    0.476E-02
DAV:   2    -0.371739727842E+02   -0.47200E-03   -0.53210E-03  1312   0.671E-01    0.526E-02
DAV:   3    -0.371739480742E+02    0.24710E-04   -0.52829E-04   608   0.642E-01
  35 F= -.40876608E+02 E0= -.40867988E+02  d E =-.165705E-02  mag=    -0.0000
       N       E                     dE             d eps       ncg     rms          rms(c)
DAV:   1    -0.371778615574E+02   -0.38888E-02   -0.22912E+00   992   0.635E+00    0.155E-01
DAV:   2    -0.371821226017E+02   -0.42610E-02   -0.47622E-02  1304   0.204E+00    0.162E-01
DAV:   3    -0.371820191610E+02    0.10344E-03   -0.87082E-03  1216   0.230E+00    0.145E-01
DAV:   4    -0.371817879868E+02    0.23117E-03   -0.37557E-03   880   0.163E+00    0.109E-01
DAV:   5    -0.371819325893E+02   -0.14460E-03   -0.42424E-03   816   0.180E+00    0.903E-02
DAV:   6    -0.371815398455E+02    0.39274E-03   -0.29018E-03   768   0.163E+00    0.274E-02
DAV:   7    -0.371815596513E+02   -0.19806E-04   -0.37218E-04   648   0.425E-01
  36 F= -.40879819E+02 E0= -.40871112E+02  d E =-.486768E-02  mag=    -0.0000
       N       E                     dE             d eps       ncg     rms          rms(c)
DAV:   1    -0.371735427564E+02    0.79971E-02   -0.91732E+00   992   0.128E+01    0.279E-01
DAV:   2    -0.371918600856E+02   -0.18317E-01   -0.19569E-01  1328   0.353E+00    0.305E-01
DAV:   3    -0.371911448058E+02    0.71528E-03   -0.90559E-03  1216   0.244E+00    0.232E-01
DAV:   4    -0.371910753839E+02    0.69422E-04   -0.79981E-03  1152   0.252E+00    0.196E-01
DAV:   5    -0.371921953991E+02   -0.11200E-02   -0.31052E-02  1040   0.443E+00    0.181E-01
DAV:   6    -0.371901896755E+02    0.20057E-02   -0.20270E-02  1008   0.344E+00    0.787E-02
DAV:   7    -0.371900855704E+02    0.10411E-03   -0.16963E-03  1032   0.122E+00
  37 F= -.40879677E+02 E0= -.40870914E+02  d E =-.472578E-02  mag=    -0.0000
       N       E                     dE             d eps       ncg     rms          rms(c)
DAV:   1    -0.371781490428E+02    0.12041E-01   -0.41740E+00   992   0.853E+00    0.184E-01
DAV:   2    -0.371861510085E+02   -0.80020E-02   -0.87112E-02  1320   0.239E+00    0.201E-01
DAV:   3    -0.371858551232E+02    0.29589E-03   -0.35473E-03  1152   0.159E+00    0.161E-01
DAV:   4    -0.371858061683E+02    0.48955E-04   -0.26354E-03   880   0.153E+00    0.135E-01
DAV:   5    -0.371862198780E+02   -0.41371E-03   -0.12721E-02   784   0.282E+00    0.125E-01
DAV:   6    -0.371853943852E+02    0.82549E-03   -0.12038E-02   720   0.277E+00    0.511E-02
DAV:   7    -0.371852977103E+02    0.96675E-04   -0.80708E-04   672   0.736E-01
  38 F= -.40880730E+02 E0= -.40871919E+02  d E =-.577889E-02  mag=    -0.0000
       N       E                     dE             d eps       ncg     rms          rms(c)
DAV:   1    -0.371865672221E+02   -0.11728E-02   -0.10411E+00   992   0.425E+00    0.926E-02
DAV:   2    -0.371885050864E+02   -0.19379E-02   -0.21161E-02  1304   0.125E+00    0.105E-01
DAV:   3    -0.371884124051E+02    0.92681E-04   -0.10195E-03   944   0.820E-01
  39 F= -.40880912E+02 E0= -.40872061E+02  d E =-.596118E-02  mag=    -0.0000
       N       E                     dE             d eps       ncg     rms          rms(c)
DAV:   1    -0.371865969715E+02    0.19081E-02   -0.21949E-01  1008   0.205E+00    0.585E-02
DAV:   2    -0.371873039259E+02   -0.70695E-03   -0.71515E-03  1584   0.151E+00    0.615E-02
DAV:   3    -0.371870997433E+02    0.20418E-03   -0.40973E-03   792   0.169E+00    0.419E-02
DAV:   4    -0.371870566902E+02    0.43053E-04   -0.16905E-03   656   0.106E+00
  40 F= -.40880907E+02 E0= -.40872183E+02  d E =-.595544E-02  mag=    -0.0000
       N       E                     dE             d eps       ncg     rms          rms(c)
DAV:   1    -0.371905769493E+02   -0.34772E-02   -0.59717E-01   992   0.322E+00    0.802E-02
DAV:   2    -0.371916894473E+02   -0.11125E-02   -0.12235E-02  1344   0.775E-01    0.734E-02
DAV:   3    -0.371916487587E+02    0.40689E-04   -0.50633E-04   736   0.556E-01
  41 F= -.40882481E+02 E0= -.40873755E+02  d E =-.157418E-02  mag=    -0.0000
       N       E                     dE             d eps       ncg     rms          rms(c)
DAV:   1    -0.371927200729E+02   -0.10306E-02   -0.55637E-02  1336   0.158E+00    0.715E-02
DAV:   2    -0.371950562548E+02   -0.23362E-02   -0.33119E-02   832   0.451E+00    0.176E-01
DAV:   3    -0.371925530386E+02    0.25032E-02   -0.22495E-02   672   0.354E+00    0.383E-02
DAV:   4    -0.371926143235E+02   -0.61285E-04   -0.65905E-04   928   0.341E-01
  42 F= -.40882582E+02 E0= -.40873694E+02  d E =-.167535E-02  mag=    -0.0000
       N       E                     dE             d eps       ncg     rms          rms(c)
DAV:   1    -0.371930407000E+02   -0.48766E-03   -0.12215E-02  1336   0.651E-01    0.156E-02
DAV:   2    -0.371930822187E+02   -0.41519E-04   -0.59567E-04   704   0.680E-01
  43 F= -.40882643E+02 E0= -.40873850E+02  d E =-.173661E-02  mag=    -0.0000
       N       E                     dE             d eps       ncg     rms          rms(c)
DAV:   1    -0.371938728403E+02   -0.83214E-03   -0.67629E-02  1160   0.125E+00    0.263E-02
DAV:   2    -0.371940274419E+02   -0.15460E-03   -0.18356E-03   968   0.864E-01
  44 F= -.40883191E+02 E0= -.40874597E+02  d E =-.547319E-03  mag=    -0.0000
       N       E                     dE             d eps       ncg     rms          rms(c)
DAV:   1    -0.371950845163E+02   -0.12117E-02   -0.30685E-01  1072   0.248E+00    0.561E-02
DAV:   2    -0.371957356680E+02   -0.65115E-03   -0.71998E-03  1376   0.981E-01    0.606E-02
DAV:   3    -0.371956949237E+02    0.40744E-04   -0.14731E-03   688   0.989E-01
  45 F= -.40884014E+02 E0= -.40875214E+02  d E =-.137119E-02  mag=    -0.0000
       N       E                     dE             d eps       ncg     rms          rms(c)
DAV:   1    -0.371957345987E+02    0.10693E-05   -0.12197E+00  1040   0.464E+00    0.108E-01
DAV:   2    -0.371979706109E+02   -0.22360E-02   -0.24588E-02  1376   0.145E+00    0.117E-01
DAV:   3    -0.371978630738E+02    0.10754E-03   -0.18823E-03  1056   0.114E+00
  46 F= -.40884511E+02 E0= -.40875713E+02  d E =-.186751E-02  mag=    -0.0000
       N       E                     dE             d eps       ncg     rms          rms(c)
DAV:   1    -0.371962663100E+02    0.17043E-02   -0.31029E-01  1064   0.254E+00    0.653E-02
DAV:   2    -0.371975437334E+02   -0.12774E-02   -0.16450E-02  1616   0.272E+00    0.907E-02
DAV:   3    -0.371968565570E+02    0.68718E-03   -0.12481E-02   992   0.269E+00    0.439E-02
DAV:   4    -0.371968390385E+02    0.17518E-04   -0.12525E-03   760   0.916E-01
  47 F= -.40884334E+02 E0= -.40875699E+02  d E =-.169055E-02  mag=    -0.0000
       N       E                     dE             d eps       ncg     rms          rms(c)
DAV:   1    -0.371974217479E+02   -0.56519E-03   -0.92767E-02  1080   0.138E+00    0.392E-02
DAV:   2    -0.371976021570E+02   -0.18041E-03   -0.20879E-03  1216   0.543E-01    0.326E-02
DAV:   3    -0.371976201849E+02   -0.18028E-04   -0.15137E-03   720   0.945E-01
  48 F= -.40884698E+02 E0= -.40875845E+02  d E =-.363748E-03  mag=    -0.0000
       N       E                     dE             d eps       ncg     rms          rms(c)
DAV:   1    -0.371975537555E+02    0.48402E-04   -0.38707E-04   632   0.515E-01    0.193E-02
DAV:   2    -0.371975649434E+02   -0.11188E-04   -0.16015E-04   600   0.332E-01
  49 F= -.40884660E+02 E0= -.40875951E+02  d E =-.326607E-03  mag=    -0.0000
       N       E                     dE             d eps       ncg     rms          rms(c)
DAV:   1    -0.371975884004E+02   -0.34645E-04   -0.17672E-04   608   0.373E-01    0.120E-02
DAV:   2    -0.371976159591E+02   -0.27559E-04   -0.33737E-04   592   0.527E-01
  50 F= -.40884694E+02 E0= -.40875993E+02  d E =-.360112E-03  mag=    -0.0000
       N       E                     dE             d eps       ncg     rms          rms(c)
DAV:   1    -0.371975788633E+02    0.95371E-05   -0.34685E-04   592   0.492E-01    0.778E-03
DAV:   2    -0.371976257304E+02   -0.46867E-04   -0.63999E-04   592   0.631E-01
  51 F= -.40884712E+02 E0= -.40875957E+02  d E =-.378628E-03  mag=    -0.0000
       N       E                     dE             d eps       ncg     rms          rms(c)
DAV:   1    -0.371975848720E+02   -0.60087E-05   -0.45717E-04   592   0.548E-01    0.328E-03
DAV:   2    -0.371975894479E+02   -0.45760E-05   -0.40944E-05   568   0.169E-01
  52 F= -.40884670E+02 E0= -.40875909E+02  d E =-.336560E-03  mag=    -0.0000
       N       E                     dE             d eps       ncg     rms          rms(c)
DAV:   1    -0.371985377513E+02   -0.95288E-03   -0.92277E-02  1032   0.128E+00    0.249E-02
DAV:   2    -0.371987099535E+02   -0.17220E-03   -0.18968E-03  1368   0.439E-01
  53 F= -.40885009E+02 E0= -.40876271E+02  d E =-.338532E-03  mag=    -0.0000
       N       E                     dE             d eps       ncg     rms          rms(c)
DAV:   1    -0.372001974075E+02   -0.16597E-02   -0.58594E-01  1048   0.325E+00    0.766E-02
DAV:   2    -0.372014499717E+02   -0.12526E-02   -0.14674E-02  1600   0.177E+00    0.931E-02
DAV:   3    -0.372011689677E+02    0.28100E-03   -0.51401E-03  1104   0.171E+00    0.727E-02
DAV:   4    -0.372011448591E+02    0.24109E-04   -0.58297E-04   784   0.509E-01
  54 F= -.40885475E+02 E0= -.40876695E+02  d E =-.805009E-03  mag=    -0.0000
       N       E                     dE             d eps       ncg     rms          rms(c)
DAV:   1    -0.372008476862E+02    0.32128E-03   -0.23289E+00  1048   0.641E+00    0.140E-01
DAV:   2    -0.372048665050E+02   -0.40188E-02   -0.43526E-02  1360   0.176E+00    0.144E-01
DAV:   3    -0.372047961859E+02    0.70319E-04   -0.26776E-03  1104   0.135E+00    0.117E-01
DAV:   4    -0.372047606808E+02    0.35505E-04   -0.20569E-03   680   0.121E+00    0.987E-02
DAV:   5    -0.372050495468E+02   -0.28887E-03   -0.84570E-03   736   0.238E+00    0.982E-02
DAV:   6    -0.372045119465E+02    0.53760E-03   -0.56551E-03   784   0.191E+00    0.290E-02
DAV:   7    -0.372044892289E+02    0.22718E-04   -0.34198E-04   648   0.370E-01
  55 F= -.40884903E+02 E0= -.40876143E+02  d E =-.232213E-03  mag=    -0.0000
       N       E                     dE             d eps       ncg     rms          rms(c)
DAV:   1    -0.372007736273E+02    0.37383E-02   -0.10544E+00  1024   0.431E+00    0.878E-02
DAV:   2    -0.372026832212E+02   -0.19096E-02   -0.21185E-02  1480   0.168E+00    0.104E-01
DAV:   3    -0.372026130476E+02    0.70174E-04   -0.49612E-03  1168   0.175E+00    0.836E-02
DAV:   4    -0.372025213847E+02    0.91663E-04   -0.10286E-03   632   0.808E-01
  56 F= -.40885568E+02 E0= -.40876761E+02  d E =-.898091E-03  mag=    -0.0000
       N       E                     dE             d eps       ncg     rms          rms(c)
DAV:   1    -0.372030043448E+02   -0.39130E-03   -0.28444E-02  1272   0.898E-01    0.354E-02
DAV:   2    -0.372032929613E+02   -0.28862E-03   -0.38825E-03   800   0.185E+00    0.757E-02
DAV:   3    -0.372029830733E+02    0.30989E-03   -0.26099E-03   704   0.150E+00    0.211E-02
DAV:   4    -0.372029788712E+02    0.42020E-05   -0.47660E-04   608   0.553E-01
  57 F= -.40885577E+02 E0= -.40876850E+02  d E =-.831446E-05  mag=    -0.0000
       N       E                     dE             d eps       ncg     rms          rms(c)
DAV:   1    -0.372031637083E+02   -0.18064E-03   -0.35282E-03  1368   0.361E-01    0.108E-02
DAV:   2    -0.372031656057E+02   -0.18974E-05   -0.43328E-05   552   0.132E-01
  58 F= -.40885617E+02 E0= -.40876875E+02  d E =-.490141E-04  mag=    -0.0000
       N       E                     dE             d eps       ncg     rms          rms(c)
DAV:   1    -0.372034977950E+02   -0.33409E-03   -0.12062E-02  1184   0.491E-01    0.145E-02
DAV:   2    -0.372035497188E+02   -0.51924E-04   -0.69269E-04   632   0.666E-01
  59 F= -.40885710E+02 E0= -.40877042E+02  d E =-.141216E-03  mag=    -0.0000
       N       E                     dE             d eps       ncg     rms          rms(c)
DAV:   1    -0.372041321738E+02   -0.63438E-03   -0.48967E-02  1304   0.110E+00    0.275E-02
DAV:   2    -0.372041835080E+02   -0.51334E-04   -0.74854E-04   840   0.526E-01
  60 F= -.40885760E+02 E0= -.40877014E+02  d E =-.191850E-03  mag=    -0.0000
       N       E                     dE             d eps       ncg     rms          rms(c)
DAV:   1    -0.372051423583E+02   -0.10102E-02   -0.19174E-01  1032   0.191E+00    0.528E-02
DAV:   2    -0.372056227523E+02   -0.48039E-03   -0.58372E-03  1480   0.139E+00    0.651E-02
DAV:   3    -0.372054220040E+02    0.20075E-03   -0.28763E-03   744   0.131E+00    0.456E-02
DAV:   4    -0.372054157450E+02    0.62590E-05   -0.37137E-04   592   0.406E-01
  61 F= -.40885829E+02 E0= -.40876985E+02  d E =-.260609E-03  mag=    -0.0000
       N       E                     dE             d eps       ncg     rms          rms(c)
DAV:   1    -0.372060820736E+02   -0.66007E-03   -0.31543E-02  1112   0.846E-01    0.280E-02
DAV:   2    -0.372061612322E+02   -0.79159E-04   -0.90505E-04   736   0.867E-01
  62 F= -.40886129E+02 E0= -.40877130E+02  d E =-.300428E-03  mag=    -0.0000
       N       E                     dE             d eps       ncg     rms          rms(c)
DAV:   1    -0.372069686744E+02   -0.88660E-03   -0.59433E-02  1352   0.129E+00    0.363E-02
DAV:   2    -0.372072014483E+02   -0.23277E-03   -0.33679E-03   880   0.141E+00    0.591E-02
DAV:   3    -0.372069790611E+02    0.22239E-03   -0.23858E-03   656   0.124E+00    0.248E-02
DAV:   4    -0.372069945573E+02   -0.15496E-04   -0.22086E-04   608   0.382E-01
  63 F= -.40886361E+02 E0= -.40877468E+02  d E =-.531502E-03  mag=    -0.0000
       N       E                     dE             d eps       ncg     rms          rms(c)
DAV:   1    -0.372082103545E+02   -0.12313E-02   -0.22801E-01  1032   0.204E+00    0.388E-02
DAV:   2    -0.372086359669E+02   -0.42561E-03   -0.45444E-03  1352   0.673E-01    0.435E-02
DAV:   3    -0.372086337532E+02    0.22137E-05   -0.78316E-04   624   0.730E-01
  64 F= -.40886797E+02 E0= -.40877983E+02  d E =-.967857E-03  mag=    -0.0000
       N       E                     dE             d eps       ncg     rms          rms(c)
DAV:   1    -0.372097141036E+02   -0.10781E-02   -0.91515E-01  1016   0.401E+00    0.963E-02
DAV:   2    -0.372113699793E+02   -0.16559E-02   -0.18071E-02  1344   0.120E+00    0.102E-01
DAV:   3    -0.372113077553E+02    0.62224E-04   -0.24473E-03  1024   0.125E+00    0.880E-02
DAV:   4    -0.372112586913E+02    0.49064E-04   -0.16338E-03   672   0.106E+00
  65 F= -.40887023E+02 E0= -.40878148E+02  d E =-.119363E-02  mag=    -0.0000
       N       E                     dE             d eps       ncg     rms          rms(c)
DAV:   1    -0.372091074216E+02    0.22003E-02   -0.36194E-01  1144   0.283E+00    0.586E-02
DAV:   2    -0.372109653912E+02   -0.18580E-02   -0.23838E-02  1680   0.367E+00    0.128E-01
DAV:   3    -0.372096933011E+02    0.12721E-02   -0.16873E-02   992   0.318E+00    0.563E-02
DAV:   4    -0.372096080270E+02    0.85274E-04   -0.15585E-03   824   0.964E-01
  66 F= -.40886884E+02 E0= -.40878065E+02  d E =-.105449E-02  mag=    -0.0000
       N       E                     dE             d eps       ncg     rms          rms(c)
DAV:   1    -0.372102766619E+02   -0.58336E-03   -0.91110E-02  1024   0.128E+00    0.248E-02
DAV:   2    -0.372104657142E+02   -0.18905E-03   -0.19732E-03  1328   0.444E-01
  67 F= -.40886985E+02 E0= -.40878172E+02  d E =-.115598E-02  mag=    -0.0000
       N       E                     dE             d eps       ncg     rms          rms(c)
DAV:   1    -0.372099979119E+02    0.27875E-03   -0.28871E-02  1352   0.991E-01    0.188E-02
DAV:   2    -0.372104952953E+02   -0.49738E-03   -0.65900E-03   720   0.200E+00    0.782E-02
DAV:   3    -0.372099864691E+02    0.50883E-03   -0.44647E-03   664   0.157E+00    0.674E-03
DAV:   4    -0.372100109969E+02   -0.24528E-04   -0.19673E-04   600   0.137E-01
  68 F= -.40886956E+02 E0= -.40878049E+02  d E =-.112671E-02  mag=    -0.0000
       N       E                     dE             d eps       ncg     rms          rms(c)
DAV:   1    -0.372102767288E+02   -0.29026E-03   -0.10923E-02  1040   0.455E-01    0.943E-03
DAV:   2    -0.372102868769E+02   -0.10148E-04   -0.11463E-04   508   0.160E-01
  69 F= -.40886966E+02 E0= -.40878084E+02  d E =-.113697E-02  mag=    -0.0000
       N       E                     dE             d eps       ncg     rms          rms(c)
DAV:   1    -0.372101570008E+02    0.11973E-03   -0.27600E-03  1160   0.312E-01    0.599E-03
DAV:   2    -0.372101866625E+02   -0.29662E-04   -0.39097E-04   592   0.499E-01
  70 F= -.40886999E+02 E0= -.40878152E+02  d E =-.116955E-02  mag=    -0.0000
       N       E                     dE             d eps       ncg     rms          rms(c)
DAV:   1    -0.372101871275E+02   -0.30127E-04   -0.59323E-04   800   0.435E-01    0.847E-03
DAV:   2    -0.372102117579E+02   -0.24630E-04   -0.25201E-04   560   0.187E-01
  71 F= -.40886952E+02 E0= -.40878050E+02  d E =-.112320E-02  mag=    -0.0000
       N       E                     dE             d eps       ncg     rms          rms(c)
DAV:   1    -0.372101652176E+02    0.21910E-04   -0.26944E-04   592   0.218E-01    0.682E-03
DAV:   2    -0.372101809975E+02   -0.15780E-04   -0.20019E-04   536   0.355E-01
  72 F= -.40886983E+02 E0= -.40878126E+02  d E =-.115356E-02  mag=    -0.0000
       N       E                     dE             d eps       ncg     rms          rms(c)
DAV:   1    -0.372101966785E+02   -0.31461E-04   -0.16097E-04   568   0.310E-01    0.225E-03
DAV:   2    -0.372102000933E+02   -0.34149E-05   -0.36750E-05   488   0.130E-01
  73 F= -.40886971E+02 E0= -.40878077E+02  d E =-.114209E-02  mag=    -0.0000
       N       E                     dE             d eps       ncg     rms          rms(c)
DAV:   1    -0.372101872534E+02    0.94251E-05   -0.20267E-05   480   0.111E-01    0.174E-03
DAV:   2    -0.372101877629E+02   -0.50954E-06   -0.45678E-06   480   0.289E-02
  74 F= -.40886973E+02 E0= -.40878078E+02  d E =-.114381E-02  mag=    -0.0000
       N       E                     dE             d eps       ncg     rms          rms(c)
DAV:   1    -0.372112308288E+02   -0.10436E-02   -0.88820E-02  1008   0.123E+00    0.308E-02
DAV:   2    -0.372113794080E+02   -0.14858E-03   -0.16175E-03  1312   0.355E-01
  75 F= -.40887245E+02 E0= -.40878426E+02  d E =-.272524E-03  mag=    -0.0000
       N       E                     dE             d eps       ncg     rms          rms(c)
DAV:   1    -0.372117205868E+02   -0.48976E-03   -0.10936E-02  1312   0.623E-01    0.335E-02
DAV:   2    -0.372119124562E+02   -0.19187E-03   -0.26094E-03   672   0.129E+00    0.568E-02
DAV:   3    -0.372117006626E+02    0.21179E-03   -0.21823E-03   656   0.113E+00    0.189E-02
DAV:   4    -0.372117187344E+02   -0.18072E-04   -0.25051E-04   608   0.448E-01
  76 F= -.40887276E+02 E0= -.40878305E+02  d E =-.303541E-03  mag=    -0.0000
       N       E                     dE             d eps       ncg     rms          rms(c)
DAV:   1    -0.372123271337E+02   -0.62647E-03   -0.94294E-02  1072   0.136E+00    0.289E-02
DAV:   2    -0.372125055846E+02   -0.17845E-03   -0.19027E-03  1328   0.414E-01
  77 F= -.40887571E+02 E0= -.40878734E+02  d E =-.294509E-03  mag=    -0.0000
       N       E                     dE             d eps       ncg     rms          rms(c)
DAV:   1    -0.372129388601E+02   -0.61173E-03   -0.56105E-02  1080   0.106E+00    0.383E-02
DAV:   2    -0.372130192695E+02   -0.80409E-04   -0.10440E-03   912   0.619E-01
  78 F= -.40887711E+02 E0= -.40878980E+02  d E =-.434345E-03  mag=    -0.0000
