 vasp.6.3.2 27Jun22 (build Aug 17 2022 15:43:34) complex                        
  
 executed on           tv2STDVTST date 2025.02.04  14:24:01
 running   20 mpi-ranks, with    1 threads/rank
 distrk:  each k-point on   20 cores,    1 groups
 distr:  one band on NCORE=   5 cores,    4 groups


--------------------------------------------------------------------------------------------------------


 -----------------------------------------------------------------------------
|                                                                             |
|           W    W    AA    RRRRR   N    N  II  N    N   GGGG   !!!           |
|           W    W   A  A   R    R  NN   N  II  NN   N  G    G  !!!           |
|           W    W  A    A  R    R  N N  N  II  N N  N  G       !!!           |
|           W WW W  AAAAAA  RRRRR   N  N N  II  N  N N  G  GGG   !            |
|           WW  WW  A    A  R   R   N   NN  II  N   NN  G    G                |
|           W    W  A    A  R    R  N    N  II  N    N   GGGG   !!!           |
|                                                                             |
|     Found issues when parsing the INCAR file                                |
|     In line 61: Tagname --- R W I G S contains invalid characters.          |
|     Please check if the interpretation in the OUTCAR file is correct.       |
|                                                                             |
 -----------------------------------------------------------------------------

 INCAR:
    = \=\=\=\=\=\=\=\=\=\=\=\=\=\=\=\=\=\=\=\=\=\=\=\=\=\=\=\=\=\=\=\=\=\=\=\=\=\=\=\=\=\=\=\=\=\=\=\=\=\=\=\=\=\=\=\=\=\=\=\=\=\=\=\=\=\=\=\=\=\=\=\=
    = \=\=\=\=\=\=\=\=\=\=\=\=\=\=\=\=\=\=\=\=\=\=\=\=\=\=\=\=\=\=\=\=\=\=\=\=\=\=\=\=\=\=\=\=\=\=\=\=\=\=\=\=\=\=\=\=\=\=\=\=\=\=\=\=\=\=\=\=\=\=\=\=
   ISTART = 0
   ICHARG = 2
   IPIPOL = 3
   IVDW = 11
    = \=\=\=\=\=\=\=\=\=\=\=\=\=\=\=\=\=\=\=\=\=\=\=\=\=\=\=\=\=\=\=\=\=\=\=\=\=\=\=\=\=\=\=\=\=\=\=\=\=\=\=\=\=\=\=\=\=\=\=\=\=\=\=\=\=\=\=\=\=\=\=\=
    = \=\=\=\=\=\=\=\=\=\=\=\=\=\=\=\=\=\=\=\=\=\=\=\=\=\=\=\=\=\=\=\=\=\=\=\=\=\=\=\=\=\=\=\=\=\=\=\=\=\=\=\=\=\=\=\=\=\=\=\=\=\=\=\=\=\=\=\=\=\=\=\=
   ISPIN = 2
    = \=\=\=\=\=\=\=\=\=\=\=\=\=\=\=\=\=\=\=\=\=\=\=\=\=\=\=\=\=\=\=\=\=\=\=\=\=\=\=\=\=\=\=\=\=\=\=\=\=\=\=\=\=\=\=\=\=\=\=\=\=\=\=\=\=\=\=\=\=\=\=\=
    = \=\=\=\=\=\=\=\=\=\=\=\=\=\=\=\=\=\=\=\=\=\=\=\=\=\=\=\=\=\=\=\=\=\=\=\=\=\=\=\=\=\=\=\=\=\=\=\=\=\=\=\=\=\=\=\=\=\=\=\=\=\=\=\=\=\=\=\=\=\=\=\=
   ENCUT = 400
   PREC = Normal
   EDIFF = 2E-04
   GGA = PE
   ISMEAR = 1
   SIGMA = 0.2
   LREAL = .FALSE.
    = \=\=\=\=\=\=\=\=\=\=\=\=\=\=\=\=\=\=\=\=\=\=\=\=\=\=\=\=\=\=\=\=\=\=\=\=\=\=\=\=\=\=\=\=\=\=\=\=\=\=\=\=\=\=\=\=\=\=\=\=\=\=\=\=\=\=\=\=\=\=\=\=
    = \=\=\=\=\=\=\=\=\=\=\=\=\=\=\=\=\=\=\=\=\=\=\=\=\=\=\=\=\=\=\=\=\=\=\=\=\=\=\=\=\=\=\=\=\=\=\=\=\=\=\=\=\=\=\=\=\=\=\=\=\=\=\=\=\=\=\=\=\=\=\=\=
   ISYM = 1
   NSW = 800
   IBRION = 2
   POTIM = 0.5
   ISIF = 2
   EDIFFG = -.03
    = \=\=\=\=\=\=\=\=\=\=\=\=\=\=\=\=\=\=\=\=\=\=\=\=\=\=\=\=\=\=\=\=\=\=\=\=\=\=\=\=\=\=\=\=\=\=\=\=\=\=\=\=\=\=\=\=\=\=\=\=\=\=\=\=\=\=\=\=\=\=\=\=
    = \=\=\=\=\=\=\=\=\=\=\=\=\=\=\=\=\=\=\=\=\=\=\=\=\=\=\=\=\=\=\=\=\=\=\=\=\=\=\=\=\=\=\=\=\=\=\=\=\=\=\=\=\=\=\=\=\=\=\=\=\=\=\=\=\=\=\=\=\=\=\=\=
   NPAR = 4
   LWAVE = .FALSE.
   LCHARG = .FALSE.

 POTCAR:    PAW_PBE Cu 22Jun2005                  
 POTCAR:    PAW_PBE H 15Jun2001                   
 -----------------------------------------------------------------------------
|                                                                             |
|           W    W    AA    RRRRR   N    N  II  N    N   GGGG   !!!           |
|           W    W   A  A   R    R  NN   N  II  NN   N  G    G  !!!           |
|           W    W  A    A  R    R  N N  N  II  N N  N  G       !!!           |
|           W WW W  AAAAAA  RRRRR   N  N N  II  N  N N  G  GGG   !            |
|           WW  WW  A    A  R   R   N   NN  II  N   NN  G    G                |
|           W    W  A    A  R    R  N    N  II  N    N   GGGG   !!!           |
|                                                                             |
|     You use a magnetic or noncollinear calculation, but did not specify     |
|     the initial magnetic moment with the MAGMOM tag. Note that a            |
|     default of 1 will be used for all atoms. This ferromagnetic setup       |
|     may break the symmetry of the crystal, in particular it may rule        |
|     out finding an antiferromagnetic solution. Thence, we recommend         |
|     setting the initial magnetic moment manually or verifying carefully     |
|     that this magnetic setup is desired.                                    |
|                                                                             |
 -----------------------------------------------------------------------------

 POTCAR:    PAW_PBE Cu 22Jun2005                  
   SHA256 =  0e71e558f37a4e8407882b4609ceaae59938afaad9ced71dfe8490308a0ab630 Cu/POTCAR             
   COPYR  = (c) Copyright 22Jun2005 Georg Kresse                                                    
   COPYR  = This file is part of the software VASP. Any use, copying, and all other rights are regul
   COPYR  = If you do not have a valid VASP license, you may not use, copy or distribute this file. 
   VRHFIN =Cu: d10 p1                                                                               
   LEXCH  = PE                                                                                      
   EATOM  =  1390.9808 eV,  102.2342 Ry                                                             
                                                                                                    
   TITEL  = PAW_PBE Cu 22Jun2005                                                                    
   LULTRA =        F    use ultrasoft PP ?                                                          
   IUNSCR =        1    unscreen: 0-lin 1-nonlin 2-no                                               
   RPACOR =    2.000    partial core radius                                                         
   POMASS =   63.546; ZVAL   =   11.000    mass and valenz                                          
   RCORE  =    2.300    outmost cutoff radius                                                       
   RWIGS  =    2.200; RWIGS  =    1.164    wigner-seitz radius (au A)                               
   ENMAX  =  295.446; ENMIN  =  221.585 eV                                                          
   ICORE  =        3    local potential                                                             
   LCOR   =        T    correct aug charges                                                         
   LPAW   =        T    paw PP                                                                      
   EAUG   =  586.980                                                                                
   DEXC   =    0.000                                                                                
   RMAX   =    2.344    core radius for proj-oper                                                   
   RAUG   =    1.300    factor for augmentation sphere                                              
   RDEP   =    2.302    radius for radial grids                                                     
   RDEPT  =    1.771    core radius for aug-charge                                                  
                                                                                                    
   Atomic configuration                                                                             
    9 entries                                                                                       
     n  l   j            E        occ.                                                              
     1  0  0.50     -8850.2468   2.0000                                                             
     2  0  0.50     -1062.3498   2.0000                                                             
     2  1  1.50      -916.8226   6.0000                                                             
     3  0  0.50      -114.6929   2.0000                                                             
     3  1  1.50       -72.1325   6.0000                                                             
     3  2  2.50        -5.0394  10.0000                                                             
     4  0  0.50        -4.6097   1.0000                                                             
     4  1  0.50        -4.0817   0.0000                                                             
     4  3  2.50        -1.3606   0.0000                                                             
   Description                                                                                      
     l       E           TYP  RCUT    TYP  RCUT                                                     
     2     -5.0393973     23  2.200                                                                 
     2     10.8846608     23  2.200                                                                 
     0     -4.6097109     23  2.200                                                                 
     0      8.2520465     23  2.200                                                                 
     1     -2.7211652     23  2.200                                                                 
     1     21.7055443     23  2.200                                                                 
     3      2.7211652     23  2.300                                                                 
  local pseudopotential read in
  partial core-charges read in
  partial kinetic energy density read in
  atomic valenz-charges read in
  non local Contribution for L=           2  read in
    real space projection operators read in
  non local Contribution for L=           2  read in
    real space projection operators read in
  non local Contribution for L=           0  read in
    real space projection operators read in
  non local Contribution for L=           0  read in
    real space projection operators read in
  non local Contribution for L=           1  read in
    real space projection operators read in
  non local Contribution for L=           1  read in
    real space projection operators read in
    PAW grid and wavefunctions read in
 
   number of l-projection  operators is LMAX  =           6
   number of lm-projection operators is LMMAX =          18
 
 POTCAR:    PAW_PBE H 15Jun2001                   
   SHA256 =  030f79b5d3ab3cf0e668861823c8fb652ff669f3e15e46930bd03bfd63a607b6 H/POTCAR              
   COPYR  = (c) Copyright 15Jun2001 Georg Kresse                                                    
   COPYR  = This file is part of the software VASP. Any use, copying, and all other rights are regul
   COPYR  = If you do not have a valid VASP license, you may not use, copy or distribute this file. 
   VRHFIN =H: ultrasoft test                                                                        
   LEXCH  = PE                                                                                      
   EATOM  =    12.4884 eV,    0.9179 Ry                                                             
                                                                                                    
   TITEL  = PAW_PBE H 15Jun2001                                                                     
   LULTRA =        F    use ultrasoft PP ?                                                          
   IUNSCR =        0    unscreen: 0-lin 1-nonlin 2-no                                               
   RPACOR =    0.000    partial core radius                                                         
   POMASS =    1.000; ZVAL   =    1.000    mass and valenz                                          
   RCORE  =    1.100    outmost cutoff radius                                                       
   RWIGS  =    0.700; RWIGS  =    0.370    wigner-seitz radius (au A)                               
   ENMAX  =  250.000; ENMIN  =  200.000 eV                                                          
   RCLOC  =    0.701    cutoff for local pot                                                        
   LCOR   =        T    correct aug charges                                                         
   LPAW   =        T    paw PP                                                                      
   EAUG   =  400.000                                                                                
   RMAX   =    1.123    core radius for proj-oper                                                   
   RAUG   =    1.200    factor for augmentation sphere                                              
   RDEP   =    1.112    radius for radial grids                                                     
   RDEPT  =    0.926    core radius for aug-charge                                                  
                                                                                                    
   Atomic configuration                                                                             
    2 entries                                                                                       
     n  l   j            E        occ.                                                              
     1  0  0.50        -6.4927   1.0000                                                             
     2  1  0.50        -3.4015   0.0000                                                             
   Description                                                                                      
     l       E           TYP  RCUT    TYP  RCUT                                                     
     0     -6.4927494     23  1.100                                                                 
     0      6.8029130     23  1.100                                                                 
     1     -4.0817478     23  1.100                                                                 
  local pseudopotential read in
  atomic valenz-charges read in
  non local Contribution for L=           0  read in
    real space projection operators read in
  non local Contribution for L=           0  read in
    real space projection operators read in
  non local Contribution for L=           1  read in
    real space projection operators read in
    PAW grid and wavefunctions read in
 
   number of l-projection  operators is LMAX  =           3
   number of lm-projection operators is LMMAX =           5
 
  PAW_PBE Cu 22Jun2005                  :
 energy of atom  1       EATOM=-1390.9808
 kinetic energy error for atom=    0.0232 (will be added to EATOM!!)
  PAW_PBE H 15Jun2001                   :
 energy of atom  2       EATOM=  -12.4884
 kinetic energy error for atom=    0.0098 (will be added to EATOM!!)
 
 
 POSCAR: FCC Cu
  positions in cartesian coordinates
  No initial velocities read in
 exchange correlation table for  LEXCH =        8
   RHO(1)=    0.500       N(1)  =     2000
   RHO(2)=  100.500       N(2)  =     4000

 VTST: version 4.2, (08/11/21)

 CHAIN: initializing optimizer
 
 OPT: Using VASP Conjugate-Gradient optimizer
 CHAIN: Read ICHAIN            0
 
 POSCAR: FCC Cu
  positions in cartesian coordinates
  No initial velocities read in
 


--------------------------------------------------------------------------------------------------------


 ion  position               nearest neighbor table
   1  0.000  0.000  0.000-   2 2.57   2 2.57   2 2.57
   2  0.333  0.333  0.071-   3 2.51   3 2.51   3 2.51   1 2.57   1 2.57   1 2.57
   3  0.667  0.667  0.139-   2 2.51   2 2.51   2 2.51   4 2.53   4 2.53   4 2.53
   4  0.000  0.000  0.208-   5 2.51   5 2.51   5 2.51   3 2.53   3 2.53   3 2.53
   5  0.333  0.333  0.277-   4 2.51   4 2.51   4 2.51   6 2.53   6 2.53   6 2.53
   6  0.667  0.667  0.346-   7 2.51   7 2.51   7 2.51   5 2.53   5 2.53   5 2.53
   7  0.000  0.000  0.414-   8 2.49   8 2.49   8 2.49   6 2.51   6 2.51   6 2.51
   8  0.333  0.333  0.481-   7 2.49   7 2.49   7 2.49
   9  0.667  0.667  0.534-  10 0.75
  10  0.548  0.904  0.552-   9 0.75
 
  LATTYP: Found a hexagonal cell.
 ALAT       =     2.5667977333
 C/A-ratio  =    11.5593335643
  
  Lattice vectors:
  
 A1 = (  -1.2833988667,  -2.2229120434,   0.0000000000)
 A2 = (   2.5667977333,   0.0000000000,   0.0000000000)
 A3 = (   0.0000000000,   0.0000000000,  29.6704711914)


Analysis of symmetry for initial positions (statically):
=====================================================================
 Subroutine PRICEL returns:
 Original cell was already a primitive cell.
 

 Routine SETGRP: Setting up the symmetry group for a 
 hexagonal supercell.


 Subroutine GETGRP returns: Found  2 space group operations
 (whereof  2 operations were pure point group operations)
 out of a pool of 24 trial point group operations.


The static configuration has the point symmetry C_1h.


Analysis of symmetry for dynamics (positions and initial velocities):
=====================================================================
 Subroutine PRICEL returns:
 Original cell was already a primitive cell.
 

 Routine SETGRP: Setting up the symmetry group for a 
 hexagonal supercell.


 Subroutine GETGRP returns: Found  2 space group operations
 (whereof  2 operations were pure point group operations)
 out of a pool of 24 trial point group operations.


The dynamic configuration has the point symmetry C_1h.


Analysis of structural, dynamic, and magnetic symmetry:
=====================================================================
 Subroutine PRICEL returns:
 Original cell was already a primitive cell.
 

 Routine SETGRP: Setting up the symmetry group for a 
 hexagonal supercell.


 Subroutine GETGRP returns: Found  2 space group operations
 (whereof  2 operations were pure point group operations)
 out of a pool of 24 trial point group operations.


The overall configuration has the point symmetry C_1h.


 Subroutine INISYM returns: Found  2 space group operations
 (whereof  2 operations are pure point group operations),
 and found     1 'primitive' translations


----------------------------------------------------------------------------------------

                                     Primitive cell                                     

  volume of cell :     169.2928

  direct lattice vectors                    reciprocal lattice vectors
     2.566797733  0.000000000  0.000000000     0.389590495 -0.224930177  0.000000000
     1.283398867  2.222912043  0.000000000     0.000000000  0.449860355  0.000000000
     0.000000000  0.000000000 29.670471191     0.000000000  0.000000000  0.033703543

  length of vectors
     2.566797733  2.566797733 29.670471191     0.449860355  0.449860355  0.033703543

  position of ions in fractional coordinates (direct lattice)
     0.000000000  0.000000000  0.000000000
     0.333333333  0.333333333  0.070635264
     0.666666667  0.666666667  0.139085938
     0.000000000  0.000000000  0.208165116
     0.333333333  0.333333333  0.276562395
     0.666666667  0.666666667  0.345560339
     0.000000000  0.000000000  0.414005934
     0.333333333  0.333333333  0.481392695
     0.666666667  0.666666666  0.534259303
     0.548015625  0.903968750  0.552037977

  ion indices of the primitive-cell ions
   primitive index   ion index
                 1           1
                 2           2
                 3           3
                 4           4
                 5           5
                 6           6
                 7           7
                 8           8
                 9           9
                10          10

----------------------------------------------------------------------------------------

 
 
 KPOINTS: Auto-mesh                               

Automatic generation of k-mesh.
 Grid dimensions read from file:
 generate k-points for:    3    3    1

 Generating k-lattice:

  Cartesian coordinates                     Fractional coordinates (reciprocal lattice)
     0.129863498 -0.074976726  0.000000000     0.333333333  0.000000000  0.000000000
     0.000000000  0.149953452  0.000000000     0.000000000  0.333333333  0.000000000
     0.000000000  0.000000000  0.033703543     0.000000000  0.000000000  1.000000000

  Length of vectors
     0.149953452  0.149953452  0.033703543

  Shift w.r.t. Gamma in fractional coordinates (k-lattice)
     0.000000000  0.000000000  0.000000000

 
 Subroutine IBZKPT returns following result:
 ===========================================
 
 Found      4 irreducible k-points:
 
 Following reciprocal coordinates:
            Coordinates               Weight
  0.000000  0.000000  0.000000      1.000000
  0.333333  0.000000  0.000000      4.000000
  0.000000  0.333333  0.000000      2.000000
 -0.333333  0.333333  0.000000      2.000000
 
 Following cartesian coordinates:
            Coordinates               Weight
  0.000000  0.000000  0.000000      1.000000
  0.129863 -0.074977  0.000000      4.000000
  0.000000  0.149953  0.000000      2.000000
 -0.129863  0.224930  0.000000      2.000000
 


--------------------------------------------------------------------------------------------------------




 Dimension of arrays:
   k-points           NKPTS =      4   k-points in BZ     NKDIM =      4   number of bands    NBANDS=     60
   number of dos      NEDOS =    301   number of ions     NIONS =     10
   non local maximal  LDIM  =      6   non local SUM 2l+1 LMDIM =     18
   total plane-waves  NPLWV =  29400
   max r-space proj   IRMAX =      1   max aug-charges    IRDMAX=   5229
   dimension x,y,z NGX =    14 NGY =   14 NGZ =  150
   dimension x,y,z NGXF=    28 NGYF=   28 NGZF=  300
   support grid    NGXF=    28 NGYF=   28 NGZF=  300
   ions per type =               8   2
   NGX,Y,Z   is equivalent  to a cutoff of   9.07,  9.07,  8.40 a.u.
   NGXF,Y,Z  is equivalent  to a cutoff of  18.13, 18.13, 16.81 a.u.

 SYSTEM =  unknown system                          
 POSCAR =  FCC Cu                                  

 Startparameter for this run:
   NWRITE =      2    write-flag & timer
   PREC   = normal    normal or accurate (medium, high low for compatibility)
   ISTART =      0    job   : 0-new  1-cont  2-samecut
   ICHARG =      2    charge: 1-file 2-atom 10-const
   ISPIN  =      2    spin polarized calculation?
   LNONCOLLINEAR =      F non collinear calculations
   LSORBIT =      F    spin-orbit coupling
   INIWAV =      1    electr: 0-lowe 1-rand  2-diag
   LASPH  =      F    aspherical Exc in radial PAW
 Electronic Relaxation 1
   ENCUT  =  400.0 eV  29.40 Ry    5.42 a.u.   4.19  4.19 48.39*2*pi/ulx,y,z
   ENINI  =  400.0     initial cutoff
   ENAUG  =  587.0 eV  augmentation charge cutoff
   NELM   =     60;   NELMIN=  2; NELMDL= -5     # of ELM steps 
   EDIFF  = 0.2E-03   stopping-criterion for ELM
   LREAL  =      F    real-space projection
   NLSPLINE    = F    spline interpolate recip. space projectors
   LCOMPAT=      F    compatible to vasp.4.4
   GGA_COMPAT  = T    GGA compatible to vasp.4.4-vasp.4.6
   LMAXPAW     = -100 max onsite density
   LMAXMIX     =    2 max onsite mixed and CHGCAR
   VOSKOWN=      0    Vosko Wilk Nusair interpolation
   ROPT   =    0.00000   0.00000
 Ionic relaxation
   EDIFFG = -.3E-01   stopping-criterion for IOM
   NSW    =    800    number of steps for IOM
   NBLOCK =      1;   KBLOCK =    800    inner block; outer block 
   IBRION =      2    ionic relax: 0-MD 1-quasi-New 2-CG
   NFREE  =      1    steps in history (QN), initial steepest desc. (CG)
   ISIF   =      2    stress and relaxation
   IWAVPR =     11    prediction:  0-non 1-charg 2-wave 3-comb
   ISYM   =      1    0-nonsym 1-usesym 2-fastsym
   LCORR  =      T    Harris-Foulkes like correction to forces

   POTIM  = 0.5000    time-step for ionic-motion
   TEIN   =    0.0    initial temperature
   TEBEG  =    0.0;   TEEND  =   0.0 temperature during run
   SMASS  =  -3.00    Nose mass-parameter (am)
   estimated Nose-frequenzy (Omega)   =  0.10E-29 period in steps = 0.13E+47 mass=  -0.151E-27a.u.
   SCALEE = 1.0000    scale energy and forces
   NPACO  =    256;   APACO  = 10.0  distance and # of slots for P.C.
   PSTRESS=    0.0 pullay stress

  Mass of Ions in am
   POMASS =  63.55  1.00
  Ionic Valenz
   ZVAL   =  11.00  1.00
  Atomic Wigner-Seitz radii
   RWIGS  =  -1.00 -1.00
  virtual crystal weights 
   VCA    =   1.00  1.00
   NELECT =      90.0000    total number of electrons
   NUPDOWN=      -1.0000    fix difference up-down

 DOS related values:
   EMIN   =  10.00;   EMAX   =-10.00  energy-range for DOS
   EFERMI =   0.00
   ISMEAR =     1;   SIGMA  =   0.20  broadening in eV -4-tet -1-fermi 0-gaus

 Electronic relaxation 2 (details)
   IALGO  =     38    algorithm
   LDIAG  =      T    sub-space diagonalisation (order eigenvalues)
   LSUBROT=      F    optimize rotation matrix (better conditioning)
   TURBO    =      0    0=normal 1=particle mesh
   IRESTART =      0    0=no restart 2=restart with 2 vectors
   NREBOOT  =      0    no. of reboots
   NMIN     =      0    reboot dimension
   EREF     =   0.00    reference energy to select bands
   IMIX   =      4    mixing-type and parameters
     AMIX     =   0.40;   BMIX     =  1.00
     AMIX_MAG =   1.60;   BMIX_MAG =  1.00
     AMIN     =   0.10
     WC   =   100.;   INIMIX=   1;  MIXPRE=   1;  MAXMIX= -45

 Intra band minimization:
   WEIMIN = 0.0010     energy-eigenvalue tresh-hold
   EBREAK =  0.83E-06  absolut break condition
   DEPER  =   0.30     relativ break condition  

   TIME   =   0.40     timestep for ELM

  volume/ion in A,a.u.               =      16.93       114.24
  Fermi-wavevector in a.u.,A,eV,Ry     =   1.326202  2.506158 23.930072  1.758811
  Thomas-Fermi vector in A             =   2.455606
 
 Write flags
   LWAVE        =      F    write WAVECAR
   LDOWNSAMPLE  =      F    k-point downsampling of WAVECAR
   LCHARG       =      F    write CHGCAR
   LVTOT        =      F    write LOCPOT, total local potential
   LVHAR        =      F    write LOCPOT, Hartree potential only
   LELF         =      F    write electronic localiz. function (ELF)
   LORBIT       =      0    0 simple, 1 ext, 2 COOP (PROOUT), +10 PAW based schemes


 Dipole corrections
   LMONO  =      F    monopole corrections only (constant potential shift)
   LDIPOL =      F    correct potential (dipole corrections)
   IDIPOL =      0    1-x, 2-y, 3-z, 4-all directions 
   EPSILON=  1.0000000 bulk dielectric constant

 Exchange correlation treatment:
   GGA     =    PE    GGA type
   LEXCH   =     8    internal setting for exchange type
   LIBXC   =     F    Libxc                    
   VOSKOWN =     0    Vosko Wilk Nusair interpolation
   LHFCALC =     F    Hartree Fock is set to
   LHFONE  =     F    Hartree Fock one center treatment
   AEXX    =    0.0000 exact exchange contribution

 Linear response parameters
   LEPSILON=     F    determine dielectric tensor
   LRPA    =     F    only Hartree local field effects (RPA)
   LNABLA  =     F    use nabla operator in PAW spheres
   LVEL    =     F    velocity operator in full k-point grid
   CSHIFT  =0.1000    complex shift for real part using Kramers Kronig
   OMEGAMAX=  -1.0    maximum frequency
   DEG_THRESHOLD= 0.2000000E-02 threshold for treating states as degnerate
   RTIME   =   -0.100 relaxation time in fs
  (WPLASMAI=    0.000 imaginary part of plasma frequency in eV, 0.658/RTIME)
   DFIELD  = 0.0000000 0.0000000 0.0000000 field for delta impulse in time
 
  Optional k-point grid parameters
   LKPOINTS_OPT  =     F    use optional k-point grid
   KPOINTS_OPT_MODE=     1    mode for optional k-point grid
 
 Orbital magnetization related:
   ORBITALMAG=     F  switch on orbital magnetization
   LCHIMAG   =     F  perturbation theory with respect to B field
   DQ        =  0.001000  dq finite difference perturbation B field
   LLRAUG    =     F  two centre corrections for induced B field



--------------------------------------------------------------------------------------------------------


 conjugate gradient relaxation of ions
 charge density and potential will be updated during run
 spin polarized calculation
 Variant of blocked Davidson
 Davidson routine will perform the subspace rotation
 perform sub-space diagonalisation
    after iterative eigenvector-optimisation
 modified Broyden-mixing scheme, WC =      100.0
 initial mixing is a Kerker type mixing with AMIX =  0.4000 and BMIX =      1.0000
 Hartree-type preconditioning will be used
 using additional bands           15
 reciprocal scheme for non local part
 use partial core corrections
 calculate Harris-corrections to forces 
   (improved forces if not selfconsistent)
 use gradient corrections 
 use of overlap-Matrix (Vanderbilt PP)
 Methfessel and Paxton  Order N= 1 SIGMA  =   0.20


--------------------------------------------------------------------------------------------------------


  energy-cutoff  :      400.00
  volume of cell :      169.29
      direct lattice vectors                 reciprocal lattice vectors
     2.566797733  0.000000000  0.000000000     0.389590495 -0.224930177  0.000000000
     1.283398867  2.222912043  0.000000000     0.000000000  0.449860355  0.000000000
     0.000000000  0.000000000 29.670471191     0.000000000  0.000000000  0.033703543

  length of vectors
     2.566797733  2.566797733 29.670471191     0.449860355  0.449860355  0.033703543


 
 k-points in units of 2pi/SCALE and weight: Auto-mesh                               
   0.00000000  0.00000000  0.00000000       0.111
   0.12986350 -0.07497673  0.00000000       0.444
   0.00000000  0.14995345  0.00000000       0.222
  -0.12986350  0.22493018  0.00000000       0.222
 
 k-points in reciprocal lattice and weights: Auto-mesh                               
   0.00000000  0.00000000  0.00000000       0.111
   0.33333333  0.00000000  0.00000000       0.444
   0.00000000  0.33333333  0.00000000       0.222
  -0.33333333  0.33333333  0.00000000       0.222
 
 position of ions in fractional coordinates (direct lattice) 
   0.00000000  0.00000000  0.00000000
   0.33333333  0.33333333  0.07063526
   0.66666667  0.66666667  0.13908594
   0.00000000  0.00000000  0.20816512
   0.33333333  0.33333333  0.27656240
   0.66666667  0.66666667  0.34556034
   0.00000000  0.00000000  0.41400593
   0.33333333  0.33333333  0.48139269
   0.66666667  0.66666667  0.53425930
   0.54801563  0.90396875  0.55203798
 
 position of ions in cartesian coordinates  (Angst):
   0.00000000  0.00000000  0.00000000
   1.28339887  0.74097068  2.09578157
   2.56679773  1.48194136  4.12674532
   0.00000000  0.00000000  6.17635708
   1.28339887  0.74097068  8.20573658
   2.56679773  1.48194136 10.25293808
   0.00000000  0.00000000 12.28375114
   1.28339887  0.74097068 14.28314809
   2.56679773  1.48194136 15.85172525
   2.56679773  2.00944302 16.37922691
 


--------------------------------------------------------------------------------------------------------


 k-point   1 :   0.0000 0.0000 0.0000  plane waves:    3091
 k-point   2 :   0.3333 0.0000 0.0000  plane waves:    3081
 k-point   3 :   0.0000 0.3333 0.0000  plane waves:    3081
 k-point   4 :  -0.3333 0.3333 0.0000  plane waves:    3096

 maximum and minimum number of plane-waves per node :       634      594

 maximum number of plane-waves:      3096
 maximum index in each direction: 
   IXMAX=    4   IYMAX=    4   IZMAX=   48
   IXMIN=   -4   IYMIN=   -4   IZMIN=  -48


 parallel 3D FFT for wavefunctions:
    minimum data exchange during FFTs selected (reduces bandwidth)
 parallel 3D FFT for charge:
    minimum data exchange during FFTs selected (reduces bandwidth)


 total amount of memory used by VASP MPI-rank0    34706. kBytes
=======================================================================

   base      :      30000. kBytes
   nonl-proj :        813. kBytes
   fftplans  :        716. kBytes
   grid      :       1856. kBytes
   one-center:         62. kBytes
   wavefun   :       1259. kBytes
 
     INWAV:  cpu time      0.0000: real time      0.0002
 Broyden mixing: mesh for mixing (old mesh)
   NGX =  9   NGY =  9   NGZ = 97
  (NGX  = 28   NGY  = 28   NGZ  =300)
  gives a total of   7857 points

 initial charge density was supplied:
 charge density of overlapping atoms calculated
 number of electron      90.0000000 magnetization      10.0000000
 keeping initial charge density in first step


--------------------------------------------------------------------------------------------------------


 Maximum index for augmentation-charges          479 (set IRDMAX)


--------------------------------------------------------------------------------------------------------


 First call to EWALD:  gamma=   0.320
 Maximum number of real-space cells 6x 6x 1
 Maximum number of reciprocal cells 2x 2x13

    FEWALD:  cpu time      0.0019: real time      0.0019


--------------------------------------- Iteration      1(   1)  ---------------------------------------


    POTLOK:  cpu time      0.0225: real time      0.0228
    SETDIJ:  cpu time      0.0068: real time      0.0069
     EDDAV:  cpu time      0.2881: real time      0.2905
       DOS:  cpu time      0.0013: real time      0.0013
    --------------------------------------------
      LOOP:  cpu time      0.3187: real time      0.3215

 eigenvalue-minimisations  :   960
 total energy-change (2. order) : 0.7968037E+03  (-0.3348202E+04)
 number of electron      90.0000000 magnetization      10.0000000
 augmentation part       90.0000000 magnetization      10.0000000

 Free energy of the ion-electron system (eV)
  ---------------------------------------------------
  alpha Z        PSCENC =       285.34744303
  Ewald energy   TEWEN  =     52356.90074167
  -Hartree energ DENC   =    -63409.73054411
  -exchange      EXHF   =         0.00000000
  -V(xc)+E(xc)   XCENC  =       372.60108536
  PAW double counting   =      9828.36862813   -10674.97285505
  entropy T*S    EENTRO =        -0.00387552
  eigenvalues    EBANDS =       885.67465295
  atomic energy  EATOM  =     11152.61838693
  Solvation  Ediel_sol  =         0.00000000
  ---------------------------------------------------
  free energy    TOTEN  =       796.80366340 eV

  energy without entropy =      796.80753892  energy(sigma->0) =      796.80495524


--------------------------------------------------------------------------------------------------------




--------------------------------------- Iteration      1(   2)  ---------------------------------------


     EDDAV:  cpu time      0.2746: real time      0.2772
       DOS:  cpu time      0.0008: real time      0.0008
    --------------------------------------------
      LOOP:  cpu time      0.2754: real time      0.2781

 eigenvalue-minimisations  :   960
 total energy-change (2. order) :-0.7234484E+03  (-0.6926047E+03)
 number of electron      90.0000000 magnetization      10.0000000
 augmentation part       90.0000000 magnetization      10.0000000

 Free energy of the ion-electron system (eV)
  ---------------------------------------------------
  alpha Z        PSCENC =       285.34744303
  Ewald energy   TEWEN  =     52356.90074167
  -Hartree energ DENC   =    -63409.73054411
  -exchange      EXHF   =         0.00000000
  -V(xc)+E(xc)   XCENC  =       372.60108536
  PAW double counting   =      9828.36862813   -10674.97285505
  entropy T*S    EENTRO =        -0.00275217
  eigenvalues    EBANDS =       162.22514049
  atomic energy  EATOM  =     11152.61838693
  Solvation  Ediel_sol  =         0.00000000
  ---------------------------------------------------
  free energy    TOTEN  =        73.35527429 eV

  energy without entropy =       73.35802646  energy(sigma->0) =       73.35619168


--------------------------------------------------------------------------------------------------------




--------------------------------------- Iteration      1(   3)  ---------------------------------------


     EDDAV:  cpu time      0.2759: real time      0.2785
       DOS:  cpu time      0.0009: real time      0.0009
    --------------------------------------------
      LOOP:  cpu time      0.2768: real time      0.2794

 eigenvalue-minimisations  :   980
 total energy-change (2. order) :-0.1060871E+03  (-0.9948049E+02)
 number of electron      90.0000000 magnetization      10.0000000
 augmentation part       90.0000000 magnetization      10.0000000

 Free energy of the ion-electron system (eV)
  ---------------------------------------------------
  alpha Z        PSCENC =       285.34744303
  Ewald energy   TEWEN  =     52356.90074167
  -Hartree energ DENC   =    -63409.73054411
  -exchange      EXHF   =         0.00000000
  -V(xc)+E(xc)   XCENC  =       372.60108536
  PAW double counting   =      9828.36862813   -10674.97285505
  entropy T*S    EENTRO =         0.02206474
  eigenvalues    EBANDS =        56.11323488
  atomic energy  EATOM  =     11152.61838693
  Solvation  Ediel_sol  =         0.00000000
  ---------------------------------------------------
  free energy    TOTEN  =       -32.73181442 eV

  energy without entropy =      -32.75387916  energy(sigma->0) =      -32.73916933


--------------------------------------------------------------------------------------------------------




--------------------------------------- Iteration      1(   4)  ---------------------------------------


     EDDAV:  cpu time      0.2971: real time      0.2995
       DOS:  cpu time      0.0009: real time      0.0009
    --------------------------------------------
      LOOP:  cpu time      0.2980: real time      0.3004

 eigenvalue-minimisations  :  1080
 total energy-change (2. order) :-0.4584964E+01  (-0.4546379E+01)
 number of electron      90.0000000 magnetization      10.0000000
 augmentation part       90.0000000 magnetization      10.0000000

 Free energy of the ion-electron system (eV)
  ---------------------------------------------------
  alpha Z        PSCENC =       285.34744303
  Ewald energy   TEWEN  =     52356.90074167
  -Hartree energ DENC   =    -63409.73054411
  -exchange      EXHF   =         0.00000000
  -V(xc)+E(xc)   XCENC  =       372.60108536
  PAW double counting   =      9828.36862813   -10674.97285505
  entropy T*S    EENTRO =         0.03362681
  eigenvalues    EBANDS =        51.51670840
  atomic energy  EATOM  =     11152.61838693
  Solvation  Ediel_sol  =         0.00000000
  ---------------------------------------------------
  free energy    TOTEN  =       -37.31677882 eV

  energy without entropy =      -37.35040563  energy(sigma->0) =      -37.32798776


--------------------------------------------------------------------------------------------------------




--------------------------------------- Iteration      1(   5)  ---------------------------------------


     EDDAV:  cpu time      0.3101: real time      0.3126
       DOS:  cpu time      0.0010: real time      0.0010
    CHARGE:  cpu time      0.0582: real time      0.0585
    MIXING:  cpu time      0.0014: real time      0.0014
    --------------------------------------------
      LOOP:  cpu time      0.3707: real time      0.3735

 eigenvalue-minimisations  :  1084
 total energy-change (2. order) :-0.1017659E+00  (-0.1016966E+00)
 number of electron      89.9999970 magnetization       9.3941815
 augmentation part       52.1697187 magnetization       9.0343255

 Broyden mixing:
  rms(total) = 0.27662E+01    rms(broyden)= 0.27661E+01
  rms(prec ) = 0.28329E+01
  weight for this iteration     100.00

 Free energy of the ion-electron system (eV)
  ---------------------------------------------------
  alpha Z        PSCENC =       285.34744303
  Ewald energy   TEWEN  =     52356.90074167
  -Hartree energ DENC   =    -63409.73054411
  -exchange      EXHF   =         0.00000000
  -V(xc)+E(xc)   XCENC  =       372.60108536
  PAW double counting   =      9828.36862813   -10674.97285505
  entropy T*S    EENTRO =         0.03389236
  eigenvalues    EBANDS =        51.41467695
  atomic energy  EATOM  =     11152.61838693
  Solvation  Ediel_sol  =         0.00000000
  ---------------------------------------------------
  free energy    TOTEN  =       -37.41854472 eV

  energy without entropy =      -37.45243709  energy(sigma->0) =      -37.42984218


--------------------------------------------------------------------------------------------------------




--------------------------------------- Iteration      1(   6)  ---------------------------------------


    POTLOK:  cpu time      0.0209: real time      0.0211
    SETDIJ:  cpu time      0.0068: real time      0.0068
     EDDAV:  cpu time      0.3435: real time      0.3464
       DOS:  cpu time      0.0014: real time      0.0014
    CHARGE:  cpu time      0.0562: real time      0.0564
    MIXING:  cpu time      0.0007: real time      0.0008
    --------------------------------------------
      LOOP:  cpu time      0.4295: real time      0.4330

 eigenvalue-minimisations  :  1304
 total energy-change (2. order) : 0.2527676E+01  (-0.1100669E+02)
 number of electron      89.9999989 magnetization       9.1686380
 augmentation part       56.6081154 magnetization       6.7541220

 Broyden mixing:
  rms(total) = 0.21377E+01    rms(broyden)= 0.21374E+01
  rms(prec ) = 0.31710E+01
  weight for this iteration     100.00

 eigenvalues of (default mixing * dielectric matrix)
  average eigenvalue GAMMA=   0.6920
  0.6920

 Free energy of the ion-electron system (eV)
  ---------------------------------------------------
  alpha Z        PSCENC =       285.34744303
  Ewald energy   TEWEN  =     52356.90074167
  -Hartree energ DENC   =    -63219.91276224
  -exchange      EXHF   =         0.00000000
  -V(xc)+E(xc)   XCENC  =       365.19681349
  PAW double counting   =     10013.65872165   -10818.23401642
  entropy T*S    EENTRO =        -0.04227535
  eigenvalues    EBANDS =      -170.42392120
  atomic energy  EATOM  =     11152.61838693
  Solvation  Ediel_sol  =         0.00000000
  ---------------------------------------------------
  free energy    TOTEN  =       -34.89086843 eV

  energy without entropy =      -34.84859308  energy(sigma->0) =      -34.87677665


--------------------------------------------------------------------------------------------------------




--------------------------------------- Iteration      1(   7)  ---------------------------------------


    POTLOK:  cpu time      0.0192: real time      0.0194
    SETDIJ:  cpu time      0.0059: real time      0.0059
     EDDAV:  cpu time      0.3736: real time      0.3765
       DOS:  cpu time      0.0009: real time      0.0009
    CHARGE:  cpu time      0.0537: real time      0.0540
    MIXING:  cpu time      0.0008: real time      0.0008
    --------------------------------------------
      LOOP:  cpu time      0.4540: real time      0.4575

 eigenvalue-minimisations  :  1428
 total energy-change (2. order) :-0.5884658E+02  (-0.3205292E+02)
 number of electron      89.9999965 magnetization       9.0179318
 augmentation part       50.9894844 magnetization       5.7369279

 Broyden mixing:
  rms(total) = 0.60004E+01    rms(broyden)= 0.60002E+01
  rms(prec ) = 0.11026E+02
  weight for this iteration     100.00

 eigenvalues of (default mixing * dielectric matrix)
  average eigenvalue GAMMA=   0.4200
  0.7556  0.0844

 Free energy of the ion-electron system (eV)
  ---------------------------------------------------
  alpha Z        PSCENC =       285.34744303
  Ewald energy   TEWEN  =     52356.90074167
  -Hartree energ DENC   =    -63313.01160455
  -exchange      EXHF   =         0.00000000
  -V(xc)+E(xc)   XCENC  =       365.66107751
  PAW double counting   =     10110.71751306   -10931.57765605
  entropy T*S    EENTRO =         0.01384272
  eigenvalues    EBANDS =      -120.40718902
  atomic energy  EATOM  =     11152.61838693
  Solvation  Ediel_sol  =         0.00000000
  ---------------------------------------------------
  free energy    TOTEN  =       -93.73744470 eV

  energy without entropy =      -93.75128741  energy(sigma->0) =      -93.74205893


--------------------------------------------------------------------------------------------------------




--------------------------------------- Iteration      1(   8)  ---------------------------------------


    POTLOK:  cpu time      0.0195: real time      0.0209
    SETDIJ:  cpu time      0.0059: real time      0.0060
     EDDAV:  cpu time      0.4208: real time      0.4243
       DOS:  cpu time      0.0009: real time      0.0009
    CHARGE:  cpu time      0.0541: real time      0.0543
    MIXING:  cpu time      0.0009: real time      0.0009
    --------------------------------------------
      LOOP:  cpu time      0.5021: real time      0.5073

 eigenvalue-minimisations  :  1656
 total energy-change (2. order) : 0.5254681E+02  (-0.2135853E+02)
 number of electron      89.9999978 magnetization       8.8348852
 augmentation part       56.0639180 magnetization       6.5720941

 Broyden mixing:
  rms(total) = 0.23211E+01    rms(broyden)= 0.23207E+01
  rms(prec ) = 0.29146E+01
  weight for this iteration     100.00

 eigenvalues of (default mixing * dielectric matrix)
  average eigenvalue GAMMA=   0.3928
  0.8122  0.2847  0.0815

 Free energy of the ion-electron system (eV)
  ---------------------------------------------------
  alpha Z        PSCENC =       285.34744303
  Ewald energy   TEWEN  =     52356.90074167
  -Hartree energ DENC   =    -63293.79250866
  -exchange      EXHF   =         0.00000000
  -V(xc)+E(xc)   XCENC  =       364.94408235
  PAW double counting   =     10134.07697554   -10961.16969350
  entropy T*S    EENTRO =        -0.05538170
  eigenvalues    EBANDS =       -80.06068011
  atomic energy  EATOM  =     11152.61838693
  Solvation  Ediel_sol  =         0.00000000
  ---------------------------------------------------
  free energy    TOTEN  =       -41.19063444 eV

  energy without entropy =      -41.13525274  energy(sigma->0) =      -41.17217388


--------------------------------------------------------------------------------------------------------




--------------------------------------- Iteration      1(   9)  ---------------------------------------


    POTLOK:  cpu time      0.0190: real time      0.0193
    SETDIJ:  cpu time      0.0058: real time      0.0058
     EDDAV:  cpu time      0.4106: real time      0.4137
       DOS:  cpu time      0.0009: real time      0.0009
    CHARGE:  cpu time      0.0531: real time      0.0533
    MIXING:  cpu time      0.0009: real time      0.0009
    --------------------------------------------
      LOOP:  cpu time      0.4902: real time      0.4939

 eigenvalue-minimisations  :  1616
 total energy-change (2. order) : 0.6909406E+01  (-0.6256413E+01)
 number of electron      89.9999959 magnetization       8.7007899
 augmentation part       57.2833760 magnetization       7.4784699

 Broyden mixing:
  rms(total) = 0.17247E+01    rms(broyden)= 0.17244E+01
  rms(prec ) = 0.18965E+01
  weight for this iteration     100.00

 eigenvalues of (default mixing * dielectric matrix)
  average eigenvalue GAMMA=   0.3596
  0.8455  0.0848  0.2541  0.2541

 Free energy of the ion-electron system (eV)
  ---------------------------------------------------
  alpha Z        PSCENC =       285.34744303
  Ewald energy   TEWEN  =     52356.90074167
  -Hartree energ DENC   =    -63155.85327456
  -exchange      EXHF   =         0.00000000
  -V(xc)+E(xc)   XCENC  =       364.91222905
  PAW double counting   =     10189.66770296   -11026.41179072
  entropy T*S    EENTRO =        -0.02232544
  eigenvalues    EBANDS =      -201.44034108
  atomic energy  EATOM  =     11152.61838693
  Solvation  Ediel_sol  =         0.00000000
  ---------------------------------------------------
  free energy    TOTEN  =       -34.28122815 eV

  energy without entropy =      -34.25890271  energy(sigma->0) =      -34.27378634


--------------------------------------------------------------------------------------------------------




--------------------------------------- Iteration      1(  10)  ---------------------------------------


    POTLOK:  cpu time      0.0190: real time      0.0192
    SETDIJ:  cpu time      0.0056: real time      0.0058
     EDDAV:  cpu time      0.3806: real time      0.3835
       DOS:  cpu time      0.0008: real time      0.0008
    CHARGE:  cpu time      0.0542: real time      0.0548
    MIXING:  cpu time      0.0010: real time      0.0010
    --------------------------------------------
      LOOP:  cpu time      0.4612: real time      0.4652

 eigenvalue-minimisations  :  1428
 total energy-change (2. order) : 0.2640109E+01  (-0.1702964E+01)
 number of electron      89.9999967 magnetization       8.6070883
 augmentation part       57.4072245 magnetization       7.3705861

 Broyden mixing:
  rms(total) = 0.12242E+01    rms(broyden)= 0.12241E+01
  rms(prec ) = 0.12670E+01
  weight for this iteration     100.00

 eigenvalues of (default mixing * dielectric matrix)
  average eigenvalue GAMMA=   0.3554
  0.8746  0.2973  0.2973  0.0838  0.2239

 Free energy of the ion-electron system (eV)
  ---------------------------------------------------
  alpha Z        PSCENC =       285.34744303
  Ewald energy   TEWEN  =     52356.90074167
  -Hartree energ DENC   =    -63196.26697759
  -exchange      EXHF   =         0.00000000
  -V(xc)+E(xc)   XCENC  =       365.73395546
  PAW double counting   =     10239.46256248   -11082.97854061
  entropy T*S    EENTRO =        -0.01328810
  eigenvalues    EBANDS =      -152.44540261
  atomic energy  EATOM  =     11152.61838693
  Solvation  Ediel_sol  =         0.00000000
  ---------------------------------------------------
  free energy    TOTEN  =       -31.64111934 eV

  energy without entropy =      -31.62783124  energy(sigma->0) =      -31.63668997


--------------------------------------------------------------------------------------------------------




--------------------------------------- Iteration      1(  11)  ---------------------------------------


    POTLOK:  cpu time      0.0206: real time      0.0215
    SETDIJ:  cpu time      0.0060: real time      0.0061
     EDDAV:  cpu time      0.3527: real time      0.3554
       DOS:  cpu time      0.0009: real time      0.0009
    CHARGE:  cpu time      0.0554: real time      0.0557
    MIXING:  cpu time      0.0010: real time      0.0010
    --------------------------------------------
      LOOP:  cpu time      0.4366: real time      0.4406

 eigenvalue-minimisations  :  1356
 total energy-change (2. order) : 0.4646343E+00  (-0.1818460E+00)
 number of electron      89.9999969 magnetization       8.1842169
 augmentation part       57.0709502 magnetization       6.7997361

 Broyden mixing:
  rms(total) = 0.10558E+01    rms(broyden)= 0.10558E+01
  rms(prec ) = 0.11086E+01
  weight for this iteration     100.00

 eigenvalues of (default mixing * dielectric matrix)
  average eigenvalue GAMMA=   0.4680
  0.9492  0.6207  0.6207  0.0842  0.2667  0.2667

 Free energy of the ion-electron system (eV)
  ---------------------------------------------------
  alpha Z        PSCENC =       285.34744303
  Ewald energy   TEWEN  =     52356.90074167
  -Hartree energ DENC   =    -63218.03068132
  -exchange      EXHF   =         0.00000000
  -V(xc)+E(xc)   XCENC  =       366.16108518
  PAW double counting   =     10270.24678773   -11117.42909976
  entropy T*S    EENTRO =        -0.00757526
  eigenvalues    EBANDS =      -126.98357320
  atomic energy  EATOM  =     11152.61838693
  Solvation  Ediel_sol  =         0.00000000
  ---------------------------------------------------
  free energy    TOTEN  =       -31.17648500 eV

  energy without entropy =      -31.16890975  energy(sigma->0) =      -31.17395992


--------------------------------------------------------------------------------------------------------




--------------------------------------- Iteration      1(  12)  ---------------------------------------


    POTLOK:  cpu time      0.0191: real time      0.0194
    SETDIJ:  cpu time      0.0058: real time      0.0059
     EDDAV:  cpu time      0.3187: real time      0.3211
       DOS:  cpu time      0.0009: real time      0.0009
    CHARGE:  cpu time      0.0553: real time      0.0556
    MIXING:  cpu time      0.0010: real time      0.0010
    --------------------------------------------
      LOOP:  cpu time      0.4008: real time      0.4037

 eigenvalue-minimisations  :  1188
 total energy-change (2. order) : 0.8590614E+00  (-0.1441520E+00)
 number of electron      89.9999970 magnetization       7.2613492
 augmentation part       56.5549679 magnetization       5.7765634

 Broyden mixing:
  rms(total) = 0.83814E+00    rms(broyden)= 0.83813E+00
  rms(prec ) = 0.88505E+00
  weight for this iteration     100.00

 eigenvalues of (default mixing * dielectric matrix)
  average eigenvalue GAMMA=   0.5528
  1.2562  0.7167  0.7167  0.0842  0.4298  0.4298  0.2362

 Free energy of the ion-electron system (eV)
  ---------------------------------------------------
  alpha Z        PSCENC =       285.34744303
  Ewald energy   TEWEN  =     52356.90074167
  -Hartree energ DENC   =    -63255.81729530
  -exchange      EXHF   =         0.00000000
  -V(xc)+E(xc)   XCENC  =       367.07836967
  PAW double counting   =     10355.19369477   -11209.94230855
  entropy T*S    EENTRO =        -0.00968487
  eigenvalues    EBANDS =       -81.68677093
  atomic energy  EATOM  =     11152.61838693
  Solvation  Ediel_sol  =         0.00000000
  ---------------------------------------------------
  free energy    TOTEN  =       -30.31742358 eV

  energy without entropy =      -30.30773871  energy(sigma->0) =      -30.31419529


--------------------------------------------------------------------------------------------------------




--------------------------------------- Iteration      1(  13)  ---------------------------------------


    POTLOK:  cpu time      0.0189: real time      0.0192
    SETDIJ:  cpu time      0.0059: real time      0.0059
     EDDAV:  cpu time      0.3629: real time      0.3661
       DOS:  cpu time      0.0009: real time      0.0009
    CHARGE:  cpu time      0.0531: real time      0.0533
    MIXING:  cpu time      0.0015: real time      0.0015
    --------------------------------------------
      LOOP:  cpu time      0.4432: real time      0.4468

 eigenvalue-minimisations  :  1392
 total energy-change (2. order) : 0.2669870E+00  (-0.1636394E+00)
 number of electron      89.9999975 magnetization       6.0296571
 augmentation part       56.1379623 magnetization       4.4969811

 Broyden mixing:
  rms(total) = 0.64746E+00    rms(broyden)= 0.64744E+00
  rms(prec ) = 0.70780E+00
  weight for this iteration     100.00

 eigenvalues of (default mixing * dielectric matrix)
  average eigenvalue GAMMA=   0.6535
  1.5144  1.0759  0.7465  0.7465  0.0842  0.4597  0.3629  0.2382

 Free energy of the ion-electron system (eV)
  ---------------------------------------------------
  alpha Z        PSCENC =       285.34744303
  Ewald energy   TEWEN  =     52356.90074167
  -Hartree energ DENC   =    -63293.80240027
  -exchange      EXHF   =         0.00000000
  -V(xc)+E(xc)   XCENC  =       367.75137855
  PAW double counting   =     10506.95642055   -11370.26639155
  entropy T*S    EENTRO =        -0.01164598
  eigenvalues    EBANDS =       -35.54436957
  atomic energy  EATOM  =     11152.61838693
  Solvation  Ediel_sol  =         0.00000000
  ---------------------------------------------------
  free energy    TOTEN  =       -30.05043663 eV

  energy without entropy =      -30.03879065  energy(sigma->0) =      -30.04655463


--------------------------------------------------------------------------------------------------------




--------------------------------------- Iteration      1(  14)  ---------------------------------------


    POTLOK:  cpu time      0.0190: real time      0.0192
    SETDIJ:  cpu time      0.0059: real time      0.0060
     EDDAV:  cpu time      0.3978: real time      0.4010
       DOS:  cpu time      0.0009: real time      0.0009
    CHARGE:  cpu time      0.0534: real time      0.0536
    MIXING:  cpu time      0.0012: real time      0.0012
    --------------------------------------------
      LOOP:  cpu time      0.4782: real time      0.4819

 eigenvalue-minimisations  :  1560
 total energy-change (2. order) :-0.1476307E+01  (-0.1686548E+00)
 number of electron      89.9999972 magnetization       4.3962653
 augmentation part       56.1415494 magnetization       3.0439805

 Broyden mixing:
  rms(total) = 0.49998E+00    rms(broyden)= 0.49996E+00
  rms(prec ) = 0.53502E+00
  weight for this iteration     100.00

 eigenvalues of (default mixing * dielectric matrix)
  average eigenvalue GAMMA=   0.8410
  3.0421  1.1121  0.7931  0.7931  0.6846  0.0842  0.4520  0.3699  0.2377

 Free energy of the ion-electron system (eV)
  ---------------------------------------------------
  alpha Z        PSCENC =       285.34744303
  Ewald energy   TEWEN  =     52356.90074167
  -Hartree energ DENC   =    -63302.71342144
  -exchange      EXHF   =         0.00000000
  -V(xc)+E(xc)   XCENC  =       366.51678802
  PAW double counting   =     10626.62692658   -11493.71253657
  entropy T*S    EENTRO =         0.00159614
  eigenvalues    EBANDS =       -23.11266760
  atomic energy  EATOM  =     11152.61838693
  Solvation  Ediel_sol  =         0.00000000
  ---------------------------------------------------
  free energy    TOTEN  =       -31.52674323 eV

  energy without entropy =      -31.52833937  energy(sigma->0) =      -31.52727528


--------------------------------------------------------------------------------------------------------




--------------------------------------- Iteration      1(  15)  ---------------------------------------


    POTLOK:  cpu time      0.0189: real time      0.0192
    SETDIJ:  cpu time      0.0058: real time      0.0058
     EDDAV:  cpu time      0.3846: real time      0.3878
       DOS:  cpu time      0.0009: real time      0.0009
    CHARGE:  cpu time      0.0538: real time      0.0540
    MIXING:  cpu time      0.0013: real time      0.0013
    --------------------------------------------
      LOOP:  cpu time      0.4653: real time      0.4690

 eigenvalue-minimisations  :  1496
 total energy-change (2. order) :-0.1890895E+01  (-0.2230279E+00)
 number of electron      89.9999970 magnetization       3.3967256
 augmentation part       56.5215740 magnetization       2.5025889

 Broyden mixing:
  rms(total) = 0.46885E+00    rms(broyden)= 0.46881E+00
  rms(prec ) = 0.49556E+00
  weight for this iteration     100.00

 eigenvalues of (default mixing * dielectric matrix)
  average eigenvalue GAMMA=   0.9697
  4.1404  1.4519  0.7814  0.7814  0.0842  0.7067  0.7067  0.2377  0.3789  0.4278

 Free energy of the ion-electron system (eV)
  ---------------------------------------------------
  alpha Z        PSCENC =       285.34744303
  Ewald energy   TEWEN  =     52356.90074167
  -Hartree energ DENC   =    -63287.28966393
  -exchange      EXHF   =         0.00000000
  -V(xc)+E(xc)   XCENC  =       364.77163726
  PAW double counting   =     10694.28704713   -11560.39799296
  entropy T*S    EENTRO =        -0.01746093
  eigenvalues    EBANDS =       -39.63777613
  atomic energy  EATOM  =     11152.61838693
  Solvation  Ediel_sol  =         0.00000000
  ---------------------------------------------------
  free energy    TOTEN  =       -33.41763794 eV

  energy without entropy =      -33.40017701  energy(sigma->0) =      -33.41181763


--------------------------------------------------------------------------------------------------------




--------------------------------------- Iteration      1(  16)  ---------------------------------------


    POTLOK:  cpu time      0.0188: real time      0.0191
    SETDIJ:  cpu time      0.0058: real time      0.0058
     EDDAV:  cpu time      0.3816: real time      0.3845
       DOS:  cpu time      0.0008: real time      0.0008
    CHARGE:  cpu time      0.0534: real time      0.0536
    MIXING:  cpu time      0.0014: real time      0.0014
    --------------------------------------------
      LOOP:  cpu time      0.4618: real time      0.4653

 eigenvalue-minimisations  :  1480
 total energy-change (2. order) :-0.1167900E+01  (-0.1257919E+00)
 number of electron      89.9999970 magnetization       2.3686363
 augmentation part       56.5592433 magnetization       1.6507693

 Broyden mixing:
  rms(total) = 0.41162E+00    rms(broyden)= 0.41161E+00
  rms(prec ) = 0.43694E+00
  weight for this iteration     100.00

 eigenvalues of (default mixing * dielectric matrix)
  average eigenvalue GAMMA=   1.2063
  6.4542  1.8502  0.8877  0.8877  0.7378  0.7378  0.0842  0.2377  0.3755  0.4333
  0.5833

 Free energy of the ion-electron system (eV)
  ---------------------------------------------------
  alpha Z        PSCENC =       285.34744303
  Ewald energy   TEWEN  =     52356.90074167
  -Hartree energ DENC   =    -63310.57828010
  -exchange      EXHF   =         0.00000000
  -V(xc)+E(xc)   XCENC  =       364.04267377
  PAW double counting   =     10668.16828668   -11531.62906984
  entropy T*S    EENTRO =        -0.01626760
  eigenvalues    EBANDS =       -19.43945277
  atomic energy  EATOM  =     11152.61838693
  Solvation  Ediel_sol  =         0.00000000
  ---------------------------------------------------
  free energy    TOTEN  =       -34.58553823 eV

  energy without entropy =      -34.56927063  energy(sigma->0) =      -34.58011570


--------------------------------------------------------------------------------------------------------




--------------------------------------- Iteration      1(  17)  ---------------------------------------


    POTLOK:  cpu time      0.0189: real time      0.0192
    SETDIJ:  cpu time      0.0065: real time      0.0065
     EDDAV:  cpu time      0.3376: real time      0.3404
       DOS:  cpu time      0.0009: real time      0.0009
    CHARGE:  cpu time      0.0551: real time      0.0554
    MIXING:  cpu time      0.0016: real time      0.0016
    --------------------------------------------
      LOOP:  cpu time      0.4206: real time      0.4240

 eigenvalue-minimisations  :  1236
 total energy-change (2. order) :-0.5584676E+00  (-0.8612585E-01)
 number of electron      89.9999971 magnetization       1.5087821
 augmentation part       56.3339296 magnetization       0.8985789

 Broyden mixing:
  rms(total) = 0.23023E+00    rms(broyden)= 0.23022E+00
  rms(prec ) = 0.25409E+00
  weight for this iteration     100.00

 eigenvalues of (default mixing * dielectric matrix)
  average eigenvalue GAMMA=   1.3964
  8.8970  1.8853  1.0192  1.0192  0.7964  0.7964  0.0842  0.2377  0.6513  0.3784
  0.4217  0.5695

 Free energy of the ion-electron system (eV)
  ---------------------------------------------------
  alpha Z        PSCENC =       285.34744303
  Ewald energy   TEWEN  =     52356.90074167
  -Hartree energ DENC   =    -63333.79814671
  -exchange      EXHF   =         0.00000000
  -V(xc)+E(xc)   XCENC  =       364.21431551
  PAW double counting   =     10636.48294396   -11499.34694353
  entropy T*S    EENTRO =        -0.01159451
  eigenvalues    EBANDS =         2.44884785
  atomic energy  EATOM  =     11152.61838693
  Solvation  Ediel_sol  =         0.00000000
  ---------------------------------------------------
  free energy    TOTEN  =       -35.14400580 eV

  energy without entropy =      -35.13241130  energy(sigma->0) =      -35.14014097


--------------------------------------------------------------------------------------------------------




--------------------------------------- Iteration      1(  18)  ---------------------------------------


    POTLOK:  cpu time      0.0199: real time      0.0202
    SETDIJ:  cpu time      0.0060: real time      0.0060
     EDDAV:  cpu time      0.3317: real time      0.3342
       DOS:  cpu time      0.0009: real time      0.0009
    CHARGE:  cpu time      0.0527: real time      0.0531
    MIXING:  cpu time      0.0014: real time      0.0014
    --------------------------------------------
      LOOP:  cpu time      0.4126: real time      0.4158

 eigenvalue-minimisations  :  1252
 total energy-change (2. order) :-0.5673424E+00  (-0.6808377E-01)
 number of electron      89.9999972 magnetization       1.2093775
 augmentation part       56.1129502 magnetization       0.7203234

 Broyden mixing:
  rms(total) = 0.13905E+00    rms(broyden)= 0.13904E+00
  rms(prec ) = 0.15475E+00
  weight for this iteration     100.00

 eigenvalues of (default mixing * dielectric matrix)
  average eigenvalue GAMMA=   1.5636
 11.3165  2.2348  0.0842  0.8693  0.8693  1.0042  0.8563  0.8563  0.2377  0.6870
  0.3778  0.4242  0.5085

 Free energy of the ion-electron system (eV)
  ---------------------------------------------------
  alpha Z        PSCENC =       285.34744303
  Ewald energy   TEWEN  =     52356.90074167
  -Hartree energ DENC   =    -63347.87190553
  -exchange      EXHF   =         0.00000000
  -V(xc)+E(xc)   XCENC  =       364.22333661
  PAW double counting   =     10599.22514687   -11461.81793633
  entropy T*S    EENTRO =        -0.00902680
  eigenvalues    EBANDS =        15.67246534
  atomic energy  EATOM  =     11152.61838693
  Solvation  Ediel_sol  =         0.00000000
  ---------------------------------------------------
  free energy    TOTEN  =       -35.71134821 eV

  energy without entropy =      -35.70232140  energy(sigma->0) =      -35.70833927


--------------------------------------------------------------------------------------------------------




--------------------------------------- Iteration      1(  19)  ---------------------------------------


    POTLOK:  cpu time      0.0188: real time      0.0191
    SETDIJ:  cpu time      0.0058: real time      0.0058
     EDDAV:  cpu time      0.3460: real time      0.3485
       DOS:  cpu time      0.0009: real time      0.0009
    CHARGE:  cpu time      0.0539: real time      0.0544
    MIXING:  cpu time      0.0014: real time      0.0014
    --------------------------------------------
      LOOP:  cpu time      0.4268: real time      0.4302

 eigenvalue-minimisations  :  1320
 total energy-change (2. order) :-0.2321010E+00  (-0.2046151E-01)
 number of electron      89.9999972 magnetization       1.0459402
 augmentation part       56.1121285 magnetization       0.6269719

 Broyden mixing:
  rms(total) = 0.98408E-01    rms(broyden)= 0.98398E-01
  rms(prec ) = 0.10623E+00
  weight for this iteration     100.00

 eigenvalues of (default mixing * dielectric matrix)
  average eigenvalue GAMMA=   1.5676
 11.8323  2.4503  1.2139  0.9757  0.9757  0.0842  0.7564  0.7564  0.2377  0.6604
  0.6604  0.3781  0.4228  0.5413

 Free energy of the ion-electron system (eV)
  ---------------------------------------------------
  alpha Z        PSCENC =       285.34744303
  Ewald energy   TEWEN  =     52356.90074167
  -Hartree energ DENC   =    -63345.08347383
  -exchange      EXHF   =         0.00000000
  -V(xc)+E(xc)   XCENC  =       364.00681921
  PAW double counting   =     10579.40952388   -11441.29031907
  entropy T*S    EENTRO =        -0.01209338
  eigenvalues    EBANDS =        12.15952239
  atomic energy  EATOM  =     11152.61838693
  Solvation  Ediel_sol  =         0.00000000
  ---------------------------------------------------
  free energy    TOTEN  =       -35.94344917 eV

  energy without entropy =      -35.93135579  energy(sigma->0) =      -35.93941804


--------------------------------------------------------------------------------------------------------




--------------------------------------- Iteration      1(  20)  ---------------------------------------


    POTLOK:  cpu time      0.0189: real time      0.0192
    SETDIJ:  cpu time      0.0058: real time      0.0058
     EDDAV:  cpu time      0.3707: real time      0.3735
       DOS:  cpu time      0.0010: real time      0.0010
    CHARGE:  cpu time      0.0561: real time      0.0563
    MIXING:  cpu time      0.0018: real time      0.0019
    --------------------------------------------
      LOOP:  cpu time      0.4543: real time      0.4577

 eigenvalue-minimisations  :  1428
 total energy-change (2. order) :-0.1603629E+00  (-0.1094871E-01)
 number of electron      89.9999972 magnetization       0.8039162
 augmentation part       56.1710683 magnetization       0.4402395

 Broyden mixing:
  rms(total) = 0.75464E-01    rms(broyden)= 0.75451E-01
  rms(prec ) = 0.79827E-01
  weight for this iteration     100.00

 eigenvalues of (default mixing * dielectric matrix)
  average eigenvalue GAMMA=   1.6673
 12.5900  3.0228  1.8306  1.0267  1.0267  1.0422  0.0842  0.7860  0.7860  0.2377
  0.6256  0.6256  0.3779  0.4240  0.5238

 Free energy of the ion-electron system (eV)
  ---------------------------------------------------
  alpha Z        PSCENC =       285.34744303
  Ewald energy   TEWEN  =     52356.90074167
  -Hartree energ DENC   =    -63336.16498627
  -exchange      EXHF   =         0.00000000
  -V(xc)+E(xc)   XCENC  =       363.76275628
  PAW double counting   =     10567.45080608   -11428.80170957
  entropy T*S    EENTRO =        -0.01622346
  eigenvalues    EBANDS =         2.79897319
  atomic energy  EATOM  =     11152.61838693
  Solvation  Ediel_sol  =         0.00000000
  ---------------------------------------------------
  free energy    TOTEN  =       -36.10381210 eV

  energy without entropy =      -36.08758865  energy(sigma->0) =      -36.09840429


--------------------------------------------------------------------------------------------------------




--------------------------------------- Iteration      1(  21)  ---------------------------------------


    POTLOK:  cpu time      0.0190: real time      0.0193
    SETDIJ:  cpu time      0.0060: real time      0.0060
     EDDAV:  cpu time      0.3349: real time      0.3376
       DOS:  cpu time      0.0009: real time      0.0009
    CHARGE:  cpu time      0.0534: real time      0.0536
    MIXING:  cpu time      0.0017: real time      0.0017
    --------------------------------------------
      LOOP:  cpu time      0.4159: real time      0.4191

 eigenvalue-minimisations  :  1268
 total energy-change (2. order) :-0.1123666E+00  (-0.8918174E-02)
 number of electron      89.9999972 magnetization       0.6619336
 augmentation part       56.2133541 magnetization       0.3905645

 Broyden mixing:
  rms(total) = 0.64015E-01    rms(broyden)= 0.63996E-01
  rms(prec ) = 0.65001E-01
  weight for this iteration     100.00

 eigenvalues of (default mixing * dielectric matrix)
  average eigenvalue GAMMA=   1.6721
 13.1038  3.1626  2.2198  1.0247  1.0247  1.0120  0.0842  0.7714  0.7714  0.2377
  0.6844  0.6844  0.6705  0.3780  0.4236  0.5004

 Free energy of the ion-electron system (eV)
  ---------------------------------------------------
  alpha Z        PSCENC =       285.34744303
  Ewald energy   TEWEN  =     52356.90074167
  -Hartree energ DENC   =    -63325.97509130
  -exchange      EXHF   =         0.00000000
  -V(xc)+E(xc)   XCENC  =       363.62006503
  PAW double counting   =     10559.34104096   -11420.64240192
  entropy T*S    EENTRO =        -0.02148486
  eigenvalues    EBANDS =        -7.40487825
  atomic energy  EATOM  =     11152.61838693
  Solvation  Ediel_sol  =         0.00000000
  ---------------------------------------------------
  free energy    TOTEN  =       -36.21617870 eV

  energy without entropy =      -36.19469385  energy(sigma->0) =      -36.20901708


--------------------------------------------------------------------------------------------------------




--------------------------------------- Iteration      1(  22)  ---------------------------------------


    POTLOK:  cpu time      0.0190: real time      0.0192
    SETDIJ:  cpu time      0.0058: real time      0.0058
     EDDAV:  cpu time      0.2923: real time      0.2948
       DOS:  cpu time      0.0009: real time      0.0009
    CHARGE:  cpu time      0.0533: real time      0.0536
    MIXING:  cpu time      0.0018: real time      0.0018
    --------------------------------------------
      LOOP:  cpu time      0.3731: real time      0.3761

 eigenvalue-minimisations  :  1072
 total energy-change (2. order) :-0.4812575E-01  (-0.4246154E-02)
 number of electron      89.9999972 magnetization       0.4951672
 augmentation part       56.1787020 magnetization       0.2482386

 Broyden mixing:
  rms(total) = 0.50417E-01    rms(broyden)= 0.50409E-01
  rms(prec ) = 0.51798E-01
  weight for this iteration     100.00

 eigenvalues of (default mixing * dielectric matrix)
  average eigenvalue GAMMA=   1.7203
 13.7093  3.7996  2.2576  1.3679  1.0232  1.0232  1.0722  0.0842  0.7765  0.7765
  0.2377  0.6430  0.6430  0.3780  0.4234  0.5387  0.4913

 Free energy of the ion-electron system (eV)
  ---------------------------------------------------
  alpha Z        PSCENC =       285.34744303
  Ewald energy   TEWEN  =     52356.90074167
  -Hartree energ DENC   =    -63326.34947293
  -exchange      EXHF   =         0.00000000
  -V(xc)+E(xc)   XCENC  =       363.64152082
  PAW double counting   =     10565.37943041   -11427.20263605
  entropy T*S    EENTRO =        -0.02312012
  eigenvalues    EBANDS =        -6.57659822
  atomic energy  EATOM  =     11152.61838693
  Solvation  Ediel_sol  =         0.00000000
  ---------------------------------------------------
  free energy    TOTEN  =       -36.26430445 eV

  energy without entropy =      -36.24118433  energy(sigma->0) =      -36.25659775


--------------------------------------------------------------------------------------------------------




--------------------------------------- Iteration      1(  23)  ---------------------------------------


    POTLOK:  cpu time      0.0188: real time      0.0190
    SETDIJ:  cpu time      0.0058: real time      0.0058
     EDDAV:  cpu time      0.3066: real time      0.3090
       DOS:  cpu time      0.0009: real time      0.0009
    CHARGE:  cpu time      0.0556: real time      0.0558
    MIXING:  cpu time      0.0020: real time      0.0020
    --------------------------------------------
      LOOP:  cpu time      0.3896: real time      0.3925

 eigenvalue-minimisations  :  1140
 total energy-change (2. order) :-0.5063099E-01  (-0.2962770E-02)
 number of electron      89.9999972 magnetization       0.3503685
 augmentation part       56.1606127 magnetization       0.1524070

 Broyden mixing:
  rms(total) = 0.39400E-01    rms(broyden)= 0.39391E-01
  rms(prec ) = 0.40029E-01
  weight for this iteration     100.00

 eigenvalues of (default mixing * dielectric matrix)
  average eigenvalue GAMMA=   1.7859
 14.2054  4.7131  2.1619  2.0479  1.0328  1.0328  1.0790  0.0842  0.7789  0.7789
  0.8686  0.2377  0.6606  0.6606  0.3780  0.4233  0.5279  0.4743

 Free energy of the ion-electron system (eV)
  ---------------------------------------------------
  alpha Z        PSCENC =       285.34744303
  Ewald energy   TEWEN  =     52356.90074167
  -Hartree energ DENC   =    -63323.30895474
  -exchange      EXHF   =         0.00000000
  -V(xc)+E(xc)   XCENC  =       363.62829554
  PAW double counting   =     10570.77505677   -11433.01652882
  entropy T*S    EENTRO =        -0.02447013
  eigenvalues    EBANDS =        -9.23490570
  atomic energy  EATOM  =     11152.61838693
  Solvation  Ediel_sol  =         0.00000000
  ---------------------------------------------------
  free energy    TOTEN  =       -36.31493545 eV

  energy without entropy =      -36.29046532  energy(sigma->0) =      -36.30677874


--------------------------------------------------------------------------------------------------------




--------------------------------------- Iteration      1(  24)  ---------------------------------------


    POTLOK:  cpu time      0.0189: real time      0.0191
    SETDIJ:  cpu time      0.0058: real time      0.0058
     EDDAV:  cpu time      0.3188: real time      0.3215
       DOS:  cpu time      0.0009: real time      0.0009
    CHARGE:  cpu time      0.0538: real time      0.0541
    MIXING:  cpu time      0.0020: real time      0.0020
    --------------------------------------------
      LOOP:  cpu time      0.4001: real time      0.4035

 eigenvalue-minimisations  :  1196
 total energy-change (2. order) :-0.2432554E+00  (-0.3153525E-02)
 number of electron      89.9999972 magnetization       0.2627445
 augmentation part       56.1973626 magnetization       0.1236121

 Broyden mixing:
  rms(total) = 0.38506E-01    rms(broyden)= 0.38492E-01
  rms(prec ) = 0.42802E-01
  weight for this iteration     100.00

 eigenvalues of (default mixing * dielectric matrix)
  average eigenvalue GAMMA=   1.8441
 14.7055  5.7083  2.6652  1.9731  1.0251  1.0251  1.1475  1.1475  0.0842  0.7777
  0.7777  0.2377  0.6489  0.6489  0.6669  0.3780  0.4232  0.5246  0.4732

 Free energy of the ion-electron system (eV)
  ---------------------------------------------------
  alpha Z        PSCENC =       285.34744303
  Ewald energy   TEWEN  =     52356.90074167
  -Hartree energ DENC   =    -63318.45116501
  -exchange      EXHF   =         0.00000000
  -V(xc)+E(xc)   XCENC  =       363.33192591
  PAW double counting   =     10572.65609549   -11434.72171928
  entropy T*S    EENTRO =        -0.02427836
  eigenvalues    EBANDS =       -14.21562127
  atomic energy  EATOM  =     11152.61838693
  Solvation  Ediel_sol  =         0.00000000
  ---------------------------------------------------
  free energy    TOTEN  =       -36.55819088 eV

  energy without entropy =      -36.53391252  energy(sigma->0) =      -36.55009810


--------------------------------------------------------------------------------------------------------




--------------------------------------- Iteration      1(  25)  ---------------------------------------


    POTLOK:  cpu time      0.0188: real time      0.0190
    SETDIJ:  cpu time      0.0057: real time      0.0058
     EDDAV:  cpu time      0.3366: real time      0.3391
       DOS:  cpu time      0.0010: real time      0.0010
    CHARGE:  cpu time      0.0555: real time      0.0558
    MIXING:  cpu time      0.0023: real time      0.0023
    --------------------------------------------
      LOOP:  cpu time      0.4199: real time      0.4229

 eigenvalue-minimisations  :  1276
 total energy-change (2. order) :-0.1873599E+00  (-0.1063161E-02)
 number of electron      89.9999972 magnetization       0.1720055
 augmentation part       56.1942656 magnetization       0.0465512

 Broyden mixing:
  rms(total) = 0.30245E-01    rms(broyden)= 0.30238E-01
  rms(prec ) = 0.32819E-01
  weight for this iteration     100.00

 eigenvalues of (default mixing * dielectric matrix)
  average eigenvalue GAMMA=   1.9629
 15.5774  7.2248  3.2051  1.9165  1.6589  1.0344  1.0344  0.0842  0.9798  0.9798
  0.7778  0.7778  0.2377  0.6585  0.6585  0.6554  0.3780  0.4232  0.5223  0.4725

 Free energy of the ion-electron system (eV)
  ---------------------------------------------------
  alpha Z        PSCENC =       285.34744303
  Ewald energy   TEWEN  =     52356.90074167
  -Hartree energ DENC   =    -63318.36413586
  -exchange      EXHF   =         0.00000000
  -V(xc)+E(xc)   XCENC  =       363.15612879
  PAW double counting   =     10575.36320413   -11437.44015308
  entropy T*S    EENTRO =        -0.02479335
  eigenvalues    EBANDS =       -14.30237308
  atomic energy  EATOM  =     11152.61838693
  Solvation  Ediel_sol  =         0.00000000
  ---------------------------------------------------
  free energy    TOTEN  =       -36.74555080 eV

  energy without entropy =      -36.72075746  energy(sigma->0) =      -36.73728636


--------------------------------------------------------------------------------------------------------




--------------------------------------- Iteration      1(  26)  ---------------------------------------


[...]
      2      -3.6814      1.00000
      3      -3.3917      1.00000
      4      -2.9800      1.00000
      5      -2.5451      1.00000
      6      -2.1626      1.00000
      7      -1.8370      1.00000
      8      -1.6558      1.00000
      9      -1.5822      1.00000
     10      -1.4902      1.00000
     11      -1.4141      1.00000
     12      -1.1959      1.00000
     13      -1.0049      1.00000
     14      -0.8543      1.00000
     15      -0.6838      1.00000
     16      -0.6589      1.00000
     17      -0.5336      1.00000
     18      -0.4772      1.00000
     19      -0.4044      1.00000
     20      -0.3218      1.00000
     21      -0.3174      1.00000
     22      -0.2154      1.00000
     23      -0.0965      1.00000
     24      -0.0805      1.00000
     25       0.0834      1.00000
     26       0.1759      1.00000
     27       0.3076      1.00000
     28       0.3798      1.00000
     29       0.4592      1.00000
     30       0.5333      1.00000
     31       0.5563      1.00000
     32       0.6196      1.00000
     33       0.6379      1.00000
     34       0.6932      1.00000
     35       0.7122      1.00000
     36       0.7687      1.00000
     37       0.7913      1.00000
     38       0.8056      1.00000
     39       0.9122      1.00000
     40       0.9282      1.00000
     41       1.0596      1.00000
     42       1.1800      1.00000
     43       1.1874      1.00000
     44       1.1994      1.00000
     45       1.3652      1.00001
     46       1.9812      0.79875
     47       3.0857     -0.00000
     48       4.4386     -0.00000
     49       5.9382     -0.00000
     50       7.1513     -0.00000
     51       8.4356      0.00000
     52       9.0237      0.00000
     53       9.3635      0.00000
     54       9.7381      0.00000
     55      10.1571      0.00000
     56      10.5072      0.00000
     57      10.9704      0.00000
     58      11.6414      0.00000
     59      11.8414      0.00000
     60      12.0739      0.00000

 k-point     4 :      -0.3333    0.3333    0.0000
  band No.  band energies     occupation 
      1      -2.5804      1.00000
      2      -1.5743      1.00000
      3      -1.5633      1.00000
      4      -1.5518      1.00000
      5      -1.4904      1.00000
      6      -1.4540      1.00000
      7      -1.4369      1.00000
      8      -1.4052      1.00000
      9      -1.3988      1.00000
     10      -1.3906      1.00000
     11      -1.3765      1.00000
     12      -1.3414      1.00000
     13      -1.2418      1.00000
     14      -1.1372      1.00000
     15      -1.0995      1.00000
     16      -1.0208      1.00000
     17      -0.7336      1.00000
     18      -0.6929      1.00000
     19      -0.6814      1.00000
     20      -0.6160      1.00000
     21      -0.4614      1.00000
     22      -0.3551      1.00000
     23       0.0251      1.00000
     24       0.0788      1.00000
     25       0.2283      1.00000
     26       0.2439      1.00000
     27       0.3022      1.00000
     28       0.3079      1.00000
     29       0.3358      1.00000
     30       0.3445      1.00000
     31       0.3627      1.00000
     32       0.6181      1.00000
     33       0.7155      1.00000
     34       0.8249      1.00000
     35       0.8361      1.00000
     36       0.8586      1.00000
     37       0.9356      1.00000
     38       0.9810      1.00000
     39       0.9843      1.00000
     40       1.0591      1.00000
     41       1.1342      1.00000
     42       5.7531     -0.00000
     43       5.7561     -0.00000
     44       5.7797     -0.00000
     45       5.9274     -0.00000
     46       5.9533     -0.00000
     47       6.1883     -0.00000
     48       6.3431     -0.00000
     49       6.8818     -0.00000
     50       7.0934     -0.00000
     51       7.6360      0.00000
     52       7.6926      0.00000
     53       7.7877      0.00000
     54       8.1915      0.00000
     55       8.2493      0.00000
     56       8.6440      0.00000
     57       9.1891      0.00000
     58       9.5163      0.00000
     59      10.4709      0.00000
     60      10.9401      0.00000


--------------------------------------------------------------------------------------------------------


 soft charge-density along one line, spin component           1
         0         1         2         3         4         5         6         7         8         9
 total charge-density along one line
 
 soft charge-density along one line, spin component           2
         0         1         2         3         4         5         6         7         8         9
 total charge-density along one line
 
 pseudopotential strength for first ion, spin component:           1
 -6.016  -0.000   0.000  -0.004   0.000  -2.368   0.000  -0.000
 -0.000  -6.069  -0.000   0.000  -0.004   0.000  -2.332   0.000
  0.000  -0.000  -6.094  -0.000  -0.000  -0.000   0.000  -2.314
 -0.004   0.000  -0.000  -6.069  -0.000   0.003  -0.000   0.000
  0.000  -0.004  -0.000  -0.000  -6.016  -0.000   0.003   0.000
 -2.368   0.000  -0.000   0.003  -0.000   8.647  -0.000   0.000
  0.000  -2.332   0.000  -0.000   0.003  -0.000   8.624  -0.000
 -0.000   0.000  -2.314   0.000   0.000   0.000  -0.000   8.612
  0.003  -0.000   0.000  -2.332   0.000  -0.002  -0.000  -0.000
 -0.000   0.003   0.000   0.000  -2.368   0.000  -0.002  -0.000
  0.000   0.000   0.003   0.000  -0.000   0.000   0.000   0.001
  0.000   0.000   0.005   0.000  -0.000   0.000   0.000   0.003
  0.000  -0.012  -0.000  -0.000   0.000  -0.000   0.012   0.000
 -0.000   0.000  -0.011   0.000   0.000  -0.000  -0.000   0.010
  0.000  -0.000  -0.000  -0.012   0.000   0.000  -0.000  -0.000
  0.000  -0.014  -0.000   0.000   0.000  -0.000   0.014   0.000
  0.000   0.000  -0.012   0.000   0.000  -0.000  -0.000   0.011
  0.000   0.000  -0.000  -0.014   0.000   0.000  -0.000  -0.000
 pseudopotential strength for first ion, spin component:           2
 -6.016  -0.000   0.000  -0.004   0.000  -2.368   0.000  -0.000
 -0.000  -6.069  -0.000   0.000  -0.004   0.000  -2.332   0.000
  0.000  -0.000  -6.094  -0.000  -0.000  -0.000   0.000  -2.314
 -0.004   0.000  -0.000  -6.069  -0.000   0.003  -0.000   0.000
  0.000  -0.004  -0.000  -0.000  -6.016  -0.000   0.003   0.000
 -2.368   0.000  -0.000   0.003  -0.000   8.647  -0.000   0.000
  0.000  -2.332   0.000  -0.000   0.003  -0.000   8.624  -0.000
 -0.000   0.000  -2.314   0.000   0.000   0.000  -0.000   8.612
  0.003  -0.000   0.000  -2.332   0.000  -0.002  -0.000  -0.000
 -0.000   0.003   0.000   0.000  -2.368   0.000  -0.002  -0.000
  0.000   0.000   0.003   0.000  -0.000   0.000   0.000   0.001
  0.000   0.000   0.005   0.000  -0.000   0.000   0.000   0.003
  0.000  -0.012  -0.000  -0.000   0.000  -0.000   0.012   0.000
 -0.000   0.000  -0.011   0.000   0.000  -0.000  -0.000   0.010
  0.000  -0.000  -0.000  -0.012   0.000   0.000  -0.000  -0.000
  0.000  -0.014  -0.000   0.000   0.000  -0.000   0.014   0.000
  0.000   0.000  -0.012   0.000   0.000  -0.000  -0.000   0.011
  0.000   0.000  -0.000  -0.014   0.000   0.000  -0.000  -0.000
 total augmentation occupancy for first ion, spin component:           1
  1.932   0.000  -0.000  -0.004   0.000  -0.016  -0.000   0.000   0.005  -0.000   0.000  -0.000  -0.000  -0.000   0.006   0.000
  0.000   1.928  -0.000   0.000  -0.004  -0.000  -0.024   0.000  -0.000   0.005  -0.000   0.000   0.009   0.000   0.000  -0.014
 -0.000  -0.000   1.915   0.000  -0.000   0.000   0.000  -0.018  -0.000   0.000  -0.067   0.028  -0.000   0.078  -0.000   0.000
 -0.004   0.000   0.000   1.928  -0.000   0.005  -0.000  -0.000  -0.024   0.000  -0.000   0.000   0.000   0.000   0.009  -0.000
  0.000  -0.004  -0.000  -0.000   1.932  -0.000   0.005   0.000   0.000  -0.016   0.000  -0.000   0.006   0.000   0.000  -0.001
 -0.016  -0.000   0.000   0.005  -0.000   0.013  -0.000  -0.000   0.000  -0.000   0.000  -0.000  -0.000  -0.000   0.004   0.000
 -0.000  -0.024   0.000  -0.000   0.005  -0.000   0.010   0.000   0.000   0.000   0.000  -0.000   0.019  -0.000   0.000  -0.001
  0.000   0.000  -0.018  -0.000   0.000  -0.000   0.000   0.012  -0.000  -0.000  -0.022   0.001   0.000   0.021  -0.000  -0.000
  0.005  -0.000  -0.000  -0.024   0.000   0.000   0.000  -0.000   0.010   0.000   0.000  -0.000   0.000  -0.000   0.019  -0.000
 -0.000   0.005   0.000   0.000  -0.016  -0.000   0.000  -0.000   0.000   0.013   0.000  -0.000   0.004   0.000   0.000  -0.000
  0.000  -0.000  -0.067  -0.000   0.000   0.000   0.000  -0.022   0.000   0.000   1.752  -0.149   0.000   0.174   0.000   0.000
 -0.000   0.000   0.028   0.000  -0.000  -0.000  -0.000   0.001  -0.000  -0.000  -0.149   0.018  -0.000  -0.025  -0.000   0.000
 -0.000   0.009  -0.000   0.000   0.006  -0.000   0.019   0.000   0.000   0.004   0.000  -0.000   0.234   0.000   0.000  -0.015
 -0.000   0.000   0.078   0.000   0.000  -0.000  -0.000   0.021  -0.000   0.000   0.174  -0.025   0.000   0.113   0.000   0.000
  0.006   0.000  -0.000   0.009   0.000   0.004   0.000  -0.000   0.019   0.000   0.000  -0.000   0.000   0.000   0.234  -0.000
  0.000  -0.014   0.000  -0.000  -0.001   0.000  -0.001  -0.000  -0.000  -0.000   0.000   0.000  -0.015   0.000  -0.000   0.001
  0.000  -0.000  -0.021  -0.000   0.000   0.000   0.000  -0.001   0.000   0.000  -0.023   0.003   0.000  -0.009   0.000  -0.000
 -0.001  -0.000   0.000  -0.014  -0.000  -0.000  -0.000   0.000  -0.001  -0.000   0.000   0.000  -0.000   0.000  -0.015   0.000
 total augmentation occupancy for first ion, spin component:           2
 -0.000  -0.000   0.000  -0.000   0.000  -0.000  -0.000   0.000  -0.000   0.000   0.000   0.000  -0.000  -0.000   0.000   0.000
 -0.000   0.000   0.000   0.000   0.000  -0.000  -0.000   0.000  -0.000   0.000   0.000  -0.000   0.000   0.000   0.000   0.000
  0.000   0.000  -0.000   0.000  -0.000   0.000  -0.000  -0.000  -0.000  -0.000  -0.000  -0.000   0.000   0.000  -0.000  -0.000
 -0.000   0.000   0.000   0.000   0.000  -0.000  -0.000   0.000  -0.000   0.000   0.000  -0.000   0.000   0.000   0.000   0.000
  0.000   0.000  -0.000   0.000  -0.000  -0.000   0.000  -0.000   0.000  -0.000   0.000  -0.000   0.000   0.000   0.000   0.000
 -0.000  -0.000   0.000  -0.000  -0.000  -0.000  -0.000  -0.000   0.000  -0.000  -0.000   0.000   0.000  -0.000  -0.000  -0.000
 -0.000  -0.000  -0.000  -0.000   0.000  -0.000  -0.000   0.000  -0.000   0.000   0.000  -0.000   0.000  -0.000   0.000  -0.000
  0.000   0.000  -0.000   0.000  -0.000  -0.000   0.000   0.000  -0.000   0.000   0.000  -0.000  -0.000  -0.000   0.000  -0.000
 -0.000  -0.000  -0.000  -0.000   0.000   0.000  -0.000  -0.000   0.000   0.000   0.000  -0.000   0.000  -0.000   0.000  -0.000
  0.000   0.000  -0.000   0.000  -0.000  -0.000   0.000   0.000   0.000  -0.000  -0.000  -0.000  -0.000   0.000  -0.000   0.000
  0.000   0.000  -0.000   0.000   0.000  -0.000   0.000   0.000   0.000  -0.000  -0.000   0.000  -0.000   0.000  -0.000   0.000
  0.000  -0.000  -0.000  -0.000  -0.000   0.000  -0.000  -0.000  -0.000  -0.000   0.000  -0.000   0.000  -0.000   0.000  -0.000
 -0.000   0.000   0.000   0.000   0.000   0.000   0.000  -0.000   0.000  -0.000  -0.000   0.000  -0.000   0.000  -0.000   0.000
 -0.000   0.000   0.000   0.000   0.000  -0.000  -0.000  -0.000  -0.000   0.000   0.000  -0.000   0.000  -0.000   0.000   0.000
  0.000   0.000  -0.000   0.000   0.000  -0.000   0.000   0.000   0.000  -0.000  -0.000   0.000  -0.000   0.000  -0.000   0.000
  0.000   0.000  -0.000   0.000   0.000  -0.000  -0.000  -0.000  -0.000   0.000   0.000  -0.000   0.000   0.000   0.000  -0.000
  0.000  -0.000  -0.000  -0.000  -0.000  -0.000   0.000   0.000   0.000  -0.000  -0.000   0.000  -0.000   0.000  -0.000   0.000
 -0.000   0.000  -0.000   0.000   0.000  -0.000  -0.000  -0.000  -0.000   0.000   0.000  -0.000   0.000   0.000   0.000  -0.000


------------------------ aborting loop because EDIFF is reached ----------------------------------------


    CHARGE:  cpu time      0.0534: real time      0.0536
    FORLOC:  cpu time      0.0011: real time      0.0011
    FORNL :  cpu time      0.1247: real time      0.1252
    STRESS:  cpu time      0.1383: real time      0.1388
    FORCOR:  cpu time      0.0186: real time      0.0188
    FORHAR:  cpu time      0.0029: real time      0.0029
    MIXING:  cpu time      0.0004: real time      0.0004
    OFIELD:  cpu time      0.0000: real time      0.0000

 ---------------------------------------------------------------------------------------------

         DFTD3 V3.0 Rev 1        
 Edisp (eV)   -3.67469

 E6    (eV) :    -1.5339
 E8    (eV) :    -2.1408
 % E8        : 58.26
    FORVDW:  cpu time      0.0723: real time      0.0725

  FORCE on cell =-STRESS in cart. coord.  units (eV):
  Direction    XX          YY          ZZ          XY          YZ          ZX
  --------------------------------------------------------------------------------------
  Alpha Z   285.34744   285.34744   285.34744
  Ewald   59047.20704 59040.10077-64925.73331    -0.00000     6.95055    -0.00000
  Hartree 62293.74702 62289.20938-60471.82736     0.00000     1.68935    -0.00000
  E(xc)    -520.99401  -520.97474  -521.08217    -0.00013     0.04429     0.00000
  Local  ************************124328.80323     0.00400    -6.66811    -0.00001
  n-local  -174.39745  -174.63936  -179.79932     3.98426    -0.10816     1.26860
  augment   759.77354   759.90644   753.64760    -0.00385    -0.05742     0.00000
  Kinetic   742.55448   741.97753   734.41983   -15.30245    -1.58489     2.53151
  Fock        0.00000     0.00000     0.00000     0.00000     0.00000     0.00000
  vdW        -4.38640    -4.32546    -3.78217     0.00000     0.01738     0.00000
  -------------------------------------------------------------------------------------
  Total      -3.91931    -4.13174    -0.00622    -0.00000     0.28299     0.00000
  in kB     -37.09215   -39.10258    -0.05884    -0.00000     2.67824     0.00000
  external pressure =      -25.42 kB  Pullay stress =        0.00 kB


 VOLUME and BASIS-vectors are now :
 -----------------------------------------------------------------------------
  energy-cutoff  :      400.00
  volume of cell :      169.29
      direct lattice vectors                 reciprocal lattice vectors
     2.566797733  0.000000000  0.000000000     0.389590495 -0.224930177  0.000000000
     1.283398867  2.222912043  0.000000000     0.000000000  0.449860355  0.000000000
     0.000000000  0.000000000 29.670471191     0.000000000  0.000000000  0.033703543

  length of vectors
     2.566797733  2.566797733 29.670471191     0.449860355  0.449860355  0.033703543


 FORCES acting on ions
    electron-ion (+dipol)            ewald-force                    non-local-force                 convergence-correction
 -----------------------------------------------------------------------------------------------
   0.575E-06 0.348E-01 0.607E+04   0.104E-07 -.357E-01 -.607E+04   0.370E-12 0.164E-01 -.351E+01   -.450E-06 -.146E-01 -.599E+00
   0.885E-06 0.131E+00 0.436E+04   -.265E-07 -.137E+00 -.436E+04   0.800E-12 0.356E-01 0.256E+00   -.843E-06 -.278E-01 -.112E+01
   -.126E-04 0.233E+00 0.267E+04   0.259E-07 -.237E+00 -.267E+04   0.141E-11 0.626E-01 0.190E+00   0.176E-06 -.544E-01 -.136E+01
   0.259E-04 -.315E-01 0.982E+03   0.529E-09 0.292E-01 -.981E+03   0.169E-11 0.752E-01 -.798E+00   -.174E-06 -.621E-01 -.103E+01
   -.148E-05 -.508E-01 -.724E+03   -.264E-07 0.523E-01 0.724E+03   0.132E-11 0.589E-01 0.944E+00   -.162E-05 -.527E-01 -.670E+00
   0.713E-05 0.176E+00 -.241E+04   0.264E-07 -.177E+00 0.241E+04   0.933E-12 0.415E-01 0.456E-02   0.147E-06 -.421E-01 -.121E+00
   -.381E-06 0.226E+00 -.412E+04   0.820E-09 -.240E+00 0.412E+04   0.731E-12 0.325E-01 0.472E-01   -.480E-06 -.199E-01 0.460E+00
   -.561E-05 -.191E+01 -.583E+04   -.110E-07 0.191E+01 0.582E+04   -.103E-12 -.457E-02 0.438E+01   0.399E-06 0.450E-02 0.769E+00
   -.745E-07 0.561E+01 -.506E+03   0.827E-10 -.695E+01 0.502E+03   0.308E-10 0.137E+01 0.457E+01   -.161E-06 -.317E-02 0.511E-01
   -.225E-06 -.446E+01 -.488E+03   -.221E-09 0.579E+01 0.493E+03   -.297E-10 -.132E+01 -.466E+01   -.572E-06 -.460E-02 0.429E-01
 -----------------------------------------------------------------------------------------------
   0.141E-04 -.391E-01 0.219E+01   0.219E-12 -.560E-13 0.188E-11   0.830E-11 0.369E+00 0.143E+01   -.358E-05 -.277E+00 -.359E+01
 
 
 POSITION                                       TOTAL-FORCE (eV/Angst)
 -----------------------------------------------------------------------------------
     -0.00000     -0.00419     -0.00226        -0.000000     -0.004347      0.027821
      1.28340      0.73550      1.99578        -0.000000     -0.003550     -0.015046
      2.56680      1.46977      4.01886        -0.000000     -0.001200      0.004547
     -0.00000     -0.02889      6.05392         0.000000      0.005546     -0.025122
      1.28340      0.69749      8.06778         0.000000      0.002457     -0.001837
      2.56680      1.42539     10.09765        -0.000000     -0.006985      0.005405
     -0.00000     -0.07616     12.11413        -0.000000     -0.007523      0.018406
      1.28340      0.63686     14.10960        -0.000000     -0.003126     -0.027651
      2.56680      1.80826     16.23396        -0.000000     -0.001425      0.006828
      2.56680      2.01415     16.96600         0.000000      0.020152      0.006649
 -----------------------------------------------------------------------------------
    total drift:                                0.000011      0.053023      0.032041


--------------------------------------------------------------------------------------------------------



  FREE ENERGIE OF THE ION-ELECTRON SYSTEM (eV)
  ---------------------------------------------------
  free  energy   TOTEN  =       -40.88771074 eV

  energy  without entropy=      -40.86151716  energy(sigma->0) =      -40.87897954
 
 d Force = 0.4852824E-04[-0.842E-05, 0.105E-03]  d Energy = 0.1398353E-03-0.913E-04
 d Force = 0.1667623E+02[ 0.167E+02, 0.167E+02]  d Ewald  = 0.1667623E+02-0.475E-06


--------------------------------------------------------------------------------------------------------


    POTLOK:  cpu time      0.0261: real time      0.0262


--------------------------------------------------------------------------------------------------------


 stress matrix after NEB project (eV)
     -3.91931     -0.00000      0.00000
     -0.00000     -4.13174      0.28299
      0.00000      0.28299     -0.00622
  FORCES: max atom, RMS     0.028159    0.018633
  FORCE total and by dimension    0.058923    0.027821
  Stress total and by dimension    5.708985    4.131742


--------------------------------------------------------------------------------------------------------


  
 reached required accuracy - stopping structural energy minimisation
     LOOP+:  cpu time      1.1136: real time      1.1920
    4ORBIT:  cpu time      0.0000: real time      0.0000

 total amount of memory used by VASP MPI-rank0    34706. kBytes
=======================================================================

   base      :      30000. kBytes
   nonl-proj :        813. kBytes
   fftplans  :        716. kBytes
   grid      :       1856. kBytes
   one-center:         62. kBytes
   wavefun   :       1259. kBytes
 
  
  
 General timing and accounting informations for this job:
 ========================================================
  
                  Total CPU time used (sec):      163.077
                            User time (sec):      162.157
                          System time (sec):        0.921
                         Elapsed time (sec):      167.915
  
                   Maximum memory used (kb):      233308.
                   Average memory used (kb):          N/A
  
                          Minor page faults:       294004
                          Major page faults:         6541
                 Voluntary context switches:         4841
