<?xml version="1.0" encoding="ISO-8859-1"?>
<modeling>
 <generator>
  <i name="program" type="string">vasp </i>
  <i name="version" type="string">6.3.2  </i>
  <i name="subversion" type="string">27Jun22 (build Aug 17 2022 15:43:34) complex                          parallel </i>
  <i name="platform" type="string">tv2STDVTST </i>
  <i name="date" type="string">2025 02 04 </i>
  <i name="time" type="string">14:24:01 </i>
 </generator>
 <incar>
  <i type="int" name="ISTART">     0</i>
  <i type="string" name="PREC">Normal</i>
  <i type="int" name="ISPIN">     2</i>
  <i type="int" name="ICHARG">     2</i>
  <i type="int" name="IBRION">     2</i>
  <i name="EDIFF">      0.00020000</i>
  <i name="EDIFFG">     -0.03000000</i>
  <i type="int" name="NSW">   800</i>
  <i type="int" name="ISIF">     2</i>
  <i type="int" name="ISYM">     1</i>
  <i name="ENCUT">    400.00000000</i>
  <i name="POTIM">      0.50000000</i>
  <i type="logical" name="LREAL"> F  </i>
  <i type="int" name="ISMEAR">     1</i>
  <i name="SIGMA">      0.20000000</i>
  <i type="logical" name="LWAVE"> F  </i>
  <i type="logical" name="LCHARG"> F  </i>
  <i type="string" name="GGA">PE</i>
  <i type="int" name="IVDW">    11</i>
 </incar>
 <primitive_cell>
  <structure name="primitive_cell" >
   <crystal>
    <varray name="basis" >
     <v>       2.56679773       0.00000000       0.00000000 </v>
     <v>       1.28339887       2.22291204       0.00000000 </v>
     <v>       0.00000000       0.00000000      29.67047119 </v>
    </varray>
    <i name="volume">    169.29275369 </i>
    <varray name="rec_basis" >
     <v>       0.38959050      -0.22493018       0.00000000 </v>
     <v>       0.00000000       0.44986035       0.00000000 </v>
     <v>       0.00000000       0.00000000       0.03370354 </v>
    </varray>
   </crystal>
   <varray name="positions" >
    <v>       0.00000000       0.00000000       0.00000000 </v>
    <v>       0.33333333       0.33333333       0.07063526 </v>
    <v>       0.66666667       0.66666667       0.13908594 </v>
    <v>       0.00000000       0.00000000       0.20816512 </v>
    <v>       0.33333333       0.33333333       0.27656240 </v>
    <v>       0.66666667       0.66666667       0.34556034 </v>
    <v>       0.00000000       0.00000000       0.41400593 </v>
    <v>       0.33333333       0.33333333       0.48139269 </v>
    <v>       0.66666667       0.66666667       0.53425930 </v>
    <v>       0.54801563       0.90396875       0.55203798 </v>
   </varray>
  </structure>
  <varray name="primitive_index" >
   <v type="int" >        1 </v>
   <v type="int" >        2 </v>
   <v type="int" >        3 </v>
   <v type="int" >        4 </v>
   <v type="int" >        5 </v>
   <v type="int" >        6 </v>
   <v type="int" >        7 </v>
   <v type="int" >        8 </v>
   <v type="int" >        9 </v>
   <v type="int" >       10 </v>
  </varray>
 </primitive_cell>
 <kpoints>
  <generation param="Monkhorst-Pack">
   <v type="int" name="divisions">       3        3        1 </v>
   <v name="usershift">      0.00000000       0.00000000       0.00000000 </v>
   <v name="genvec1">      0.33333333       0.00000000       0.00000000 </v>
   <v name="genvec2">      0.00000000       0.33333333       0.00000000 </v>
   <v name="genvec3">      0.00000000       0.00000000       1.00000000 </v>
   <v name="shift">      0.00000000       0.00000000       0.00000000 </v>
  </generation>
  <varray name="kpointlist" >
   <v>       0.00000000       0.00000000       0.00000000 </v>
   <v>       0.33333333       0.00000000       0.00000000 </v>
   <v>       0.00000000       0.33333333       0.00000000 </v>
   <v>      -0.33333333       0.33333333       0.00000000 </v>
  </varray>
  <varray name="weights" >
   <v>       0.11111111 </v>
   <v>       0.44444444 </v>
   <v>       0.22222222 </v>
   <v>       0.22222222 </v>
  </varray>
 </kpoints>
 <parameters>
  <separator name="general" >
   <i type="string" name="SYSTEM">unknown system</i>
   <i type="logical" name="LCOMPAT"> F  </i>
  </separator>
  <separator name="electronic" >
   <i type="string" name="PREC">normal</i>
   <i name="ENMAX">    400.00000000</i>
   <i name="ENAUG">    586.98000000</i>
   <i name="EDIFF">      0.00020000</i>
   <i type="int" name="IALGO">    38</i>
   <i type="int" name="IWAVPR">    11</i>
   <i type="int" name="NBANDS">    60</i>
   <i type="int" name="NBANDSLOW">    -1</i>
   <i type="int" name="NBANDSHIGH">    -1</i>
   <i name="NELECT">     90.00000000</i>
   <i type="int" name="TURBO">     0</i>
   <i type="int" name="IRESTART">     0</i>
   <i type="int" name="NREBOOT">     0</i>
   <i type="int" name="NMIN">     0</i>
   <i name="EREF">      0.00000000</i>
   <separator name="electronic smearing" >
    <i type="int" name="ISMEAR">     1</i>
    <i name="SIGMA">      0.20000000</i>
    <i name="KSPACING">      0.50000000</i>
    <i type="logical" name="KGAMMA"> T  </i>
    <i type="logical" name="KBLOWUP"> T  </i>
   </separator>
   <separator name="electronic projectors" >
    <i type="logical" name="LREAL"> F  </i>
    <v name="ROPT">      0.00000000      0.00000000</v>
    <i type="int" name="LMAXPAW">  -100</i>
    <i type="int" name="LMAXMIX">     2</i>
    <i type="logical" name="NLSPLINE"> F  </i>
   </separator>
   <separator name="electronic startup" >
    <i type="int" name="ISTART">     0</i>
    <i type="int" name="ICHARG">     2</i>
    <i type="int" name="INIWAV">     1</i>
   </separator>
   <separator name="electronic spin" >
    <i type="int" name="ISPIN">     2</i>
    <i type="logical" name="LNONCOLLINEAR"> F  </i>
    <v name="MAGMOM">      1.00000000      1.00000000      1.00000000      1.00000000      1.00000000      1.00000000      1.00000000      1.00000000      1.00000000      1.00000000</v>
    <i name="NUPDOWN">     -1.00000000</i>
    <i type="logical" name="LSORBIT"> F  </i>
    <v name="SAXIS">      0.00000000      0.00000000      1.00000000</v>
    <i type="logical" name="LSPIRAL"> F  </i>
    <v name="QSPIRAL">      0.00000000      0.00000000      0.00000000</v>
    <i type="logical" name="LZEROZ"> F  </i>
   </separator>
   <separator name="electronic exchange-correlation" >
    <i type="logical" name="LASPH"> F  </i>
    <i type="logical" name="LMETAGGA"> F  </i>
   </separator>
   <separator name="electronic convergence" >
    <i type="int" name="NELM">    60</i>
    <i type="int" name="NELMDL">    -5</i>
    <i type="int" name="NELMIN">     2</i>
    <i name="ENINI">    400.00000000</i>
    <separator name="electronic convergence detail" >
     <i type="logical" name="LDIAG"> T  </i>
     <i type="logical" name="LSUBROT"> F  </i>
     <i name="WEIMIN">      0.00100000</i>
     <i name="EBREAK">      0.00000083</i>
     <i name="DEPER">      0.30000000</i>
     <i type="int" name="NRMM">     4</i>
     <i name="TIME">      0.40000000</i>
    </separator>
   </separator>
   <separator name="electronic mixer" >
    <i name="AMIX">      0.40000000</i>
    <i name="BMIX">      1.00000000</i>
    <i name="AMIN">      0.10000000</i>
    <i name="AMIX_MAG">      1.60000000</i>
    <i name="BMIX_MAG">      1.00000000</i>
    <separator name="electronic mixer details" >
     <i type="int" name="IMIX">     4</i>
     <i type="logical" name="MIXFIRST"> F  </i>
     <i type="int" name="MAXMIX">   -45</i>
     <i name="WC">    100.00000000</i>
     <i type="int" name="INIMIX">     1</i>
     <i type="int" name="MIXPRE">     1</i>
     <i type="int" name="MREMOVE">     5</i>
    </separator>
   </separator>
   <separator name="electronic dipolcorrection" >
    <i type="logical" name="LDIPOL"> F  </i>
    <i type="logical" name="LMONO"> F  </i>
    <i type="int" name="IDIPOL">     0</i>
    <i name="EPSILON">      1.00000000</i>
    <v name="DIPOL">   -100.00000000   -100.00000000   -100.00000000</v>
    <i name="EFIELD">      0.00000000</i>
   </separator>
  </separator>
  <separator name="grids" >
   <i type="int" name="NGX">    14</i>
   <i type="int" name="NGY">    14</i>
   <i type="int" name="NGZ">   150</i>
   <i type="int" name="NGXF">    28</i>
   <i type="int" name="NGYF">    28</i>
   <i type="int" name="NGZF">   300</i>
   <i type="logical" name="ADDGRID"> F  </i>
  </separator>
  <separator name="ionic" >
   <i type="int" name="NSW">   800</i>
   <i type="int" name="IBRION">     2</i>
   <i type="int" name="MDALGO">     0</i>
   <i type="int" name="ISIF">     2</i>
   <i name="PSTRESS">      0.00000000</i>
   <i name="EDIFFG">     -0.03000000</i>
   <i type="int" name="NFREE">     1</i>
   <i name="POTIM">      0.50000000</i>
   <i name="SMASS">     -3.00000000</i>
   <i name="SCALEE">      1.00000000</i>
  </separator>
  <separator name="ionic md" >
   <i name="TEBEG">      0.00010000</i>
   <i name="TEEND">      0.00010000</i>
   <i type="int" name="NBLOCK">     1</i>
   <i type="int" name="KBLOCK">   800</i>
   <i type="int" name="NPACO">   256</i>
   <i name="APACO">     10.00000000</i>
  </separator>
  <separator name="symmetry" >
   <i type="int" name="ISYM">     1</i>
   <i name="SYMPREC">      0.00001000</i>
  </separator>
  <separator name="dos" >
   <i type="int" name="LORBIT">     0</i>
   <v name="RWIGS">     -1.00000000     -1.00000000</v>
   <i type="int" name="NEDOS">   301</i>
   <i name="EMIN">     10.00000000</i>
   <i name="EMAX">    -10.00000000</i>
   <i name="EFERMI">      0.00000000</i>
  </separator>
  <separator name="writing" >
   <i type="int" name="NWRITE">     2</i>
   <i type="logical" name="LWAVE"> F  </i>
   <i type="logical" name="LDOWNSAMPLE"> F  </i>
   <i type="logical" name="LCHARG"> F  </i>
   <i type="logical" name="LPARD"> F  </i>
   <i type="logical" name="LVTOT"> F  </i>
   <i type="logical" name="LVHAR"> F  </i>
   <i type="logical" name="LELF"> F  </i>
   <i type="logical" name="LOPTICS"> F  </i>
   <v name="STM">      0.00000000      0.00000000      0.00000000      0.00000000      0.00000000      0.00000000      0.00000000</v>
  </separator>
  <separator name="performance" >
   <i type="int" name="NPAR">     4</i>
   <i type="int" name="NSIM">     4</i>
   <i type="int" name="NBLK">    -1</i>
   <i type="logical" name="LPLANE"> T  </i>
   <i type="logical" name="LSCALAPACK"> T  </i>
   <i type="logical" name="LSCAAWARE"> F  </i>
   <i type="logical" name="LSCALU"> F  </i>
   <i type="logical" name="LASYNC"> F  </i>
   <i type="logical" name="LORBITALREAL"> F  </i>
  </separator>
  <separator name="miscellaneous" >
   <i type="int" name="IDIOT">     3</i>
   <i type="int" name="PHON_NSTRUCT">    -1</i>
   <i type="logical" name="LMUSIC"> F  </i>
   <v name="POMASS">     63.54600000      1.00000000</v>
   <v name="DARWINR">      0.00000000      0.00000000</v>
   <v name="DARWINV">      1.00000000      1.00000000</v>
   <i type="logical" name="LCORR"> T  </i>
  </separator>
  <i type="logical" name="GGA_COMPAT"> T  </i>
  <i type="logical" name="LBERRY"> F  </i>
  <i type="int" name="ICORELEVEL">     0</i>
  <i type="logical" name="LDAU"> F  </i>
  <i type="int" name="I_CONSTRAINED_M">     0</i>
  <separator name="electronic exchange-correlation" >
   <i type="string" name="GGA">PE</i>
   <i type="int" name="VOSKOWN">     0</i>
   <i type="logical" name="LHFCALC"> F  </i>
   <i type="string" name="PRECFOCK"></i>
   <i type="logical" name="LSYMGRAD"> F  </i>
   <i type="logical" name="LHFONE"> F  </i>
   <i type="logical" name="LRHFCALC"> F  </i>
   <i type="logical" name="LTHOMAS"> F  </i>
   <i type="logical" name="LMODELHF"> F  </i>
   <i type="logical" name="LFOCKACE"> F  </i>
   <i name="ENCUT4O">     -1.00000000</i>
   <i type="int" name="EXXOEP">     0</i>
   <i type="int" name="FOURORBIT">     0</i>
   <i name="AEXX">      0.00000000</i>
   <i name="HFALPHA">      0.00000000</i>
   <i name="MCALPHA">      0.00000000</i>
   <i name="ALDAX">      1.00000000</i>
   <i name="AGGAX">      1.00000000</i>
   <i name="ALDAC">      1.00000000</i>
   <i name="AGGAC">      1.00000000</i>
   <i type="int" name="NKREDX">     1</i>
   <i type="int" name="NKREDY">     1</i>
   <i type="int" name="NKREDZ">     1</i>
   <i type="logical" name="SHIFTRED"> F  </i>
   <i type="logical" name="ODDONLY"> F  </i>
   <i type="logical" name="EVENONLY"> F  </i>
   <i type="int" name="LMAXFOCK">     0</i>
   <i type="int" name="NMAXFOCKAE">     0</i>
   <i type="logical" name="LFOCKAEDFT"> F  </i>
   <i name="HFSCREEN">      0.00000000</i>
   <i name="HFSCREENC">      0.00000000</i>
   <i type="int" name="NBANDSGWLOW">     0</i>
  </separator>
  <separator name="vdW DFT" >
   <i type="logical" name="LUSE_VDW"> F  </i>
   <i name="Zab_VDW">     -0.84910000</i>
   <i name="PARAM1">      0.12340000</i>
   <i name="PARAM2">      1.00000000</i>
   <i name="PARAM3">      0.00000000</i>
  </separator>
  <separator name="model GW" >
   <i type="int" name="MODEL_GW">     0</i>
   <i name="MODEL_EPS0">     10.15756522</i>
   <i name="MODEL_ALPHA">      1.00000000</i>
  </separator>
  <separator name="linear response parameters" >
   <i type="logical" name="LEPSILON"> F  </i>
   <i type="logical" name="LRPA"> F  </i>
   <i type="logical" name="LNABLA"> F  </i>
   <i type="logical" name="LVEL"> F  </i>
   <i name="CSHIFT">      0.10000000</i>
   <i name="OMEGAMAX">     -1.00000000</i>
   <i name="DEG_THRESHOLD">      0.00200000</i>
   <i name="RTIME">     -0.10000000</i>
   <i name="WPLASMAI">      0.00000000</i>
   <v name="DFIELD">      0.00000000      0.00000000      0.00000000</v>
   <v name="WPLASMA">      0.00000000      0.00000000      0.00000000      0.00000000      0.00000000      0.00000000      0.00000000      0.00000000      0.00000000</v>
  </separator>
  <separator name="orbital magnetization" >
   <i type="logical" name="NUCIND"> F  </i>
   <v name="MAGPOS">      0.00000000      0.00000000      0.00000000</v>
   <i type="logical" name="LNICSALL"> T  </i>
   <i type="logical" name="ORBITALMAG"> F  </i>
   <i type="logical" name="LMAGBLOCH"> F  </i>
   <i type="logical" name="LCHIMAG"> F  </i>
   <i type="logical" name="LGAUGE"> T  </i>
   <i type="int" name="MAGATOM">     0</i>
   <v name="MAGDIPOL">      0.00000000      0.00000000      0.00000000</v>
   <v name="AVECCONST">      0.00000000      0.00000000      0.00000000</v>
  </separator>
  <separator name="response functions" >
   <i type="logical" name="LFINITE_TEMPERATURE"> F  </i>
   <i type="logical" name="LADDER"> F  </i>
   <i type="logical" name="LRPAFORCE"> F  </i>
   <i type="logical" name="LFXC"> F  </i>
   <i type="logical" name="LHARTREE"> T  </i>
   <i type="int" name="IBSE">     0</i>
   <v type="int" name="KPOINT">    -1     0     0     0</v>
   <i type="logical" name="LTCTC"> F  </i>
   <i type="logical" name="LTCTE"> F  </i>
   <i type="logical" name="LTETE"> F  </i>
   <i type="logical" name="LTRIPLET"> F  </i>
   <i type="logical" name="LFXCEPS"> F  </i>
   <i type="logical" name="LFXHEG"> F  </i>
   <i type="int" name="NATURALO">     2</i>
   <i type="logical" name="LHOLEGF"> F  </i>
   <i type="logical" name="L2ORDER"> F  </i>
   <i type="logical" name="LDMP1"> F  </i>
   <i type="logical" name="LMP2LT"> F  </i>
   <i type="logical" name="LSMP2LT"> F  </i>
   <i type="logical" name="LGWLF"> F  </i>
   <i name="ENCUTGW">     -2.00000000</i>
   <i name="ENCUTGWSOFT">     -2.00000000</i>
   <i name="ENCUTLF">     -1.00000000</i>
   <i type="logical" name="LESF_SPLINES"> F  </i>
   <i type="int" name="LMAXMP2">    -1</i>
   <i name="SCISSOR">      0.00000000</i>
   <i type="int" name="NOMEGA">     0</i>
   <i type="int" name="NOMEGAR">     0</i>
   <i type="int" name="NBANDSGW">    -1</i>
   <i type="int" name="NBANDSO">    -1</i>
   <i type="int" name="NBANDSV">    -1</i>
   <i type="int" name="NELMGW">     1</i>
   <i type="int" name="NELMHF">     1</i>
   <i type="int" name="DIM">     3</i>
   <i type="int" name="IESPILON">     4</i>
   <i type="int" name="ANTIRES">     0</i>
   <i name="OMEGAMAX">    -30.00000000</i>
   <i name="OMEGAMIN">    -30.00000000</i>
   <i name="OMEGATL">   -200.00000000</i>
   <i type="int" name="OMEGAGRID">     0</i>
   <i name="CSHIFT">     -0.10000000</i>
   <i type="logical" name="LSELFENERGY"> F  </i>
   <i type="logical" name="LSPECTRAL"> F  </i>
   <i type="logical" name="LSPECTRALGW"> F  </i>
   <i type="logical" name="LSINGLES"> F  </i>
   <i type="logical" name="LFERMIGW"> F  </i>
   <i type="logical" name="ODDONLYGW"> F  </i>
   <i type="logical" name="EVENONLYGW"> F  </i>
   <i type="int" name="NKREDLFX">     1</i>
   <i type="int" name="NKREDLFY">     1</i>
   <i type="int" name="NKREDLFZ">     1</i>
   <i type="int" name="MAXMEM">  2800</i>
   <i type="int" name="TELESCOPE">     0</i>
   <i type="int" name="NTAUPAR">    -1</i>
   <i type="int" name="NOMEGAPAR">    -1</i>
   <i name="DAMP_NEWTON">      0.80000001</i>
   <i name="LAMBDA">      1.00000000</i>
  </separator>
  <separator name="External order field" >
   <i name="OFIELD_KAPPA">      0.00000000</i>
   <v name="OFIELD_K">      0.00000000      0.00000000      0.00000000</v>
   <i name="OFIELD_Q6_NEAR">      0.00000000</i>
   <i name="OFIELD_Q6_FAR">      0.00000000</i>
   <i name="OFIELD_A">      0.00000000</i>
  </separator>
  <separator name="optional k-points parameters" >
   <i type="int" name="KPOINTS_OPT_MODE">     1</i>
   <i type="logical" name="LKPOINTS_OPT"> F  </i>
  </separator>
 </parameters>
 <atominfo>
  <atoms>      10 </atoms>
  <types>       2 </types>
  <array name="atoms" >
   <dimension dim="1">ion</dimension>
   <field type="string">element</field>
   <field type="int">atomtype</field>
   <set>
    <rc><c>Cu</c><c>   1</c></rc>
    <rc><c>Cu</c><c>   1</c></rc>
    <rc><c>Cu</c><c>   1</c></rc>
    <rc><c>Cu</c><c>   1</c></rc>
    <rc><c>Cu</c><c>   1</c></rc>
    <rc><c>Cu</c><c>   1</c></rc>
    <rc><c>Cu</c><c>   1</c></rc>
    <rc><c>Cu</c><c>   1</c></rc>
    <rc><c>H </c><c>   2</c></rc>
    <rc><c>H </c><c>   2</c></rc>
   </set>
  </array>
  <array name="atomtypes" >
   <dimension dim="1">type</dimension>
   <field type="int">atomspertype</field>
   <field type="string">element</field>
   <field>mass</field>
   <field>valence</field>
   <field type="string">pseudopotential</field>
   <set>
    <rc><c>   8</c><c>Cu</c><c>     63.54600000</c><c>     11.00000000</c><c>  PAW_PBE Cu 22Jun2005                  </c></rc>
    <rc><c>   2</c><c>H </c><c>      1.00000000</c><c>      1.00000000</c><c>  PAW_PBE H 15Jun2001                   </c></rc>
   </set>
  </array>
 </atominfo>
 <structure name="initialpos" >
  <crystal>
   <varray name="basis" >
    <v>       2.56679773       0.00000000       0.00000000 </v>
    <v>       1.28339887       2.22291204       0.00000000 </v>
    <v>       0.00000000       0.00000000      29.67047119 </v>
   </varray>
   <i name="volume">    169.29275369 </i>
   <varray name="rec_basis" >
    <v>       0.38959050      -0.22493018       0.00000000 </v>
    <v>       0.00000000       0.44986035       0.00000000 </v>
    <v>       0.00000000       0.00000000       0.03370354 </v>
   </varray>
  </crystal>
  <varray name="positions" >
   <v>       0.00000000       0.00000000       0.00000000 </v>
   <v>       0.33333333       0.33333333       0.07063526 </v>
   <v>       0.66666667       0.66666667       0.13908594 </v>
   <v>       0.00000000       0.00000000       0.20816512 </v>
   <v>       0.33333333       0.33333333       0.27656240 </v>
   <v>       0.66666667       0.66666667       0.34556034 </v>
   <v>       0.00000000       0.00000000       0.41400593 </v>
   <v>       0.33333333       0.33333333       0.48139269 </v>
   <v>       0.66666667       0.66666667       0.53425930 </v>
   <v>       0.54801563       0.90396875       0.55203798 </v>
  </varray>
 </structure>
 <calculation>
  <scstep>
   <time name="dav">    0.29    0.29</time>
   <time name="total">    0.32    0.32</time>
   <energy>
    <i name="alphaZ">    285.34744303 </i>
    <i name="ewald">  52356.90074167 </i>
    <i name="hartreedc"> -63409.73054411 </i>
    <i name="XCdc">    372.60108536 </i>
    <i name="pawpsdc">   9828.36862813 </i>
    <i name="pawaedc"> -10674.97285505 </i>
    <i name="eentropy">     -0.00387552 </i>
    <i name="bandstr">    885.67465295 </i>
    <i name="atom">  11152.61838693 </i>
    <i name="e_fr_energy">    796.80366340 </i>
    <i name="e_wo_entrp">    796.80753892 </i>
    <i name="e_0_energy">    796.80495524 </i>
   </energy>
  </scstep>
  <scstep>
   <time name="dav">    0.27    0.28</time>
   <time name="total">    0.28    0.28</time>
   <energy>
    <i name="e_fr_energy">     73.35527429 </i>
    <i name="e_wo_entrp">     73.35802646 </i>
    <i name="e_0_energy">     73.35619168 </i>
   </energy>
  </scstep>
  <scstep>
   <time name="dav">    0.28    0.28</time>
   <time name="total">    0.28    0.28</time>
   <energy>
    <i name="e_fr_energy">    -32.73181442 </i>
    <i name="e_wo_entrp">    -32.75387916 </i>
    <i name="e_0_energy">    -32.73916933 </i>
   </energy>
  </scstep>
  <scstep>
   <time name="dav">    0.30    0.30</time>
   <time name="total">    0.30    0.30</time>
   <energy>
    <i name="e_fr_energy">    -37.31677882 </i>
    <i name="e_wo_entrp">    -37.35040563 </i>
    <i name="e_0_energy">    -37.32798776 </i>
   </energy>
  </scstep>
  <scstep>
   <time name="dav">    0.31    0.31</time>
   <time name="total">    0.37    0.37</time>
   <energy>
    <i name="e_fr_energy">    -37.41854472 </i>
    <i name="e_wo_entrp">    -37.45243709 </i>
    <i name="e_0_energy">    -37.42984218 </i>
   </energy>
  </scstep>
  <scstep>
   <time name="dav">    0.34    0.35</time>
   <time name="total">    0.43    0.43</time>
   <energy>
    <i name="e_fr_energy">    -34.89086843 </i>
    <i name="e_wo_entrp">    -34.84859308 </i>
    <i name="e_0_energy">    -34.87677665 </i>
   </energy>
  </scstep>
  <scstep>
   <time name="dav">    0.37    0.38</time>
   <time name="total">    0.45    0.46</time>
   <energy>
    <i name="e_fr_energy">    -93.73744470 </i>
    <i name="e_wo_entrp">    -93.75128741 </i>
    <i name="e_0_energy">    -93.74205893 </i>
   </energy>
  </scstep>
  <scstep>
   <time name="dav">    0.42    0.42</time>
   <time name="total">    0.50    0.51</time>
   <energy>
    <i name="e_fr_energy">    -41.19063444 </i>
    <i name="e_wo_entrp">    -41.13525274 </i>
    <i name="e_0_energy">    -41.17217388 </i>
   </energy>
  </scstep>
  <scstep>
   <time name="dav">    0.41    0.41</time>
   <time name="total">    0.49    0.49</time>
   <energy>
    <i name="e_fr_energy">    -34.28122815 </i>
    <i name="e_wo_entrp">    -34.25890271 </i>
    <i name="e_0_energy">    -34.27378634 </i>
   </energy>
  </scstep>
  <scstep>
   <time name="dav">    0.38    0.38</time>
   <time name="total">    0.46    0.47</time>
   <energy>
    <i name="e_fr_energy">    -31.64111934 </i>
    <i name="e_wo_entrp">    -31.62783124 </i>
    <i name="e_0_energy">    -31.63668997 </i>
   </energy>
  </scstep>
  <scstep>
   <time name="dav">    0.35    0.36</time>
   <time name="total">    0.44    0.44</time>
   <energy>
    <i name="e_fr_energy">    -31.17648500 </i>
    <i name="e_wo_entrp">    -31.16890975 </i>
    <i name="e_0_energy">    -31.17395992 </i>
   </energy>
  </scstep>
  <scstep>
   <time name="dav">    0.32    0.32</time>
   <time name="total">    0.40    0.40</time>
   <energy>
    <i name="e_fr_energy">    -30.31742358 </i>
    <i name="e_wo_entrp">    -30.30773871 </i>
    <i name="e_0_energy">    -30.31419529 </i>
   </energy>
  </scstep>
  <scstep>
   <time name="dav">    0.36    0.37</time>
   <time name="total">    0.44    0.45</time>
   <energy>
    <i name="e_fr_energy">    -30.05043663 </i>
    <i name="e_wo_entrp">    -30.03879065 </i>
    <i name="e_0_energy">    -30.04655463 </i>
   </energy>
  </scstep>
  <scstep>
   <time name="dav">    0.40    0.40</time>
   <time name="total">    0.48    0.48</time>
   <energy>
    <i name="e_fr_energy">    -31.52674323 </i>
    <i name="e_wo_entrp">    -31.52833937 </i>
    <i name="e_0_energy">    -31.52727528 </i>
   </energy>
  </scstep>
  <scstep>
   <time name="dav">    0.38    0.39</time>
   <time name="total">    0.47    0.47</time>
   <energy>
    <i name="e_fr_energy">    -33.41763794 </i>
    <i name="e_wo_entrp">    -33.40017701 </i>
    <i name="e_0_energy">    -33.41181763 </i>
   </energy>
  </scstep>
  <scstep>
   <time name="dav">    0.38    0.38</time>
   <time name="total">    0.46    0.47</time>
   <energy>
    <i name="e_fr_energy">    -34.58553823 </i>
    <i name="e_wo_entrp">    -34.56927063 </i>
    <i name="e_0_energy">    -34.58011570 </i>
   </energy>
  </scstep>
  <scstep>
   <time name="dav">    0.34    0.34</time>
   <time name="total">    0.42    0.42</time>
   <energy>
    <i name="e_fr_energy">    -35.14400580 </i>
    <i name="e_wo_entrp">    -35.13241130 </i>
    <i name="e_0_energy">    -35.14014097 </i>
   </energy>
  </scstep>
  <scstep>
   <time name="dav">    0.33    0.33</time>
   <time name="total">    0.41    0.42</time>
   <energy>
    <i name="e_fr_energy">    -35.71134821 </i>
    <i name="e_wo_entrp">    -35.70232140 </i>
    <i name="e_0_energy">    -35.70833927 </i>
   </energy>
  </scstep>
  <scstep>
   <time name="dav">    0.35    0.35</time>
   <time name="total">    0.43    0.43</time>
   <energy>
    <i name="e_fr_energy">    -35.94344917 </i>
    <i name="e_wo_entrp">    -35.93135579 </i>
    <i name="e_0_energy">    -35.93941804 </i>
   </energy>
  </scstep>
  <scstep>
   <time name="dav">    0.37    0.37</time>
   <time name="total">    0.45    0.46</time>
   <energy>
    <i name="e_fr_energy">    -36.10381210 </i>
    <i name="e_wo_entrp">    -36.08758865 </i>
    <i name="e_0_energy">    -36.09840429 </i>
   </energy>
  </scstep>
  <scstep>
   <time name="dav">    0.33    0.34</time>
   <time name="total">    0.42    0.42</time>
   <energy>
    <i name="e_fr_energy">    -36.21617870 </i>
    <i name="e_wo_entrp">    -36.19469385 </i>
    <i name="e_0_energy">    -36.20901708 </i>
   </energy>
  </scstep>
  <scstep>
   <time name="dav">    0.29    0.29</time>
   <time name="total">    0.37    0.38</time>
   <energy>
    <i name="e_fr_energy">    -36.26430445 </i>
    <i name="e_wo_entrp">    -36.24118433 </i>
    <i name="e_0_energy">    -36.25659775 </i>
   </energy>
  </scstep>
  <scstep>
   <time name="dav">    0.31    0.31</time>
   <time name="total">    0.39    0.39</time>
   <energy>
    <i name="e_fr_energy">    -36.31493545 </i>
    <i name="e_wo_entrp">    -36.29046532 </i>
    <i name="e_0_energy">    -36.30677874 </i>
   </energy>
  </scstep>
  <scstep>
   <time name="dav">    0.32    0.32</time>
   <time name="total">    0.40    0.40</time>
   <energy>
    <i name="e_fr_energy">    -36.55819088 </i>
    <i name="e_wo_entrp">    -36.53391252 </i>
    <i name="e_0_energy">    -36.55009810 </i>
   </energy>
  </scstep>
  <scstep>
   <time name="dav">    0.34    0.34</time>
   <time name="total">    0.42    0.42</time>
   <energy>
    <i name="e_fr_energy">    -36.74555080 </i>
    <i name="e_wo_entrp">    -36.72075746 </i>
    <i name="e_0_energy">    -36.73728636 </i>
   </energy>
  </scstep>
  <scstep>
   <time name="dav">    0.36    0.36</time>
   <time name="total">    0.44    0.45</time>
   <energy>
    <i name="e_fr_energy">    -36.85702982 </i>
    <i name="e_wo_entrp">    -36.83396943 </i>
    <i name="e_0_energy">    -36.84934302 </i>
   </energy>
  </scstep>
  <scstep>
   <time name="dav">    0.32    0.32</time>
   <time name="total">    0.40    0.41</time>
   <energy>
    <i name="e_fr_energy">    -36.88383875 </i>
    <i name="e_wo_entrp">    -36.86130692 </i>
    <i name="e_0_energy">    -36.87632814 </i>
   </energy>
  </scstep>
  <scstep>
   <time name="dav">    0.34    0.34</time>
   <time name="total">    0.42    0.42</time>
   <energy>
    <i name="e_fr_energy">    -36.88996580 </i>
    <i name="e_wo_entrp">    -36.86698816 </i>
    <i name="e_0_energy">    -36.88230659 </i>
   </energy>
  </scstep>
  <scstep>
   <time name="dav">    0.25    0.25</time>
   <time name="total">    0.33    0.33</time>
   <energy>
    <i name="e_fr_energy">    -36.89228286 </i>
    <i name="e_wo_entrp">    -36.86897658 </i>
    <i name="e_0_energy">    -36.88451410 </i>
   </energy>
  </scstep>
  <scstep>
   <time name="dav">    0.26    0.26</time>
   <time name="total">    0.34    0.35</time>
   <energy>
    <i name="e_fr_energy">    -36.89403482 </i>
    <i name="e_wo_entrp">    -36.87023280 </i>
    <i name="e_0_energy">    -36.88610082 </i>
   </energy>
  </scstep>
  <scstep>
   <time name="dav">    0.25    0.25</time>
   <time name="total">    0.33    0.33</time>
   <energy>
    <i name="e_fr_energy">    -36.89475240 </i>
    <i name="e_wo_entrp">    -36.87077017 </i>
    <i name="e_0_energy">    -36.88675832 </i>
   </energy>
  </scstep>
  <scstep>
   <time name="dav">    0.23    0.23</time>
   <time name="total">    0.32    0.32</time>
   <energy>
    <i name="e_fr_energy">    -36.89610397 </i>
    <i name="e_wo_entrp">    -36.87192986 </i>
    <i name="e_0_energy">    -36.88804593 </i>
   </energy>
  </scstep>
  <scstep>
   <time name="dav">    0.22    0.22</time>
   <time name="total">    0.31    0.31</time>
   <energy>
    <i name="e_fr_energy">    -36.89754745 </i>
    <i name="e_wo_entrp">    -36.87366973 </i>
    <i name="e_0_energy">    -36.88958821 </i>
   </energy>
  </scstep>
  <scstep>
   <time name="dav">    0.21    0.21</time>
   <time name="total">    0.30    0.30</time>
   <energy>
    <i name="e_fr_energy">    -36.89839643 </i>
    <i name="e_wo_entrp">    -36.87420946 </i>
    <i name="e_0_energy">    -36.89033411 </i>
   </energy>
  </scstep>
  <scstep>
   <time name="dav">    0.21    0.21</time>
   <time name="total">    0.30    0.30</time>
   <energy>
    <i name="e_fr_energy">    -36.89898669 </i>
    <i name="e_wo_entrp">    -36.87479573 </i>
    <i name="e_0_energy">    -36.89092303 </i>
   </energy>
  </scstep>
  <scstep>
   <time name="dav">    0.21    0.21</time>
   <time name="total">    0.30    0.30</time>
   <energy>
    <i name="e_fr_energy">    -36.89941840 </i>
    <i name="e_wo_entrp">    -36.87523607 </i>
    <i name="e_0_energy">    -36.89135762 </i>
   </energy>
  </scstep>
  <scstep>
   <time name="dav">    0.21    0.22</time>
   <time name="total">    0.24    0.24</time>
   <energy>
    <i name="alphaZ">    285.34744303 </i>
    <i name="ewald">  52356.90074167 </i>
    <i name="hartreedc"> -63316.86445666 </i>
    <i name="XCdc">    363.08488644 </i>
    <i name="pawpsdc">  10575.21703863 </i>
    <i name="pawaedc"> -11437.36497379 </i>
    <i name="eentropy">     -0.02420115 </i>
    <i name="bandstr">    -15.81436285 </i>
    <i name="atom">  11152.61838693 </i>
    <i name="e_fr_energy">    -36.89949775 </i>
    <i name="e_wo_entrp">    -36.87529660 </i>
    <i name="e_0_energy">    -36.89143070 </i>
   </energy>
  </scstep>
  <structure>
   <crystal>
    <varray name="basis" >
     <v>       2.56679773       0.00000000       0.00000000 </v>
     <v>       1.28339887       2.22291204       0.00000000 </v>
     <v>       0.00000000       0.00000000      29.67047119 </v>
    </varray>
    <i name="volume">    169.29275369 </i>
    <varray name="rec_basis" >
     <v>       0.38959050      -0.22493018       0.00000000 </v>
     <v>       0.00000000       0.44986035       0.00000000 </v>
     <v>       0.00000000       0.00000000       0.03370354 </v>
    </varray>
   </crystal>
   <varray name="positions" >
    <v>       0.00000000       0.00000000       0.00000000 </v>
    <v>       0.33333333       0.33333333       0.07063526 </v>
    <v>       0.66666667       0.66666667       0.13908594 </v>
    <v>       0.00000000       0.00000000       0.20816512 </v>
    <v>       0.33333333       0.33333333       0.27656240 </v>
    <v>       0.66666667       0.66666667       0.34556034 </v>
    <v>       0.00000000       0.00000000       0.41400593 </v>
    <v>       0.33333333       0.33333333       0.48139269 </v>
    <v>       0.66666667       0.66666667       0.53425930 </v>
    <v>       0.54801563       0.90396875       0.55203798 </v>
   </varray>
  </structure>
  <varray name="forces" >
   <v>       0.00000000       0.00020254       0.47213558 </v>
   <v>      -0.00000000      -0.00049124      -0.39436081 </v>
   <v>       0.00000000       0.00064085       0.00413221 </v>
   <v>      -0.00000000      -0.00060996      -0.00254126 </v>
   <v>       0.00000000       0.00023918      -0.02563538 </v>
   <v>       0.00000000       0.00039290      -0.02365455 </v>
   <v>      -0.00000000      -0.00829839      -0.11638316 </v>
   <v>      -0.00000000      -0.18551964      -0.73380991 </v>
   <v>      -0.00000000      -0.44864829      -0.43711000 </v>
   <v>       0.00000000       0.64209203       1.25722727 </v>
  </varray>
  <varray name="stress" >
   <v>     -44.27485135      -0.00000000       0.00000000 </v>
   <v>      -0.00000000     -43.93955848       6.07420607 </v>
   <v>       0.00000000       6.07421141      -2.60297903 </v>
  </varray>
  <energy>
   <i name="e_fr_energy">    -40.56991269 </i>
   <i name="e_wo_entrp">    -40.54571154 </i>
   <i name="e_0_energy">    -40.56184564 </i>
  </energy>
  <time name="totalsc">   14.80   14.94</time>
 </calculation>
 <calculation>
  <scstep>
   <time name="dav">    0.28    0.28</time>
   <time name="total">    0.36    0.37</time>
   <energy>
    <i name="alphaZ">    285.34744303 </i>
    <i name="ewald">  52619.23117259 </i>
    <i name="hartreedc"> -63580.24554826 </i>
    <i name="XCdc">    363.05791372 </i>
    <i name="pawpsdc">  10575.19448965 </i>
    <i name="pawaedc"> -11437.33562667 </i>
    <i name="eentropy">     -0.02435654 </i>
    <i name="bandstr">    -14.74168612 </i>
    <i name="atom">  11152.61838693 </i>
    <i name="e_fr_energy">    -36.89781167 </i>
    <i name="e_wo_entrp">    -36.87345513 </i>
    <i name="e_0_energy">    -36.88969283 </i>
   </energy>
  </scstep>
  <scstep>
   <time name="dav">    0.36    0.36</time>
   <time name="total">    0.44    0.44</time>
   <energy>
    <i name="e_fr_energy">    -36.92131369 </i>
    <i name="e_wo_entrp">    -36.89293478 </i>
    <i name="e_0_energy">    -36.91185406 </i>
   </energy>
  </scstep>
  <scstep>
   <time name="dav">    0.31    0.31</time>
   <time name="total">    0.39    0.40</time>
   <energy>
    <i name="e_fr_energy">    -36.92900499 </i>
    <i name="e_wo_entrp">    -36.91423055 </i>
    <i name="e_0_energy">    -36.92408018 </i>
   </energy>
  </scstep>
  <scstep>
   <time name="dav">    0.35    0.35</time>
   <time name="total">    0.42    0.43</time>
   <energy>
    <i name="e_fr_energy">    -36.91973544 </i>
    <i name="e_wo_entrp">    -36.89028852 </i>
    <i name="e_0_energy">    -36.90991980 </i>
   </energy>
  </scstep>
  <scstep>
   <time name="dav">    0.39    0.40</time>
   <time name="total">    0.47    0.48</time>
   <energy>
    <i name="e_fr_energy">    -36.91690135 </i>
    <i name="e_wo_entrp">    -36.89314433 </i>
    <i name="e_0_energy">    -36.90898234 </i>
   </energy>
  </scstep>
  <scstep>
   <time name="dav">    0.44    0.44</time>
   <time name="total">    0.52    0.52</time>
   <energy>
    <i name="e_fr_energy">    -36.91566853 </i>
    <i name="e_wo_entrp">    -36.89180582 </i>
    <i name="e_0_energy">    -36.90771429 </i>
   </energy>
  </scstep>
  <scstep>
   <time name="dav">    0.35    0.35</time>
   <time name="total">    0.43    0.43</time>
   <energy>
    <i name="e_fr_energy">    -36.91554516 </i>
    <i name="e_wo_entrp">    -36.89032015 </i>
    <i name="e_0_energy">    -36.90713682 </i>
   </energy>
  </scstep>
  <scstep>
   <time name="dav">    0.24    0.24</time>
   <time name="total">    0.26    0.26</time>
   <energy>
    <i name="alphaZ">    285.34744303 </i>
    <i name="ewald">  52619.23117259 </i>
    <i name="hartreedc"> -63573.95240403 </i>
    <i name="XCdc">    362.93726228 </i>
    <i name="pawpsdc">  10578.23407293 </i>
    <i name="pawaedc"> -11440.51050967 </i>
    <i name="eentropy">     -0.02468681 </i>
    <i name="bandstr">    -20.79632216 </i>
    <i name="atom">  11152.61838693 </i>
    <i name="e_fr_energy">    -36.91558490 </i>
    <i name="e_wo_entrp">    -36.89089810 </i>
    <i name="e_0_energy">    -36.90735597 </i>
   </energy>
  </scstep>
  <structure>
   <crystal>
    <varray name="basis" >
     <v>       2.56679773       0.00000000       0.00000000 </v>
     <v>       1.28339887       2.22291204       0.00000000 </v>
     <v>       0.00000000       0.00000000      29.67047119 </v>
    </varray>
    <i name="volume">    169.29275369 </i>
    <varray name="rec_basis" >
     <v>       0.38959050      -0.22493018       0.00000000 </v>
     <v>       0.00000000       0.44986035       0.00000000 </v>
     <v>       0.00000000       0.00000000       0.03370354 </v>
    </varray>
   </crystal>
   <varray name="positions" >
    <v>      -0.00000220       0.00000440       0.00076767 </v>
    <v>       0.33333866       0.33332267       0.06999405 </v>
    <v>       0.66665971       0.66668057       0.13909266 </v>
    <v>       0.00000662      -0.00001324       0.20816098 </v>
    <v>       0.33333074       0.33333852       0.27652071 </v>
    <v>       0.66666240       0.66667519       0.34552188 </v>
    <v>       0.00009005      -0.00018010       0.41381670 </v>
    <v>       0.33534645       0.32930710       0.48019956 </v>
    <v>       0.67153505       0.65692990       0.53354858 </v>
    <v>       0.54104814       0.91790372       0.55408216 </v>
   </varray>
  </structure>
  <varray name="forces" >
   <v>       0.00000000       0.00010154       0.29775441 </v>
   <v>      -0.00000000      -0.00107512      -0.14217976 </v>
   <v>       0.00000000       0.00029678      -0.07982335 </v>
   <v>      -0.00000000      -0.00090376      -0.01281504 </v>
   <v>      -0.00000000      -0.00004179      -0.01893819 </v>
   <v>      -0.00000000      -0.00060606      -0.05466472 </v>
   <v>      -0.00000000      -0.01863566      -0.25437215 </v>
   <v>      -0.00000000      -0.15854014      -0.33843801 </v>
   <v>       0.00000000       0.72750425       0.65419608 </v>
   <v>      -0.00000000      -0.54810003      -0.05071928 </v>
  </varray>
  <varray name="stress" >
   <v>     -41.41581994      -0.00000000      -0.00000000 </v>
   <v>      -0.00000000     -47.69452141      -0.19344473 </v>
   <v>      -0.00000000      -0.19343989      -4.33884268 </v>
  </varray>
  <energy>
   <i name="e_fr_energy">    -40.61466994 </i>
   <i name="e_wo_entrp">    -40.58998314 </i>
   <i name="e_0_energy">    -40.60644101 </i>
  </energy>
  <time name="totalsc">    3.77    3.84</time>
 </calculation>
 <calculation>
  <scstep>
   <time name="dav">    0.28    0.28</time>
   <time name="total">    0.36    0.36</time>
   <energy>
    <i name="alphaZ">    285.34744303 </i>
    <i name="ewald">  52542.83443039 </i>
    <i name="hartreedc"> -63497.21880105 </i>
    <i name="XCdc">    362.94391476 </i>
    <i name="pawpsdc">  10578.50476864 </i>
    <i name="pawaedc"> -11440.78956040 </i>
    <i name="eentropy">     -0.02468588 </i>
    <i name="bandstr">    -21.14988884 </i>
    <i name="atom">  11152.61838693 </i>
    <i name="e_fr_energy">    -36.93399242 </i>
    <i name="e_wo_entrp">    -36.90930654 </i>
    <i name="e_0_energy">    -36.92576380 </i>
   </energy>
  </scstep>
  <scstep>
   <time name="dav">    0.34    0.34</time>
   <time name="total">    0.42    0.42</time>
   <energy>
    <i name="e_fr_energy">    -36.93600057 </i>
    <i name="e_wo_entrp">    -36.91237863 </i>
    <i name="e_0_energy">    -36.92812659 </i>
   </energy>
  </scstep>
  <scstep>
   <time name="dav">    0.30    0.31</time>
   <time name="total">    0.38    0.38</time>
   <energy>
    <i name="e_fr_energy">    -36.93722319 </i>
    <i name="e_wo_entrp">    -36.90896562 </i>
    <i name="e_0_energy">    -36.92780400 </i>
   </energy>
  </scstep>
  <scstep>
   <time name="dav">    0.23    0.23</time>
   <time name="total">    0.30    0.31</time>
   <energy>
    <i name="e_fr_energy">    -36.93581743 </i>
    <i name="e_wo_entrp">    -36.91209863 </i>
    <i name="e_0_energy">    -36.92791116 </i>
   </energy>
  </scstep>
  <scstep>
   <time name="dav">    0.23    0.23</time>
   <time name="total">    0.26    0.26</time>
   <energy>
    <i name="alphaZ">    285.34744303 </i>
    <i name="ewald">  52542.83443039 </i>
    <i name="hartreedc"> -63498.53320853 </i>
    <i name="XCdc">    362.97209263 </i>
    <i name="pawpsdc">  10577.37254121 </i>
    <i name="pawaedc"> -11439.60275744 </i>
    <i name="eentropy">     -0.02461214 </i>
    <i name="bandstr">    -19.92001855 </i>
    <i name="atom">  11152.61838693 </i>
    <i name="e_fr_energy">    -36.93570248 </i>
    <i name="e_wo_entrp">    -36.91109034 </i>
    <i name="e_0_energy">    -36.92749843 </i>
   </energy>
  </scstep>
  <structure>
   <crystal>
    <varray name="basis" >
     <v>       2.56679773       0.00000000       0.00000000 </v>
     <v>       1.28339887       2.22291204       0.00000000 </v>
     <v>       0.00000000       0.00000000      29.67047119 </v>
    </varray>
    <i name="volume">    169.29275369 </i>
    <varray name="rec_basis" >
     <v>       0.38959050      -0.22493018       0.00000000 </v>
     <v>       0.00000000       0.44986035       0.00000000 </v>
     <v>       0.00000000       0.00000000       0.03370354 </v>
    </varray>
   </crystal>
   <varray name="positions" >
    <v>      -0.00000156       0.00000312       0.00054495 </v>
    <v>       0.33333712       0.33332577       0.07018009 </v>
    <v>       0.66666173       0.66667654       0.13909071 </v>
    <v>       0.00000470      -0.00000940       0.20816218 </v>
    <v>       0.33333149       0.33333702       0.27653281 </v>
    <v>       0.66666364       0.66667272       0.34553304 </v>
    <v>       0.00006392      -0.00012784       0.41387160 </v>
    <v>       0.33476239       0.33047522       0.48054572 </v>
    <v>       0.67012260       0.65975480       0.53375478 </v>
    <v>       0.54306959       0.91386081       0.55348909 </v>
   </varray>
  </structure>
  <varray name="forces" >
   <v>       0.00000000       0.00106805       0.37010423 </v>
   <v>       0.00000000       0.00043989      -0.23850963 </v>
   <v>       0.00000000       0.00159718      -0.04450085 </v>
   <v>       0.00000000       0.00000585       0.00021284 </v>
   <v>       0.00000000       0.00111285      -0.01403248 </v>
   <v>       0.00000000       0.00066343      -0.03701832 </v>
   <v>      -0.00000000      -0.01474407      -0.21452619 </v>
   <v>      -0.00000000      -0.17742503      -0.48871049 </v>
   <v>       0.00000000       0.61765800       0.56037024 </v>
   <v>      -0.00000000      -0.43037616       0.10661065 </v>
  </varray>
  <varray name="stress" >
   <v>     -40.27752683      -0.00000000       0.00000000 </v>
   <v>      -0.00000000     -45.78540620       0.56070738 </v>
   <v>       0.00000000       0.56071232      -2.95165166 </v>
  </varray>
  <energy>
   <i name="e_fr_energy">    -40.61892968 </i>
   <i name="e_wo_entrp">    -40.59431753 </i>
   <i name="e_0_energy">    -40.61072563 </i>
  </energy>
  <time name="totalsc">    2.18    2.21</time>
 </calculation>
 <calculation>
  <scstep>
   <time name="dav">    0.28    0.28</time>
   <time name="total">    0.35    0.36</time>
   <energy>
    <i name="alphaZ">    285.34744303 </i>
    <i name="ewald">  52850.52611155 </i>
    <i name="hartreedc"> -63806.14080199 </i>
    <i name="XCdc">    363.03553178 </i>
    <i name="pawpsdc">  10577.42619798 </i>
    <i name="pawaedc"> -11439.67241014 </i>
    <i name="eentropy">     -0.02274677 </i>
    <i name="bandstr">    -20.07478310 </i>
    <i name="atom">  11152.61838693 </i>
    <i name="e_fr_energy">    -36.95707073 </i>
    <i name="e_wo_entrp">    -36.93432396 </i>
    <i name="e_0_energy">    -36.94948847 </i>
   </energy>
  </scstep>
  <scstep>
   <time name="dav">    0.41    0.42</time>
   <time name="total">    0.49    0.50</time>
   <energy>
    <i name="e_fr_energy">    -36.99376200 </i>
    <i name="e_wo_entrp">    -36.96076243 </i>
    <i name="e_0_energy">    -36.98276215 </i>
   </energy>
  </scstep>
  <scstep>
   <time name="dav">    0.44    0.45</time>
   <time name="total">    0.53    0.53</time>
   <energy>
    <i name="e_fr_energy">    -36.98613463 </i>
    <i name="e_wo_entrp">    -36.96554182 </i>
    <i name="e_0_energy">    -36.97927036 </i>
   </energy>
  </scstep>
  <scstep>
   <time name="dav">    0.37    0.37</time>
   <time name="total">    0.45    0.45</time>
   <energy>
    <i name="e_fr_energy">    -36.98415099 </i>
    <i name="e_wo_entrp">    -36.95993202 </i>
    <i name="e_0_energy">    -36.97607800 </i>
   </energy>
  </scstep>
  <scstep>
   <time name="dav">    0.34    0.34</time>
   <time name="total">    0.42    0.42</time>
   <energy>
    <i name="e_fr_energy">    -36.98388790 </i>
    <i name="e_wo_entrp">    -36.95788641 </i>
    <i name="e_0_energy">    -36.97522074 </i>
   </energy>
  </scstep>
  <scstep>
   <time name="dav">    0.31    0.31</time>
   <time name="total">    0.39    0.39</time>
   <energy>
    <i name="e_fr_energy">    -36.98371921 </i>
    <i name="e_wo_entrp">    -36.95891535 </i>
    <i name="e_0_energy">    -36.97545126 </i>
   </energy>
  </scstep>
  <scstep>
   <time name="dav">    0.26    0.26</time>
   <time name="total">    0.34    0.34</time>
   <energy>
    <i name="e_fr_energy">    -36.98357817 </i>
    <i name="e_wo_entrp">    -36.95873465 </i>
    <i name="e_0_energy">    -36.97529700 </i>
   </energy>
  </scstep>
  <scstep>
   <time name="dav">    0.20    0.21</time>
   <time name="total">    0.23    0.23</time>
   <energy>
    <i name="alphaZ">    285.34744303 </i>
    <i name="ewald">  52850.52611155 </i>
    <i name="hartreedc"> -63804.73783364 </i>
    <i name="XCdc">    363.03372855 </i>
    <i name="pawpsdc">  10589.10520863 </i>
    <i name="pawaedc"> -11451.54332788 </i>
    <i name="eentropy">     -0.02454586 </i>
    <i name="bandstr">    -21.30872777 </i>
    <i name="atom">  11152.61838693 </i>
    <i name="e_fr_energy">    -36.98355645 </i>
    <i name="e_wo_entrp">    -36.95901059 </i>
    <i name="e_0_energy">    -36.97537450 </i>
   </energy>
  </scstep>
  <structure>
   <crystal>
    <varray name="basis" >
     <v>       2.56679773       0.00000000       0.00000000 </v>
     <v>       1.28339887       2.22291204       0.00000000 </v>
     <v>       0.00000000       0.00000000      29.67047119 </v>
    </varray>
    <i name="volume">    169.29275369 </i>
    <varray name="rec_basis" >
     <v>       0.38959050      -0.22493018       0.00000000 </v>
     <v>       0.00000000       0.44986035       0.00000000 </v>
     <v>       0.00000000       0.00000000       0.03370354 </v>
    </varray>
   </crystal>
   <varray name="positions" >
    <v>      -0.00001333       0.00002666       0.00141041 </v>
    <v>       0.33333469       0.33333061       0.06956536 </v>
    <v>       0.66664270       0.66671460       0.13902516 </v>
    <v>       0.00000721      -0.00001443       0.20816090 </v>
    <v>       0.33331911       0.33336179       0.27649510 </v>
    <v>       0.66665520       0.66668960       0.34546138 </v>
    <v>       0.00024966      -0.00049931       0.41346943 </v>
    <v>       0.33735903       0.32528195       0.47933310 </v>
    <v>       0.66570289       0.66859422       0.53433659 </v>
    <v>       0.54475847       0.91048306       0.55444753 </v>
   </varray>
  </structure>
  <varray name="forces" >
   <v>       0.00000000       0.00071747       0.16879610 </v>
   <v>      -0.00000000      -0.00005425       0.03907643 </v>
   <v>       0.00000000       0.00100344      -0.10773286 </v>
   <v>       0.00000000       0.00042841      -0.02179413 </v>
   <v>       0.00000000       0.00085072      -0.02297031 </v>
   <v>      -0.00000000      -0.00055974      -0.09157552 </v>
   <v>      -0.00000000      -0.02823719      -0.29919184 </v>
   <v>      -0.00000000      -0.13300224      -0.25678104 </v>
   <v>       0.00000000       0.53620843       0.51014890 </v>
   <v>      -0.00000000      -0.37735506       0.08202425 </v>
  </varray>
  <varray name="stress" >
   <v>     -42.92789562      -0.00000000       0.00000000 </v>
   <v>      -0.00000000     -47.90237569       0.70641706 </v>
   <v>       0.00000000       0.70642178      -1.83776410 </v>
  </varray>
  <energy>
   <i name="e_fr_energy">    -40.67087137 </i>
   <i name="e_wo_entrp">    -40.64632551 </i>
   <i name="e_0_energy">    -40.66268941 </i>
  </energy>
  <time name="totalsc">    3.66    3.71</time>
 </calculation>
 <calculation>
  <scstep>
   <time name="dav">    0.29    0.29</time>
   <time name="total">    0.37    0.37</time>
   <energy>
    <i name="alphaZ">    285.34744303 </i>
    <i name="ewald">  53475.07338768 </i>
    <i name="hartreedc"> -64428.41346383 </i>
    <i name="XCdc">    363.18625621 </i>
    <i name="pawpsdc">  10589.15662778 </i>
    <i name="pawaedc"> -11451.58327921 </i>
    <i name="eentropy">     -0.02112078 </i>
    <i name="bandstr">    -22.26854496 </i>
    <i name="atom">  11152.61838693 </i>
    <i name="e_fr_energy">    -36.90430714 </i>
    <i name="e_wo_entrp">    -36.88318636 </i>
    <i name="e_0_energy">    -36.89726688 </i>
   </energy>
  </scstep>
  <scstep>
   <time name="dav">    0.40    0.40</time>
   <time name="total">    0.48    0.48</time>
   <energy>
    <i name="e_fr_energy">    -37.04438892 </i>
    <i name="e_wo_entrp">    -37.00914358 </i>
    <i name="e_0_energy">    -37.03264047 </i>
   </energy>
  </scstep>
  <scstep>
   <time name="dav">    0.41    0.42</time>
   <time name="total">    0.49    0.50</time>
   <energy>
    <i name="e_fr_energy">    -37.02375194 </i>
    <i name="e_wo_entrp">    -37.00635996 </i>
    <i name="e_0_energy">    -37.01795462 </i>
   </energy>
  </scstep>
  <scstep>
   <time name="dav">    0.38    0.39</time>
   <time name="total">    0.46    0.47</time>
   <energy>
    <i name="e_fr_energy">    -37.01439465 </i>
    <i name="e_wo_entrp">    -36.99132164 </i>
    <i name="e_0_energy">    -37.00670365 </i>
   </energy>
  </scstep>
  <scstep>
   <time name="dav">    0.38    0.38</time>
   <time name="total">    0.46    0.46</time>
   <energy>
    <i name="e_fr_energy">    -37.01414080 </i>
    <i name="e_wo_entrp">    -36.98746131 </i>
    <i name="e_0_energy">    -37.00524764 </i>
   </energy>
  </scstep>
  <scstep>
   <time name="dav">    0.31    0.31</time>
   <time name="total">    0.39    0.39</time>
   <energy>
    <i name="e_fr_energy">    -37.01267625 </i>
    <i name="e_wo_entrp">    -36.98724671 </i>
    <i name="e_0_energy">    -37.00419974 </i>
   </energy>
  </scstep>
  <scstep>
   <time name="dav">    0.43    0.43</time>
   <time name="total">    0.51    0.51</time>
   <energy>
    <i name="e_fr_energy">    -37.01205104 </i>
    <i name="e_wo_entrp">    -36.98700399 </i>
    <i name="e_0_energy">    -37.00370202 </i>
   </energy>
  </scstep>
  <scstep>
   <time name="dav">    0.31    0.31</time>
   <time name="total">    0.34    0.34</time>
   <energy>
    <i name="alphaZ">    285.34744303 </i>
    <i name="ewald">  53475.07338768 </i>
    <i name="hartreedc"> -64425.62995718 </i>
    <i name="XCdc">    363.16465075 </i>
    <i name="pawpsdc">  10616.44965299 </i>
    <i name="pawaedc"> -11479.34029170 </i>
    <i name="eentropy">     -0.02386310 </i>
    <i name="bandstr">    -24.67143264 </i>
    <i name="atom">  11152.61838693 </i>
    <i name="e_fr_energy">    -37.01202324 </i>
    <i name="e_wo_entrp">    -36.98816013 </i>
    <i name="e_0_energy">    -37.00406887 </i>
   </energy>
  </scstep>
  <structure>
   <crystal>
    <varray name="basis" >
     <v>       2.56679773       0.00000000       0.00000000 </v>
     <v>       1.28339887       2.22291204       0.00000000 </v>
     <v>       0.00000000       0.00000000      29.67047119 </v>
    </varray>
    <i name="volume">    169.29275369 </i>
    <varray name="rec_basis" >
     <v>       0.38959050      -0.22493018       0.00000000 </v>
     <v>       0.00000000       0.44986035       0.00000000 </v>
     <v>       0.00000000       0.00000000       0.03370354 </v>
    </varray>
   </crystal>
   <varray name="positions" >
    <v>      -0.00003697       0.00007393       0.00314790 </v>
    <v>       0.33332983       0.33334034       0.06833125 </v>
    <v>       0.66660449       0.66679101       0.13889358 </v>
    <v>       0.00001226      -0.00002452       0.20815833 </v>
    <v>       0.33329424       0.33341151       0.27641940 </v>
    <v>       0.66663826       0.66672349       0.34531752 </v>
    <v>       0.00062254      -0.00124507       0.41266202 </v>
    <v>       0.34257200       0.31485600       0.47689865 </v>
    <v>       0.65682994       0.68634012       0.53550461 </v>
    <v>       0.54814903       0.90370194       0.55637169 </v>
   </varray>
  </structure>
  <varray name="forces" >
   <v>      -0.00000000      -0.00021654      -0.34737721 </v>
   <v>       0.00000000       0.00036858       0.65942473 </v>
   <v>       0.00000000       0.00000212      -0.20322537 </v>
   <v>       0.00000000       0.00006277      -0.05387087 </v>
   <v>      -0.00000000      -0.00025645      -0.03248949 </v>
   <v>      -0.00000000      -0.00380855      -0.19262900 </v>
   <v>      -0.00000000      -0.05833583      -0.48488804 </v>
   <v>      -0.00000000      -0.04989514       0.21198873 </v>
   <v>       0.00000000       0.34640296       0.35746877 </v>
   <v>      -0.00000000      -0.23432391       0.08559777 </v>
  </varray>
  <varray name="stress" >
   <v>     -36.74041420      -0.00000000       0.00000000 </v>
   <v>      -0.00000000     -40.95964022       1.55321876 </v>
   <v>       0.00000000       1.55322391      13.17013065 </v>
  </varray>
  <energy>
   <i name="e_fr_energy">    -40.70986685 </i>
   <i name="e_wo_entrp">    -40.68600374 </i>
   <i name="e_0_energy">    -40.70191248 </i>
  </energy>
  <time name="totalsc">    3.95    4.05</time>
 </calculation>
 <calculation>
  <scstep>
   <time name="dav">    0.28    0.28</time>
   <time name="total">    0.36    0.36</time>
   <energy>
    <i name="alphaZ">    285.34744303 </i>
    <i name="ewald">  53838.92522085 </i>
    <i name="hartreedc"> -64789.35177886 </i>
    <i name="XCdc">    363.19165299 </i>
    <i name="pawpsdc">  10616.47304288 </i>
    <i name="pawaedc"> -11479.36447580 </i>
    <i name="eentropy">     -0.02445786 </i>
    <i name="bandstr">    -24.82628125 </i>
    <i name="atom">  11152.61838693 </i>
    <i name="e_fr_energy">    -37.01124708 </i>
    <i name="e_wo_entrp">    -36.98678922 </i>
    <i name="e_0_energy">    -37.00309446 </i>
   </energy>
  </scstep>
  <scstep>
   <time name="dav">    0.35    0.35</time>
   <time name="total">    0.43    0.43</time>
   <energy>
    <i name="e_fr_energy">    -37.05115445 </i>
    <i name="e_wo_entrp">    -37.02918254 </i>
    <i name="e_0_energy">    -37.04383048 </i>
   </energy>
  </scstep>
  <scstep>
   <time name="dav">    0.32    0.32</time>
   <time name="total">    0.40    0.40</time>
   <energy>
    <i name="e_fr_energy">    -37.05089195 </i>
    <i name="e_wo_entrp">    -37.02718337 </i>
    <i name="e_0_energy">    -37.04298909 </i>
   </energy>
  </scstep>
  <scstep>
   <time name="dav">    0.33    0.33</time>
   <time name="total">    0.41    0.42</time>
   <energy>
    <i name="e_fr_energy">    -37.05019723 </i>
    <i name="e_wo_entrp">    -37.02599590 </i>
    <i name="e_0_energy">    -37.04213012 </i>
   </energy>
  </scstep>
  <scstep>
   <time name="dav">    0.42    0.42</time>
   <time name="total">    0.50    0.50</time>
   <energy>
    <i name="e_fr_energy">    -37.05324851 </i>
    <i name="e_wo_entrp">    -37.03508438 </i>
    <i name="e_0_energy">    -37.04719380 </i>
   </energy>
  </scstep>
  <scstep>
   <time name="dav">    0.37    0.38</time>
   <time name="total">    0.46    0.46</time>
   <energy>
    <i name="e_fr_energy">    -37.04904826 </i>
    <i name="e_wo_entrp">    -37.02373269 </i>
    <i name="e_0_energy">    -37.04060974 </i>
   </energy>
  </scstep>
  <scstep>
   <time name="dav">    0.36    0.36</time>
   <time name="total">    0.44    0.44</time>
   <energy>
    <i name="e_fr_energy">    -37.04868610 </i>
    <i name="e_wo_entrp">    -37.02542178 </i>
    <i name="e_0_energy">    -37.04093133 </i>
   </energy>
  </scstep>
  <scstep>
   <time name="dav">    0.26    0.27</time>
   <time name="total">    0.29    0.29</time>
   <energy>
    <i name="alphaZ">    285.34744303 </i>
    <i name="ewald">  53838.92522085 </i>
    <i name="hartreedc"> -64788.04681453 </i>
    <i name="XCdc">    363.23660826 </i>
    <i name="pawpsdc">  10620.81627920 </i>
    <i name="pawaedc"> -11483.76161987 </i>
    <i name="eentropy">     -0.02359515 </i>
    <i name="bandstr">    -26.16061746 </i>
    <i name="atom">  11152.61838693 </i>
    <i name="e_fr_energy">    -37.04870873 </i>
    <i name="e_wo_entrp">    -37.02511358 </i>
    <i name="e_0_energy">    -37.04084368 </i>
   </energy>
  </scstep>
  <structure>
   <crystal>
    <varray name="basis" >
     <v>       2.56679773       0.00000000       0.00000000 </v>
     <v>       1.28339887       2.22291204       0.00000000 </v>
     <v>       0.00000000       0.00000000      29.67047119 </v>
    </varray>
    <i name="volume">    169.29275369 </i>
    <varray name="rec_basis" >
     <v>       0.38959050      -0.22493018       0.00000000 </v>
     <v>       0.00000000       0.44986035       0.00000000 </v>
     <v>       0.00000000       0.00000000       0.03370354 </v>
    </varray>
   </crystal>
   <varray name="positions" >
    <v>      -0.00004499       0.00008998       0.00323529 </v>
    <v>       0.33332243       0.33335514       0.06912942 </v>
    <v>       0.66658662       0.66682676       0.13840851 </v>
    <v>       0.00001375      -0.00002749       0.20804484 </v>
    <v>       0.33328620       0.33342760       0.27631633 </v>
    <v>       0.66668333       0.66663335       0.34484880 </v>
    <v>       0.00160821      -0.00321643       0.41127419 </v>
    <v>       0.34570078       0.30859844       0.47620355 </v>
    <v>       0.64786699       0.70426601       0.53679526 </v>
    <v>       0.55299231       0.89401538       0.55744878 </v>
   </varray>
  </structure>
  <varray name="forces" >
   <v>       0.00000000       0.00000043      -0.22308359 </v>
   <v>      -0.00000000      -0.00024595       0.38207663 </v>
   <v>      -0.00000000      -0.00067596      -0.00208078 </v>
   <v>       0.00000000       0.00053781      -0.09023153 </v>
   <v>      -0.00000000      -0.00039320      -0.08808949 </v>
   <v>      -0.00000000      -0.00936611      -0.28850999 </v>
   <v>      -0.00000000      -0.05866180      -0.18431234 </v>
   <v>      -0.00000000      -0.02620381       0.08850189 </v>
   <v>      -0.00000000      -0.29557118      -0.48493543 </v>
   <v>       0.00000000       0.39057978       0.89066463 </v>
  </varray>
  <varray name="stress" >
   <v>     -39.75678114      -0.00000000       0.00000000 </v>
   <v>      -0.00000000     -41.13902282       5.16180225 </v>
   <v>       0.00000000       5.16180581      15.56427805 </v>
  </varray>
  <energy>
   <i name="e_fr_energy">    -40.75259938 </i>
   <i name="e_wo_entrp">    -40.72900423 </i>
   <i name="e_0_energy">    -40.74473433 </i>
  </energy>
  <time name="totalsc">    3.74    3.79</time>
 </calculation>
 <calculation>
  <scstep>
   <time name="dav">    0.28    0.28</time>
   <time name="total">    0.36    0.36</time>
   <energy>
    <i name="alphaZ">    285.34744303 </i>
    <i name="ewald">  53882.92176042 </i>
    <i name="hartreedc"> -64832.20816320 </i>
    <i name="XCdc">    363.23812308 </i>
    <i name="pawpsdc">  10620.82331469 </i>
    <i name="pawaedc"> -11483.74969683 </i>
    <i name="eentropy">     -0.02360418 </i>
    <i name="bandstr">    -26.01546943 </i>
    <i name="atom">  11152.61838693 </i>
    <i name="e_fr_energy">    -37.04790548 </i>
    <i name="e_wo_entrp">    -37.02430131 </i>
    <i name="e_0_energy">    -37.04003742 </i>
   </energy>
  </scstep>
  <scstep>
   <time name="dav">    0.38    0.38</time>
   <time name="total">    0.46    0.46</time>
   <energy>
    <i name="e_fr_energy">    -37.04844178 </i>
    <i name="e_wo_entrp">    -37.02497209 </i>
    <i name="e_0_energy">    -37.04061855 </i>
   </energy>
  </scstep>
  <scstep>
   <time name="dav">    0.23    0.24</time>
   <time name="total">    0.26    0.26</time>
   <energy>
    <i name="alphaZ">    285.34744303 </i>
    <i name="ewald">  53882.92176042 </i>
    <i name="hartreedc"> -64832.19364908 </i>
    <i name="XCdc">    363.24037666 </i>
    <i name="pawpsdc">  10620.95701144 </i>
    <i name="pawaedc"> -11483.86574761 </i>
    <i name="eentropy">     -0.02325969 </i>
    <i name="bandstr">    -26.05076431 </i>
    <i name="atom">  11152.61838693 </i>
    <i name="e_fr_energy">    -37.04844221 </i>
    <i name="e_wo_entrp">    -37.02518252 </i>
    <i name="e_0_energy">    -37.04068898 </i>
   </energy>
  </scstep>
  <structure>
   <crystal>
    <varray name="basis" >
     <v>       2.56679773       0.00000000       0.00000000 </v>
     <v>       1.28339887       2.22291204       0.00000000 </v>
     <v>       0.00000000       0.00000000      29.67047119 </v>
    </varray>
    <i name="volume">    169.29275369 </i>
    <varray name="rec_basis" >
     <v>       0.38959050      -0.22493018       0.00000000 </v>
     <v>       0.00000000       0.44986035       0.00000000 </v>
     <v>       0.00000000       0.00000000       0.03370354 </v>
    </varray>
   </crystal>
   <varray name="positions" >
    <v>      -0.00004596       0.00009192       0.00324581 </v>
    <v>       0.33332154       0.33335692       0.06922551 </v>
    <v>       0.66658447       0.66683106       0.13835011 </v>
    <v>       0.00001393      -0.00002785       0.20803117 </v>
    <v>       0.33328523       0.33342954       0.27630392 </v>
    <v>       0.66668875       0.66662250       0.34479237 </v>
    <v>       0.00172688      -0.00345375       0.41110711 </v>
    <v>       0.34607745       0.30784510       0.47611987 </v>
    <v>       0.64678795       0.70642409       0.53695064 </v>
    <v>       0.55357539       0.89284923       0.55757845 </v>
   </varray>
  </structure>
  <varray name="forces" >
   <v>      -0.00000000      -0.00059521      -0.20081774 </v>
   <v>      -0.00000000      -0.00049132       0.34299663 </v>
   <v>      -0.00000000      -0.00116392       0.02703536 </v>
   <v>      -0.00000000      -0.00013946      -0.10035548 </v>
   <v>      -0.00000000      -0.00093976      -0.10426046 </v>
   <v>      -0.00000000      -0.01071067      -0.30550154 </v>
   <v>      -0.00000000      -0.05982315      -0.15042941 </v>
   <v>      -0.00000000      -0.02225166       0.07350106 </v>
   <v>      -0.00000000      -0.37365130      -0.59983671 </v>
   <v>       0.00000000       0.46976646       1.01766827 </v>
  </varray>
  <varray name="stress" >
   <v>     -35.19782854      -0.00000000       0.00000000 </v>
   <v>      -0.00000000     -36.28179712       5.60495284 </v>
   <v>       0.00000000       5.60495735      20.77316627 </v>
  </varray>
  <energy>
   <i name="e_fr_energy">    -40.75334175 </i>
   <i name="e_wo_entrp">    -40.73008206 </i>
   <i name="e_0_energy">    -40.74558852 </i>
  </energy>
  <time name="totalsc">    1.54    1.58</time>
 </calculation>
 <calculation>
  <scstep>
   <time name="dav">    0.28    0.28</time>
   <time name="total">    0.36    0.36</time>
   <energy>
    <i name="alphaZ">    285.34744303 </i>
    <i name="ewald">  54066.37717723 </i>
    <i name="hartreedc"> -65016.14370367 </i>
    <i name="XCdc">    363.22089267 </i>
    <i name="pawpsdc">  10621.05915898 </i>
    <i name="pawaedc"> -11483.97646012 </i>
    <i name="eentropy">     -0.02520187 </i>
    <i name="bandstr">    -25.54093934 </i>
    <i name="atom">  11152.61838693 </i>
    <i name="e_fr_energy">    -37.06324614 </i>
    <i name="e_wo_entrp">    -37.03804427 </i>
    <i name="e_0_energy">    -37.05484552 </i>
   </energy>
  </scstep>
  <scstep>
   <time name="dav">    0.40    0.40</time>
   <time name="total">    0.48    0.48</time>
   <energy>
    <i name="e_fr_energy">    -37.07614668 </i>
    <i name="e_wo_entrp">    -37.05718167 </i>
    <i name="e_0_energy">    -37.06982501 </i>
   </energy>
  </scstep>
  <scstep>
   <time name="dav">    0.40    0.40</time>
   <time name="total">    0.48    0.49</time>
   <energy>
    <i name="e_fr_energy">    -37.07489701 </i>
    <i name="e_wo_entrp">    -37.04928934 </i>
    <i name="e_0_energy">    -37.06636112 </i>
   </energy>
  </scstep>
  <scstep>
   <time name="dav">    0.32    0.32</time>
   <time name="total">    0.40    0.40</time>
   <energy>
    <i name="e_fr_energy">    -37.07403684 </i>
    <i name="e_wo_entrp">    -37.05101569 </i>
    <i name="e_0_energy">    -37.06636313 </i>
   </energy>
  </scstep>
  <scstep>
   <time name="dav">    0.32    0.32</time>
   <time name="total">    0.40    0.41</time>
   <energy>
    <i name="e_fr_energy">    -37.07396412 </i>
    <i name="e_wo_entrp">    -37.05086525 </i>
    <i name="e_0_energy">    -37.06626449 </i>
   </energy>
  </scstep>
  <scstep>
   <time name="dav">    0.32    0.32</time>
   <time name="total">    0.40    0.40</time>
   <energy>
    <i name="e_fr_energy">    -37.07363221 </i>
    <i name="e_wo_entrp">    -37.04961823 </i>
    <i name="e_0_energy">    -37.06562755 </i>
   </energy>
  </scstep>
  <scstep>
   <time name="dav">    0.26    0.27</time>
   <time name="total">    0.29    0.29</time>
   <energy>
    <i name="alphaZ">    285.34744303 </i>
    <i name="ewald">  54066.37717723 </i>
    <i name="hartreedc"> -65014.08995966 </i>
    <i name="XCdc">    363.20288000 </i>
    <i name="pawpsdc">  10620.04884496 </i>
    <i name="pawaedc"> -11482.94955739 </i>
    <i name="eentropy">     -0.02366512 </i>
    <i name="bandstr">    -27.60517941 </i>
    <i name="atom">  11152.61838693 </i>
    <i name="e_fr_energy">    -37.07362943 </i>
    <i name="e_wo_entrp">    -37.04996430 </i>
    <i name="e_0_energy">    -37.06574105 </i>
   </energy>
  </scstep>
  <structure>
   <crystal>
    <varray name="basis" >
     <v>       2.56679773       0.00000000       0.00000000 </v>
     <v>       1.28339887       2.22291204       0.00000000 </v>
     <v>       0.00000000       0.00000000      29.67047119 </v>
    </varray>
    <i name="volume">    169.29275369 </i>
    <varray name="rec_basis" >
     <v>       0.38959050      -0.22493018       0.00000000 </v>
     <v>       0.00000000       0.44986035       0.00000000 </v>
     <v>       0.00000000       0.00000000       0.03370354 </v>
    </varray>
   </crystal>
   <varray name="positions" >
    <v>      -0.00004725       0.00009451       0.00316693 </v>
    <v>       0.33332012       0.33335976       0.06978991 </v>
    <v>       0.66658095       0.66683811       0.13814607 </v>
    <v>       0.00001515      -0.00003030       0.20792048 </v>
    <v>       0.33328528       0.33342943       0.27619564 </v>
    <v>       0.66675137       0.66649725       0.34439951 </v>
    <v>       0.00240951      -0.00481903       0.41038893 </v>
    <v>       0.34758405       0.30483189       0.47584800 </v>
    <v>       0.64419468       0.71161064       0.53718199 </v>
    <v>       0.55392176       0.89215648       0.55866750 </v>
   </varray>
  </structure>
  <varray name="forces" >
   <v>       0.00000000       0.00047333      -0.09704910 </v>
   <v>       0.00000000       0.00116436       0.14050171 </v>
   <v>      -0.00000000      -0.00027794       0.13704606 </v>
   <v>       0.00000000       0.00085505      -0.10391894 </v>
   <v>      -0.00000000      -0.00062326      -0.14008789 </v>
   <v>      -0.00000000      -0.01416387      -0.32205961 </v>
   <v>      -0.00000000      -0.05701739      -0.00445347 </v>
   <v>      -0.00000000      -0.02027962       0.03529533 </v>
   <v>      -0.00000000      -0.11522010      -0.24930612 </v>
   <v>       0.00000000       0.20508944       0.60403205 </v>
  </varray>
  <varray name="stress" >
   <v>     -36.77746863      -0.00000000       0.00000000 </v>
   <v>      -0.00000000     -38.98661770       4.18970718 </v>
   <v>       0.00000000       4.18971198      16.38504254 </v>
  </varray>
  <energy>
   <i name="e_fr_energy">    -40.78320934 </i>
   <i name="e_wo_entrp">    -40.75954422 </i>
   <i name="e_0_energy">    -40.77532097 </i>
  </energy>
  <time name="totalsc">    3.28    3.39</time>
 </calculation>
 <calculation>
  <scstep>
   <time name="dav">    0.28    0.28</time>
   <time name="total">    0.36    0.36</time>
   <energy>
    <i name="alphaZ">    285.34744303 </i>
    <i name="ewald">  54356.40090782 </i>
    <i name="hartreedc"> -65304.70800303 </i>
    <i name="XCdc">    363.17609887 </i>
    <i name="pawpsdc">  10620.08730928 </i>
    <i name="pawaedc"> -11482.99474603 </i>
    <i name="eentropy">     -0.02568735 </i>
    <i name="bandstr">    -26.95686304 </i>
    <i name="atom">  11152.61838693 </i>
    <i name="e_fr_energy">    -37.05515352 </i>
    <i name="e_wo_entrp">    -37.02946616 </i>
    <i name="e_0_energy">    -37.04659106 </i>
   </energy>
  </scstep>
  <scstep>
   <time name="dav">    0.35    0.36</time>
   <time name="total">    0.44    0.44</time>
   <energy>
    <i name="e_fr_energy">    -37.08517568 </i>
    <i name="e_wo_entrp">    -37.06608952 </i>
    <i name="e_0_energy">    -37.07881362 </i>
   </energy>
  </scstep>
  <scstep>
   <time name="dav">    0.33    0.34</time>
   <time name="total">    0.42    0.42</time>
   <energy>
    <i name="e_fr_energy">    -37.08491822 </i>
    <i name="e_wo_entrp">    -37.05799993 </i>
    <i name="e_0_energy">    -37.07594546 </i>
   </energy>
  </scstep>
  <scstep>
   <time name="dav">    0.34    0.34</time>
   <time name="total">    0.42    0.43</time>
   <energy>
    <i name="e_fr_energy">    -37.08341806 </i>
    <i name="e_wo_entrp">    -37.06111508 </i>
    <i name="e_0_energy">    -37.07598374 </i>
   </energy>
  </scstep>
  <scstep>
   <time name="dav">    0.36    0.36</time>
   <time name="total">    0.44    0.44</time>
   <energy>
    <i name="e_fr_energy">    -37.08314965 </i>
    <i name="e_wo_entrp">    -37.05955419 </i>
    <i name="e_0_energy">    -37.07528450 </i>
   </energy>
  </scstep>
  <scstep>
   <time name="dav">    0.40    0.40</time>
   <time name="total">    0.48    0.48</time>
   <energy>
    <i name="e_fr_energy">    -37.08224781 </i>
    <i name="e_wo_entrp">    -37.05805011 </i>
    <i name="e_0_energy">    -37.07418191 </i>
   </energy>
  </scstep>
  <scstep>
   <time name="dav">    0.32    0.33</time>
   <time name="total">    0.40    0.41</time>
   <energy>
    <i name="e_fr_energy">    -37.08217831 </i>
    <i name="e_wo_entrp">    -37.05871099 </i>
    <i name="e_0_energy">    -37.07435587 </i>
   </energy>
  </scstep>
  <scstep>
   <time name="dav">    0.23    0.24</time>
   <time name="total">    0.26    0.26</time>
   <energy>
    <i name="alphaZ">    285.34744303 </i>
    <i name="ewald">  54356.40090782 </i>
    <i name="hartreedc"> -65301.07891994 </i>
    <i name="XCdc">    363.14429670 </i>
    <i name="pawpsdc">  10619.11000550 </i>
    <i name="pawaedc"> -11482.04086047 </i>
    <i name="eentropy">     -0.02345912 </i>
    <i name="bandstr">    -30.56002003 </i>
    <i name="atom">  11152.61838693 </i>
    <i name="e_fr_energy">    -37.08221958 </i>
    <i name="e_wo_entrp">    -37.05876046 </i>
    <i name="e_0_energy">    -37.07439987 </i>
   </energy>
  </scstep>
  <structure>
   <crystal>
    <varray name="basis" >
     <v>       2.56679773       0.00000000       0.00000000 </v>
     <v>       1.28339887       2.22291204       0.00000000 </v>
     <v>       0.00000000       0.00000000      29.67047119 </v>
    </varray>
    <i name="volume">    169.29275369 </i>
    <varray name="rec_basis" >
     <v>       0.38959050      -0.22493018       0.00000000 </v>
     <v>       0.00000000       0.44986035       0.00000000 </v>
     <v>       0.00000000       0.00000000       0.03370354 </v>
    </varray>
   </crystal>
   <varray name="positions" >
    <v>      -0.00004929       0.00009858       0.00304303 </v>
    <v>       0.33331789       0.33336422       0.07067647 </v>
    <v>       0.66657541       0.66684917       0.13782557 </v>
    <v>       0.00001707      -0.00003414       0.20774660 </v>
    <v>       0.33328537       0.33342927       0.27602556 </v>
    <v>       0.66684974       0.66630052       0.34378241 </v>
    <v>       0.00348179      -0.00696358       0.40926082 </v>
    <v>       0.34995061       0.30009877       0.47542095 </v>
    <v>       0.64012119       0.71975762       0.53754539 </v>
    <v>       0.55446584       0.89106832       0.56037816 </v>
   </varray>
  </structure>
  <varray name="forces" >
   <v>      -0.00000000      -0.00064660       0.05967633 </v>
   <v>       0.00000000       0.00001792      -0.20236293 </v>
   <v>      -0.00000000      -0.00133523       0.32454517 </v>
   <v>       0.00000000       0.00009262      -0.12235635 </v>
   <v>      -0.00000000      -0.00170208      -0.20841946 </v>
   <v>      -0.00000000      -0.02046059      -0.34413249 </v>
   <v>      -0.00000000      -0.05070737       0.23846995 </v>
   <v>      -0.00000000      -0.00622424      -0.01195277 </v>
   <v>       0.00000000       0.20812174       0.28166346 </v>
   <v>      -0.00000000      -0.12715617      -0.01513091 </v>
  </varray>
  <varray name="stress" >
   <v>     -37.73583489      -0.00000000       0.00000000 </v>
   <v>      -0.00000000     -41.21897178       2.20930199 </v>
   <v>       0.00000000       2.20930611      11.32595255 </v>
  </varray>
  <energy>
   <i name="e_fr_energy">    -40.80030061 </i>
   <i name="e_wo_entrp">    -40.77684149 </i>
   <i name="e_0_energy">    -40.79248090 </i>
  </energy>
  <time name="totalsc">    3.68    3.77</time>
 </calculation>
 <calculation>
  <scstep>
   <time name="dav">    0.28    0.28</time>
   <time name="total">    0.36    0.36</time>
   <energy>
    <i name="alphaZ">    285.34744303 </i>
    <i name="ewald">  54455.44288731 </i>
    <i name="hartreedc"> -65400.33915454 </i>
    <i name="XCdc">    363.13930484 </i>
    <i name="pawpsdc">  10619.13914673 </i>
    <i name="pawaedc"> -11482.06358099 </i>
    <i name="eentropy">     -0.02428212 </i>
    <i name="bandstr">    -30.34808922 </i>
    <i name="atom">  11152.61838693 </i>
    <i name="e_fr_energy">    -37.08793802 </i>
    <i name="e_wo_entrp">    -37.06365590 </i>
    <i name="e_0_energy">    -37.07984398 </i>
   </energy>
  </scstep>
  <scstep>
   <time name="dav">    0.36    0.36</time>
   <time name="total">    0.45    0.45</time>
   <energy>
    <i name="e_fr_energy">    -37.09191796 </i>
    <i name="e_wo_entrp">    -37.06894005 </i>
    <i name="e_0_energy">    -37.08425866 </i>
   </energy>
  </scstep>
  <scstep>
   <time name="dav">    0.30    0.31</time>
   <time name="total">    0.39    0.39</time>
   <energy>
    <i name="e_fr_energy">    -37.09183123 </i>
    <i name="e_wo_entrp">    -37.06769439 </i>
    <i name="e_0_energy">    -37.08378561 </i>
   </energy>
  </scstep>
  <scstep>
   <time name="dav">    0.22    0.23</time>
   <time name="total">    0.25    0.25</time>
   <energy>
    <i name="alphaZ">    285.34744303 </i>
    <i name="ewald">  54455.44288731 </i>
    <i name="hartreedc"> -65399.17738068 </i>
    <i name="XCdc">    363.13697086 </i>
    <i name="pawpsdc">  10618.98816712 </i>
    <i name="pawaedc"> -11481.87350798 </i>
    <i name="eentropy">     -0.02320353 </i>
    <i name="bandstr">    -31.55154030 </i>
    <i name="atom">  11152.61838693 </i>
    <i name="e_fr_energy">    -37.09177724 </i>
    <i name="e_wo_entrp">    -37.06857371 </i>
    <i name="e_0_energy">    -37.08404273 </i>
   </energy>
  </scstep>
  <structure>
   <crystal>
    <varray name="basis" >
     <v>       2.56679773       0.00000000       0.00000000 </v>
     <v>       1.28339887       2.22291204       0.00000000 </v>
     <v>       0.00000000       0.00000000      29.67047119 </v>
    </varray>
    <i name="volume">    169.29275369 </i>
    <varray name="rec_basis" >
     <v>       0.38959050      -0.22493018       0.00000000 </v>
     <v>       0.00000000       0.44986035       0.00000000 </v>
     <v>       0.00000000       0.00000000       0.03370354 </v>
    </varray>
   </crystal>
   <varray name="positions" >
    <v>      -0.00004661       0.00009323       0.00304834 </v>
    <v>       0.33331706       0.33336588       0.07081264 </v>
    <v>       0.66658050       0.66683901       0.13797131 </v>
    <v>       0.00001722      -0.00003445       0.20759422 </v>
    <v>       0.33329420       0.33341159       0.27580769 </v>
    <v>       0.66698816       0.66602367       0.34331150 </v>
    <v>       0.00409875      -0.00819751       0.40907279 </v>
    <v>       0.35076526       0.29846948       0.47527049 </v>
    <v>       0.63769723       0.72460553       0.53788398 </v>
    <v>       0.55530385       0.88939230       0.56093200 </v>
   </varray>
  </structure>
  <varray name="forces" >
   <v>      -0.00000000      -0.00131260       0.08662434 </v>
   <v>      -0.00000000      -0.00094085      -0.23184398 </v>
   <v>      -0.00000000      -0.00168601       0.26811192 </v>
   <v>      -0.00000000      -0.00111023      -0.09983023 </v>
   <v>      -0.00000000      -0.00376733      -0.23583335 </v>
   <v>      -0.00000000      -0.02235460      -0.23646046 </v>
   <v>      -0.00000000      -0.04973989       0.18874992 </v>
   <v>      -0.00000000      -0.00395788      -0.00727559 </v>
   <v>       0.00000000       0.19251480       0.27766906 </v>
   <v>      -0.00000000      -0.10764541      -0.00991163 </v>
  </varray>
  <varray name="stress" >
   <v>     -30.81630831      -0.00000000       0.00000000 </v>
   <v>      -0.00000000     -34.20010212       2.31917296 </v>
   <v>       0.00000000       2.31917762      18.25718864 </v>
  </varray>
  <energy>
   <i name="e_fr_energy">    -40.81118588 </i>
   <i name="e_wo_entrp">    -40.78798235 </i>
   <i name="e_0_energy">    -40.80345137 </i>
  </energy>
  <time name="totalsc">    1.91    1.94</time>
 </calculation>
 <calculation>
  <scstep>
   <time name="dav">    0.28    0.28</time>
   <time name="total">    0.36    0.36</time>
   <energy>
    <i name="alphaZ">    285.34744303 </i>
    <i name="ewald">  54754.39139591 </i>
    <i name="hartreedc"> -65698.58820819 </i>
    <i name="XCdc">    363.13484784 </i>
    <i name="pawpsdc">  10619.12028850 </i>
    <i name="pawaedc"> -11482.02483428 </i>
    <i name="eentropy">     -0.02716238 </i>
    <i name="bandstr">    -31.04715717 </i>
    <i name="atom">  11152.61838693 </i>
    <i name="e_fr_energy">    -37.07499981 </i>
    <i name="e_wo_entrp">    -37.04783743 </i>
    <i name="e_0_energy">    -37.06594568 </i>
   </energy>
  </scstep>
  <scstep>
   <time name="dav">    0.40    0.40</time>
   <time name="total">    0.48    0.49</time>
   <energy>
    <i name="e_fr_energy">    -37.12122060 </i>
    <i name="e_wo_entrp">    -37.10200765 </i>
    <i name="e_0_energy">    -37.11481628 </i>
   </energy>
  </scstep>
  <scstep>
   <time name="dav">    0.44    0.44</time>
   <time name="total">    0.52    0.52</time>
   <energy>
    <i name="e_fr_energy">    -37.11174248 </i>
    <i name="e_wo_entrp">    -37.08620891 </i>
    <i name="e_0_energy">    -37.10323129 </i>
   </energy>
  </scstep>
  <scstep>
   <time name="dav">    0.40    0.40</time>
   <time name="total">    0.47    0.48</time>
   <energy>
    <i name="e_fr_energy">    -37.11045585 </i>
    <i name="e_wo_entrp">    -37.08667560 </i>
    <i name="e_0_energy">    -37.10252910 </i>
   </energy>
  </scstep>
  <scstep>
   <time name="dav">    0.36    0.36</time>
   <time name="total">    0.44    0.44</time>
   <energy>
    <i name="e_fr_energy">    -37.11008107 </i>
[...]
       <r>    11.2135     0.4653    57.6908 </r>
       <r>    11.3036    -0.2946    57.6642 </r>
       <r>    11.3937    -0.0762    57.6574 </r>
       <r>    11.4838     0.9070    57.7391 </r>
       <r>    11.5739     2.2837    57.9448 </r>
       <r>    11.6640     3.2631    58.2388 </r>
       <r>    11.7541     3.4403    58.5488 </r>
       <r>    11.8442     2.8375    58.8044 </r>
       <r>    11.9343     1.9122    58.9767 </r>
       <r>    12.0244     1.7490    59.1343 </r>
       <r>    12.1145     2.3824    59.3489 </r>
       <r>    12.2046     2.3452    59.5602 </r>
       <r>    12.2947     1.2265    59.6707 </r>
       <r>    12.3848     0.1927    59.6881 </r>
       <r>    12.4749    -0.1274    59.6766 </r>
       <r>    12.5650    -0.0836    59.6691 </r>
       <r>    12.6551    -0.0228    59.6670 </r>
       <r>    12.7451    -0.0037    59.6667 </r>
       <r>    12.8352    -0.0017    59.6665 </r>
       <r>    12.9253    -0.0081    59.6658 </r>
       <r>    13.0154    -0.0286    59.6632 </r>
       <r>    13.1055    -0.0406    59.6596 </r>
       <r>    13.1956     0.0761    59.6664 </r>
       <r>    13.2857     0.4382    59.7059 </r>
       <r>    13.3758     0.8277    59.7805 </r>
       <r>    13.4659     0.8109    59.8535 </r>
       <r>    13.5560     0.4088    59.8904 </r>
       <r>    13.6461     0.0611    59.8959 </r>
       <r>    13.7362    -0.0419    59.8921 </r>
       <r>    13.8263    -0.0269    59.8897 </r>
       <r>    13.9164    -0.0073    59.8890 </r>
       <r>    14.0065    -0.0011    59.8889 </r>
       <r>    14.0966    -0.0001    59.8889 </r>
       <r>    14.1867    -0.0000    59.8889 </r>
       <r>    14.2768    -0.0000    59.8889 </r>
       <r>    14.3669    -0.0000    59.8889 </r>
       <r>    14.4570    -0.0000    59.8889 </r>
       <r>    14.5471    -0.0000    59.8889 </r>
       <r>    14.6372    -0.0000    59.8889 </r>
       <r>    14.7273    -0.0000    59.8889 </r>
       <r>    14.8174    -0.0000    59.8889 </r>
       <r>    14.9075    -0.0000    59.8889 </r>
       <r>    14.9975    -0.0000    59.8889 </r>
       <r>    15.0876    -0.0000    59.8889 </r>
       <r>    15.1777    -0.0000    59.8889 </r>
       <r>    15.2678    -0.0000    59.8889 </r>
       <r>    15.3579    -0.0000    59.8889 </r>
       <r>    15.4480    -0.0000    59.8889 </r>
       <r>    15.5381    -0.0000    59.8889 </r>
       <r>    15.6282    -0.0001    59.8889 </r>
       <r>    15.7183    -0.0008    59.8888 </r>
       <r>    15.8084    -0.0048    59.8884 </r>
       <r>    15.8985    -0.0166    59.8869 </r>
       <r>    15.9886    -0.0213    59.8850 </r>
       <r>    16.0787     0.0522    59.8897 </r>
       <r>    16.1688     0.2570    59.9128 </r>
       <r>    16.2589     0.4439    59.9528 </r>
       <r>    16.3490     0.3896    59.9879 </r>
       <r>    16.4391     0.1639    60.0027 </r>
       <r>    16.5292     0.0075    60.0034 </r>
       <r>    16.6193    -0.0234    60.0012 </r>
       <r>    16.7094    -0.0110    60.0003 </r>
       <r>    16.7995    -0.0025    60.0000 </r>
       <r>    16.8896    -0.0003    60.0000 </r>
       <r>    16.9797    -0.0000    60.0000 </r>
       <r>    17.0698    -0.0000    60.0000 </r>
       <r>    17.1599    -0.0000    60.0000 </r>
       <r>    17.2499    -0.0000    60.0000 </r>
       <r>    17.3400    -0.0000    60.0000 </r>
       <r>    17.4301    -0.0000    60.0000 </r>
       <r>    17.5202    -0.0000    60.0000 </r>
       <r>    17.6103     0.0000    60.0000 </r>
       <r>    17.7004     0.0000    60.0000 </r>
       <r>    17.7905     0.0000    60.0000 </r>
       <r>    17.8806     0.0000    60.0000 </r>
       <r>    17.9707     0.0000    60.0000 </r>
       <r>    18.0608     0.0000    60.0000 </r>
       <r>    18.1509     0.0000    60.0000 </r>
       <r>    18.2410     0.0000    60.0000 </r>
      </set>
      <set comment="spin 2">
       <r>    -8.7878     0.0000     0.0000 </r>
       <r>    -8.6977     0.0000     0.0000 </r>
       <r>    -8.6076     0.0000     0.0000 </r>
       <r>    -8.5175     0.0000     0.0000 </r>
       <r>    -8.4274    -0.0000    -0.0000 </r>
       <r>    -8.3373    -0.0000    -0.0000 </r>
       <r>    -8.2472    -0.0000    -0.0000 </r>
       <r>    -8.1571    -0.0000    -0.0000 </r>
       <r>    -8.0670    -0.0000    -0.0000 </r>
       <r>    -7.9769    -0.0000    -0.0000 </r>
       <r>    -7.8868    -0.0000    -0.0000 </r>
       <r>    -7.7967    -0.0000    -0.0000 </r>
       <r>    -7.7066    -0.0000    -0.0000 </r>
       <r>    -7.6165    -0.0000    -0.0000 </r>
       <r>    -7.5265    -0.0000    -0.0000 </r>
       <r>    -7.4364    -0.0000    -0.0000 </r>
       <r>    -7.3463    -0.0003    -0.0000 </r>
       <r>    -7.2562    -0.0025    -0.0003 </r>
       <r>    -7.1661    -0.0110    -0.0012 </r>
       <r>    -7.0760    -0.0235    -0.0034 </r>
       <r>    -6.9859     0.0072    -0.0027 </r>
       <r>    -6.8958     0.1616     0.0119 </r>
       <r>    -6.8057     0.3791     0.0460 </r>
       <r>    -6.7156     0.4206     0.0839 </r>
       <r>    -6.6255     0.2606     0.1074 </r>
       <r>    -6.5354     0.2032     0.1257 </r>
       <r>    -6.4453     0.3461     0.1569 </r>
       <r>    -6.3552     0.4076     0.1936 </r>
       <r>    -6.2651     0.2967     0.2203 </r>
       <r>    -6.1750     0.2825     0.2458 </r>
       <r>    -6.0849     0.4085     0.2826 </r>
       <r>    -5.9948     0.3886     0.3176 </r>
       <r>    -5.9047     0.1702     0.3329 </r>
       <r>    -5.8146     0.0009     0.3330 </r>
       <r>    -5.7245     0.0494     0.3375 </r>
       <r>    -5.6344     0.2770     0.3624 </r>
       <r>    -5.5443     0.4501     0.4030 </r>
       <r>    -5.4542     0.3626     0.4356 </r>
       <r>    -5.3641     0.1343     0.4477 </r>
       <r>    -5.2741    -0.0031     0.4475 </r>
       <r>    -5.1840    -0.0254     0.4452 </r>
       <r>    -5.0939    -0.0215     0.4432 </r>
       <r>    -5.0038    -0.0256     0.4409 </r>
       <r>    -4.9137     0.0156     0.4423 </r>
       <r>    -4.8236     0.1848     0.4590 </r>
       <r>    -4.7335     0.4054     0.4955 </r>
       <r>    -4.6434     0.4337     0.5346 </r>
       <r>    -4.5533     0.2263     0.5550 </r>
       <r>    -4.4632    -0.0045     0.5546 </r>
       <r>    -4.3731    -0.1451     0.5415 </r>
       <r>    -4.2830    -0.0866     0.5337 </r>
       <r>    -4.1929     0.5827     0.5862 </r>
       <r>    -4.1028     1.8817     0.7557 </r>
       <r>    -4.0127     2.6023     0.9902 </r>
       <r>    -3.9226     1.9557     1.1664 </r>
       <r>    -3.8325     1.3183     1.2852 </r>
       <r>    -3.7424     1.9671     1.4624 </r>
       <r>    -3.6523     2.7771     1.7126 </r>
       <r>    -3.5622     2.5262     1.9402 </r>
       <r>    -3.4721     2.2143     2.1397 </r>
       <r>    -3.3820     2.5174     2.3665 </r>
       <r>    -3.2919     2.1680     2.5619 </r>
       <r>    -3.2018     1.0162     2.6534 </r>
       <r>    -3.1117     0.8485     2.7299 </r>
       <r>    -3.0217     2.1716     2.9255 </r>
       <r>    -2.9316     3.0206     3.1976 </r>
       <r>    -2.8415     2.0118     3.3789 </r>
       <r>    -2.7514     0.7352     3.4451 </r>
       <r>    -2.6613     1.4093     3.5721 </r>
       <r>    -2.5712     3.4979     3.8873 </r>
       <r>    -2.4811     4.2061     4.2662 </r>
       <r>    -2.3910     2.6404     4.5041 </r>
       <r>    -2.3009     1.2370     4.6156 </r>
       <r>    -2.2108     1.6661     4.7657 </r>
       <r>    -2.1207     2.4068     4.9825 </r>
       <r>    -2.0306     1.9213     5.1556 </r>
       <r>    -1.9405     1.3119     5.2738 </r>
       <r>    -1.8504     1.8565     5.4411 </r>
       <r>    -1.7603     3.2603     5.7348 </r>
       <r>    -1.6702     5.8080     6.2581 </r>
       <r>    -1.5801    10.0328     7.1620 </r>
       <r>    -1.4900    14.0671     8.4294 </r>
       <r>    -1.3999    14.7337     9.7568 </r>
       <r>    -1.3098    11.5051    10.7934 </r>
       <r>    -1.2197     7.7088    11.4879 </r>
       <r>    -1.1296     6.0893    12.0365 </r>
       <r>    -1.0395     5.8053    12.5596 </r>
       <r>    -0.9494     5.3009    13.0372 </r>
       <r>    -0.8593     5.0248    13.4899 </r>
       <r>    -0.7693     6.5487    14.0799 </r>
       <r>    -0.6792     9.7031    14.9541 </r>
       <r>    -0.5891    12.6133    16.0905 </r>
       <r>    -0.4990    14.9878    17.4408 </r>
       <r>    -0.4089    17.1114    18.9825 </r>
       <r>    -0.3188    17.1086    20.5239 </r>
       <r>    -0.2287    13.9913    21.7845 </r>
       <r>    -0.1386    10.2818    22.7108 </r>
       <r>    -0.0485     8.5455    23.4807 </r>
       <r>     0.0416     8.6861    24.2633 </r>
       <r>     0.1317     9.8617    25.1518 </r>
       <r>     0.2218    11.9685    26.2301 </r>
       <r>     0.3119    14.4514    27.5322 </r>
       <r>     0.4020    15.6003    28.9377 </r>
       <r>     0.4921    15.4874    30.3330 </r>
       <r>     0.5822    16.7233    31.8397 </r>
       <r>     0.6723    19.8612    33.6292 </r>
       <r>     0.7624    22.2494    35.6337 </r>
       <r>     0.8525    21.5626    37.5764 </r>
       <r>     0.9426    18.1111    39.2082 </r>
       <r>     1.0327    14.6530    40.5284 </r>
       <r>     1.1228    13.4234    41.7377 </r>
       <r>     1.2129    12.7918    42.8902 </r>
       <r>     1.3030     9.8999    43.7822 </r>
       <r>     1.3931     5.5100    44.2786 </r>
       <r>     1.4831     2.0514    44.4634 </r>
       <r>     1.5732     0.2432    44.4853 </r>
       <r>     1.6633    -0.3642    44.4525 </r>
       <r>     1.7534    -0.2805    44.4273 </r>
       <r>     1.8435     0.4837    44.4708 </r>
       <r>     1.9336     1.9184    44.6437 </r>
       <r>     2.0237     2.9146    44.9063 </r>
       <r>     2.1138     2.3964    45.1222 </r>
       <r>     2.2039     1.0863    45.2200 </r>
       <r>     2.2940     0.3140    45.2483 </r>
       <r>     2.3841     0.2806    45.2736 </r>
       <r>     2.4742     0.3822    45.3080 </r>
       <r>     2.5643     0.2559    45.3311 </r>
       <r>     2.6544     0.0373    45.3345 </r>
       <r>     2.7445    -0.1158    45.3240 </r>
       <r>     2.8346    -0.1492    45.3106 </r>
       <r>     2.9247     0.2784    45.3357 </r>
       <r>     3.0148     1.4898    45.4699 </r>
       <r>     3.1049     2.6428    45.7080 </r>
       <r>     3.1950     2.3742    45.9219 </r>
       <r>     3.2851     1.0309    46.0148 </r>
       <r>     3.3752     0.0638    46.0205 </r>
       <r>     3.4653    -0.1413    46.0078 </r>
       <r>     3.5554    -0.0686    46.0016 </r>
       <r>     3.6455    -0.0157    46.0002 </r>
       <r>     3.7355    -0.0021    46.0000 </r>
       <r>     3.8256    -0.0005    46.0000 </r>
       <r>     3.9157    -0.0039    45.9996 </r>
       <r>     4.0058    -0.0253    45.9973 </r>
       <r>     4.0959    -0.0924    45.9890 </r>
       <r>     4.1860    -0.1343    45.9769 </r>
       <r>     4.2761     0.2483    45.9993 </r>
       <r>     4.3662     1.4249    46.1277 </r>
       <r>     4.4563     2.6131    46.3631 </r>
       <r>     4.5464     2.4195    46.5811 </r>
       <r>     4.6365     1.0937    46.6796 </r>
       <r>     4.7266     0.0898    46.6877 </r>
       <r>     4.8167    -0.1416    46.6750 </r>
       <r>     4.9068    -0.0724    46.6684 </r>
       <r>     4.9969    -0.0171    46.6669 </r>
       <r>     5.0870    -0.0024    46.6667 </r>
       <r>     5.1771    -0.0012    46.6666 </r>
       <r>     5.2672    -0.0088    46.6658 </r>
       <r>     5.3573    -0.0473    46.6615 </r>
       <r>     5.4474    -0.1422    46.6487 </r>
       <r>     5.5375    -0.1568    46.6346 </r>
       <r>     5.6276     0.3864    46.6694 </r>
       <r>     5.7177     1.8837    46.8391 </r>
       <r>     5.8078     3.9714    47.1969 </r>
       <r>     5.8979     5.6178    47.7030 </r>
       <r>     5.9879     5.5603    48.2040 </r>
       <r>     6.0780     3.6576    48.5335 </r>
       <r>     6.1681     1.7489    48.6911 </r>
       <r>     6.2582     1.1390    48.7937 </r>
       <r>     6.3483     1.1368    48.8962 </r>
       <r>     6.4384     0.9195    48.9790 </r>
       <r>     6.5285     0.5878    49.0320 </r>
       <r>     6.6186     0.4043    49.0684 </r>
       <r>     6.7087     0.3435    49.0993 </r>
       <r>     6.7988     0.4424    49.1392 </r>
       <r>     6.8889     0.7172    49.2038 </r>
       <r>     6.9790     1.2353    49.3151 </r>
       <r>     7.0691     2.3361    49.5256 </r>
       <r>     7.1592     3.4431    49.8358 </r>
       <r>     7.2493     3.1624    50.1207 </r>
       <r>     7.3394     1.6781    50.2719 </r>
       <r>     7.4295     0.5036    50.3172 </r>
       <r>     7.5196     0.4064    50.3539 </r>
       <r>     7.6097     1.2246    50.4642 </r>
       <r>     7.6998     2.1480    50.6577 </r>
       <r>     7.7899     2.1844    50.8545 </r>
       <r>     7.8800     1.2722    50.9691 </r>
       <r>     7.9701     0.3098    50.9971 </r>
       <r>     8.0602     0.1260    51.0084 </r>
       <r>     8.1503     0.8393    51.0840 </r>
       <r>     8.2403     1.9315    51.2580 </r>
       <r>     8.3304     2.8890    51.5183 </r>
       <r>     8.4205     3.4250    51.8269 </r>
       <r>     8.5106     3.1105    52.1072 </r>
       <r>     8.6007     2.0728    52.2939 </r>
       <r>     8.6908     1.1336    52.3960 </r>
       <r>     8.7809     0.6470    52.4543 </r>
       <r>     8.8710     0.6739    52.5150 </r>
       <r>     8.9611     1.4766    52.6481 </r>
       <r>     9.0512     2.6659    52.8883 </r>
       <r>     9.1413     3.0182    53.1602 </r>
       <r>     9.2314     2.2830    53.3659 </r>
       <r>     9.3215     1.7987    53.5279 </r>
       <r>     9.4116     2.3863    53.7429 </r>
       <r>     9.5017     3.0180    54.0149 </r>
       <r>     9.5918     2.5900    54.2482 </r>
       <r>     9.6819     1.9219    54.4214 </r>
       <r>     9.7720     2.0865    54.6093 </r>
       <r>     9.8621     2.2507    54.8121 </r>
       <r>     9.9522     1.5564    54.9523 </r>
       <r>    10.0423     1.0999    55.0514 </r>
       <r>    10.1324     1.8123    55.2147 </r>
       <r>    10.2225     2.4466    55.4351 </r>
       <r>    10.3126     1.9639    55.6121 </r>
       <r>    10.4027     1.7333    55.7682 </r>
       <r>    10.4927     2.7909    56.0197 </r>
       <r>    10.5828     3.5349    56.3382 </r>
       <r>    10.6729     2.5395    56.5670 </r>
       <r>    10.7630     1.1789    56.6732 </r>
       <r>    10.8531     1.5467    56.8125 </r>
       <r>    10.9432     3.2354    57.1040 </r>
       <r>    11.0333     3.7724    57.4439 </r>
       <r>    11.1234     2.2748    57.6489 </r>
       <r>    11.2135     0.4650    57.6908 </r>
       <r>    11.3036    -0.2947    57.6642 </r>
       <r>    11.3937    -0.0761    57.6574 </r>
       <r>    11.4838     0.9073    57.7391 </r>
       <r>    11.5739     2.2840    57.9449 </r>
       <r>    11.6640     3.2633    58.2389 </r>
       <r>    11.7541     3.4404    58.5489 </r>
       <r>    11.8442     2.8373    58.8045 </r>
       <r>    11.9343     1.9121    58.9768 </r>
       <r>    12.0244     1.7493    59.1344 </r>
       <r>    12.1145     2.3827    59.3490 </r>
       <r>    12.2046     2.3448    59.5603 </r>
       <r>    12.2947     1.2259    59.6708 </r>
       <r>    12.3848     0.1924    59.6881 </r>
       <r>    12.4749    -0.1274    59.6766 </r>
       <r>    12.5650    -0.0836    59.6691 </r>
       <r>    12.6551    -0.0228    59.6670 </r>
       <r>    12.7451    -0.0037    59.6667 </r>
       <r>    12.8352    -0.0017    59.6665 </r>
       <r>    12.9253    -0.0081    59.6658 </r>
       <r>    13.0154    -0.0287    59.6632 </r>
       <r>    13.1055    -0.0406    59.6596 </r>
       <r>    13.1956     0.0762    59.6664 </r>
       <r>    13.2857     0.4384    59.7059 </r>
       <r>    13.3758     0.8278    59.7805 </r>
       <r>    13.4659     0.8108    59.8536 </r>
       <r>    13.5560     0.4086    59.8904 </r>
       <r>    13.6461     0.0610    59.8959 </r>
       <r>    13.7362    -0.0419    59.8921 </r>
       <r>    13.8263    -0.0269    59.8897 </r>
       <r>    13.9164    -0.0073    59.8890 </r>
       <r>    14.0065    -0.0011    59.8889 </r>
       <r>    14.0966    -0.0001    59.8889 </r>
       <r>    14.1867    -0.0000    59.8889 </r>
       <r>    14.2768    -0.0000    59.8889 </r>
       <r>    14.3669    -0.0000    59.8889 </r>
       <r>    14.4570    -0.0000    59.8889 </r>
       <r>    14.5471    -0.0000    59.8889 </r>
       <r>    14.6372    -0.0000    59.8889 </r>
       <r>    14.7273    -0.0000    59.8889 </r>
       <r>    14.8174    -0.0000    59.8889 </r>
       <r>    14.9075    -0.0000    59.8889 </r>
       <r>    14.9975    -0.0000    59.8889 </r>
       <r>    15.0876    -0.0000    59.8889 </r>
       <r>    15.1777    -0.0000    59.8889 </r>
       <r>    15.2678    -0.0000    59.8889 </r>
       <r>    15.3579    -0.0000    59.8889 </r>
       <r>    15.4480    -0.0000    59.8889 </r>
       <r>    15.5381    -0.0000    59.8889 </r>
       <r>    15.6282    -0.0001    59.8889 </r>
       <r>    15.7183    -0.0008    59.8888 </r>
       <r>    15.8084    -0.0048    59.8884 </r>
       <r>    15.8985    -0.0166    59.8869 </r>
       <r>    15.9886    -0.0213    59.8850 </r>
       <r>    16.0787     0.0522    59.8897 </r>
       <r>    16.1688     0.2571    59.9128 </r>
       <r>    16.2589     0.4439    59.9528 </r>
       <r>    16.3490     0.3895    59.9879 </r>
       <r>    16.4391     0.1638    60.0027 </r>
       <r>    16.5292     0.0075    60.0034 </r>
       <r>    16.6193    -0.0234    60.0012 </r>
       <r>    16.7094    -0.0110    60.0003 </r>
       <r>    16.7995    -0.0025    60.0000 </r>
       <r>    16.8896    -0.0003    60.0000 </r>
       <r>    16.9797    -0.0000    60.0000 </r>
       <r>    17.0698    -0.0000    60.0000 </r>
       <r>    17.1599    -0.0000    60.0000 </r>
       <r>    17.2499    -0.0000    60.0000 </r>
       <r>    17.3400    -0.0000    60.0000 </r>
       <r>    17.4301    -0.0000    60.0000 </r>
       <r>    17.5202    -0.0000    60.0000 </r>
       <r>    17.6103     0.0000    60.0000 </r>
       <r>    17.7004     0.0000    60.0000 </r>
       <r>    17.7905     0.0000    60.0000 </r>
       <r>    17.8806     0.0000    60.0000 </r>
       <r>    17.9707     0.0000    60.0000 </r>
       <r>    18.0608     0.0000    60.0000 </r>
       <r>    18.1509     0.0000    60.0000 </r>
       <r>    18.2410     0.0000    60.0000 </r>
      </set>
     </set>
    </array>
   </total>
  </dos>
 </calculation>
 <structure name="finalpos" >
  <crystal>
   <varray name="basis" >
    <v>       2.56679773       0.00000000       0.00000000 </v>
    <v>       1.28339887       2.22291204       0.00000000 </v>
    <v>       0.00000000       0.00000000      29.67047119 </v>
   </varray>
   <i name="volume">    169.29275369 </i>
   <varray name="rec_basis" >
    <v>       0.38959050      -0.22493018       0.00000000 </v>
    <v>       0.00000000       0.44986035       0.00000000 </v>
    <v>       0.00000000       0.00000000       0.03370354 </v>
   </varray>
  </crystal>
  <varray name="positions" >
   <v>       0.00094249      -0.00188497      -0.00007611 </v>
   <v>       0.33456384       0.33087231       0.06726479 </v>
   <v>       0.66940418       0.66119163       0.13544991 </v>
   <v>       0.00649923      -0.01299846       0.20403851 </v>
   <v>       0.34311279       0.31377442       0.27191276 </v>
   <v>       0.67938723       0.64122555       0.34032654 </v>
   <v>       0.01713104      -0.03426207       0.40828910 </v>
   <v>       0.35674996       0.28650008       0.47554335 </v>
   <v>       0.59326699       0.81346602       0.54714189 </v>
   <v>       0.54695788       0.90608425       0.57181423 </v>
  </varray>
 </structure>
</modeling>
