unknown system                          
           1
     2.566798    0.000000    0.000000
     1.283399    2.222912    0.000000
     0.000000    0.000000   29.670471
   Cu   H 
     8     2
Direct configuration=     1
   0.00000000  0.00000000  0.00000000
   0.33333333  0.33333333  0.07063526
   0.66666667  0.66666667  0.13908594
   0.00000000  0.00000000  0.20816512
   0.33333333  0.33333333  0.27656240
   0.66666667  0.66666667  0.34556034
   0.00000000  0.00000000  0.41400593
   0.33333333  0.33333333  0.48139269
   0.66666667  0.66666667  0.53425930
   0.54801563  0.90396875  0.55203798
Direct configuration=     2
  -0.00000220  0.00000440  0.00076767
   0.33333866  0.33332267  0.06999405
   0.66665971  0.66668057  0.13909266
   0.00000662 -0.00001324  0.20816098
   0.33333074  0.33333852  0.27652071
   0.66666240  0.66667519  0.34552188
   0.00009005 -0.00018010  0.41381670
   0.33534645  0.32930710  0.48019956
   0.67153505  0.65692990  0.53354858
   0.54104814  0.91790372  0.55408216
Direct configuration=     3
  -0.00000156  0.00000312  0.00054495
   0.33333712  0.33332577  0.07018009
   0.66666173  0.66667654  0.13909071
   0.00000470 -0.00000940  0.20816218
   0.33333149  0.33333702  0.27653281
   0.66666364  0.66667272  0.34553304
   0.00006392 -0.00012784  0.41387160
   0.33476239  0.33047522  0.48054572
   0.67012260  0.65975480  0.53375478
   0.54306959  0.91386081  0.55348909
Direct configuration=     4
  -0.00001333  0.00002666  0.00141041
   0.33333469  0.33333061  0.06956536
   0.66664270  0.66671460  0.13902516
   0.00000721 -0.00001443  0.20816090
   0.33331911  0.33336179  0.27649510
   0.66665520  0.66668960  0.34546138
   0.00024966 -0.00049931  0.41346943
   0.33735903  0.32528195  0.47933310
   0.66570289  0.66859422  0.53433659
   0.54475847  0.91048306  0.55444753
Direct configuration=     5
  -0.00003697  0.00007393  0.00314790
   0.33332983  0.33334034  0.06833125
   0.66660449  0.66679101  0.13889358
   0.00001226 -0.00002452  0.20815833
   0.33329424  0.33341151  0.27641940
   0.66663826  0.66672349  0.34531752
   0.00062254 -0.00124507  0.41266202
   0.34257200  0.31485600  0.47689865
   0.65682994  0.68634012  0.53550461
   0.54814903  0.90370194  0.55637169
Direct configuration=     6
  -0.00004499  0.00008998  0.00323529
   0.33332243  0.33335514  0.06912942
   0.66658662  0.66682676  0.13840851
   0.00001375 -0.00002749  0.20804484
   0.33328620  0.33342760  0.27631633
   0.66668333  0.66663335  0.34484880
   0.00160821 -0.00321643  0.41127419
   0.34570078  0.30859844  0.47620355
   0.64786699  0.70426601  0.53679526
   0.55299231  0.89401538  0.55744878
Direct configuration=     7
  -0.00004596  0.00009192  0.00324581
   0.33332154  0.33335692  0.06922551
   0.66658447  0.66683106  0.13835011
   0.00001393 -0.00002785  0.20803117
   0.33328523  0.33342954  0.27630392
   0.66668875  0.66662250  0.34479237
   0.00172688 -0.00345375  0.41110711
   0.34607745  0.30784510  0.47611987
   0.64678795  0.70642409  0.53695064
   0.55357539  0.89284923  0.55757845
Direct configuration=     8
  -0.00004725  0.00009451  0.00316693
   0.33332012  0.33335976  0.06978991
   0.66658095  0.66683811  0.13814607
   0.00001515 -0.00003030  0.20792048
   0.33328528  0.33342943  0.27619564
   0.66675137  0.66649725  0.34439951
   0.00240951 -0.00481903  0.41038893
   0.34758405  0.30483189  0.47584800
   0.64419468  0.71161064  0.53718199
   0.55392176  0.89215648  0.55866750
Direct configuration=     9
  -0.00004929  0.00009858  0.00304303
   0.33331789  0.33336422  0.07067647
   0.66657541  0.66684917  0.13782557
   0.00001707 -0.00003414  0.20774660
   0.33328537  0.33342927  0.27602556
   0.66684974  0.66630052  0.34378241
   0.00348179 -0.00696358  0.40926082
   0.34995061  0.30009877  0.47542095
   0.64012119  0.71975762  0.53754539
   0.55446584  0.89106832  0.56037816
Direct configuration=    10
  -0.00004661  0.00009323  0.00304834
   0.33331706  0.33336588  0.07081264
   0.66658050  0.66683901  0.13797131
   0.00001722 -0.00003445  0.20759422
   0.33329420  0.33341159  0.27580769
   0.66698816  0.66602367  0.34331150
   0.00409875 -0.00819751  0.40907279
   0.35076526  0.29846948  0.47527049
   0.63769723  0.72460553  0.53788398
   0.55530385  0.88939230  0.56093200
Direct configuration=    11
  -0.00003859  0.00007719  0.00306429
   0.33331457  0.33337087  0.07122116
   0.66659574  0.66680852  0.13840851
   0.00001769 -0.00003538  0.20713708
   0.33332071  0.33335857  0.27515409
   0.66740343  0.66519315  0.34189876
   0.00594965 -0.01189929  0.40850868
   0.35320919  0.29358161  0.47481911
   0.63042535  0.73914929  0.53889974
   0.55781789  0.88436423  0.56259354
Direct configuration=    12
  -0.00002255  0.00004510  0.00309619
   0.33330958  0.33338083  0.07203820
   0.66662623  0.66674753  0.13928291
   0.00001862 -0.00003725  0.20622280
   0.33337374  0.33325253  0.27384688
   0.66823395  0.66353209  0.33907328
   0.00965143 -0.01930286  0.40738048
   0.35809706  0.28380588  0.47391635
   0.61588160  0.76823681  0.54093126
   0.56284596  0.87430809  0.56591660
Direct configuration=    13
  -0.00003183  0.00006366  0.00307774
   0.33331246  0.33337507  0.07156570
   0.66660860  0.66678280  0.13877723
   0.00001808 -0.00003617  0.20675154
   0.33334307  0.33331385  0.27460286
   0.66775365  0.66449270  0.34070728
   0.00751065 -0.01502130  0.40803293
   0.35527036  0.28945929  0.47443843
   0.62429240  0.75141520  0.53975641
   0.55993817  0.88012366  0.56399484
Direct configuration=    14
  -0.00003938  0.00007876  0.00338564
   0.33330042  0.33339916  0.07120249
   0.66660884  0.66678231  0.13901779
   0.00000875 -0.00001751  0.20666789
   0.33341318  0.33317364  0.27372049
   0.66820675  0.66358651  0.34059043
   0.00869175 -0.01738350  0.40777797
   0.35608415  0.28783171  0.47430847
   0.62006386  0.75987228  0.54059257
   0.56167730  0.87664541  0.56444122
Direct configuration=    15
  -0.00004004  0.00008008  0.00341262
   0.33329937  0.33340127  0.07117066
   0.66660887  0.66678227  0.13903887
   0.00000794 -0.00001587  0.20666056
   0.33341932  0.33316135  0.27364318
   0.66824645  0.66350711  0.34058020
   0.00879524 -0.01759048  0.40775563
   0.35615545  0.28768910  0.47429708
   0.61969336  0.76061328  0.54066583
   0.56182968  0.87634064  0.56448033
Direct configuration=    16
  -0.00002624  0.00005249  0.00374532
   0.33331898  0.33336203  0.07071179
   0.66663203  0.66673595  0.13901833
   0.00003079 -0.00006158  0.20656136
   0.33360057  0.33279887  0.27283361
   0.66890753  0.66218494  0.34066935
   0.00997956 -0.01995913  0.40760249
   0.35655806  0.28688388  0.47419031
   0.61731843  0.76536314  0.54086601
   0.56169592  0.87660816  0.56550641
Direct configuration=    17
  -0.00003055  0.00006110  0.00364147
   0.33331286  0.33337428  0.07085502
   0.66662480  0.66675041  0.13902474
   0.00002366 -0.00004732  0.20659232
   0.33354399  0.33291201  0.27308631
   0.66870118  0.66259764  0.34064152
   0.00960989 -0.01921978  0.40765029
   0.35643239  0.28713522  0.47422363
   0.61805974  0.76388052  0.54080353
   0.56173767  0.87652466  0.56518613
Direct configuration=    18
  -0.00003020  0.00006041  0.00364984
   0.33331335  0.33337329  0.07084347
   0.66662538  0.66674924  0.13902422
   0.00002423 -0.00004847  0.20658983
   0.33354856  0.33290289  0.27306593
   0.66871782  0.66256437  0.34064376
   0.00963969 -0.01927939  0.40764644
   0.35644252  0.28711496  0.47422095
   0.61799997  0.76400006  0.54080857
   0.56173430  0.87653139  0.56521195
Direct configuration=    19
  -0.00003041  0.00006083  0.00364474
   0.33331305  0.33337389  0.07085050
   0.66662502  0.66674995  0.13902454
   0.00002388 -0.00004777  0.20659135
   0.33354578  0.33290845  0.27307834
   0.66870768  0.66258463  0.34064240
   0.00962154 -0.01924308  0.40764878
   0.35643635  0.28712730  0.47422258
   0.61803637  0.76392725  0.54080550
   0.56173635  0.87652729  0.56519623
Direct configuration=    20
  -0.00003024  0.00006047  0.00364905
   0.33331331  0.33337338  0.07084456
   0.66662532  0.66674935  0.13902427
   0.00002418 -0.00004836  0.20659006
   0.33354812  0.33290375  0.27306786
   0.66871624  0.66256751  0.34064355
   0.00963688 -0.01927376  0.40764680
   0.35644156  0.28711687  0.47422120
   0.61800562  0.76398877  0.54080809
   0.56173462  0.87653076  0.56520951
Direct configuration=    21
  -0.00003033  0.00006065  0.00364690
   0.33331318  0.33337364  0.07084753
   0.66662517  0.66674965  0.13902440
   0.00002403 -0.00004806  0.20659070
   0.33354695  0.33290610  0.27307310
   0.66871196  0.66257607  0.34064297
   0.00962921 -0.01925842  0.40764779
   0.35643896  0.28712209  0.47422189
   0.61802099  0.76395801  0.54080679
   0.56173549  0.87652902  0.56520287
Direct configuration=    22
  -0.00003026  0.00006053  0.00364840
   0.33331327  0.33337346  0.07084546
   0.66662528  0.66674944  0.13902431
   0.00002413 -0.00004827  0.20659026
   0.33354777  0.33290446  0.27306945
   0.66871494  0.66257011  0.34064338
   0.00963455 -0.01926910  0.40764710
   0.35644077  0.28711845  0.47422141
   0.61801028  0.76397943  0.54080770
   0.56173489  0.87653023  0.56520750
Direct configuration=    23
  -0.00003029  0.00006059  0.00364765
   0.33331323  0.33337355  0.07084650
   0.66662523  0.66674955  0.13902436
   0.00002408 -0.00004817  0.20659048
   0.33354736  0.33290528  0.27307127
   0.66871345  0.66257309  0.34064317
   0.00963188 -0.01926376  0.40764745
   0.35643986  0.28712027  0.47422165
   0.61801564  0.76396872  0.54080725
   0.56173519  0.87652963  0.56520518
Direct configuration=    24
  -0.00003028  0.00006056  0.00364802
   0.33331325  0.33337351  0.07084598
   0.66662525  0.66674949  0.13902434
   0.00002411 -0.00004822  0.20659037
   0.33354756  0.33290487  0.27307036
   0.66871419  0.66257161  0.34064327
   0.00963321 -0.01926642  0.40764727
   0.35644032  0.28711937  0.47422153
   0.61801298  0.76397404  0.54080747
   0.56173504  0.87652993  0.56520633
Direct configuration=    25
  -0.00003324  0.00006648  0.00370897
   0.33331218  0.33337564  0.07075550
   0.66663046  0.66673908  0.13876051
   0.00003668 -0.00007336  0.20641412
   0.33367555  0.33264890  0.27302907
   0.66918454  0.66163092  0.34063375
   0.01018118 -0.02036237  0.40768970
   0.35639484  0.28721033  0.47422748
   0.61691987  0.76616027  0.54101994
   0.56171357  0.87657286  0.56546592
Direct configuration=    26
  -0.00004212  0.00008424  0.00389180
   0.33330898  0.33338204  0.07048404
   0.66664608  0.66670784  0.13796905
   0.00007439 -0.00014877  0.20588538
   0.33405951  0.33188098  0.27290518
   0.67059558  0.65880884  0.34060518
   0.01182511 -0.02365022  0.40781698
   0.35625839  0.28748321  0.47424533
   0.61364053  0.77271895  0.54165735
   0.56164918  0.87670164  0.56624467
Direct configuration=    27
  -0.00004572  0.00009144  0.00396587
   0.33330768  0.33338464  0.07037407
   0.66665241  0.66669518  0.13764841
   0.00008966 -0.00017932  0.20567118
   0.33421506  0.33156988  0.27285499
   0.67116721  0.65766558  0.34059361
   0.01249109 -0.02498217  0.40786854
   0.35620312  0.28759376  0.47425256
   0.61231202  0.77537595  0.54191557
   0.56162309  0.87675382  0.56656015
Direct configuration=    28
  -0.00000133  0.00000266  0.00364525
   0.33335429  0.33329143  0.07027610
   0.66671607  0.66656785  0.13751534
   0.00020770 -0.00041540  0.20540289
   0.33461626  0.33076748  0.27276174
   0.67200441  0.65599118  0.34053848
   0.01319764 -0.02639527  0.40782571
   0.35609750  0.28780500  0.47441521
   0.61026227  0.77947547  0.54243733
   0.56156082  0.87687836  0.56688691
Direct configuration=    29
   0.00002747 -0.00005495  0.00343718
   0.33338453  0.33323094  0.07021253
   0.66675739  0.66648522  0.13742898
   0.00028430 -0.00056860  0.20522878
   0.33487662  0.33024676  0.27270122
   0.67254771  0.65490458  0.34050271
   0.01365615 -0.02731231  0.40779792
   0.35602896  0.28794208  0.47452076
   0.60893208  0.78213585  0.54277593
   0.56152041  0.87695918  0.56709896
Direct configuration=    30
   0.00004084 -0.00008168  0.00334266
   0.33339892  0.33320216  0.07017865
   0.66677691  0.66644619  0.13740019
   0.00032247 -0.00064493  0.20516818
   0.33499531  0.33000938  0.27267014
   0.67277379  0.65445242  0.34048498
   0.01383508 -0.02767017  0.40779084
   0.35600241  0.28799517  0.47456118
   0.60847267  0.78305466  0.54287360
   0.56139723  0.87720554  0.56723454
Direct configuration=    31
   0.00008093 -0.00016186  0.00305912
   0.33344209  0.33311583  0.07007698
   0.66683545  0.66632909  0.13731385
   0.00043696 -0.00087392  0.20498639
   0.33535137  0.32929725  0.27257689
   0.67345203  0.65309594  0.34043179
   0.01437188 -0.02874376  0.40776962
   0.35592277  0.28815447  0.47468243
   0.60709445  0.78581111  0.54316662
   0.56102771  0.87794459  0.56764127
Direct configuration=    32
   0.00016111 -0.00032222  0.00249204
   0.33352842  0.33294317  0.06987366
   0.66695255  0.66609490  0.13714115
   0.00066594 -0.00133189  0.20462279
   0.33606351  0.32787299  0.27239040
   0.67480851  0.65038299  0.34032540
   0.01544547 -0.03089094  0.40772717
   0.35576348  0.28847305  0.47492494
   0.60433800  0.79132400  0.54375266
   0.56028865  0.87942270  0.56845474
Direct configuration=    33
   0.00032147 -0.00064294  0.00135786
   0.33370108  0.33259785  0.06946701
   0.66718674  0.66562652  0.13679576
   0.00112392 -0.00224783  0.20389561
   0.33748777  0.32502447  0.27201743
   0.67752146  0.64495707  0.34011263
   0.01759265 -0.03518530  0.40764227
   0.35544489  0.28911022  0.47540997
   0.59882510  0.80234979  0.54492475
   0.55881054  0.88237892  0.57008167
Direct configuration=    34
   0.00022074 -0.00044148  0.00207029
   0.33359262  0.33281476  0.06972244
   0.66703964  0.66592073  0.13701271
   0.00083624 -0.00167249  0.20435239
   0.33659312  0.32681375  0.27225171
   0.67581733  0.64836533  0.34024628
   0.01624391 -0.03248782  0.40769560
   0.35564501  0.28870998  0.47510530
   0.60228800  0.79542400  0.54418851
   0.55973901  0.88052199  0.56905972
Direct configuration=    35
   0.00023832 -0.00047664  0.00198501
   0.33360917  0.33278167  0.06957170
   0.66706823  0.66586355  0.13694677
   0.00091871 -0.00183742  0.20437065
   0.33680104  0.32639793  0.27217172
   0.67612124  0.64775751  0.34021615
   0.01643308 -0.03286616  0.40775530
   0.35563789  0.28872421  0.47511944
   0.60169728  0.79660543  0.54432185
   0.55949067  0.88101867  0.56924637
Direct configuration=    36
   0.00029106 -0.00058212  0.00172918
   0.33365880  0.33268239  0.06911948
   0.66715400  0.66569200  0.13674893
   0.00116612 -0.00233223  0.20442544
   0.33742477  0.32515045  0.27193176
   0.67703297  0.64593406  0.34012576
   0.01700058 -0.03400116  0.40793440
   0.35561654  0.28876691  0.47516184
   0.59992514  0.80014973  0.54472186
   0.55874564  0.88250872  0.56980631
Direct configuration=    37
   0.00039654 -0.00079308  0.00121752
   0.33375808  0.33248384  0.06821504
   0.66732555  0.66534890  0.13635327
   0.00166093 -0.00332185  0.20453502
   0.33867225  0.32265550  0.27145183
   0.67885642  0.64228715  0.33994497
   0.01813558 -0.03627117  0.40829260
   0.35557385  0.28885230  0.47524664
   0.59638084  0.80723832  0.54552188
   0.55725558  0.88548883  0.57092620
Direct configuration=    38
   0.00032520 -0.00065040  0.00156357
   0.33369094  0.33261813  0.06882674
   0.66720953  0.66558095  0.13662087
   0.00132627 -0.00265254  0.20446091
   0.33782855  0.32434291  0.27177642
   0.67762317  0.64475366  0.34006724
   0.01736795 -0.03473590  0.40805034
   0.35560273  0.28879455  0.47518929
   0.59877795  0.80244409  0.54498080
   0.55826335  0.88347330  0.57016878
Direct configuration=    39
   0.00036087 -0.00072174  0.00139054
   0.33372451  0.33255098  0.06852089
   0.66726754  0.66546493  0.13648707
   0.00149360 -0.00298720  0.20449796
   0.33825040  0.32349920  0.27161413
   0.67823980  0.64352041  0.34000611
   0.01775177 -0.03550353  0.40817147
   0.35558829  0.28882343  0.47521796
   0.59757940  0.80484121  0.54525134
   0.55775947  0.88448107  0.57054749
Direct configuration=    40
   0.00034442 -0.00068883  0.00147036
   0.33370902  0.33258196  0.06866198
   0.66724077  0.66551845  0.13654879
   0.00141641 -0.00283281  0.20448087
   0.33805579  0.32388842  0.27168900
   0.67795533  0.64408934  0.34003431
   0.01757470 -0.03514940  0.40811559
   0.35559495  0.28881011  0.47520473
   0.59813232  0.80373537  0.54512654
   0.55799192  0.88401616  0.57037278
Direct configuration=    41
   0.00037289 -0.00074579  0.00133270
   0.33373418  0.33253165  0.06842106
   0.66729511  0.66540977  0.13641070
   0.00159735 -0.00319470  0.20448634
   0.33841717  0.32316565  0.27163243
   0.67838112  0.64323776  0.34001563
   0.01781132 -0.03562264  0.40819497
   0.35561600  0.28876801  0.47523232
   0.59704435  0.80591130  0.54546764
   0.55774614  0.88450773  0.57051118
Direct configuration=    42
   0.00038129 -0.00076257  0.00129213
   0.33374159  0.33251682  0.06835005
   0.66731113  0.66537775  0.13637000
   0.00165068 -0.00330135  0.20448795
   0.33852369  0.32295263  0.27161575
   0.67850661  0.64298677  0.34001013
   0.01788106 -0.03576211  0.40821836
   0.35562220  0.28875560  0.47524045
   0.59672369  0.80655262  0.54556818
   0.55767370  0.88465260  0.57055197
Direct configuration=    43
   0.00038527 -0.00077054  0.00127288
   0.33374511  0.33250979  0.06831635
   0.66731873  0.66536255  0.13635069
   0.00167598 -0.00335197  0.20448871
   0.33857423  0.32285154  0.27160784
   0.67856617  0.64286767  0.34000751
   0.01791415 -0.03582830  0.40822946
   0.35562514  0.28874971  0.47524430
   0.59657153  0.80685694  0.54561589
   0.55763932  0.88472136  0.57057133
Direct configuration=    44
   0.00040035 -0.00080069  0.00123201
   0.33375846  0.33248308  0.06829072
   0.66735139  0.66529722  0.13629957
   0.00177602 -0.00355204  0.20443875
   0.33868260  0.32263481  0.27166719
   0.67860989  0.64278022  0.34002937
   0.01791600 -0.03583200  0.40819538
   0.35566317  0.28867366  0.47525321
   0.59639279  0.80721443  0.54567627
   0.55746497  0.88507005  0.57062249
Direct configuration=    45
   0.00043245 -0.00086491  0.00114495
   0.33378689  0.33242621  0.06823613
   0.66742096  0.66515809  0.13619070
   0.00198907 -0.00397814  0.20433235
   0.33891340  0.32217320  0.27179359
   0.67870301  0.64259398  0.34007591
   0.01791993 -0.03583986  0.40812280
   0.35574416  0.28851168  0.47527217
   0.59601211  0.80797579  0.54580488
   0.55709365  0.88581271  0.57073146
Direct configuration=    46
   0.00049667 -0.00099334  0.00097085
   0.33384376  0.33231248  0.06812696
   0.66756009  0.66487983  0.13597297
   0.00241517 -0.00483034  0.20411955
   0.33937500  0.32125000  0.27204640
   0.67888926  0.64222149  0.34016901
   0.01792780 -0.03585560  0.40797763
   0.35590614  0.28818772  0.47531010
   0.59525075  0.80949851  0.54606210
   0.55635100  0.88729801  0.57094940
Direct configuration=    47
   0.00046404 -0.00092807  0.00105933
   0.33381486  0.33237028  0.06818244
   0.66748938  0.66502124  0.13608362
   0.00219862 -0.00439725  0.20422770
   0.33914041  0.32171918  0.27191792
   0.67879461  0.64241079  0.34012170
   0.01792380 -0.03584760  0.40805141
   0.35582382  0.28835236  0.47529082
   0.59563767  0.80872465  0.54593138
   0.55672841  0.88654317  0.57083864
Direct configuration=    48
   0.00048588 -0.00097175  0.00099896
   0.33383284  0.33233432  0.06812803
   0.66755766  0.66488467  0.13601823
   0.00239124 -0.00478247  0.20421451
   0.33933977  0.32132046  0.27194247
   0.67881234  0.64237532  0.34017594
   0.01787459 -0.03574917  0.40806528
   0.35590189  0.28819622  0.47526562
   0.59556850  0.80886300  0.54593623
   0.55625092  0.88749815  0.57095969
Direct configuration=    49
   0.00048488 -0.00096976  0.00100171
   0.33383202  0.33233596  0.06813051
   0.66755455  0.66489089  0.13602121
   0.00238247 -0.00476493  0.20421511
   0.33933069  0.32133861  0.27194135
   0.67881153  0.64237694  0.34017347
   0.01787683 -0.03575365  0.40806464
   0.35589833  0.28820333  0.47526677
   0.59557165  0.80885670  0.54593601
   0.55627267  0.88745467  0.57095418
Direct configuration=    50
   0.00048584 -0.00097169  0.00099905
   0.33383281  0.33233438  0.06812811
   0.66755756  0.66488488  0.13601833
   0.00239095 -0.00478190  0.20421453
   0.33933948  0.32132105  0.27194244
   0.67881231  0.64237537  0.34017586
   0.01787466 -0.03574932  0.40806525
   0.35590177  0.28819645  0.47526566
   0.59556860  0.80886279  0.54593622
   0.55625163  0.88749673  0.57095951
Direct configuration=    51
   0.00048536 -0.00097073  0.00100038
   0.33383242  0.33233517  0.06812931
   0.66755606  0.66488788  0.13601977
   0.00238671 -0.00477342  0.20421482
   0.33933508  0.32132983  0.27194190
   0.67881192  0.64237615  0.34017467
   0.01787574 -0.03575149  0.40806495
   0.35590005  0.28819989  0.47526622
   0.59557013  0.80885974  0.54593611
   0.55626215  0.88747570  0.57095684
Direct configuration=    52
   0.00048568 -0.00097136  0.00099950
   0.33383268  0.33233465  0.06812852
   0.66755705  0.66488589  0.13601882
   0.00238951 -0.00477903  0.20421463
   0.33933799  0.32132402  0.27194225
   0.67881218  0.64237564  0.34017546
   0.01787503 -0.03575005  0.40806515
   0.35590119  0.28819762  0.47526585
   0.59556912  0.80886176  0.54593618
   0.55625519  0.88748961  0.57095860
Direct configuration=    53
   0.00050839 -0.00101679  0.00093408
   0.33385918  0.33228165  0.06807393
   0.66764518  0.66470965  0.13595917
   0.00263196 -0.00526392  0.20422235
   0.33957987  0.32084027  0.27193416
   0.67881709  0.64236582  0.34022175
   0.01779852 -0.03559704  0.40809933
   0.35598188  0.28803624  0.47523961
   0.59540903  0.80918193  0.54601887
   0.55578453  0.88843094  0.57100171
Direct configuration=    54
   0.00056573 -0.00113146  0.00076893
   0.33392607  0.33214785  0.06793614
   0.66786763  0.66426474  0.13580860
   0.00324397 -0.00648794  0.20424183
   0.34019045  0.31961910  0.27191372
   0.67882949  0.64234103  0.34033861
   0.01760539 -0.03521078  0.40818562
   0.35618556  0.28762888  0.47517338
   0.59500492  0.80999016  0.54622760
   0.55459641  0.89080717  0.57111053
Direct configuration=    55
   0.00068040 -0.00136079  0.00043863
   0.33405987  0.33188027  0.06766057
   0.66831254  0.66337493  0.13550746
   0.00446800 -0.00893599  0.20428081
   0.34141161  0.31717677  0.27187284
   0.67885428  0.64229144  0.34057234
   0.01721914 -0.03443827  0.40835820
   0.35659293  0.28681414  0.47504091
   0.59419669  0.81160661  0.54664505
   0.55222018  0.89555964  0.57132816
Direct configuration=    56
   0.00060322 -0.00120644  0.00066093
   0.33396982  0.33206036  0.06784604
   0.66801310  0.66397379  0.13571013
   0.00364419 -0.00728839  0.20425458
   0.34058974  0.31882053  0.27190035
   0.67883759  0.64232481  0.34041503
   0.01747910 -0.03495819  0.40824205
   0.35631876  0.28736248  0.47513007
   0.59474065  0.81051870  0.54636409
   0.55381945  0.89236110  0.57118169
Direct configuration=    57
   0.00061614 -0.00123228  0.00062032
   0.33398817  0.33202366  0.06780883
   0.66807107  0.66385787  0.13568413
   0.00379701 -0.00759401  0.20425083
   0.34073559  0.31852882  0.27190268
   0.67884321  0.64231358  0.34043278
   0.01743216 -0.03486432  0.40825915
   0.35636282  0.28727437  0.47512638
   0.59467325  0.81065350  0.54639901
   0.55349622  0.89300757  0.57122085
Direct configuration=    58
   0.00062035 -0.00124069  0.00060711
   0.33399414  0.33201171  0.06779673
   0.66808993  0.66382015  0.13567567
   0.00384673 -0.00769346  0.20424961
   0.34078305  0.31843391  0.27190344
   0.67884504  0.64230992  0.34043855
   0.01741689 -0.03483377  0.40826471
   0.35637715  0.28724570  0.47512519
   0.59465132  0.81069737  0.54641037
   0.55339104  0.89321792  0.57123360
Direct configuration=    59
   0.00062876 -0.00125751  0.00058068
   0.33400609  0.33198783  0.06777252
   0.66812765  0.66374471  0.13565874
   0.00394618 -0.00789236  0.20424716
   0.34087796  0.31824407  0.27190496
   0.67884870  0.64230261  0.34045010
   0.01738634 -0.03477268  0.40827584
   0.35640582  0.28718835  0.47512279
   0.59460745  0.81078510  0.54643309
   0.55318068  0.89363864  0.57125908
Direct configuration=    60
   0.00064557 -0.00129115  0.00052783
   0.33402997  0.33194006  0.06772409
   0.66820309  0.66359382  0.13562490
   0.00414508 -0.00829016  0.20424228
   0.34106780  0.31786440  0.27190799
   0.67885601  0.64228798  0.34047319
   0.01732525 -0.03465050  0.40829809
   0.35646317  0.28707367  0.47511799
   0.59451972  0.81096056  0.54647854
   0.55275997  0.89448006  0.57131006
Direct configuration=    61
   0.00067921 -0.00135842  0.00042212
   0.33407774  0.33184452  0.06762725
   0.66835398  0.66329205  0.13555720
   0.00454287 -0.00908575  0.20423252
   0.34144747  0.31710506  0.27191407
   0.67887064  0.64225872  0.34051938
   0.01720306 -0.03440613  0.40834260
   0.35657785  0.28684430  0.47510840
   0.59434426  0.81131148  0.54656943
   0.55191854  0.89616291  0.57141200
Direct configuration=    62
   0.00069461 -0.00138921  0.00038150
   0.33410477  0.33179046  0.06758984
   0.66842178  0.66315643  0.13555889
   0.00469895 -0.00939791  0.20420703
   0.34158330  0.31683340  0.27193395
   0.67889236  0.64221528  0.34050852
   0.01717875 -0.03435750  0.40833640
   0.35660105  0.28679789  0.47513471
   0.59426952  0.81146096  0.54660869
   0.55157053  0.89685894  0.57144545
Direct configuration=    63
   0.00071546 -0.00143092  0.00032648
   0.33414137  0.33171725  0.06753918
   0.66851362  0.66297277  0.13556118
   0.00491034 -0.00982067  0.20417251
   0.34176726  0.31646548  0.27196087
   0.67892178  0.64215644  0.34049380
   0.01714582 -0.03429165  0.40832800
   0.35663248  0.28673504  0.47517034
   0.59416830  0.81166340  0.54666185
   0.55109920  0.89780160  0.57149075
Direct configuration=    64
   0.00075717 -0.00151433  0.00021645
   0.33421458  0.33157084  0.06743785
   0.66869728  0.66260544  0.13556575
   0.00533310 -0.01066621  0.20410348
   0.34213518  0.31572964  0.27201473
   0.67898062  0.64203877  0.34046437
   0.01707997 -0.03415994  0.40831120
   0.35669533  0.28660935  0.47524160
   0.59396585  0.81206829  0.54676819
   0.55015655  0.89968690  0.57158135
Direct configuration=    65
   0.00084058 -0.00168116 -0.00000362
   0.33436099  0.33127801  0.06723521
   0.66906461  0.66187078  0.13557490
   0.00617864 -0.01235727  0.20396542
   0.34287102  0.31425797  0.27212243
   0.67909829  0.64180342  0.34040550
   0.01694826 -0.03389653  0.40827760
   0.35682103  0.28635795  0.47538411
   0.59356097  0.81287807  0.54698087
   0.54827124  0.90345752  0.57176255
Direct configuration=    66
   0.00078799 -0.00157598  0.00013513
   0.33426868  0.33146263  0.06736297
   0.66883302  0.66233396  0.13556913
   0.00564555 -0.01129111  0.20405247
   0.34240709  0.31518581  0.27205453
   0.67902410  0.64195180  0.34044261
   0.01703130 -0.03406260  0.40829878
   0.35674178  0.28651645  0.47529426
   0.59381624  0.81236753  0.54684678
   0.54945987  0.90108027  0.57164831
Direct configuration=    67
   0.00081429 -0.00162857  0.00006575
   0.33431484  0.33137032  0.06729909
   0.66894882  0.66210237  0.13557202
   0.00591210 -0.01182419  0.20400895
   0.34263905  0.31472189  0.27208848
   0.67906120  0.64187761  0.34042406
   0.01698978 -0.03397956  0.40828819
   0.35678140  0.28643720  0.47533918
   0.59368860  0.81262280  0.54691383
   0.54886555  0.90226889  0.57170543
Direct configuration=    68
   0.00079949 -0.00159897  0.00010479
   0.33428887  0.33142227  0.06733504
   0.66888365  0.66223270  0.13557039
   0.00576210 -0.01152420  0.20403344
   0.34250852  0.31498297  0.27206937
   0.67904032  0.64191936  0.34043450
   0.01701315 -0.03402629  0.40829415
   0.35675910  0.28648180  0.47531390
   0.59376043  0.81247914  0.54687610
   0.54920001  0.90159998  0.57167328
Direct configuration=    69
   0.00080872 -0.00161745  0.00008042
   0.33430508  0.33138984  0.06731260
   0.66892433  0.66215134  0.13557141
   0.00585573 -0.01171146  0.20401815
   0.34259000  0.31481999  0.27208130
   0.67905335  0.64189330  0.34042798
   0.01699856 -0.03399712  0.40829043
   0.35677302  0.28645396  0.47532968
   0.59371559  0.81256882  0.54689965
   0.54899123  0.90201754  0.57169335
Direct configuration=    70
   0.00080411 -0.00160821  0.00009261
   0.33429697  0.33140606  0.06732382
   0.66890399  0.66219202  0.13557090
   0.00580891 -0.01161783  0.20402579
   0.34254926  0.31490148  0.27207534
   0.67904684  0.64190633  0.34043124
   0.01700585 -0.03401171  0.40829229
   0.35676606  0.28646788  0.47532179
   0.59373801  0.81252398  0.54688787
   0.54909562  0.90180876  0.57168331
Direct configuration=    71
   0.00080659 -0.00161318  0.00008605
   0.33430133  0.33139733  0.06731778
   0.66891493  0.66217013  0.13557117
   0.00583410 -0.01166821  0.20402168
   0.34257118  0.31485764  0.27207854
   0.67905034  0.64189932  0.34042949
   0.01700193 -0.03400386  0.40829129
   0.35676981  0.28646039  0.47532604
   0.59372595  0.81254810  0.54689421
   0.54903946  0.90192109  0.57168871
Direct configuration=    72
   0.00080447 -0.00160893  0.00009166
   0.33429760  0.33140480  0.06732294
   0.66890557  0.66218886  0.13557094
   0.00581255 -0.01162511  0.20402520
   0.34255243  0.31489515  0.27207580
   0.67904734  0.64190532  0.34043099
   0.01700529 -0.03401058  0.40829214
   0.35676660  0.28646679  0.47532241
   0.59373627  0.81252747  0.54688879
   0.54908751  0.90182499  0.57168409
Direct configuration=    73
   0.00080553 -0.00161106  0.00008886
   0.33429947  0.33140106  0.06732036
   0.66891025  0.66217949  0.13557105
   0.00582333 -0.01164666  0.20402344
   0.34256180  0.31487639  0.27207717
   0.67904884  0.64190232  0.34043024
   0.01700361 -0.03400722  0.40829171
   0.35676820  0.28646359  0.47532422
   0.59373111  0.81253778  0.54689150
   0.54906348  0.90187304  0.57168640