  10  10   0   0
  0.2234684E+02  0.3630000E-09  0.2566798E-09  0.2398379E-08  0.5000000E-15
  1.000000000000000E-004
  CAR 
 unknown system                          
     11.93410459    -10.83747898  301      1.24925924      1.00000000
    -10.837  0.0000E+00  0.0000E+00  0.0000E+00  0.0000E+00
    -10.762  0.0000E+00  0.0000E+00  0.0000E+00  0.0000E+00
    -10.686  0.0000E+00  0.0000E+00  0.0000E+00  0.0000E+00
    -10.610  0.0000E+00  0.0000E+00  0.0000E+00  0.0000E+00
    -10.534  0.0000E+00  0.0000E+00  0.0000E+00  0.0000E+00
    -10.458 -0.1290E-30 -0.1290E-30 -0.9794E-32 -0.9794E-32
    -10.382 -0.4979E-28 -0.4979E-28 -0.3789E-29 -0.3789E-29
    -10.306 -0.1439E-25 -0.1439E-25 -0.1096E-26 -0.1096E-26
    -10.230 -0.3110E-23 -0.3110E-23 -0.2372E-24 -0.2372E-24
    -10.154 -0.5022E-21 -0.5022E-21 -0.3835E-22 -0.3835E-22
    -10.078 -0.6055E-19 -0.6055E-19 -0.4634E-20 -0.4634E-20
    -10.003 -0.5246E-17 -0.5246E-17 -0.4028E-18 -0.4028E-18
     -9.927 -0.3536E-15 -0.3536E-15 -0.2725E-16 -0.2725E-16
     -9.851 -0.1759E-13 -0.1759E-13 -0.1362E-14 -0.1362E-14
     -9.775 -0.6501E-12 -0.6501E-12 -0.5071E-13 -0.5071E-13
     -9.699 -0.1782E-10 -0.1782E-10 -0.1403E-11 -0.1403E-11
     -9.623 -0.3611E-09 -0.3611E-09 -0.2881E-10 -0.2881E-10
     -9.547 -0.5388E-08 -0.5388E-08 -0.4378E-09 -0.4378E-09
     -9.471 -0.5882E-07 -0.5882E-07 -0.4903E-08 -0.4903E-08
     -9.395 -0.4651E-06 -0.4651E-06 -0.4021E-07 -0.4021E-07
     -9.319 -0.2620E-05 -0.2620E-05 -0.2391E-06 -0.2391E-06
     -9.243 -0.1018E-04 -0.1018E-04 -0.1012E-05 -0.1012E-05
     -9.168 -0.2523E-04 -0.2523E-04 -0.2927E-05 -0.2927E-05
     -9.092 -0.2957E-04 -0.2957E-04 -0.5171E-05 -0.5171E-05
     -9.016  0.3221E-04  0.3221E-04 -0.2726E-05 -0.2726E-05
     -8.940  0.2040E-03  0.2040E-03  0.1276E-04  0.1276E-04
     -8.864  0.4258E-03  0.4258E-03  0.4507E-04  0.4507E-04
     -8.788  0.5971E-03  0.5971E-03  0.9039E-04  0.9039E-04
     -8.712  0.7646E-03  0.7646E-03  0.1484E-03  0.1484E-03
     -8.636  0.1012E-02  0.1012E-02  0.2253E-03  0.2253E-03
     -8.560  0.1158E-02  0.1158E-02  0.3132E-03  0.3132E-03
     -8.484  0.9415E-03  0.9415E-03  0.3846E-03  0.3846E-03
     -8.409  0.4674E-03  0.4674E-03  0.4201E-03  0.4201E-03
     -8.333  0.8519E-04  0.8519E-04  0.4266E-03  0.4266E-03
     -8.257 -0.5451E-04 -0.5451E-04  0.4224E-03  0.4224E-03
     -8.181 -0.5077E-04 -0.5077E-04  0.4186E-03  0.4186E-03
     -8.105 -0.2553E-04 -0.2553E-04  0.4166E-03  0.4166E-03
     -8.029 -0.2190E-04 -0.2190E-04  0.4150E-03  0.4150E-03
     -7.953 -0.3092E-04 -0.3092E-04  0.4126E-03  0.4126E-03
     -7.877 -0.5384E-05 -0.5384E-05  0.4122E-03  0.4122E-03
     -7.801  0.1268E-03  0.1268E-03  0.4218E-03  0.4218E-03
     -7.725  0.3652E-03  0.3652E-03  0.4496E-03  0.4496E-03
     -7.649  0.5483E-03  0.5483E-03  0.4912E-03  0.4912E-03
     -7.574  0.4896E-03  0.4896E-03  0.5283E-03  0.5283E-03
     -7.498  0.2250E-03  0.2250E-03  0.5454E-03  0.5454E-03
     -7.422  0.1212E-04  0.1212E-04  0.5463E-03  0.5463E-03
     -7.346  0.1068E-03  0.1068E-03  0.5545E-03  0.5545E-03
     -7.270  0.5965E-03  0.5965E-03  0.5997E-03  0.5997E-03
     -7.194  0.1379E-02  0.1379E-02  0.7044E-03  0.7044E-03
     -7.118  0.2206E-02  0.2206E-02  0.8718E-03  0.8718E-03
     -7.042  0.2680E-02  0.2680E-02  0.1075E-02  0.1075E-02
     -6.966  0.2397E-02  0.2397E-02  0.1257E-02  0.1257E-02
     -6.890  0.1445E-02  0.1445E-02  0.1367E-02  0.1367E-02
     -6.814  0.5105E-03  0.5105E-03  0.1406E-02  0.1406E-02
     -6.739  0.1544E-03  0.1544E-03  0.1417E-02  0.1417E-02
     -6.663  0.2931E-03  0.2931E-03  0.1439E-02  0.1439E-02
     -6.587  0.5606E-03  0.5606E-03  0.1482E-02  0.1482E-02
     -6.511  0.8237E-03  0.8237E-03  0.1545E-02  0.1545E-02
     -6.435  0.1088E-02  0.1088E-02  0.1627E-02  0.1627E-02
     -6.359  0.1167E-02  0.1167E-02  0.1716E-02  0.1716E-02
     -6.283  0.8748E-03  0.8748E-03  0.1782E-02  0.1782E-02
     -6.207  0.3895E-03  0.3895E-03  0.1812E-02  0.1812E-02
     -6.131  0.4571E-04  0.4571E-04  0.1815E-02  0.1815E-02
     -6.055 -0.6038E-04 -0.6038E-04  0.1811E-02  0.1811E-02
     -5.980 -0.4826E-04 -0.4826E-04  0.1807E-02  0.1807E-02
     -5.904 -0.3171E-04 -0.3171E-04  0.1804E-02  0.1804E-02
     -5.828 -0.4609E-04 -0.4609E-04  0.1801E-02  0.1801E-02
     -5.752 -0.6420E-04 -0.6420E-04  0.1796E-02  0.1796E-02
     -5.676  0.1588E-04  0.1588E-04  0.1797E-02  0.1797E-02
     -5.600  0.3143E-03  0.3143E-03  0.1821E-02  0.1821E-02
     -5.524  0.7739E-03  0.7739E-03  0.1880E-02  0.1880E-02
     -5.448  0.1146E-02  0.1146E-02  0.1967E-02  0.1967E-02
     -5.372  0.1352E-02  0.1352E-02  0.2070E-02  0.2070E-02
     -5.296  0.1571E-02  0.1571E-02  0.2189E-02  0.2189E-02
     -5.220  0.1737E-02  0.1737E-02  0.2321E-02  0.2321E-02
     -5.145  0.1493E-02  0.1493E-02  0.2434E-02  0.2434E-02
     -5.069  0.8382E-03  0.8382E-03  0.2498E-02  0.2498E-02
     -4.993  0.2193E-03  0.2193E-03  0.2514E-02  0.2514E-02
     -4.917 -0.7213E-04 -0.7213E-04  0.2509E-02  0.2509E-02
     -4.841 -0.1421E-03 -0.1421E-03  0.2498E-02  0.2498E-02
     -4.765 -0.1936E-03 -0.1936E-03  0.2483E-02  0.2483E-02
     -4.689 -0.2094E-03 -0.2094E-03  0.2467E-02  0.2467E-02
     -4.613  0.1738E-03  0.1738E-03  0.2481E-02  0.2481E-02
     -4.537  0.1400E-02  0.1400E-02  0.2587E-02  0.2587E-02
     -4.461  0.3216E-02  0.3216E-02  0.2831E-02  0.2831E-02
     -4.386  0.4366E-02  0.4366E-02  0.3162E-02  0.3162E-02
     -4.310  0.3809E-02  0.3809E-02  0.3451E-02  0.3451E-02
     -4.234  0.2049E-02  0.2049E-02  0.3607E-02  0.3607E-02
     -4.158  0.4642E-03  0.4642E-03  0.3642E-02  0.3642E-02
     -4.082 -0.2838E-03 -0.2838E-03  0.3621E-02  0.3621E-02
     -4.006 -0.4404E-03 -0.4404E-03  0.3587E-02  0.3587E-02
     -3.930 -0.1759E-03 -0.1759E-03  0.3574E-02  0.3574E-02
     -3.854  0.8704E-03  0.8704E-03  0.3640E-02  0.3640E-02
     -3.778  0.2875E-02  0.2875E-02  0.3858E-02  0.3858E-02
     -3.702  0.4910E-02  0.4910E-02  0.4231E-02  0.4231E-02
     -3.626  0.5455E-02  0.5455E-02  0.4645E-02  0.4645E-02
     -3.551  0.4150E-02  0.4150E-02  0.4960E-02  0.4960E-02
     -3.475  0.2353E-02  0.2353E-02  0.5138E-02  0.5138E-02
     -3.399  0.1593E-02  0.1593E-02  0.5259E-02  0.5259E-02
     -3.323  0.2124E-02  0.2124E-02  0.5421E-02  0.5421E-02
     -3.247  0.3333E-02  0.3333E-02  0.5674E-02  0.5674E-02
     -3.171  0.4752E-02  0.4752E-02  0.6034E-02  0.6034E-02
     -3.095  0.5988E-02  0.5988E-02  0.6489E-02  0.6489E-02
     -3.019  0.6601E-02  0.6601E-02  0.6990E-02  0.6990E-02
     -2.943  0.6815E-02  0.6815E-02  0.7507E-02  0.7507E-02
     -2.867  0.7434E-02  0.7434E-02  0.8071E-02  0.8071E-02
     -2.792  0.8694E-02  0.8694E-02  0.8731E-02  0.8731E-02
     -2.716  0.1011E-01  0.1011E-01  0.9498E-02  0.9498E-02
     -2.640  0.1130E-01  0.1130E-01  0.1036E-01  0.1036E-01
     -2.564  0.1214E-01  0.1214E-01  0.1128E-01  0.1128E-01
     -2.488  0.1219E-01  0.1219E-01  0.1220E-01  0.1220E-01
     -2.412  0.1106E-01  0.1106E-01  0.1304E-01  0.1304E-01
     -2.336  0.9440E-02  0.9440E-02  0.1376E-01  0.1376E-01
     -2.260  0.9090E-02  0.9090E-02  0.1445E-01  0.1445E-01
     -2.184  0.1067E-01  0.1067E-01  0.1526E-01  0.1526E-01
     -2.108  0.1242E-01  0.1242E-01  0.1620E-01  0.1620E-01
     -2.032  0.1279E-01  0.1279E-01  0.1717E-01  0.1717E-01
     -1.957  0.1265E-01  0.1265E-01  0.1813E-01  0.1813E-01
     -1.881  0.1324E-01  0.1324E-01  0.1914E-01  0.1914E-01
     -1.805  0.1431E-01  0.1431E-01  0.2022E-01  0.2022E-01
     -1.729  0.1563E-01  0.1563E-01  0.2141E-01  0.2141E-01
     -1.653  0.1774E-01  0.1774E-01  0.2276E-01  0.2276E-01
     -1.577  0.2046E-01  0.2046E-01  0.2431E-01  0.2431E-01
     -1.501  0.2218E-01  0.2218E-01  0.2599E-01  0.2599E-01
     -1.425  0.2141E-01  0.2141E-01  0.2762E-01  0.2762E-01
     -1.349  0.1857E-01  0.1857E-01  0.2903E-01  0.2903E-01
     -1.273  0.1591E-01  0.1591E-01  0.3024E-01  0.3024E-01
     -1.198  0.1486E-01  0.1486E-01  0.3136E-01  0.3136E-01
     -1.122  0.1445E-01  0.1445E-01  0.3246E-01  0.3246E-01
     -1.046  0.1332E-01  0.1332E-01  0.3347E-01  0.3347E-01
     -0.970  0.1229E-01  0.1229E-01  0.3440E-01  0.3440E-01
     -0.894  0.1318E-01  0.1318E-01  0.3540E-01  0.3540E-01
     -0.818  0.1617E-01  0.1617E-01  0.3663E-01  0.3663E-01
     -0.742  0.1985E-01  0.1985E-01  0.3814E-01  0.3814E-01
     -0.666  0.2291E-01  0.2291E-01  0.3988E-01  0.3988E-01
     -0.590  0.2434E-01  0.2434E-01  0.4173E-01  0.4173E-01
     -0.514  0.2374E-01  0.2374E-01  0.4353E-01  0.4353E-01
     -0.438  0.2237E-01  0.2237E-01  0.4523E-01  0.4523E-01
     -0.363  0.2179E-01  0.2179E-01  0.4688E-01  0.4688E-01
     -0.287  0.2157E-01  0.2157E-01  0.4852E-01  0.4852E-01
     -0.211  0.2020E-01  0.2020E-01  0.5005E-01  0.5005E-01
     -0.135  0.1739E-01  0.1739E-01  0.5137E-01  0.5137E-01
     -0.059  0.1405E-01  0.1405E-01  0.5244E-01  0.5244E-01
      0.017  0.1092E-01  0.1092E-01  0.5327E-01  0.5327E-01
      0.093  0.8416E-02  0.8416E-02  0.5391E-01  0.5391E-01
      0.169  0.6697E-02  0.6697E-02  0.5441E-01  0.5441E-01
      0.245  0.5235E-02  0.5235E-02  0.5481E-01  0.5481E-01
      0.321  0.3367E-02  0.3367E-02  0.5507E-01  0.5507E-01
      0.397  0.1372E-02  0.1372E-02  0.5517E-01  0.5517E-01
      0.472  0.6541E-04  0.6541E-04  0.5518E-01  0.5518E-01
      0.548 -0.3301E-03 -0.3301E-03  0.5515E-01  0.5515E-01
      0.624 -0.1555E-03 -0.1555E-03  0.5514E-01  0.5514E-01
      0.700  0.2832E-03  0.2832E-03  0.5516E-01  0.5516E-01
      0.776  0.7822E-03  0.7822E-03  0.5522E-01  0.5522E-01
      0.852  0.1196E-02  0.1196E-02  0.5531E-01  0.5531E-01
      0.928  0.1682E-02  0.1682E-02  0.5544E-01  0.5544E-01
      1.004  0.2469E-02  0.2469E-02  0.5563E-01  0.5563E-01
      1.080  0.3146E-02  0.3146E-02  0.5586E-01  0.5586E-01
      1.156  0.2935E-02  0.2935E-02  0.5609E-01  0.5609E-01
      1.231  0.1871E-02  0.1871E-02  0.5623E-01  0.5623E-01
      1.307  0.8564E-03  0.8564E-03  0.5629E-01  0.5629E-01
      1.383  0.5121E-03  0.5121E-03  0.5633E-01  0.5633E-01
      1.459  0.7077E-03  0.7077E-03  0.5639E-01  0.5639E-01
      1.535  0.1063E-02  0.1063E-02  0.5647E-01  0.5647E-01
      1.611  0.1330E-02  0.1330E-02  0.5657E-01  0.5657E-01
      1.687  0.1424E-02  0.1424E-02  0.5668E-01  0.5668E-01
      1.763  0.1343E-02  0.1343E-02  0.5678E-01  0.5678E-01
      1.839  0.1079E-02  0.1079E-02  0.5686E-01  0.5686E-01
      1.915  0.8328E-03  0.8328E-03  0.5692E-01  0.5692E-01
      1.991  0.1060E-02  0.1060E-02  0.5700E-01  0.5700E-01
      2.066  0.1781E-02  0.1781E-02  0.5714E-01  0.5714E-01
      2.142  0.2223E-02  0.2223E-02  0.5731E-01  0.5731E-01
      2.218  0.1747E-02  0.1747E-02  0.5744E-01  0.5744E-01
      2.294  0.7262E-03  0.7262E-03  0.5750E-01  0.5750E-01
      2.370  0.5057E-04  0.5057E-04  0.5750E-01  0.5750E-01
      2.446  0.2363E-03  0.2363E-03  0.5752E-01  0.5752E-01
      2.522  0.1146E-02  0.1146E-02  0.5760E-01  0.5760E-01
      2.598  0.2029E-02  0.2029E-02  0.5776E-01  0.5776E-01
      2.674  0.2056E-02  0.2056E-02  0.5791E-01  0.5791E-01
      2.750  0.1314E-02  0.1314E-02  0.5801E-01  0.5801E-01
      2.825  0.8678E-03  0.8678E-03  0.5808E-01  0.5808E-01
      2.901  0.1517E-02  0.1517E-02  0.5820E-01  0.5820E-01
      2.977  0.2806E-02  0.2806E-02  0.5841E-01  0.5841E-01
      3.053  0.3487E-02  0.3487E-02  0.5867E-01  0.5867E-01
      3.129  0.2895E-02  0.2895E-02  0.5889E-01  0.5889E-01
      3.205  0.1650E-02  0.1650E-02  0.5902E-01  0.5902E-01
      3.281  0.8676E-03  0.8676E-03  0.5908E-01  0.5908E-01
      3.357  0.9326E-03  0.9326E-03  0.5915E-01  0.5915E-01
      3.433  0.1309E-02  0.1309E-02  0.5925E-01  0.5925E-01
      3.509  0.1314E-02  0.1314E-02  0.5935E-01  0.5935E-01
      3.585  0.8597E-03  0.8597E-03  0.5942E-01  0.5942E-01
      3.660  0.4518E-03  0.4518E-03  0.5945E-01  0.5945E-01
      3.736  0.5185E-03  0.5186E-03  0.5949E-01  0.5949E-01
      3.812  0.8805E-03  0.8805E-03  0.5956E-01  0.5956E-01
      3.888  0.1030E-02  0.1030E-02  0.5964E-01  0.5964E-01
      3.964  0.8565E-03  0.8565E-03  0.5970E-01  0.5970E-01
      4.040  0.7535E-03  0.7535E-03  0.5976E-01  0.5976E-01
      4.116  0.1025E-02  0.1025E-02  0.5984E-01  0.5984E-01
      4.192  0.1661E-02  0.1661E-02  0.5996E-01  0.5996E-01
      4.268  0.2663E-02  0.2663E-02  0.6017E-01  0.6017E-01
      4.344  0.3873E-02  0.3873E-02  0.6046E-01  0.6046E-01
      4.419  0.4481E-02  0.4481E-02  0.6080E-01  0.6080E-01
      4.495  0.3684E-02  0.3684E-02  0.6108E-01  0.6108E-01
      4.571  0.1928E-02  0.1928E-02  0.6123E-01  0.6123E-01
      4.647  0.6334E-03  0.6334E-03  0.6127E-01  0.6127E-01
      4.723  0.6494E-03  0.6493E-03  0.6132E-01  0.6132E-01
      4.799  0.1486E-02  0.1486E-02  0.6144E-01  0.6144E-01
      4.875  0.2047E-02  0.2047E-02  0.6159E-01  0.6159E-01
      4.951  0.2007E-02  0.2007E-02  0.6174E-01  0.6174E-01
      5.027  0.2139E-02  0.2139E-02  0.6191E-01  0.6191E-01
      5.103  0.2977E-02  0.2977E-02  0.6213E-01  0.6213E-01
      5.179  0.3814E-02  0.3814E-02  0.6242E-01  0.6242E-01
      5.254  0.3585E-02  0.3585E-02  0.6269E-01  0.6269E-01
      5.330  0.2263E-02  0.2263E-02  0.6287E-01  0.6287E-01
      5.406  0.8610E-03  0.8610E-03  0.6293E-01  0.6293E-01
      5.482  0.2759E-03  0.2759E-03  0.6295E-01  0.6295E-01
      5.558  0.4870E-03  0.4870E-03  0.6299E-01  0.6299E-01
      5.634  0.8307E-03  0.8307E-03  0.6305E-01  0.6305E-01
      5.710  0.9485E-03  0.9485E-03  0.6312E-01  0.6312E-01
      5.786  0.1303E-02  0.1303E-02  0.6322E-01  0.6322E-01
      5.862  0.2377E-02  0.2377E-02  0.6340E-01  0.6340E-01
      5.938  0.3543E-02  0.3543E-02  0.6367E-01  0.6367E-01
      6.013  0.3632E-02  0.3632E-02  0.6395E-01  0.6395E-01
      6.089  0.2636E-02  0.2636E-02  0.6415E-01  0.6415E-01
      6.165  0.1692E-02  0.1692E-02  0.6428E-01  0.6428E-01
      6.241  0.1507E-02  0.1507E-02  0.6439E-01  0.6439E-01
      6.317  0.1966E-02  0.1966E-02  0.6454E-01  0.6454E-01
      6.393  0.2871E-02  0.2871E-02  0.6476E-01  0.6476E-01
      6.469  0.3842E-02  0.3842E-02  0.6505E-01  0.6505E-01
      6.545  0.4064E-02  0.4064E-02  0.6536E-01  0.6536E-01
      6.621  0.3153E-02  0.3153E-02  0.6560E-01  0.6560E-01
      6.697  0.1801E-02  0.1801E-02  0.6573E-01  0.6573E-01
      6.773  0.1051E-02  0.1051E-02  0.6581E-01  0.6581E-01
      6.848  0.1315E-02  0.1315E-02  0.6591E-01  0.6591E-01
      6.924  0.2197E-02  0.2197E-02  0.6608E-01  0.6608E-01
      7.000  0.2857E-02  0.2857E-02  0.6630E-01  0.6630E-01
      7.076  0.2759E-02  0.2759E-02  0.6651E-01  0.6651E-01
      7.152  0.2264E-02  0.2264E-02  0.6668E-01  0.6668E-01
      7.228  0.2050E-02  0.2050E-02  0.6683E-01  0.6683E-01
      7.304  0.2165E-02  0.2165E-02  0.6700E-01  0.6700E-01
      7.380  0.2416E-02  0.2416E-02  0.6718E-01  0.6718E-01
      7.456  0.3047E-02  0.3047E-02  0.6741E-01  0.6741E-01
      7.532  0.4026E-02  0.4026E-02  0.6772E-01  0.6772E-01
      7.608  0.4617E-02  0.4617E-02  0.6807E-01  0.6807E-01
      7.683  0.4424E-02  0.4424E-02  0.6841E-01  0.6841E-01
      7.759  0.3754E-02  0.3753E-02  0.6869E-01  0.6869E-01
      7.835  0.2770E-02  0.2771E-02  0.6890E-01  0.6890E-01
      7.911  0.1491E-02  0.1492E-02  0.6901E-01  0.6901E-01
      7.987  0.2940E-03  0.2942E-03  0.6904E-01  0.6904E-01
      8.063 -0.3698E-03 -0.3698E-03  0.6901E-01  0.6901E-01
      8.139 -0.2249E-03 -0.2249E-03  0.6899E-01  0.6899E-01
      8.215  0.1076E-02  0.1076E-02  0.6907E-01  0.6907E-01
      8.291  0.3539E-02  0.3539E-02  0.6934E-01  0.6934E-01
      8.367  0.5931E-02  0.5931E-02  0.6979E-01  0.6979E-01
      8.442  0.6400E-02  0.6400E-02  0.7028E-01  0.7028E-01
      8.518  0.4605E-02  0.4605E-02  0.7063E-01  0.7063E-01
      8.594  0.2450E-02  0.2450E-02  0.7081E-01  0.7081E-01
      8.670  0.2110E-02  0.2110E-02  0.7097E-01  0.7097E-01
      8.746  0.3652E-02  0.3652E-02  0.7125E-01  0.7125E-01
      8.822  0.5026E-02  0.5026E-02  0.7163E-01  0.7163E-01
      8.898  0.4518E-02  0.4518E-02  0.7197E-01  0.7197E-01
      8.974  0.2664E-02  0.2664E-02  0.7218E-01  0.7218E-01
      9.050  0.1259E-02  0.1258E-02  0.7227E-01  0.7227E-01
      9.126  0.1300E-02  0.1299E-02  0.7237E-01  0.7237E-01
      9.202  0.2370E-02  0.2369E-02  0.7255E-01  0.7255E-01
      9.277  0.3240E-02  0.3240E-02  0.7280E-01  0.7280E-01
      9.353  0.2924E-02  0.2924E-02  0.7302E-01  0.7302E-01
      9.429  0.1642E-02  0.1642E-02  0.7314E-01  0.7314E-01
      9.505  0.6488E-03  0.6490E-03  0.7319E-01  0.7319E-01
      9.581  0.1011E-02  0.1011E-02  0.7327E-01  0.7327E-01
      9.657  0.2629E-02  0.2629E-02  0.7347E-01  0.7347E-01
      9.733  0.4364E-02  0.4364E-02  0.7380E-01  0.7380E-01
      9.809  0.5123E-02  0.5123E-02  0.7419E-01  0.7419E-01
      9.885  0.4711E-02  0.4711E-02  0.7455E-01  0.7455E-01
      9.961  0.3532E-02  0.3532E-02  0.7481E-01  0.7481E-01
     10.036  0.2038E-02  0.2039E-02  0.7497E-01  0.7497E-01
     10.112  0.7313E-03  0.7315E-03  0.7502E-01  0.7502E-01
     10.188  0.6742E-05  0.6810E-05  0.7503E-01  0.7503E-01
     10.264 -0.1696E-03 -0.1696E-03  0.7501E-01  0.7501E-01
     10.340 -0.1106E-03 -0.1106E-03  0.7500E-01  0.7500E-01
     10.416 -0.4039E-04 -0.4040E-04  0.7500E-01  0.7500E-01
     10.492 -0.9808E-05 -0.9811E-05  0.7500E-01  0.7500E-01
     10.568 -0.1671E-05 -0.1672E-05  0.7500E-01  0.7500E-01
     10.644 -0.2047E-06 -0.2048E-06  0.7500E-01  0.7500E-01
     10.720 -0.1827E-07 -0.1827E-07  0.7500E-01  0.7500E-01
     10.796 -0.1196E-08 -0.1197E-08  0.7500E-01  0.7500E-01
     10.871 -0.5783E-10 -0.5785E-10  0.7500E-01  0.7500E-01
     10.947 -0.2070E-11 -0.2071E-11  0.7500E-01  0.7500E-01
     11.023 -0.5501E-13 -0.5504E-13  0.7500E-01  0.7500E-01
     11.099 -0.1088E-14 -0.1088E-14  0.7500E-01  0.7500E-01
     11.175 -0.1625E-16 -0.1625E-16  0.7500E-01  0.7500E-01
     11.251  0.0000E+00  0.0000E+00  0.7500E-01  0.7500E-01
     11.327  0.0000E+00  0.0000E+00  0.7500E-01  0.7500E-01
     11.403  0.0000E+00  0.0000E+00  0.7500E-01  0.7500E-01
     11.479  0.0000E+00  0.0000E+00  0.7500E-01  0.7500E-01
     11.555  0.0000E+00  0.0000E+00  0.7500E-01  0.7500E-01
     11.630  0.0000E+00  0.0000E+00  0.7500E-01  0.7500E-01
     11.706  0.0000E+00  0.0000E+00  0.7500E-01  0.7500E-01
     11.782  0.0000E+00  0.0000E+00  0.7500E-01  0.7500E-01
     11.858  0.0000E+00  0.0000E+00  0.7500E-01  0.7500E-01
     11.934  0.0000E+00  0.0000E+00  0.7500E-01  0.7500E-01
