       N       E                     dE             d eps       ncg     rms          rms(c)
DAV:   1     0.775681523397E+03    0.77568E+03   -0.33291E+04   960   0.168E+03
DAV:   2     0.587331058062E+02   -0.71695E+03   -0.68825E+03   960   0.377E+02
DAV:   3    -0.321329193523E+02   -0.90866E+02   -0.85064E+02  1008   0.184E+02
DAV:   4    -0.359763358317E+02   -0.38434E+01   -0.38118E+01  1112   0.511E+01
DAV:   5    -0.360687354305E+02   -0.92400E-01   -0.92317E-01  1212   0.647E+00    0.278E+01
DAV:   6    -0.279489076120E+02    0.81198E+01   -0.92167E+01  1112   0.133E+02    0.138E+01
DAV:   7    -0.262817725942E+02    0.16671E+01   -0.27620E+01  1140   0.105E+02    0.826E+00
DAV:   8    -0.259291702067E+02    0.35260E+00   -0.10257E+01  1320   0.912E+01    0.723E+00
DAV:   9    -0.260241920485E+02   -0.95022E-01   -0.48404E+00  1624   0.520E+01    0.621E+00
DAV:  10    -0.265005363087E+02   -0.47634E+00   -0.16926E+00  1336   0.346E+01    0.509E+00
DAV:  11    -0.283110100636E+02   -0.18105E+01   -0.13578E+00  1320   0.238E+01    0.407E+00
DAV:  12    -0.296096673888E+02   -0.12987E+01   -0.80584E-01  1208   0.181E+01    0.313E+00
DAV:  13    -0.319252154398E+02   -0.23155E+01   -0.18882E+00  1336   0.268E+01    0.196E+00
DAV:  14    -0.335105027846E+02   -0.15853E+01   -0.19373E+00  1168   0.208E+01    0.121E+00
DAV:  15    -0.340886499439E+02   -0.57815E+00   -0.71499E-01  1228   0.822E+00    0.860E-01
DAV:  16    -0.343777621929E+02   -0.28911E+00   -0.24033E-01  1036   0.631E+00    0.521E-01
DAV:  17    -0.345611066497E+02   -0.18334E+00   -0.10580E-01  1108   0.513E+00    0.427E-01
DAV:  18    -0.346464261693E+02   -0.85320E-01   -0.52839E-02  1096   0.269E+00    0.252E-01
DAV:  19    -0.347020664348E+02   -0.55640E-01   -0.21058E-02  1244   0.165E+00    0.172E-01
DAV:  20    -0.347495875420E+02   -0.47521E-01   -0.93885E-03  1144   0.168E+00    0.158E-01
DAV:  21    -0.347831359808E+02   -0.33548E-01   -0.39904E-03  1192   0.969E-01    0.116E-01
DAV:  22    -0.348273635763E+02   -0.44228E-01   -0.52719E-03  1092   0.560E-01    0.917E-02
DAV:  23    -0.348624281330E+02   -0.35065E-01   -0.13478E-03   928   0.540E-01    0.680E-02
DAV:  24    -0.348901898215E+02   -0.27762E-01   -0.86416E-04   852   0.532E-01    0.463E-02
DAV:  25    -0.349089938274E+02   -0.18804E-01   -0.68367E-04   880   0.303E-01    0.292E-02
DAV:  26    -0.349161878879E+02   -0.71941E-02   -0.25159E-04   740   0.179E-01    0.163E-02
DAV:  27    -0.349171090153E+02   -0.92113E-03   -0.73791E-05   724   0.179E-01    0.126E-02
DAV:  28    -0.349173812889E+02   -0.27227E-03   -0.46144E-05   680   0.116E-01    0.886E-03
DAV:  29    -0.349174768868E+02   -0.95598E-04   -0.33564E-05   676   0.652E-02
   1 F= -.38149450E+02 E0= -.38155437E+02  d E =-.381495E+02  mag=    -0.0004
       N       E                     dE             d eps       ncg     rms          rms(c)
DAV:   1    -0.349162000501E+02    0.11812E-02   -0.76523E+01  1040   0.357E+01    0.155E+00
DAV:   2    -0.350572045991E+02   -0.14100E+00   -0.18767E+00  1416   0.182E+01    0.126E+00
DAV:   3    -0.350448037018E+02    0.12401E-01   -0.21665E-01  1208   0.149E+01    0.800E-01
DAV:   4    -0.350427466170E+02    0.20571E-02   -0.12950E-01  1260   0.113E+01    0.562E-01
DAV:   5    -0.350388939074E+02    0.38527E-02   -0.92794E-02  1428   0.898E+00    0.253E-01
DAV:   6    -0.350379207667E+02    0.97314E-03   -0.23385E-02  1572   0.404E+00    0.852E-02
DAV:   7    -0.350380474722E+02   -0.12671E-03   -0.42406E-03  1292   0.141E+00    0.484E-02
DAV:   8    -0.350381417751E+02   -0.94303E-04   -0.11424E-03   980   0.682E-01
   2 F= -.38284544E+02 E0= -.38291371E+02  d E =-.135094E+00  mag=    -0.0001
       N       E                     dE             d eps       ncg     rms          rms(c)
DAV:   1    -0.350936394558E+02   -0.55592E-01   -0.12135E+01  1008   0.141E+01    0.532E-01
DAV:   2    -0.351155696428E+02   -0.21930E-01   -0.27002E-01  1328   0.376E+00    0.383E-01
DAV:   3    -0.351151799779E+02    0.38966E-03   -0.23040E-02  1256   0.406E+00    0.291E-01
DAV:   4    -0.351145707533E+02    0.60922E-03   -0.21694E-02  1140   0.472E+00    0.199E-01
DAV:   5    -0.351137381426E+02    0.83261E-03   -0.86742E-03  1520   0.274E+00    0.587E-02
DAV:   6    -0.351137416034E+02   -0.34608E-05   -0.14820E-03  1036   0.101E+00
   3 F= -.38348824E+02 E0= -.38355617E+02  d E =-.199373E+00  mag=    -0.0001
       N       E                     dE             d eps       ncg     rms          rms(c)
DAV:   1    -0.351702047338E+02   -0.56467E-01   -0.15856E+01  1024   0.167E+01    0.481E-01
DAV:   2    -0.352025711460E+02   -0.32366E-01   -0.36129E-01  1344   0.665E+00    0.467E-01
DAV:   3    -0.352018323531E+02    0.73879E-03   -0.46296E-02  1104   0.599E+00    0.327E-01
DAV:   4    -0.352011113279E+02    0.72103E-03   -0.97595E-03  1124   0.256E+00    0.227E-01
DAV:   5    -0.352008494372E+02    0.26189E-03   -0.56240E-03  1296   0.238E+00    0.134E-01
DAV:   6    -0.352006467435E+02    0.20269E-03   -0.28534E-03  1080   0.195E+00    0.413E-02
DAV:   7    -0.352006807064E+02   -0.33963E-04   -0.76280E-04   944   0.517E-01
   4 F= -.38439262E+02 E0= -.38445895E+02  d E =-.904381E-01  mag=    -0.0000
       N       E                     dE             d eps       ncg     rms          rms(c)
DAV:   1    -0.351253552048E+02    0.75292E-01   -0.49651E+01  1008   0.303E+01    0.811E-01
DAV:   2    -0.352316953867E+02   -0.10634E+00   -0.11684E+00  1304   0.113E+01    0.809E-01
DAV:   3    -0.352281161684E+02    0.35792E-02   -0.11261E-01  1168   0.988E+00    0.558E-01
DAV:   4    -0.352261025279E+02    0.20136E-02   -0.27167E-02  1160   0.426E+00    0.404E-01
DAV:   5    -0.352250640438E+02    0.10385E-02   -0.17336E-02  1312   0.429E+00    0.243E-01
DAV:   6    -0.352243507735E+02    0.71327E-03   -0.89082E-03  1104   0.339E+00    0.711E-02
DAV:   7    -0.352245171177E+02   -0.16634E-03   -0.27988E-03  1324   0.853E-01    0.334E-02
DAV:   8    -0.352245226016E+02   -0.54839E-05   -0.31177E-04   684   0.326E-01
   5 F= -.38470550E+02 E0= -.38476016E+02  d E =-.121726E+00  mag=    -0.0000
       N       E                     dE             d eps       ncg     rms          rms(c)
DAV:   1    -0.352263463506E+02   -0.18292E-02   -0.28643E+00   992   0.708E+00    0.192E-01
DAV:   2    -0.352316486854E+02   -0.53023E-02   -0.59197E-02  1344   0.265E+00    0.189E-01
DAV:   3    -0.352314744912E+02    0.17419E-03   -0.62302E-03  1136   0.220E+00    0.131E-01
DAV:   4    -0.352313636357E+02    0.11086E-03   -0.14869E-03   984   0.105E+00
   6 F= -.38475471E+02 E0= -.38481217E+02  d E =-.126647E+00  mag=    -0.0000
       N       E                     dE             d eps       ncg     rms          rms(c)
DAV:   1    -0.352346881116E+02   -0.32136E-02   -0.11931E+01  1008   0.146E+01    0.428E-01
DAV:   2    -0.352564381051E+02   -0.21750E-01   -0.24461E-01  1344   0.484E+00    0.386E-01
DAV:   3    -0.352552877266E+02    0.11504E-02   -0.13984E-02  1152   0.352E+00    0.251E-01
DAV:   4    -0.352548784336E+02    0.40929E-03   -0.56388E-03  1076   0.251E+00    0.185E-01
DAV:   5    -0.352547373934E+02    0.14104E-03   -0.72797E-03  1496   0.246E+00    0.937E-02
DAV:   6    -0.352545034820E+02    0.23391E-03   -0.43062E-03   904   0.208E+00    0.486E-02
DAV:   7    -0.352544646697E+02    0.38812E-04   -0.67467E-04   648   0.697E-01
   7 F= -.38500331E+02 E0= -.38506057E+02  d E =-.248603E-01  mag=    -0.0000
       N       E                     dE             d eps       ncg     rms          rms(c)
DAV:   1    -0.352545237154E+02   -0.20233E-04   -0.11731E-03  1152   0.255E-01    0.172E-02
DAV:   2    -0.352545270393E+02   -0.33239E-05   -0.84186E-05   620   0.301E-01
   8 F= -.38500372E+02 E0= -.38506104E+02  d E =-.249020E-01  mag=    -0.0000
       N       E                     dE             d eps       ncg     rms          rms(c)
DAV:   1    -0.352479467219E+02    0.65770E-02   -0.14079E+01  1016   0.157E+01    0.333E-01
DAV:   2    -0.352744932777E+02   -0.26547E-01   -0.28158E-01  1324   0.447E+00    0.353E-01
DAV:   3    -0.352740981763E+02    0.39510E-03   -0.16564E-02  1104   0.278E+00    0.259E-01
DAV:   4    -0.352736906726E+02    0.40750E-03   -0.24478E-03  1080   0.129E+00    0.198E-01
DAV:   5    -0.352732267986E+02    0.46387E-03   -0.34618E-03  1080   0.172E+00    0.123E-01
DAV:   6    -0.352730098916E+02    0.21691E-03   -0.48586E-03  1192   0.219E+00    0.610E-02
DAV:   7    -0.352729258615E+02    0.84030E-04   -0.90178E-04   648   0.897E-01
   9 F= -.38518536E+02 E0= -.38524348E+02  d E =-.181632E-01  mag=    -0.0000
       N       E                     dE             d eps       ncg     rms          rms(c)
DAV:   1    -0.352729093727E+02    0.10052E-03   -0.15862E-01  1032   0.166E+00    0.395E-02
DAV:   2    -0.352731944492E+02   -0.28508E-03   -0.30057E-03  1336   0.411E-01    0.256E-02
DAV:   3    -0.352731971025E+02   -0.26534E-05   -0.13817E-04   596   0.316E-01
  10 F= -.38518810E+02 E0= -.38524643E+02  d E =-.184376E-01  mag=     0.0000
       N       E                     dE             d eps       ncg     rms          rms(c)
DAV:   1    -0.352773056360E+02   -0.41112E-02   -0.24936E+00   984   0.661E+00    0.167E-01
DAV:   2    -0.352818473339E+02   -0.45417E-02   -0.49695E-02  1296   0.186E+00    0.152E-01
DAV:   3    -0.352817119208E+02    0.13541E-03   -0.22506E-03  1152   0.125E+00    0.111E-01
DAV:   4    -0.352815945668E+02    0.11735E-03   -0.51052E-04   640   0.761E-01
  11 F= -.38525549E+02 E0= -.38531298E+02  d E =-.673935E-02  mag=     0.0000
       N       E                     dE             d eps       ncg     rms          rms(c)
DAV:   1    -0.352826364318E+02   -0.92451E-03   -0.19428E+00  1000   0.587E+00    0.154E-01
DAV:   2    -0.352859563357E+02   -0.33199E-02   -0.38651E-02  1512   0.285E+00    0.149E-01
DAV:   3    -0.352858572503E+02    0.99085E-04   -0.86045E-03  1200   0.264E+00    0.111E-01
DAV:   4    -0.352857942262E+02    0.63024E-04   -0.13986E-03   968   0.861E-01
  12 F= -.38528330E+02 E0= -.38534030E+02  d E =-.951957E-02  mag=     0.0000
       N       E                     dE             d eps       ncg     rms          rms(c)
DAV:   1    -0.352716168311E+02    0.14240E-01   -0.77618E+00  1000   0.118E+01    0.282E-01
DAV:   2    -0.352865207592E+02   -0.14904E-01   -0.16100E-01  1296   0.304E+00    0.254E-01
DAV:   3    -0.352861323542E+02    0.38840E-03   -0.54969E-03  1168   0.186E+00    0.189E-01
DAV:   4    -0.352858137679E+02    0.31859E-03   -0.12032E-03  1032   0.123E+00    0.131E-01
DAV:   5    -0.352855784003E+02    0.23537E-03   -0.68207E-04   736   0.718E-01    0.314E-02
DAV:   6    -0.352856006910E+02   -0.22291E-04   -0.60718E-04   720   0.735E-01
  13 F= -.38525439E+02 E0= -.38530858E+02  d E =-.662879E-02  mag=     0.0000
       N       E                     dE             d eps       ncg     rms          rms(c)
DAV:   1    -0.352790462846E+02    0.65321E-02   -0.45327E+00   992   0.893E+00    0.222E-01
DAV:   2    -0.352874382693E+02   -0.83920E-02   -0.91975E-02  1296   0.276E+00    0.226E-01
DAV:   3    -0.352871428231E+02    0.29545E-03   -0.56857E-03  1088   0.206E+00    0.154E-01
DAV:   4    -0.352869442508E+02    0.19857E-03   -0.15105E-03   888   0.109E+00
  14 F= -.38528828E+02 E0= -.38534519E+02  d E =-.100180E-01  mag=     0.0000
       N       E                     dE             d eps       ncg     rms          rms(c)
DAV:   1    -0.352891638720E+02   -0.20210E-02   -0.18934E+00   984   0.600E+00    0.208E-01
DAV:   2    -0.352935074518E+02   -0.43436E-02   -0.51290E-02  1344   0.279E+00    0.182E-01
DAV:   3    -0.352933340494E+02    0.17340E-03   -0.62112E-03  1144   0.230E+00    0.140E-01
DAV:   4    -0.352932212650E+02    0.11278E-03   -0.26138E-03  1104   0.159E+00    0.956E-02
DAV:   5    -0.352931840218E+02    0.37243E-04   -0.17119E-03   872   0.120E+00
  15 F= -.38531444E+02 E0= -.38536928E+02  d E =-.261595E-02  mag=     0.0000
       N       E                     dE             d eps       ncg     rms          rms(c)
DAV:   1    -0.352922352997E+02    0.98597E-03   -0.12157E-01  1088   0.169E+00    0.592E-02
DAV:   2    -0.352924716575E+02   -0.23636E-03   -0.31054E-03  1224   0.747E-01    0.541E-02
DAV:   3    -0.352924412348E+02    0.30423E-04   -0.36254E-04   672   0.647E-01
  16 F= -.38531603E+02 E0= -.38537153E+02  d E =-.277443E-02  mag=     0.0000
       N       E                     dE             d eps       ncg     rms          rms(c)
DAV:   1    -0.352971219328E+02   -0.46503E-02   -0.11204E+00   984   0.441E+00    0.116E-01
DAV:   2    -0.352992696461E+02   -0.21477E-02   -0.23553E-02  1264   0.119E+00    0.999E-02
DAV:   3    -0.352992340022E+02    0.35644E-04   -0.12163E-03  1120   0.866E-01
  17 F= -.38535333E+02 E0= -.38540746E+02  d E =-.373053E-02  mag=     0.0000
       N       E                     dE             d eps       ncg     rms          rms(c)
DAV:   1    -0.353023662659E+02   -0.30966E-02   -0.37946E+00   992   0.807E+00    0.256E-01
DAV:   2    -0.353091427830E+02   -0.67765E-02   -0.78040E-02  1296   0.252E+00    0.228E-01
DAV:   3    -0.353089207985E+02    0.22198E-03   -0.64423E-03  1160   0.238E+00    0.171E-01
DAV:   4    -0.353087082993E+02    0.21250E-03   -0.36021E-03   976   0.179E+00    0.102E-01
DAV:   5    -0.353086375459E+02    0.70753E-04   -0.28868E-03   816   0.175E+00    0.608E-02
DAV:   6    -0.353085486809E+02    0.88865E-04   -0.80388E-04   688   0.101E+00
  18 F= -.38539115E+02 E0= -.38544281E+02  d E =-.751288E-02  mag=     0.0000
       N       E                     dE             d eps       ncg     rms          rms(c)
DAV:   1    -0.353103106358E+02   -0.16731E-02   -0.72897E-01   992   0.353E+00    0.977E-02
DAV:   2    -0.353116642927E+02   -0.13537E-02   -0.14843E-02  1264   0.104E+00    0.815E-02
DAV:   3    -0.353116642901E+02    0.26703E-08   -0.98692E-04  1168   0.883E-01
  19 F= -.38539845E+02 E0= -.38544896E+02  d E =-.824265E-02  mag=     0.0000
       N       E                     dE             d eps       ncg     rms          rms(c)
DAV:   1    -0.353149970188E+02   -0.33327E-02   -0.92625E-01  1008   0.402E+00    0.122E-01
DAV:   2    -0.353166110692E+02   -0.16141E-02   -0.18338E-02  1304   0.125E+00    0.110E-01
DAV:   3    -0.353165558495E+02    0.55220E-04   -0.14115E-03  1112   0.106E+00
  20 F= -.38542099E+02 E0= -.38547021E+02  d E =-.225426E-02  mag=     0.0000
       N       E                     dE             d eps       ncg     rms          rms(c)
DAV:   1    -0.353188647444E+02   -0.22537E-02   -0.19855E+00  1008   0.588E+00    0.173E-01
DAV:   2    -0.353222283993E+02   -0.33637E-02   -0.38509E-02  1376   0.216E+00    0.161E-01
DAV:   3    -0.353221562432E+02    0.72156E-04   -0.45068E-03  1160   0.194E+00    0.124E-01
DAV:   4    -0.353220332340E+02    0.12301E-03   -0.16095E-03  1008   0.119E+00
  21 F= -.38543725E+02 E0= -.38548435E+02  d E =-.387987E-02  mag=     0.0000
       N       E                     dE             d eps       ncg     rms          rms(c)
DAV:   1    -0.353241463290E+02   -0.19901E-02   -0.11229E+00   984   0.454E+00    0.133E-01
DAV:   2    -0.353259762661E+02   -0.18299E-02   -0.20883E-02  1280   0.144E+00    0.104E-01
DAV:   3    -0.353260000011E+02   -0.23735E-04   -0.21794E-03  1104   0.134E+00    0.889E-02
DAV:   4    -0.353259236532E+02    0.76348E-04   -0.10190E-03   656   0.103E+00
  22 F= -.38544903E+02 E0= -.38549355E+02  d E =-.117837E-02  mag=     0.0000
       N       E                     dE             d eps       ncg     rms          rms(c)
DAV:   1    -0.353252316686E+02    0.76833E-03   -0.60764E-02  1216   0.131E+00    0.369E-02
DAV:   2    -0.353253156285E+02   -0.83960E-04   -0.15149E-03   984   0.108E+00
  23 F= -.38544911E+02 E0= -.38549438E+02  d E =-.118575E-02  mag=     0.0000
       N       E                     dE             d eps       ncg     rms          rms(c)
DAV:   1    -0.353255796974E+02   -0.34803E-03   -0.14475E-02  1376   0.947E-01    0.160E-02
DAV:   2    -0.353256050471E+02   -0.25350E-04   -0.29792E-04   736   0.491E-01
  24 F= -.38544902E+02 E0= -.38549393E+02  d E =-.117681E-02  mag=     0.0000
       N       E                     dE             d eps       ncg     rms          rms(c)
DAV:   1    -0.353279055399E+02   -0.23258E-02   -0.89670E-01  1008   0.398E+00    0.895E-02
DAV:   2    -0.353294808206E+02   -0.15753E-02   -0.16983E-02  1296   0.113E+00    0.882E-02
DAV:   3    -0.353294535836E+02    0.27237E-04   -0.84798E-04  1064   0.718E-01
  25 F= -.38546124E+02 E0= -.38550351E+02  d E =-.122227E-02  mag=     0.0000
       N       E                     dE             d eps       ncg     rms          rms(c)
DAV:   1    -0.353311781796E+02   -0.16974E-02   -0.14463E+00  1008   0.505E+00    0.140E-01
DAV:   2    -0.353336121734E+02   -0.24340E-02   -0.27701E-02  1264   0.127E+00    0.131E-01
DAV:   3    -0.353334768489E+02    0.13532E-03   -0.96590E-04  1136   0.777E-01
  26 F= -.38546811E+02 E0= -.38550678E+02  d E =-.190897E-02  mag=     0.0000
       N       E                     dE             d eps       ncg     rms          rms(c)
DAV:   1    -0.353341572462E+02   -0.54507E-03   -0.14423E-01  1016   0.177E+00    0.844E-02
DAV:   2    -0.353343779135E+02   -0.22067E-03   -0.34421E-03  1352   0.105E+00    0.653E-02
DAV:   3    -0.353343504598E+02    0.27454E-04   -0.12221E-03   688   0.110E+00
  27 F= -.38547037E+02 E0= -.38550934E+02  d E =-.226107E-03  mag=     0.0000
       N       E                     dE             d eps       ncg     rms          rms(c)
DAV:   1    -0.353342157238E+02    0.16219E-03   -0.18444E-03  1152   0.750E-01    0.316E-02
DAV:   2    -0.353342990117E+02   -0.83288E-04   -0.10431E-03   848   0.994E-01
  28 F= -.38547055E+02 E0= -.38550943E+02  d E =-.244216E-03  mag=     0.0000
       N       E                     dE             d eps       ncg     rms          rms(c)
DAV:   1    -0.353342459514E+02   -0.30228E-04   -0.59648E-04   752   0.707E-01    0.153E-02
DAV:   2    -0.353342783703E+02   -0.32419E-04   -0.36829E-04   664   0.399E-01
  29 F= -.38546982E+02 E0= -.38550874E+02  d E =-.171063E-03  mag=     0.0000
       N       E                     dE             d eps       ncg     rms          rms(c)
DAV:   1    -0.353342657875E+02   -0.19836E-04   -0.25930E-04   656   0.325E-01    0.758E-03
DAV:   2    -0.353342710669E+02   -0.52794E-05   -0.56955E-05   592   0.196E-01
  30 F= -.38547017E+02 E0= -.38550908E+02  d E =-.205807E-03  mag=     0.0000
       N       E                     dE             d eps       ncg     rms          rms(c)
DAV:   1    -0.353342865870E+02   -0.20800E-04   -0.58454E-05   512   0.167E-01    0.428E-03
DAV:   2    -0.353342915180E+02   -0.49310E-05   -0.48581E-05   536   0.103E-01
  31 F= -.38547016E+02 E0= -.38550906E+02  d E =-.205220E-03  mag=     0.0000
       N       E                     dE             d eps       ncg     rms          rms(c)
DAV:   1    -0.353342827441E+02    0.38429E-05   -0.22255E-05   480   0.875E-02    0.287E-03
DAV:   2    -0.353342837755E+02   -0.10314E-05   -0.81306E-06   504   0.700E-02
  32 F= -.38547021E+02 E0= -.38550911E+02  d E =-.209905E-03  mag=     0.0000
       N       E                     dE             d eps       ncg     rms          rms(c)
DAV:   1    -0.353347916296E+02   -0.50889E-03   -0.91673E-02  1008   0.126E+00    0.254E-02
DAV:   2    -0.353349447121E+02   -0.15308E-03   -0.16587E-03  1376   0.412E-01
  33 F= -.38547382E+02 E0= -.38551289E+02  d E =-.361073E-03  mag=     0.0000
       N       E                     dE             d eps       ncg     rms          rms(c)
DAV:   1    -0.353352308537E+02   -0.43922E-03   -0.37136E-02  1040   0.849E-01    0.313E-02
DAV:   2    -0.353352567399E+02   -0.25886E-04   -0.47919E-04   760   0.335E-01
  34 F= -.38547507E+02 E0= -.38551418E+02  d E =-.486294E-03  mag=     0.0000
       N       E                     dE             d eps       ncg     rms          rms(c)
DAV:   1    -0.353353306711E+02   -0.99817E-04   -0.17178E-03  1312   0.516E-01    0.302E-02
DAV:   2    -0.353353578678E+02   -0.27197E-04   -0.52241E-04   648   0.767E-01
  35 F= -.38547576E+02 E0= -.38551491E+02  d E =-.555005E-03  mag=     0.0000
       N       E                     dE             d eps       ncg     rms          rms(c)
DAV:   1    -0.353352965553E+02    0.34116E-04   -0.72504E-03  1352   0.714E-01    0.215E-02
DAV:   2    -0.353353056555E+02   -0.91002E-05   -0.14541E-04   664   0.165E-01
  36 F= -.38547590E+02 E0= -.38551480E+02  d E =-.146082E-04  mag=     0.0000
       N       E                     dE             d eps       ncg     rms          rms(c)
DAV:   1    -0.353353175648E+02   -0.21010E-04   -0.17506E-04   632   0.320E-01    0.204E-02
DAV:   2    -0.353353427755E+02   -0.25211E-04   -0.38385E-04   648   0.697E-01
  37 F= -.38547619E+02 E0= -.38551513E+02  d E =-.434948E-04  mag=     0.0000
       N       E                     dE             d eps       ncg     rms          rms(c)
DAV:   1    -0.353353103823E+02    0.71825E-05   -0.21220E-04   632   0.491E-01    0.471E-03
DAV:   2    -0.353353122238E+02   -0.18415E-05   -0.25876E-05   512   0.132E-01
  38 F= -.38547596E+02 E0= -.38551491E+02  d E =-.200925E-04  mag=     0.0000
       N       E                     dE             d eps       ncg     rms          rms(c)
DAV:   1    -0.353353155626E+02   -0.51802E-05   -0.23546E-05   496   0.108E-01    0.389E-03
DAV:   2    -0.353353169381E+02   -0.13756E-05   -0.14914E-05   496   0.967E-02
  39 F= -.38547597E+02 E0= -.38551494E+02  d E =-.212312E-04  mag=     0.0000
       N       E                     dE             d eps       ncg     rms          rms(c)
DAV:   1    -0.353353153689E+02    0.19367E-06   -0.86119E-06   480   0.754E-02    0.170E-03
DAV:   2    -0.353353159331E+02   -0.56415E-06   -0.55237E-06   496   0.623E-02
  40 F= -.38547598E+02 E0= -.38551494E+02  d E =-.221517E-04  mag=     0.0000
       N       E                     dE             d eps       ncg     rms          rms(c)
DAV:   1    -0.353353635301E+02   -0.48161E-04   -0.48904E-03   968   0.297E-01    0.738E-03
DAV:   2    -0.353353685667E+02   -0.50366E-05   -0.58625E-05   496   0.765E-02
  41 F= -.38547643E+02 E0= -.38551532E+02  d E =-.445723E-04  mag=     0.0000
       N       E                     dE             d eps       ncg     rms          rms(c)
DAV:   1    -0.353354261996E+02   -0.62670E-04   -0.11644E-02  1040   0.464E-01    0.143E-02
DAV:   2    -0.353354367731E+02   -0.10573E-04   -0.14619E-04   576   0.108E-01
  42 F= -.38547699E+02 E0= -.38551579E+02  d E =-.100873E-03  mag=     0.0000
       N       E                     dE             d eps       ncg     rms          rms(c)
DAV:   1    -0.353354669567E+02   -0.40757E-04   -0.46148E-02  1024   0.915E-01    0.270E-02
DAV:   2    -0.353355155345E+02   -0.48578E-04   -0.62862E-04   736   0.229E-01
  43 F= -.38547755E+02 E0= -.38551615E+02  d E =-.157294E-03  mag=     0.0000
       N       E                     dE             d eps       ncg     rms          rms(c)
DAV:   1    -0.353354664676E+02    0.48912E-06   -0.13892E-02  1200   0.554E-01    0.163E-02
DAV:   2    -0.353354782081E+02   -0.11740E-04   -0.14489E-04   632   0.301E-01
  44 F= -.38547730E+02 E0= -.38551601E+02  d E =-.132214E-03  mag=     0.0000
       N       E                     dE             d eps       ncg     rms          rms(c)
DAV:   1    -0.353355115580E+02   -0.45090E-04   -0.65780E-03  1320   0.435E-01    0.848E-03
DAV:   2    -0.353355157575E+02   -0.41996E-05   -0.74147E-05   576   0.246E-01
  45 F= -.38547759E+02 E0= -.38551618E+02  d E =-.161339E-03  mag=     0.0000
       N       E                     dE             d eps       ncg     rms          rms(c)
DAV:   1    -0.353355747521E+02   -0.63194E-04   -0.13719E-03  1184   0.252E-01    0.935E-03
DAV:   2    -0.353355812157E+02   -0.64636E-05   -0.83687E-05   480   0.136E-01
  46 F= -.38547799E+02 E0= -.38551653E+02  d E =-.392601E-04  mag=     0.0000
       N       E                     dE             d eps       ncg     rms          rms(c)
DAV:   1    -0.353356993124E+02   -0.12456E-03   -0.52901E-03  1016   0.334E-01    0.123E-02
DAV:   2    -0.353357026648E+02   -0.33524E-05   -0.64318E-05   504   0.986E-02
  47 F= -.38547870E+02 E0= -.38551723E+02  d E =-.110883E-03  mag=     0.0000
       N       E                     dE             d eps       ncg     rms          rms(c)
DAV:   1    -0.353358716419E+02   -0.17233E-03   -0.20104E-02  1000   0.628E-01    0.232E-02
DAV:   2    -0.353358820391E+02   -0.10397E-04   -0.20603E-04   672   0.238E-01
  48 F= -.38547952E+02 E0= -.38551800E+02  d E =-.192380E-03  mag=     0.0000
