 vasp.6.3.2 27Jun22 (build Aug 17 2022 15:43:34) complex                        
  
 executed on           tv2STDVTST date 2025.02.04  13:59:27
 running   20 mpi-ranks, with    1 threads/rank
 distrk:  each k-point on   20 cores,    1 groups
 distr:  one band on NCORE=   5 cores,    4 groups


--------------------------------------------------------------------------------------------------------


 -----------------------------------------------------------------------------
|                                                                             |
|           W    W    AA    RRRRR   N    N  II  N    N   GGGG   !!!           |
|           W    W   A  A   R    R  NN   N  II  NN   N  G    G  !!!           |
|           W    W  A    A  R    R  N N  N  II  N N  N  G       !!!           |
|           W WW W  AAAAAA  RRRRR   N  N N  II  N  N N  G  GGG   !            |
|           WW  WW  A    A  R   R   N   NN  II  N   NN  G    G                |
|           W    W  A    A  R    R  N    N  II  N    N   GGGG   !!!           |
|                                                                             |
|     Found issues when parsing the INCAR file                                |
|     In line 61: Tagname --- R W I G S contains invalid characters.          |
|     Please check if the interpretation in the OUTCAR file is correct.       |
|                                                                             |
 -----------------------------------------------------------------------------

 INCAR:
    = \=\=\=\=\=\=\=\=\=\=\=\=\=\=\=\=\=\=\=\=\=\=\=\=\=\=\=\=\=\=\=\=\=\=\=\=\=\=\=\=\=\=\=\=\=\=\=\=\=\=\=\=\=\=\=\=\=\=\=\=\=\=\=\=\=\=\=\=\=\=\=\=
    = \=\=\=\=\=\=\=\=\=\=\=\=\=\=\=\=\=\=\=\=\=\=\=\=\=\=\=\=\=\=\=\=\=\=\=\=\=\=\=\=\=\=\=\=\=\=\=\=\=\=\=\=\=\=\=\=\=\=\=\=\=\=\=\=\=\=\=\=\=\=\=\=
   ISTART = 0
   ICHARG = 2
   IPIPOL = 3
   IVDW = 11
    = \=\=\=\=\=\=\=\=\=\=\=\=\=\=\=\=\=\=\=\=\=\=\=\=\=\=\=\=\=\=\=\=\=\=\=\=\=\=\=\=\=\=\=\=\=\=\=\=\=\=\=\=\=\=\=\=\=\=\=\=\=\=\=\=\=\=\=\=\=\=\=\=
    = \=\=\=\=\=\=\=\=\=\=\=\=\=\=\=\=\=\=\=\=\=\=\=\=\=\=\=\=\=\=\=\=\=\=\=\=\=\=\=\=\=\=\=\=\=\=\=\=\=\=\=\=\=\=\=\=\=\=\=\=\=\=\=\=\=\=\=\=\=\=\=\=
   ISPIN = 2
    = \=\=\=\=\=\=\=\=\=\=\=\=\=\=\=\=\=\=\=\=\=\=\=\=\=\=\=\=\=\=\=\=\=\=\=\=\=\=\=\=\=\=\=\=\=\=\=\=\=\=\=\=\=\=\=\=\=\=\=\=\=\=\=\=\=\=\=\=\=\=\=\=
    = \=\=\=\=\=\=\=\=\=\=\=\=\=\=\=\=\=\=\=\=\=\=\=\=\=\=\=\=\=\=\=\=\=\=\=\=\=\=\=\=\=\=\=\=\=\=\=\=\=\=\=\=\=\=\=\=\=\=\=\=\=\=\=\=\=\=\=\=\=\=\=\=
   ENCUT = 400
   PREC = Normal
   EDIFF = 2E-04
   GGA = PE
   ISMEAR = 1
   SIGMA = 0.2
   LREAL = .FALSE.
    = \=\=\=\=\=\=\=\=\=\=\=\=\=\=\=\=\=\=\=\=\=\=\=\=\=\=\=\=\=\=\=\=\=\=\=\=\=\=\=\=\=\=\=\=\=\=\=\=\=\=\=\=\=\=\=\=\=\=\=\=\=\=\=\=\=\=\=\=\=\=\=\=
    = \=\=\=\=\=\=\=\=\=\=\=\=\=\=\=\=\=\=\=\=\=\=\=\=\=\=\=\=\=\=\=\=\=\=\=\=\=\=\=\=\=\=\=\=\=\=\=\=\=\=\=\=\=\=\=\=\=\=\=\=\=\=\=\=\=\=\=\=\=\=\=\=
   ISYM = 1
   NSW = 800
   IBRION = 2
   POTIM = 0.5
   ISIF = 2
   EDIFFG = -.03
    = \=\=\=\=\=\=\=\=\=\=\=\=\=\=\=\=\=\=\=\=\=\=\=\=\=\=\=\=\=\=\=\=\=\=\=\=\=\=\=\=\=\=\=\=\=\=\=\=\=\=\=\=\=\=\=\=\=\=\=\=\=\=\=\=\=\=\=\=\=\=\=\=
    = \=\=\=\=\=\=\=\=\=\=\=\=\=\=\=\=\=\=\=\=\=\=\=\=\=\=\=\=\=\=\=\=\=\=\=\=\=\=\=\=\=\=\=\=\=\=\=\=\=\=\=\=\=\=\=\=\=\=\=\=\=\=\=\=\=\=\=\=\=\=\=\=
   NPAR = 4
   LWAVE = .FALSE.
   LCHARG = .FALSE.

 POTCAR:    PAW_PBE Cu 22Jun2005                  
 POTCAR:    PAW_PBE H 15Jun2001                   
 -----------------------------------------------------------------------------
|                                                                             |
|           W    W    AA    RRRRR   N    N  II  N    N   GGGG   !!!           |
|           W    W   A  A   R    R  NN   N  II  NN   N  G    G  !!!           |
|           W    W  A    A  R    R  N N  N  II  N N  N  G       !!!           |
|           W WW W  AAAAAA  RRRRR   N  N N  II  N  N N  G  GGG   !            |
|           WW  WW  A    A  R   R   N   NN  II  N   NN  G    G                |
|           W    W  A    A  R    R  N    N  II  N    N   GGGG   !!!           |
|                                                                             |
|     You use a magnetic or noncollinear calculation, but did not specify     |
|     the initial magnetic moment with the MAGMOM tag. Note that a            |
|     default of 1 will be used for all atoms. This ferromagnetic setup       |
|     may break the symmetry of the crystal, in particular it may rule        |
|     out finding an antiferromagnetic solution. Thence, we recommend         |
|     setting the initial magnetic moment manually or verifying carefully     |
|     that this magnetic setup is desired.                                    |
|                                                                             |
 -----------------------------------------------------------------------------

 POTCAR:    PAW_PBE Cu 22Jun2005                  
   SHA256 =  0e71e558f37a4e8407882b4609ceaae59938afaad9ced71dfe8490308a0ab630 Cu/POTCAR             
   COPYR  = (c) Copyright 22Jun2005 Georg Kresse                                                    
   COPYR  = This file is part of the software VASP. Any use, copying, and all other rights are regul
   COPYR  = If you do not have a valid VASP license, you may not use, copy or distribute this file. 
   VRHFIN =Cu: d10 p1                                                                               
   LEXCH  = PE                                                                                      
   EATOM  =  1390.9808 eV,  102.2342 Ry                                                             
                                                                                                    
   TITEL  = PAW_PBE Cu 22Jun2005                                                                    
   LULTRA =        F    use ultrasoft PP ?                                                          
   IUNSCR =        1    unscreen: 0-lin 1-nonlin 2-no                                               
   RPACOR =    2.000    partial core radius                                                         
   POMASS =   63.546; ZVAL   =   11.000    mass and valenz                                          
   RCORE  =    2.300    outmost cutoff radius                                                       
   RWIGS  =    2.200; RWIGS  =    1.164    wigner-seitz radius (au A)                               
   ENMAX  =  295.446; ENMIN  =  221.585 eV                                                          
   ICORE  =        3    local potential                                                             
   LCOR   =        T    correct aug charges                                                         
   LPAW   =        T    paw PP                                                                      
   EAUG   =  586.980                                                                                
   DEXC   =    0.000                                                                                
   RMAX   =    2.344    core radius for proj-oper                                                   
   RAUG   =    1.300    factor for augmentation sphere                                              
   RDEP   =    2.302    radius for radial grids                                                     
   RDEPT  =    1.771    core radius for aug-charge                                                  
                                                                                                    
   Atomic configuration                                                                             
    9 entries                                                                                       
     n  l   j            E        occ.                                                              
     1  0  0.50     -8850.2468   2.0000                                                             
     2  0  0.50     -1062.3498   2.0000                                                             
     2  1  1.50      -916.8226   6.0000                                                             
     3  0  0.50      -114.6929   2.0000                                                             
     3  1  1.50       -72.1325   6.0000                                                             
     3  2  2.50        -5.0394  10.0000                                                             
     4  0  0.50        -4.6097   1.0000                                                             
     4  1  0.50        -4.0817   0.0000                                                             
     4  3  2.50        -1.3606   0.0000                                                             
   Description                                                                                      
     l       E           TYP  RCUT    TYP  RCUT                                                     
     2     -5.0393973     23  2.200                                                                 
     2     10.8846608     23  2.200                                                                 
     0     -4.6097109     23  2.200                                                                 
     0      8.2520465     23  2.200                                                                 
     1     -2.7211652     23  2.200                                                                 
     1     21.7055443     23  2.200                                                                 
     3      2.7211652     23  2.300                                                                 
  local pseudopotential read in
  partial core-charges read in
  partial kinetic energy density read in
  atomic valenz-charges read in
  non local Contribution for L=           2  read in
    real space projection operators read in
  non local Contribution for L=           2  read in
    real space projection operators read in
  non local Contribution for L=           0  read in
    real space projection operators read in
  non local Contribution for L=           0  read in
    real space projection operators read in
  non local Contribution for L=           1  read in
    real space projection operators read in
  non local Contribution for L=           1  read in
    real space projection operators read in
    PAW grid and wavefunctions read in
 
   number of l-projection  operators is LMAX  =           6
   number of lm-projection operators is LMMAX =          18
 
 POTCAR:    PAW_PBE H 15Jun2001                   
   SHA256 =  030f79b5d3ab3cf0e668861823c8fb652ff669f3e15e46930bd03bfd63a607b6 H/POTCAR              
   COPYR  = (c) Copyright 15Jun2001 Georg Kresse                                                    
   COPYR  = This file is part of the software VASP. Any use, copying, and all other rights are regul
   COPYR  = If you do not have a valid VASP license, you may not use, copy or distribute this file. 
   VRHFIN =H: ultrasoft test                                                                        
   LEXCH  = PE                                                                                      
   EATOM  =    12.4884 eV,    0.9179 Ry                                                             
                                                                                                    
   TITEL  = PAW_PBE H 15Jun2001                                                                     
   LULTRA =        F    use ultrasoft PP ?                                                          
   IUNSCR =        0    unscreen: 0-lin 1-nonlin 2-no                                               
   RPACOR =    0.000    partial core radius                                                         
   POMASS =    1.000; ZVAL   =    1.000    mass and valenz                                          
   RCORE  =    1.100    outmost cutoff radius                                                       
   RWIGS  =    0.700; RWIGS  =    0.370    wigner-seitz radius (au A)                               
   ENMAX  =  250.000; ENMIN  =  200.000 eV                                                          
   RCLOC  =    0.701    cutoff for local pot                                                        
   LCOR   =        T    correct aug charges                                                         
   LPAW   =        T    paw PP                                                                      
   EAUG   =  400.000                                                                                
   RMAX   =    1.123    core radius for proj-oper                                                   
   RAUG   =    1.200    factor for augmentation sphere                                              
   RDEP   =    1.112    radius for radial grids                                                     
   RDEPT  =    0.926    core radius for aug-charge                                                  
                                                                                                    
   Atomic configuration                                                                             
    2 entries                                                                                       
     n  l   j            E        occ.                                                              
     1  0  0.50        -6.4927   1.0000                                                             
     2  1  0.50        -3.4015   0.0000                                                             
   Description                                                                                      
     l       E           TYP  RCUT    TYP  RCUT                                                     
     0     -6.4927494     23  1.100                                                                 
     0      6.8029130     23  1.100                                                                 
     1     -4.0817478     23  1.100                                                                 
  local pseudopotential read in
  atomic valenz-charges read in
  non local Contribution for L=           0  read in
    real space projection operators read in
  non local Contribution for L=           0  read in
    real space projection operators read in
  non local Contribution for L=           1  read in
    real space projection operators read in
    PAW grid and wavefunctions read in
 
   number of l-projection  operators is LMAX  =           3
   number of lm-projection operators is LMMAX =           5
 
  PAW_PBE Cu 22Jun2005                  :
 energy of atom  1       EATOM=-1390.9808
 kinetic energy error for atom=    0.0232 (will be added to EATOM!!)
  PAW_PBE H 15Jun2001                   :
 energy of atom  2       EATOM=  -12.4884
 kinetic energy error for atom=    0.0098 (will be added to EATOM!!)
 
 
 POSCAR: FCC Cu
  positions in cartesian coordinates
  No initial velocities read in
 exchange correlation table for  LEXCH =        8
   RHO(1)=    0.500       N(1)  =     2000
   RHO(2)=  100.500       N(2)  =     4000

 VTST: version 4.2, (08/11/21)

 CHAIN: initializing optimizer
 
 OPT: Using VASP Conjugate-Gradient optimizer
 CHAIN: Read ICHAIN            0
 
 POSCAR: FCC Cu
  positions in cartesian coordinates
  No initial velocities read in
 


--------------------------------------------------------------------------------------------------------


 ion  position               nearest neighbor table
   1  0.000  0.000  0.000-   3 2.51   2 2.57   2 2.57   2 2.57   2 2.57
   2  0.500  0.500  0.054-   4 2.50   3 2.54   3 2.54   3 2.54   3 2.54   1 2.57   1 2.57   1 2.57
                             1 2.57
   3  0.000  0.000  0.105-   1 2.51   2 2.54   2 2.54   2 2.54   2 2.54   5 2.54   4 2.56   4 2.56
                             4 2.56   4 2.56
   4  0.500  0.500  0.158-   2 2.50   6 2.52   5 2.56   5 2.56   5 2.56   5 2.56   3 2.56   3 2.56
                             3 2.56   3 2.56
   5  0.000  0.000  0.211-   3 2.54   6 2.55   6 2.55   6 2.55   6 2.55   7 2.55   4 2.56   4 2.56
                             4 2.56   4 2.56
   6  0.500  0.500  0.263-   8 2.44   4 2.52   5 2.55   5 2.55   5 2.55   5 2.55   7 2.58   7 2.58
                             7 2.58   7 2.58
   7  0.000  0.000  0.317-   8 2.50   8 2.50   8 2.50   8 2.50   5 2.55   6 2.58   6 2.58   6 2.58
                             6 2.58
   8  0.500  0.500  0.365-   9 1.49  10 1.67   6 2.44   7 2.50   7 2.50   7 2.50   7 2.50
   9  0.500  0.500  0.427-  10 0.75   8 1.49
  10  0.500  0.791  0.427-   9 0.75   8 1.67
 
  LATTYP: Found a simple orthorhombic cell.
 ALAT       =     2.5667977333
 B/A-ratio  =     1.4142135422
 C/A-ratio  =     9.3438571494
  
  Lattice vectors:
  
 A1 = (   0.0000000000,  -2.5667977333,   0.0000000000)
 A2 = (   3.6300001144,   0.0000000000,   0.0000000000)
 A3 = (   0.0000000000,   0.0000000000,  23.9837913513)


Analysis of symmetry for initial positions (statically):
=====================================================================
 Subroutine PRICEL returns:
 Original cell was already a primitive cell.
 

 Routine SETGRP: Setting up the symmetry group for a 
 simple orthorhombic supercell.


 Subroutine GETGRP returns: Found  2 space group operations
 (whereof  2 operations were pure point group operations)
 out of a pool of  8 trial point group operations.


The static configuration has the point symmetry C_1h.


Analysis of symmetry for dynamics (positions and initial velocities):
=====================================================================
 Subroutine PRICEL returns:
 Original cell was already a primitive cell.
 

 Routine SETGRP: Setting up the symmetry group for a 
 simple orthorhombic supercell.


 Subroutine GETGRP returns: Found  2 space group operations
 (whereof  2 operations were pure point group operations)
 out of a pool of  8 trial point group operations.


The dynamic configuration has the point symmetry C_1h.


Analysis of structural, dynamic, and magnetic symmetry:
=====================================================================
 Subroutine PRICEL returns:
 Original cell was already a primitive cell.
 

 Routine SETGRP: Setting up the symmetry group for a 
 simple orthorhombic supercell.


 Subroutine GETGRP returns: Found  2 space group operations
 (whereof  2 operations were pure point group operations)
 out of a pool of  8 trial point group operations.


The overall configuration has the point symmetry C_1h.


 Subroutine INISYM returns: Found  2 space group operations
 (whereof  2 operations are pure point group operations),
 and found     1 'primitive' translations


----------------------------------------------------------------------------------------

                                     Primitive cell                                     

  volume of cell :     223.4684

  direct lattice vectors                    reciprocal lattice vectors
     3.630000114  0.000000000  0.000000000     0.275482085  0.000000000  0.000000000
     0.000000000  2.566797733  0.000000000     0.000000000  0.389590495  0.000000000
     0.000000000  0.000000000 23.983791351     0.000000000  0.000000000  0.041694826

  length of vectors
     3.630000114  2.566797733 23.983791351     0.275482085  0.389590495  0.041694826

  position of ions in fractional coordinates (direct lattice)
     0.000000000  0.000000000  0.000000000
     0.500000000  0.500000000  0.053511090
     0.000000000  0.000000000  0.104681476
     0.500000000  0.500000000  0.157929955
     0.000000000  0.000000000  0.210708991
     0.500000000  0.500000000  0.262890478
     0.000000000  0.000000000  0.317115916
     0.500000000  0.500000000  0.364675901
     0.500000000  0.500000000  0.426907920
     0.500000000  0.790634509  0.426907920

  ion indices of the primitive-cell ions
   primitive index   ion index
                 1           1
                 2           2
                 3           3
                 4           4
                 5           5
                 6           6
                 7           7
                 8           8
                 9           9
                10          10

----------------------------------------------------------------------------------------

 
 
 KPOINTS: Auto-mesh                               

Automatic generation of k-mesh.
 Grid dimensions read from file:
 generate k-points for:    3    3    1

 Generating k-lattice:

  Cartesian coordinates                     Fractional coordinates (reciprocal lattice)
     0.091827362  0.000000000  0.000000000     0.333333333  0.000000000  0.000000000
     0.000000000  0.129863498  0.000000000     0.000000000  0.333333333  0.000000000
     0.000000000  0.000000000  0.041694826     0.000000000  0.000000000  1.000000000

  Length of vectors
     0.091827362  0.129863498  0.041694826

  Shift w.r.t. Gamma in fractional coordinates (k-lattice)
     0.000000000  0.000000000  0.000000000

 
 Subroutine IBZKPT returns following result:
 ===========================================
 
 Found      4 irreducible k-points:
 
 Following reciprocal coordinates:
            Coordinates               Weight
  0.000000  0.000000  0.000000      1.000000
  0.333333  0.000000  0.000000      2.000000
  0.000000  0.333333  0.000000      2.000000
  0.333333  0.333333  0.000000      4.000000
 
 Following cartesian coordinates:
            Coordinates               Weight
  0.000000  0.000000  0.000000      1.000000
  0.091827  0.000000  0.000000      2.000000
  0.000000  0.129863  0.000000      2.000000
  0.091827  0.129863  0.000000      4.000000
 


--------------------------------------------------------------------------------------------------------




 Dimension of arrays:
   k-points           NKPTS =      4   k-points in BZ     NKDIM =      4   number of bands    NBANDS=     60
   number of dos      NEDOS =    301   number of ions     NIONS =     10
   non local maximal  LDIM  =      6   non local SUM 2l+1 LMDIM =     18
   total plane-waves  NPLWV =  30240
   max r-space proj   IRMAX =      1   max aug-charges    IRDMAX=   4119
   dimension x,y,z NGX =    18 NGY =   14 NGZ =  120
   dimension x,y,z NGXF=    36 NGYF=   28 NGZF=  240
   support grid    NGXF=    36 NGYF=   28 NGZF=  240
   ions per type =               8   2
   NGX,Y,Z   is equivalent  to a cutoff of   8.24,  9.07,  8.32 a.u.
   NGXF,Y,Z  is equivalent  to a cutoff of  16.49, 18.13, 16.64 a.u.

 SYSTEM =  unknown system                          
 POSCAR =  FCC Cu                                  

 Startparameter for this run:
   NWRITE =      2    write-flag & timer
   PREC   = normal    normal or accurate (medium, high low for compatibility)
   ISTART =      0    job   : 0-new  1-cont  2-samecut
   ICHARG =      2    charge: 1-file 2-atom 10-const
   ISPIN  =      2    spin polarized calculation?
   LNONCOLLINEAR =      F non collinear calculations
   LSORBIT =      F    spin-orbit coupling
   INIWAV =      1    electr: 0-lowe 1-rand  2-diag
   LASPH  =      F    aspherical Exc in radial PAW
 Electronic Relaxation 1
   ENCUT  =  400.0 eV  29.40 Ry    5.42 a.u.   5.92  4.19 39.11*2*pi/ulx,y,z
   ENINI  =  400.0     initial cutoff
   ENAUG  =  587.0 eV  augmentation charge cutoff
   NELM   =     60;   NELMIN=  2; NELMDL= -5     # of ELM steps 
   EDIFF  = 0.2E-03   stopping-criterion for ELM
   LREAL  =      F    real-space projection
   NLSPLINE    = F    spline interpolate recip. space projectors
   LCOMPAT=      F    compatible to vasp.4.4
   GGA_COMPAT  = T    GGA compatible to vasp.4.4-vasp.4.6
   LMAXPAW     = -100 max onsite density
   LMAXMIX     =    2 max onsite mixed and CHGCAR
   VOSKOWN=      0    Vosko Wilk Nusair interpolation
   ROPT   =    0.00000   0.00000
 Ionic relaxation
   EDIFFG = -.3E-01   stopping-criterion for IOM
   NSW    =    800    number of steps for IOM
   NBLOCK =      1;   KBLOCK =    800    inner block; outer block 
   IBRION =      2    ionic relax: 0-MD 1-quasi-New 2-CG
   NFREE  =      1    steps in history (QN), initial steepest desc. (CG)
   ISIF   =      2    stress and relaxation
   IWAVPR =     11    prediction:  0-non 1-charg 2-wave 3-comb
   ISYM   =      1    0-nonsym 1-usesym 2-fastsym
   LCORR  =      T    Harris-Foulkes like correction to forces

   POTIM  = 0.5000    time-step for ionic-motion
   TEIN   =    0.0    initial temperature
   TEBEG  =    0.0;   TEEND  =   0.0 temperature during run
   SMASS  =  -3.00    Nose mass-parameter (am)
   estimated Nose-frequenzy (Omega)   =  0.10E-29 period in steps = 0.13E+47 mass=  -0.301E-27a.u.
   SCALEE = 1.0000    scale energy and forces
   NPACO  =    256;   APACO  = 10.0  distance and # of slots for P.C.
   PSTRESS=    0.0 pullay stress

  Mass of Ions in am
   POMASS =  63.55  1.00
  Ionic Valenz
   ZVAL   =  11.00  1.00
  Atomic Wigner-Seitz radii
   RWIGS  =  -1.00 -1.00
  virtual crystal weights 
   VCA    =   1.00  1.00
   NELECT =      90.0000    total number of electrons
   NUPDOWN=      -1.0000    fix difference up-down

 DOS related values:
   EMIN   =  10.00;   EMAX   =-10.00  energy-range for DOS
   EFERMI =   0.00
   ISMEAR =     1;   SIGMA  =   0.20  broadening in eV -4-tet -1-fermi 0-gaus

 Electronic relaxation 2 (details)
   IALGO  =     38    algorithm
   LDIAG  =      T    sub-space diagonalisation (order eigenvalues)
   LSUBROT=      F    optimize rotation matrix (better conditioning)
   TURBO    =      0    0=normal 1=particle mesh
   IRESTART =      0    0=no restart 2=restart with 2 vectors
   NREBOOT  =      0    no. of reboots
   NMIN     =      0    reboot dimension
   EREF     =   0.00    reference energy to select bands
   IMIX   =      4    mixing-type and parameters
     AMIX     =   0.40;   BMIX     =  1.00
     AMIX_MAG =   1.60;   BMIX_MAG =  1.00
     AMIN     =   0.10
     WC   =   100.;   INIMIX=   1;  MIXPRE=   1;  MAXMIX= -45

 Intra band minimization:
   WEIMIN = 0.0010     energy-eigenvalue tresh-hold
   EBREAK =  0.83E-06  absolut break condition
   DEPER  =   0.30     relativ break condition  

   TIME   =   0.40     timestep for ELM

  volume/ion in A,a.u.               =      22.35       150.80
  Fermi-wavevector in a.u.,A,eV,Ry     =   1.208974  2.284630 19.886522  1.461618
  Thomas-Fermi vector in A             =   2.344566
 
 Write flags
   LWAVE        =      F    write WAVECAR
   LDOWNSAMPLE  =      F    k-point downsampling of WAVECAR
   LCHARG       =      F    write CHGCAR
   LVTOT        =      F    write LOCPOT, total local potential
   LVHAR        =      F    write LOCPOT, Hartree potential only
   LELF         =      F    write electronic localiz. function (ELF)
   LORBIT       =      0    0 simple, 1 ext, 2 COOP (PROOUT), +10 PAW based schemes


 Dipole corrections
   LMONO  =      F    monopole corrections only (constant potential shift)
   LDIPOL =      F    correct potential (dipole corrections)
   IDIPOL =      0    1-x, 2-y, 3-z, 4-all directions 
   EPSILON=  1.0000000 bulk dielectric constant

 Exchange correlation treatment:
   GGA     =    PE    GGA type
   LEXCH   =     8    internal setting for exchange type
   LIBXC   =     F    Libxc                    
   VOSKOWN =     0    Vosko Wilk Nusair interpolation
   LHFCALC =     F    Hartree Fock is set to
   LHFONE  =     F    Hartree Fock one center treatment
   AEXX    =    0.0000 exact exchange contribution

 Linear response parameters
   LEPSILON=     F    determine dielectric tensor
   LRPA    =     F    only Hartree local field effects (RPA)
   LNABLA  =     F    use nabla operator in PAW spheres
   LVEL    =     F    velocity operator in full k-point grid
   CSHIFT  =0.1000    complex shift for real part using Kramers Kronig
   OMEGAMAX=  -1.0    maximum frequency
   DEG_THRESHOLD= 0.2000000E-02 threshold for treating states as degnerate
   RTIME   =   -0.100 relaxation time in fs
  (WPLASMAI=    0.000 imaginary part of plasma frequency in eV, 0.658/RTIME)
   DFIELD  = 0.0000000 0.0000000 0.0000000 field for delta impulse in time
 
  Optional k-point grid parameters
   LKPOINTS_OPT  =     F    use optional k-point grid
   KPOINTS_OPT_MODE=     1    mode for optional k-point grid
 
 Orbital magnetization related:
   ORBITALMAG=     F  switch on orbital magnetization
   LCHIMAG   =     F  perturbation theory with respect to B field
   DQ        =  0.001000  dq finite difference perturbation B field
   LLRAUG    =     F  two centre corrections for induced B field



--------------------------------------------------------------------------------------------------------


 conjugate gradient relaxation of ions
 charge density and potential will be updated during run
 spin polarized calculation
 Variant of blocked Davidson
 Davidson routine will perform the subspace rotation
 perform sub-space diagonalisation
    after iterative eigenvector-optimisation
 modified Broyden-mixing scheme, WC =      100.0
 initial mixing is a Kerker type mixing with AMIX =  0.4000 and BMIX =      1.0000
 Hartree-type preconditioning will be used
 using additional bands           15
 reciprocal scheme for non local part
 use partial core corrections
 calculate Harris-corrections to forces 
   (improved forces if not selfconsistent)
 use gradient corrections 
 use of overlap-Matrix (Vanderbilt PP)
 Methfessel and Paxton  Order N= 1 SIGMA  =   0.20


--------------------------------------------------------------------------------------------------------


  energy-cutoff  :      400.00
  volume of cell :      223.47
      direct lattice vectors                 reciprocal lattice vectors
     3.630000114  0.000000000  0.000000000     0.275482085  0.000000000  0.000000000
     0.000000000  2.566797733  0.000000000     0.000000000  0.389590495  0.000000000
     0.000000000  0.000000000 23.983791351     0.000000000  0.000000000  0.041694826

  length of vectors
     3.630000114  2.566797733 23.983791351     0.275482085  0.389590495  0.041694826


 
 k-points in units of 2pi/SCALE and weight: Auto-mesh                               
   0.00000000  0.00000000  0.00000000       0.111
   0.09182736  0.00000000  0.00000000       0.222
   0.00000000  0.12986350  0.00000000       0.222
   0.09182736  0.12986350  0.00000000       0.444
 
 k-points in reciprocal lattice and weights: Auto-mesh                               
   0.00000000  0.00000000  0.00000000       0.111
   0.33333333  0.00000000  0.00000000       0.222
   0.00000000  0.33333333  0.00000000       0.222
   0.33333333  0.33333333  0.00000000       0.444
 
 position of ions in fractional coordinates (direct lattice) 
   0.00000000  0.00000000  0.00000000
   0.50000000  0.50000000  0.05351109
   0.00000000  0.00000000  0.10468148
   0.50000000  0.50000000  0.15792996
   0.00000000  0.00000000  0.21070899
   0.50000000  0.50000000  0.26289048
   0.00000000  0.00000000  0.31711592
   0.50000000  0.50000000  0.36467590
   0.50000000  0.50000000  0.42690792
   0.50000000  0.79063451  0.42690792
 
 position of ions in cartesian coordinates  (Angst):
   0.00000000  0.00000000  0.00000000
   1.81500006  1.28339887  1.28339883
   0.00000000  0.00000000  2.51065868
   1.81500006  1.28339887  3.78775910
   0.00000000  0.00000000  5.05360047
   1.81500006  1.28339887  6.30511038
   0.00000000  0.00000000  7.60564196
   1.81500006  1.28339887  8.74631073
   1.81500006  1.28339887 10.23887049
   1.81500006  2.02939887 10.23887049
 


--------------------------------------------------------------------------------------------------------


 k-point   1 :   0.0000 0.0000 0.0000  plane waves:    4037
 k-point   2 :   0.3333 0.0000 0.0000  plane waves:    4064
 k-point   3 :   0.0000 0.3333 0.0000  plane waves:    4032
 k-point   4 :   0.3333 0.3333 0.0000  plane waves:    4072

 maximum and minimum number of plane-waves per node :       827      778

 maximum number of plane-waves:      4072
 maximum index in each direction: 
   IXMAX=    5   IYMAX=    4   IZMAX=   39
   IXMIN=   -6   IYMIN=   -4   IZMIN=  -39


 parallel 3D FFT for wavefunctions:
    minimum data exchange during FFTs selected (reduces bandwidth)
 parallel 3D FFT for charge:
    minimum data exchange during FFTs selected (reduces bandwidth)


 total amount of memory used by VASP MPI-rank0    35069. kBytes
=======================================================================

   base      :      30000. kBytes
   nonl-proj :       1086. kBytes
   fftplans  :        642. kBytes
   grid      :       1621. kBytes
   one-center:         62. kBytes
   wavefun   :       1658. kBytes
 
     INWAV:  cpu time      0.0000: real time      0.0005
 Broyden mixing: mesh for mixing (old mesh)
   NGX = 11   NGY =  9   NGZ = 79
  (NGX  = 36   NGY  = 28   NGZ  =240)
  gives a total of   7821 points

 initial charge density was supplied:
 charge density of overlapping atoms calculated
 number of electron      90.0000000 magnetization      10.0000000
 keeping initial charge density in first step


--------------------------------------------------------------------------------------------------------


 Maximum index for augmentation-charges          309 (set IRDMAX)


--------------------------------------------------------------------------------------------------------


 First call to EWALD:  gamma=   0.292
 Maximum number of real-space cells 4x 6x 1
 Maximum number of reciprocal cells 2x 1x 9

    FEWALD:  cpu time      0.0019: real time      0.0019


--------------------------------------- Iteration      1(   1)  ---------------------------------------


    POTLOK:  cpu time      0.0192: real time      0.0195
    SETDIJ:  cpu time      0.0066: real time      0.0066
     EDDAV:  cpu time      0.3160: real time      0.3189
       DOS:  cpu time      0.0016: real time      0.0016
    --------------------------------------------
      LOOP:  cpu time      0.3434: real time      0.3466

 eigenvalue-minimisations  :   960
 total energy-change (2. order) : 0.7756815E+03  (-0.3329098E+04)
 number of electron      90.0000000 magnetization      10.0000000
 augmentation part       90.0000000 magnetization      10.0000000

 Free energy of the ion-electron system (eV)
  ---------------------------------------------------
  alpha Z        PSCENC =       216.17040255
  Ewald energy   TEWEN  =     42536.69931684
  -Hartree energ DENC   =    -53351.51348873
  -exchange      EXHF   =         0.00000000
  -V(xc)+E(xc)   XCENC  =       371.92717308
  PAW double counting   =      9828.36862813   -10674.97285505
  entropy T*S    EENTRO =        -0.00069997
  eigenvalues    EBANDS =       696.38465961
  atomic energy  EATOM  =     11152.61838693
  Solvation  Ediel_sol  =         0.00000000
  ---------------------------------------------------
  free energy    TOTEN  =       775.68152340 eV

  energy without entropy =      775.68222336  energy(sigma->0) =      775.68175672


--------------------------------------------------------------------------------------------------------




--------------------------------------- Iteration      1(   2)  ---------------------------------------


     EDDAV:  cpu time      0.3049: real time      0.3108
       DOS:  cpu time      0.0009: real time      0.0009
    --------------------------------------------
      LOOP:  cpu time      0.3058: real time      0.3117

 eigenvalue-minimisations  :   960
 total energy-change (2. order) :-0.7169484E+03  (-0.6882489E+03)
 number of electron      90.0000000 magnetization      10.0000000
 augmentation part       90.0000000 magnetization      10.0000000

 Free energy of the ion-electron system (eV)
  ---------------------------------------------------
  alpha Z        PSCENC =       216.17040255
  Ewald energy   TEWEN  =     42536.69931684
  -Hartree energ DENC   =    -53351.51348873
  -exchange      EXHF   =         0.00000000
  -V(xc)+E(xc)   XCENC  =       371.92717308
  PAW double counting   =      9828.36862813   -10674.97285505
  entropy T*S    EENTRO =        -0.01383405
  eigenvalues    EBANDS =       -20.55062389
  atomic energy  EATOM  =     11152.61838693
  Solvation  Ediel_sol  =         0.00000000
  ---------------------------------------------------
  free energy    TOTEN  =        58.73310581 eV

  energy without entropy =       58.74693986  energy(sigma->0) =       58.73771716


--------------------------------------------------------------------------------------------------------




--------------------------------------- Iteration      1(   3)  ---------------------------------------


     EDDAV:  cpu time      0.3125: real time      0.3152
       DOS:  cpu time      0.0009: real time      0.0009
    --------------------------------------------
      LOOP:  cpu time      0.3134: real time      0.3161

 eigenvalue-minimisations  :  1008
 total energy-change (2. order) :-0.9086603E+02  (-0.8506366E+02)
 number of electron      90.0000000 magnetization      10.0000000
 augmentation part       90.0000000 magnetization      10.0000000

 Free energy of the ion-electron system (eV)
  ---------------------------------------------------
  alpha Z        PSCENC =       216.17040255
  Ewald energy   TEWEN  =     42536.69931684
  -Hartree energ DENC   =    -53351.51348873
  -exchange      EXHF   =         0.00000000
  -V(xc)+E(xc)   XCENC  =       371.92717308
  PAW double counting   =      9828.36862813   -10674.97285505
  entropy T*S    EENTRO =         0.01234540
  eigenvalues    EBANDS =      -111.44282850
  atomic energy  EATOM  =     11152.61838693
  Solvation  Ediel_sol  =         0.00000000
  ---------------------------------------------------
  free energy    TOTEN  =       -32.13291935 eV

  energy without entropy =      -32.14526475  energy(sigma->0) =      -32.13703449


--------------------------------------------------------------------------------------------------------




--------------------------------------- Iteration      1(   4)  ---------------------------------------


     EDDAV:  cpu time      0.3504: real time      0.3535
       DOS:  cpu time      0.0009: real time      0.0009
    --------------------------------------------
      LOOP:  cpu time      0.3513: real time      0.3545

 eigenvalue-minimisations  :  1112
 total energy-change (2. order) :-0.3843416E+01  (-0.3811802E+01)
 number of electron      90.0000000 magnetization      10.0000000
 augmentation part       90.0000000 magnetization      10.0000000

 Free energy of the ion-electron system (eV)
  ---------------------------------------------------
  alpha Z        PSCENC =       216.17040255
  Ewald energy   TEWEN  =     42536.69931684
  -Hartree energ DENC   =    -53351.51348873
  -exchange      EXHF   =         0.00000000
  -V(xc)+E(xc)   XCENC  =       371.92717308
  PAW double counting   =      9828.36862813   -10674.97285505
  entropy T*S    EENTRO =         0.01095734
  eigenvalues    EBANDS =      -115.28485692
  atomic energy  EATOM  =     11152.61838693
  Solvation  Ediel_sol  =         0.00000000
  ---------------------------------------------------
  free energy    TOTEN  =       -35.97633583 eV

  energy without entropy =      -35.98729317  energy(sigma->0) =      -35.97998828


--------------------------------------------------------------------------------------------------------




--------------------------------------- Iteration      1(   5)  ---------------------------------------


     EDDAV:  cpu time      0.3604: real time      0.3633
       DOS:  cpu time      0.0017: real time      0.0017
    CHARGE:  cpu time      0.0565: real time      0.0567
    MIXING:  cpu time      0.0006: real time      0.0006
    --------------------------------------------
      LOOP:  cpu time      0.4192: real time      0.4223

 eigenvalue-minimisations  :  1212
 total energy-change (2. order) :-0.9239960E-01  (-0.9231688E-01)
 number of electron      90.0000812 magnetization       9.1049818
 augmentation part       52.1143073 magnetization       8.8149629

 Broyden mixing:
  rms(total) = 0.27762E+01    rms(broyden)= 0.27760E+01
  rms(prec ) = 0.28602E+01
  weight for this iteration     100.00

 Free energy of the ion-electron system (eV)
  ---------------------------------------------------
  alpha Z        PSCENC =       216.17040255
  Ewald energy   TEWEN  =     42536.69931684
  -Hartree energ DENC   =    -53351.51348873
  -exchange      EXHF   =         0.00000000
  -V(xc)+E(xc)   XCENC  =       371.92717308
  PAW double counting   =      9828.36862813   -10674.97285505
  entropy T*S    EENTRO =         0.01107228
  eigenvalues    EBANDS =      -115.37737146
  atomic energy  EATOM  =     11152.61838693
  Solvation  Ediel_sol  =         0.00000000
  ---------------------------------------------------
  free energy    TOTEN  =       -36.06873543 eV

  energy without entropy =      -36.07980771  energy(sigma->0) =      -36.07242619


--------------------------------------------------------------------------------------------------------




--------------------------------------- Iteration      1(   6)  ---------------------------------------


    POTLOK:  cpu time      0.0173: real time      0.0175
    SETDIJ:  cpu time      0.0059: real time      0.0059
     EDDAV:  cpu time      0.3359: real time      0.3388
       DOS:  cpu time      0.0010: real time      0.0011
    CHARGE:  cpu time      0.0522: real time      0.0524
    MIXING:  cpu time      0.0007: real time      0.0007
    --------------------------------------------
      LOOP:  cpu time      0.4131: real time      0.4164

 eigenvalue-minimisations  :  1112
 total energy-change (2. order) : 0.8119828E+01  (-0.9216688E+01)
 number of electron      90.0000903 magnetization       8.5448523
 augmentation part       58.5375929 magnetization       6.3986425

 Broyden mixing:
  rms(total) = 0.13846E+01    rms(broyden)= 0.13843E+01
  rms(prec ) = 0.14677E+01
  weight for this iteration     100.00

 eigenvalues of (default mixing * dielectric matrix)
  average eigenvalue GAMMA=   0.8002
  0.8002

 Free energy of the ion-electron system (eV)
  ---------------------------------------------------
  alpha Z        PSCENC =       216.17040255
  Ewald energy   TEWEN  =     42536.69931684
  -Hartree energ DENC   =    -53144.91338294
  -exchange      EXHF   =         0.00000000
  -V(xc)+E(xc)   XCENC  =       366.28315148
  PAW double counting   =      9997.33616033   -10801.41774727
  entropy T*S    EENTRO =        -0.00018060
  eigenvalues    EBANDS =      -350.72501492
  atomic energy  EATOM  =     11152.61838693
  Solvation  Ediel_sol  =         0.00000000
  ---------------------------------------------------
  free energy    TOTEN  =       -27.94890761 eV

  energy without entropy =      -27.94872701  energy(sigma->0) =      -27.94884741


--------------------------------------------------------------------------------------------------------




--------------------------------------- Iteration      1(   7)  ---------------------------------------


    POTLOK:  cpu time      0.0165: real time      0.0179
    SETDIJ:  cpu time      0.0056: real time      0.0056
     EDDAV:  cpu time      0.3431: real time      0.3461
       DOS:  cpu time      0.0009: real time      0.0009
    CHARGE:  cpu time      0.0517: real time      0.0519
    MIXING:  cpu time      0.0006: real time      0.0006
    --------------------------------------------
      LOOP:  cpu time      0.4184: real time      0.4231

 eigenvalue-minimisations  :  1140
 total energy-change (2. order) : 0.1667135E+01  (-0.2762008E+01)
 number of electron      90.0000878 magnetization       8.0861276
 augmentation part       56.4386766 magnetization       5.9692458

 Broyden mixing:
  rms(total) = 0.82575E+00    rms(broyden)= 0.82562E+00
  rms(prec ) = 0.90380E+00
  weight for this iteration     100.00

 eigenvalues of (default mixing * dielectric matrix)
  average eigenvalue GAMMA=   0.7636
  0.9425  0.5848

 Free energy of the ion-electron system (eV)
  ---------------------------------------------------
  alpha Z        PSCENC =       216.17040255
  Ewald energy   TEWEN  =     42536.69931684
  -Hartree energ DENC   =    -53271.11614845
  -exchange      EXHF   =         0.00000000
  -V(xc)+E(xc)   XCENC  =       369.29352433
  PAW double counting   =     10224.26786022   -11068.16375597
  entropy T*S    EENTRO =        -0.00076468
  eigenvalues    EBANDS =      -186.05059437
  atomic energy  EATOM  =     11152.61838693
  Solvation  Ediel_sol  =         0.00000000
  ---------------------------------------------------
  free energy    TOTEN  =       -26.28177259 eV

  energy without entropy =      -26.28100791  energy(sigma->0) =      -26.28151770


--------------------------------------------------------------------------------------------------------




--------------------------------------- Iteration      1(   8)  ---------------------------------------


    POTLOK:  cpu time      0.0163: real time      0.0166
    SETDIJ:  cpu time      0.0058: real time      0.0058
     EDDAV:  cpu time      0.3845: real time      0.3874
       DOS:  cpu time      0.0009: real time      0.0009
    CHARGE:  cpu time      0.0503: real time      0.0505
    MIXING:  cpu time      0.0007: real time      0.0007
    --------------------------------------------
      LOOP:  cpu time      0.4584: real time      0.4618

 eigenvalue-minimisations  :  1320
 total energy-change (2. order) : 0.3526024E+00  (-0.1025707E+01)
 number of electron      90.0000869 magnetization       7.3787887
 augmentation part       56.1026951 magnetization       5.1657140

 Broyden mixing:
  rms(total) = 0.72287E+00    rms(broyden)= 0.72276E+00
  rms(prec ) = 0.81111E+00
  weight for this iteration     100.00

 eigenvalues of (default mixing * dielectric matrix)
  average eigenvalue GAMMA=   0.7036
  1.0899  0.6538  0.3670

 Free energy of the ion-electron system (eV)
  ---------------------------------------------------
  alpha Z        PSCENC =       216.17040255
  Ewald energy   TEWEN  =     42536.69931684
  -Hartree energ DENC   =    -53275.92802898
  -exchange      EXHF   =         0.00000000
  -V(xc)+E(xc)   XCENC  =       369.56840990
  PAW double counting   =     10325.95151645   -11178.41613613
  entropy T*S    EENTRO =         0.00213788
  eigenvalues    EBANDS =      -172.59517564
  atomic energy  EATOM  =     11152.61838693
  Solvation  Ediel_sol  =         0.00000000
  ---------------------------------------------------
  free energy    TOTEN  =       -25.92917021 eV

  energy without entropy =      -25.93130808  energy(sigma->0) =      -25.92988283


--------------------------------------------------------------------------------------------------------




--------------------------------------- Iteration      1(   9)  ---------------------------------------


    POTLOK:  cpu time      0.0162: real time      0.0165
    SETDIJ:  cpu time      0.0055: real time      0.0056
     EDDAV:  cpu time      0.4622: real time      0.4660
       DOS:  cpu time      0.0009: real time      0.0009
    CHARGE:  cpu time      0.0519: real time      0.0522
    MIXING:  cpu time      0.0007: real time      0.0008
    --------------------------------------------
      LOOP:  cpu time      0.5375: real time      0.5419

 eigenvalue-minimisations  :  1624
 total energy-change (2. order) :-0.9502184E-01  (-0.4840391E+00)
 number of electron      90.0000868 magnetization       6.4681966
 augmentation part       55.9962930 magnetization       4.4090076

 Broyden mixing:
  rms(total) = 0.62081E+00    rms(broyden)= 0.62075E+00
  rms(prec ) = 0.65102E+00
  weight for this iteration     100.00

 eigenvalues of (default mixing * dielectric matrix)
  average eigenvalue GAMMA=   0.7584
  1.3001  0.7170  0.7170  0.2997

 Free energy of the ion-electron system (eV)
  ---------------------------------------------------
  alpha Z        PSCENC =       216.17040255
  Ewald energy   TEWEN  =     42536.69931684
  -Hartree energ DENC   =    -53292.21092251
  -exchange      EXHF   =         0.00000000
  -V(xc)+E(xc)   XCENC  =       369.07385487
  PAW double counting   =     10459.39772478   -11319.64313179
  entropy T*S    EENTRO =        -0.00033499
  eigenvalues    EBANDS =      -148.12948872
  atomic energy  EATOM  =     11152.61838693
  Solvation  Ediel_sol  =         0.00000000
  ---------------------------------------------------
  free energy    TOTEN  =       -26.02419205 eV

  energy without entropy =      -26.02385706  energy(sigma->0) =      -26.02408039


--------------------------------------------------------------------------------------------------------




--------------------------------------- Iteration      1(  10)  ---------------------------------------


    POTLOK:  cpu time      0.0227: real time      0.0238
    SETDIJ:  cpu time      0.0061: real time      0.0061
     EDDAV:  cpu time      0.3933: real time      0.3964
       DOS:  cpu time      0.0009: real time      0.0009
    CHARGE:  cpu time      0.0519: real time      0.0522
    MIXING:  cpu time      0.0010: real time      0.0010
    --------------------------------------------
      LOOP:  cpu time      0.4759: real time      0.4804

 eigenvalue-minimisations  :  1336
 total energy-change (2. order) :-0.4763443E+00  (-0.1692577E+00)
 number of electron      90.0000870 magnetization       4.8189735
 augmentation part       56.0955178 magnetization       2.8198998

 Broyden mixing:
  rms(total) = 0.50851E+00    rms(broyden)= 0.50849E+00
  rms(prec ) = 0.51138E+00
  weight for this iteration     100.00

 eigenvalues of (default mixing * dielectric matrix)
  average eigenvalue GAMMA=   0.9682
  2.1474  1.1672  0.7085  0.5277  0.2900

 Free energy of the ion-electron system (eV)
  ---------------------------------------------------
  alpha Z        PSCENC =       216.17040255
  Ewald energy   TEWEN  =     42536.69931684
  -Hartree energ DENC   =    -53305.43855811
  -exchange      EXHF   =         0.00000000
  -V(xc)+E(xc)   XCENC  =       368.13514651
  PAW double counting   =     10578.52443349   -11442.82563787
  entropy T*S    EENTRO =        -0.00385870
  eigenvalues    EBANDS =      -130.38016795
  atomic energy  EATOM  =     11152.61838693
  Solvation  Ediel_sol  =         0.00000000
  ---------------------------------------------------
  free energy    TOTEN  =       -26.50053631 eV

  energy without entropy =      -26.49667761  energy(sigma->0) =      -26.49925008


--------------------------------------------------------------------------------------------------------




--------------------------------------- Iteration      1(  11)  ---------------------------------------


    POTLOK:  cpu time      0.0168: real time      0.0171
    SETDIJ:  cpu time      0.0057: real time      0.0057
     EDDAV:  cpu time      0.3827: real time      0.3860
       DOS:  cpu time      0.0009: real time      0.0009
    CHARGE:  cpu time      0.0539: real time      0.0541
    MIXING:  cpu time      0.0008: real time      0.0008
    --------------------------------------------
      LOOP:  cpu time      0.4608: real time      0.4646

 eigenvalue-minimisations  :  1320
 total energy-change (2. order) :-0.1810474E+01  (-0.1357780E+00)
 number of electron      90.0000872 magnetization       3.6396705
 augmentation part       56.3591466 magnetization       2.0012925

 Broyden mixing:
  rms(total) = 0.40741E+00    rms(broyden)= 0.40738E+00
  rms(prec ) = 0.41511E+00
  weight for this iteration     100.00

 eigenvalues of (default mixing * dielectric matrix)
  average eigenvalue GAMMA=   1.0938
  3.2116  1.1842  0.6988  0.6988  0.4766  0.2928

 Free energy of the ion-electron system (eV)
  ---------------------------------------------------
  alpha Z        PSCENC =       216.17040255
  Ewald energy   TEWEN  =     42536.69931684
  -Hartree energ DENC   =    -53320.75269586
  -exchange      EXHF   =         0.00000000
  -V(xc)+E(xc)   XCENC  =       366.43331741
  PAW double counting   =     10697.87984324   -11563.82217266
  entropy T*S    EENTRO =        -0.01268349
  eigenvalues    EBANDS =      -113.52472501
  atomic energy  EATOM  =     11152.61838693
  Solvation  Ediel_sol  =         0.00000000
  ---------------------------------------------------
  free energy    TOTEN  =       -28.31101006 eV

  energy without entropy =      -28.29832657  energy(sigma->0) =      -28.30678223


--------------------------------------------------------------------------------------------------------




--------------------------------------- Iteration      1(  12)  ---------------------------------------


    POTLOK:  cpu time      0.0162: real time      0.0164
    SETDIJ:  cpu time      0.0056: real time      0.0056
     EDDAV:  cpu time      0.3581: real time      0.3610
       DOS:  cpu time      0.0009: real time      0.0009
    CHARGE:  cpu time      0.0506: real time      0.0508
    MIXING:  cpu time      0.0009: real time      0.0009
    --------------------------------------------
      LOOP:  cpu time      0.4323: real time      0.4357

 eigenvalue-minimisations  :  1208
 total energy-change (2. order) :-0.1298657E+01  (-0.8058429E-01)
 number of electron      90.0000871 magnetization       2.0997819
 augmentation part       56.2993239 magnetization       0.7032893

 Broyden mixing:
  rms(total) = 0.31344E+00    rms(broyden)= 0.31343E+00
  rms(prec ) = 0.32034E+00
  weight for this iteration     100.00

 eigenvalues of (default mixing * dielectric matrix)
  average eigenvalue GAMMA=   1.4321
  5.2110  1.7047  0.8565  0.8565  0.2942  0.6207  0.4812

 Free energy of the ion-electron system (eV)
  ---------------------------------------------------
  alpha Z        PSCENC =       216.17040255
  Ewald energy   TEWEN  =     42536.69931684
  -Hartree energ DENC   =    -53335.46438077
  -exchange      EXHF   =         0.00000000
  -V(xc)+E(xc)   XCENC  =       365.77368426
  PAW double counting   =     10729.20914762   -11597.12472051
  entropy T*S    EENTRO =        -0.00931228
  eigenvalues    EBANDS =       -97.48219202
  atomic energy  EATOM  =     11152.61838693
  Solvation  Ediel_sol  =         0.00000000
  ---------------------------------------------------
  free energy    TOTEN  =       -29.60966739 eV

  energy without entropy =      -29.60035511  energy(sigma->0) =      -29.60656329


--------------------------------------------------------------------------------------------------------




--------------------------------------- Iteration      1(  13)  ---------------------------------------


    POTLOK:  cpu time      0.0161: real time      0.0163
    SETDIJ:  cpu time      0.0057: real time      0.0058
     EDDAV:  cpu time      0.3888: real time      0.3920
       DOS:  cpu time      0.0009: real time      0.0009
    CHARGE:  cpu time      0.0508: real time      0.0511
    MIXING:  cpu time      0.0010: real time      0.0010
    --------------------------------------------
      LOOP:  cpu time      0.4633: real time      0.4671

 eigenvalue-minimisations  :  1336
 total energy-change (2. order) :-0.2315548E+01  (-0.1888244E+00)
 number of electron      90.0000867 magnetization       0.9989213
 augmentation part       56.0865040 magnetization      -0.0194007

 Broyden mixing:
  rms(total) = 0.19632E+00    rms(broyden)= 0.19628E+00
  rms(prec ) = 0.23424E+00
  weight for this iteration     100.00

 eigenvalues of (default mixing * dielectric matrix)
  average eigenvalue GAMMA=   1.7354
  8.1339  2.0456  0.9740  0.7213  0.7213  0.2935  0.5384  0.4553

 Free energy of the ion-electron system (eV)
  ---------------------------------------------------
  alpha Z        PSCENC =       216.17040255
  Ewald energy   TEWEN  =     42536.69931684
  -Hartree energ DENC   =    -53337.32951531
  -exchange      EXHF   =         0.00000000
  -V(xc)+E(xc)   XCENC  =       364.71481877
  PAW double counting   =     10665.40738525   -11532.44611613
  entropy T*S    EENTRO =        -0.00994461
  eigenvalues    EBANDS =       -97.74994972
  atomic energy  EATOM  =     11152.61838693
  Solvation  Ediel_sol  =         0.00000000
  ---------------------------------------------------
  free energy    TOTEN  =       -31.92521544 eV

  energy without entropy =      -31.91527083  energy(sigma->0) =      -31.92190057


--------------------------------------------------------------------------------------------------------




--------------------------------------- Iteration      1(  14)  ---------------------------------------


    POTLOK:  cpu time      0.0161: real time      0.0163
    SETDIJ:  cpu time      0.0056: real time      0.0056
     EDDAV:  cpu time      0.3479: real time      0.3505
       DOS:  cpu time      0.0009: real time      0.0009
    CHARGE:  cpu time      0.0498: real time      0.0501
    MIXING:  cpu time      0.0010: real time      0.0010
    --------------------------------------------
      LOOP:  cpu time      0.4213: real time      0.4244

 eigenvalue-minimisations  :  1168
 total energy-change (2. order) :-0.1585287E+01  (-0.1937347E+00)
 number of electron      90.0000865 magnetization       0.5477621
 augmentation part       56.0501184 magnetization       0.0556697

 Broyden mixing:
  rms(total) = 0.12127E+00    rms(broyden)= 0.12119E+00
  rms(prec ) = 0.13282E+00
  weight for this iteration     100.00

 eigenvalues of (default mixing * dielectric matrix)
  average eigenvalue GAMMA=   1.7541
  9.2605  2.1167  1.0750  0.7174  0.7174  0.6855  0.2934  0.4831  0.4375

 Free energy of the ion-electron system (eV)
  ---------------------------------------------------
  alpha Z        PSCENC =       216.17040255
  Ewald energy   TEWEN  =     42536.69931684
  -Hartree energ DENC   =    -53333.19809461
  -exchange      EXHF   =         0.00000000
  -V(xc)+E(xc)   XCENC  =       363.75952136
  PAW double counting   =     10606.90186531   -11471.32185628
  entropy T*S    EENTRO =        -0.01211308
  eigenvalues    EBANDS =      -105.12793181
  atomic energy  EATOM  =     11152.61838693
  Solvation  Ediel_sol  =         0.00000000
  ---------------------------------------------------
  free energy    TOTEN  =       -33.51050278 eV

  energy without entropy =      -33.49838971  energy(sigma->0) =      -33.50646509


--------------------------------------------------------------------------------------------------------




--------------------------------------- Iteration      1(  15)  ---------------------------------------


    POTLOK:  cpu time      0.0162: real time      0.0164
    SETDIJ:  cpu time      0.0055: real time      0.0056
     EDDAV:  cpu time      0.3618: real time      0.3645
       DOS:  cpu time      0.0009: real time      0.0009
    CHARGE:  cpu time      0.0514: real time      0.0520
    MIXING:  cpu time      0.0012: real time      0.0012
    --------------------------------------------
      LOOP:  cpu time      0.4370: real time      0.4407

 eigenvalue-minimisations  :  1228
 total energy-change (2. order) :-0.5781472E+00  (-0.7149874E-01)
 number of electron      90.0000865 magnetization       0.3170561
 augmentation part       56.0861328 magnetization       0.0559219

 Broyden mixing:
  rms(total) = 0.85980E-01    rms(broyden)= 0.85943E-01
  rms(prec ) = 0.91999E-01
  weight for this iteration     100.00

 eigenvalues of (default mixing * dielectric matrix)
  average eigenvalue GAMMA=   1.7772
 10.1475  2.2870  0.8701  0.8701  0.9114  0.8371  0.2935  0.6162  0.4858  0.4536

 Free energy of the ion-electron system (eV)
  ---------------------------------------------------
  alpha Z        PSCENC =       216.17040255
  Ewald energy   TEWEN  =     42536.69931684
  -Hartree energ DENC   =    -53329.53924182
  -exchange      EXHF   =         0.00000000
  -V(xc)+E(xc)   XCENC  =       363.34675397
  PAW double counting   =     10592.68024148   -11456.12097330
  entropy T*S    EENTRO =        -0.00131939
  eigenvalues    EBANDS =      -109.94221721
  atomic energy  EATOM  =     11152.61838693
  Solvation  Ediel_sol  =         0.00000000
  ---------------------------------------------------
  free energy    TOTEN  =       -34.08864994 eV

  energy without entropy =      -34.08733056  energy(sigma->0) =      -34.08821015


--------------------------------------------------------------------------------------------------------




--------------------------------------- Iteration      1(  16)  ---------------------------------------


    POTLOK:  cpu time      0.0162: real time      0.0165
    SETDIJ:  cpu time      0.0056: real time      0.0056
     EDDAV:  cpu time      0.3260: real time      0.3284
       DOS:  cpu time      0.0009: real time      0.0009
    CHARGE:  cpu time      0.0543: real time      0.0545
    MIXING:  cpu time      0.0014: real time      0.0014
    --------------------------------------------
      LOOP:  cpu time      0.4043: real time      0.4072

 eigenvalue-minimisations  :  1036
 total energy-change (2. order) :-0.2891122E+00  (-0.2403305E-01)
 number of electron      90.0000866 magnetization       0.2312032
 augmentation part       56.1513622 magnetization       0.1006480

 Broyden mixing:
  rms(total) = 0.52146E-01    rms(broyden)= 0.52114E-01
  rms(prec ) = 0.57009E-01
  weight for this iteration     100.00

 eigenvalues of (default mixing * dielectric matrix)
  average eigenvalue GAMMA=   1.7734
 10.7819  2.3642  1.1038  1.1038  0.8528  0.8528  0.6833  0.2935  0.5590  0.4773
  0.4352

 Free energy of the ion-electron system (eV)
  ---------------------------------------------------
  alpha Z        PSCENC =       216.17040255
  Ewald energy   TEWEN  =     42536.69931684
  -Hartree energ DENC   =    -53322.40964693
  -exchange      EXHF   =         0.00000000
  -V(xc)+E(xc)   XCENC  =       363.05822118
  PAW double counting   =     10575.26264887   -11437.47498287
  entropy T*S    EENTRO =         0.01036237
  eigenvalues    EBANDS =      -118.31247113
  atomic energy  EATOM  =     11152.61838693
  Solvation  Ediel_sol  =         0.00000000
  ---------------------------------------------------
  free energy    TOTEN  =       -34.37776219 eV

  energy without entropy =      -34.38812456  energy(sigma->0) =      -34.38121632


--------------------------------------------------------------------------------------------------------




--------------------------------------- Iteration      1(  17)  ---------------------------------------


    POTLOK:  cpu time      0.0170: real time      0.0172
    SETDIJ:  cpu time      0.0059: real time      0.0059
     EDDAV:  cpu time      0.3357: real time      0.3384
       DOS:  cpu time      0.0009: real time      0.0009
    CHARGE:  cpu time      0.0500: real time      0.0502
    MIXING:  cpu time      0.0013: real time      0.0013
    --------------------------------------------
      LOOP:  cpu time      0.4107: real time      0.4139

 eigenvalue-minimisations  :  1108
 total energy-change (2. order) :-0.1833445E+00  (-0.1057975E-01)
 number of electron      90.0000866 magnetization       0.1914288
 augmentation part       56.1818520 magnetization       0.1214480

 Broyden mixing:
  rms(total) = 0.42741E-01    rms(broyden)= 0.42729E-01
  rms(prec ) = 0.45800E-01
  weight for this iteration     100.00

 eigenvalues of (default mixing * dielectric matrix)
  average eigenvalue GAMMA=   1.7624
 11.0854  2.0662  2.0662  0.9473  0.9473  0.8780  0.7668  0.7668  0.2935  0.4838
  0.4541  0.3932

 Free energy of the ion-electron system (eV)
  ---------------------------------------------------
  alpha Z        PSCENC =       216.17040255
  Ewald energy   TEWEN  =     42536.69931684
  -Hartree energ DENC   =    -53315.08100828
  -exchange      EXHF   =         0.00000000
  -V(xc)+E(xc)   XCENC  =       362.87874648
  PAW double counting   =     10564.49811830   -11426.25017939
  entropy T*S    EENTRO =         0.01467274
  eigenvalues    EBANDS =      -126.10956281
  atomic energy  EATOM  =     11152.61838693
  Solvation  Ediel_sol  =         0.00000000
  ---------------------------------------------------
  free energy    TOTEN  =       -34.56110665 eV

  energy without entropy =      -34.57577939  energy(sigma->0) =      -34.56599756


--------------------------------------------------------------------------------------------------------




--------------------------------------- Iteration      1(  18)  ---------------------------------------


    POTLOK:  cpu time      0.0161: real time      0.0164
    SETDIJ:  cpu time      0.0057: real time      0.0057
     EDDAV:  cpu time      0.3312: real time      0.3340
       DOS:  cpu time      0.0009: real time      0.0009
    CHARGE:  cpu time      0.0504: real time      0.0506
    MIXING:  cpu time      0.0013: real time      0.0013
    --------------------------------------------
      LOOP:  cpu time      0.4055: real time      0.4089

 eigenvalue-minimisations  :  1096
 total energy-change (2. order) :-0.8531952E-01  (-0.5283856E-02)
 number of electron      90.0000866 magnetization       0.1578575
 augmentation part       56.1577527 magnetization       0.1092994

 Broyden mixing:
  rms(total) = 0.25159E-01    rms(broyden)= 0.25152E-01
  rms(prec ) = 0.27944E-01
  weight for this iteration     100.00

 eigenvalues of (default mixing * dielectric matrix)
  average eigenvalue GAMMA=   1.7733
 11.2412  2.7244  2.2065  1.2736  0.8344  0.8344  0.8285  0.8285  0.6538  0.2935
  0.4935  0.4496  0.3909

 Free energy of the ion-electron system (eV)
  ---------------------------------------------------
  alpha Z        PSCENC =       216.17040255
  Ewald energy   TEWEN  =     42536.69931684
  -Hartree energ DENC   =    -53310.55875462
  -exchange      EXHF   =         0.00000000
  -V(xc)+E(xc)   XCENC  =       362.84318918
  PAW double counting   =     10567.92051165   -11430.40765631
  entropy T*S    EENTRO =         0.01541742
  eigenvalues    EBANDS =      -129.94723980
  atomic energy  EATOM  =     11152.61838693
  Solvation  Ediel_sol  =         0.00000000
  ---------------------------------------------------
  free energy    TOTEN  =       -34.64642617 eV

  energy without entropy =      -34.66184359  energy(sigma->0) =      -34.65156531


--------------------------------------------------------------------------------------------------------




--------------------------------------- Iteration      1(  19)  ---------------------------------------


    POTLOK:  cpu time      0.0160: real time      0.0162
    SETDIJ:  cpu time      0.0056: real time      0.0056
     EDDAV:  cpu time      0.3650: real time      0.3678
       DOS:  cpu time      0.0009: real time      0.0009
    CHARGE:  cpu time      0.0499: real time      0.0501
    MIXING:  cpu time      0.0014: real time      0.0015
    --------------------------------------------
      LOOP:  cpu time      0.4388: real time      0.4421

 eigenvalue-minimisations  :  1244
 total energy-change (2. order) :-0.5564027E-01  (-0.2105803E-02)
 number of electron      90.0000866 magnetization       0.1242850
 augmentation part       56.1578653 magnetization       0.0982755

 Broyden mixing:
  rms(total) = 0.17229E-01    rms(broyden)= 0.17223E-01
  rms(prec ) = 0.18420E-01
  weight for this iteration     100.00

 eigenvalues of (default mixing * dielectric matrix)
  average eigenvalue GAMMA=   1.7560
 11.3623  3.1659  2.2817  1.2508  1.0665  0.8849  0.8849  0.7339  0.7339  0.2935
  0.5948  0.4904  0.4523  0.3884

 Free energy of the ion-electron system (eV)
  ---------------------------------------------------
  alpha Z        PSCENC =       216.17040255
  Ewald energy   TEWEN  =     42536.69931684
  -Hartree energ DENC   =    -53304.48632466
  -exchange      EXHF   =         0.00000000
  -V(xc)+E(xc)   XCENC  =       362.79215316
  PAW double counting   =     10562.96662848   -11425.39813210
  entropy T*S    EENTRO =         0.01692232
  eigenvalues    EBANDS =      -136.08141994
  atomic energy  EATOM  =     11152.61838693
  Solvation  Ediel_sol  =         0.00000000
  ---------------------------------------------------
  free energy    TOTEN  =       -34.70206643 eV

  energy without entropy =      -34.71898875  energy(sigma->0) =      -34.70770721


--------------------------------------------------------------------------------------------------------




--------------------------------------- Iteration      1(  20)  ---------------------------------------


    POTLOK:  cpu time      0.0161: real time      0.0163
    SETDIJ:  cpu time      0.0056: real time      0.0056
     EDDAV:  cpu time      0.3427: real time      0.3457
       DOS:  cpu time      0.0009: real time      0.0009
    CHARGE:  cpu time      0.0500: real time      0.0502
    MIXING:  cpu time      0.0016: real time      0.0016
    --------------------------------------------
      LOOP:  cpu time      0.4169: real time      0.4204

 eigenvalue-minimisations  :  1144
 total energy-change (2. order) :-0.4752111E-01  (-0.9388550E-03)
 number of electron      90.0000866 magnetization       0.1017163
 augmentation part       56.1509903 magnetization       0.0844606

 Broyden mixing:
  rms(total) = 0.15780E-01    rms(broyden)= 0.15777E-01
  rms(prec ) = 0.16941E-01
  weight for this iteration     100.00

 eigenvalues of (default mixing * dielectric matrix)
  average eigenvalue GAMMA=   1.7255
 11.3934  3.4081  2.4686  1.3463  1.1571  0.9244  0.9244  0.7696  0.7696  0.6410
  0.2935  0.5061  0.4477  0.4477  0.3857

 Free energy of the ion-electron system (eV)
  ---------------------------------------------------
  alpha Z        PSCENC =       216.17040255
  Ewald energy   TEWEN  =     42536.69931684
  -Hartree energ DENC   =    -53302.42947243
  -exchange      EXHF   =         0.00000000
  -V(xc)+E(xc)   XCENC  =       362.74629456
  PAW double counting   =     10564.49703041   -11427.05310922
  entropy T*S    EENTRO =         0.01707445
  eigenvalues    EBANDS =      -138.01551163
  atomic energy  EATOM  =     11152.61838693
  Solvation  Ediel_sol  =         0.00000000
  ---------------------------------------------------
  free energy    TOTEN  =       -34.74958754 eV

  energy without entropy =      -34.76666199  energy(sigma->0) =      -34.75527902


--------------------------------------------------------------------------------------------------------




--------------------------------------- Iteration      1(  21)  ---------------------------------------


    POTLOK:  cpu time      0.0160: real time      0.0162
    SETDIJ:  cpu time      0.0057: real time      0.0058
     EDDAV:  cpu time      0.3525: real time      0.3551
       DOS:  cpu time      0.0009: real time      0.0009
    CHARGE:  cpu time      0.0501: real time      0.0503
    MIXING:  cpu time      0.0016: real time      0.0016
    --------------------------------------------
      LOOP:  cpu time      0.4268: real time      0.4299

 eigenvalue-minimisations  :  1192
 total energy-change (2. order) :-0.3354844E-01  (-0.3990404E-03)
 number of electron      90.0000866 magnetization       0.0712905
 augmentation part       56.1537613 magnetization       0.0571022

 Broyden mixing:
  rms(total) = 0.11628E-01    rms(broyden)= 0.11627E-01
  rms(prec ) = 0.12353E-01
  weight for this iteration     100.00

 eigenvalues of (default mixing * dielectric matrix)
  average eigenvalue GAMMA=   1.7447
 11.4073  3.9517  2.4430  2.0226  1.0102  1.0102  0.9410  0.9410  0.7585  0.7585
  0.2935  0.6218  0.4901  0.3861  0.4397  0.4397

 Free energy of the ion-electron system (eV)
  ---------------------------------------------------
  alpha Z        PSCENC =       216.17040255
  Ewald energy   TEWEN  =     42536.69931684
  -Hartree energ DENC   =    -53300.33645116
  -exchange      EXHF   =         0.00000000
  -V(xc)+E(xc)   XCENC  =       362.69904774
  PAW double counting   =     10567.43336788   -11430.06944041
  entropy T*S    EENTRO =         0.01738499
  eigenvalues    EBANDS =      -140.01515133
  atomic energy  EATOM  =     11152.61838693
  Solvation  Ediel_sol  =         0.00000000
  ---------------------------------------------------
  free energy    TOTEN  =       -34.78313598 eV

  energy without entropy =      -34.80052097  energy(sigma->0) =      -34.78893098


--------------------------------------------------------------------------------------------------------




--------------------------------------- Iteration      1(  22)  ---------------------------------------


    POTLOK:  cpu time      0.0161: real time      0.0164
    SETDIJ:  cpu time      0.0055: real time      0.0056
     EDDAV:  cpu time      0.3292: real time      0.3318
       DOS:  cpu time      0.0009: real time      0.0009
    CHARGE:  cpu time      0.0534: real time      0.0536
    MIXING:  cpu time      0.0017: real time      0.0017
    --------------------------------------------
      LOOP:  cpu time      0.4068: real time      0.4100

 eigenvalue-minimisations  :  1092
 total energy-change (2. order) :-0.4422760E-01  (-0.5271914E-03)
 number of electron      90.0000866 magnetization       0.0500183
 augmentation part       56.1653692 magnetization       0.0428892

 Broyden mixing:
  rms(total) = 0.91671E-02    rms(broyden)= 0.91653E-02
  rms(prec ) = 0.96341E-02
  weight for this iteration     100.00

 eigenvalues of (default mixing * dielectric matrix)
  average eigenvalue GAMMA=   1.7707
 11.3888  4.2906  3.1246  2.1079  1.2947  1.1038  0.9373  0.9373  0.8063  0.8063
  0.2935  0.6273  0.6273  0.4875  0.3863  0.4459  0.4361

 Free energy of the ion-electron system (eV)
  ---------------------------------------------------
  alpha Z        PSCENC =       216.17040255
  Ewald energy   TEWEN  =     42536.69931684
  -Hartree energ DENC   =    -53296.23775951
  -exchange      EXHF   =         0.00000000
  -V(xc)+E(xc)   XCENC  =       362.63000319
  PAW double counting   =     10566.97036433   -11429.44323211
  entropy T*S    EENTRO =         0.01769585
  eigenvalues    EBANDS =      -144.25254164
  atomic energy  EATOM  =     11152.61838693
  Solvation  Ediel_sol  =         0.00000000
  ---------------------------------------------------
  free energy    TOTEN  =       -34.82736358 eV

  energy without entropy =      -34.84505943  energy(sigma->0) =      -34.83326219


--------------------------------------------------------------------------------------------------------




--------------------------------------- Iteration      1(  23)  ---------------------------------------


    POTLOK:  cpu time      0.0160: real time      0.0163
    SETDIJ:  cpu time      0.0054: real time      0.0056
     EDDAV:  cpu time      0.2943: real time      0.2965
       DOS:  cpu time      0.0009: real time      0.0009
    CHARGE:  cpu time      0.0524: real time      0.0526
    MIXING:  cpu time      0.0031: real time      0.0031
    --------------------------------------------
      LOOP:  cpu time      0.3720: real time      0.3749

 eigenvalue-minimisations  :   928
 total energy-change (2. order) :-0.3506456E-01  (-0.1347850E-03)
 number of electron      90.0000866 magnetization       0.0331210
 augmentation part       56.1619281 magnetization       0.0278925

 Broyden mixing:
  rms(total) = 0.68028E-02    rms(broyden)= 0.68020E-02
  rms(prec ) = 0.70629E-02
  weight for this iteration     100.00

 eigenvalues of (default mixing * dielectric matrix)
  average eigenvalue GAMMA=   1.8037
 11.3571  5.3535  3.3377  2.1847  1.6247  0.9522  0.9522  0.9390  0.8825  0.8825
  0.7626  0.2935  0.6450  0.5486  0.4857  0.3860  0.4491  0.4305

 Free energy of the ion-electron system (eV)
  ---------------------------------------------------
  alpha Z        PSCENC =       216.17040255
  Ewald energy   TEWEN  =     42536.69931684
  -Hartree energ DENC   =    -53294.88287407
  -exchange      EXHF   =         0.00000000
  -V(xc)+E(xc)   XCENC  =       362.60121770
  PAW double counting   =     10567.78494395   -11430.32085408
  entropy T*S    EENTRO =         0.01779525
  eigenvalues    EBANDS =      -145.55076321
  atomic energy  EATOM  =     11152.61838693
  Solvation  Ediel_sol  =         0.00000000
  ---------------------------------------------------
  free energy    TOTEN  =       -34.86242813 eV

  energy without entropy =      -34.88022338  energy(sigma->0) =      -34.86835988


--------------------------------------------------------------------------------------------------------




--------------------------------------- Iteration      1(  24)  ---------------------------------------


    POTLOK:  cpu time      0.0159: real time      0.0162
    SETDIJ:  cpu time      0.0056: real time      0.0056
     EDDAV:  cpu time      0.2789: real time      0.2811
       DOS:  cpu time      0.0009: real time      0.0009
    CHARGE:  cpu time      0.0520: real time      0.0523
    MIXING:  cpu time      0.0019: real time      0.0019
    --------------------------------------------
      LOOP:  cpu time      0.3552: real time      0.3579

 eigenvalue-minimisations  :   852
 total energy-change (2. order) :-0.2776169E-01  (-0.8641609E-04)
 number of electron      90.0000866 magnetization       0.0161908
 augmentation part       56.1571825 magnetization       0.0124282

 Broyden mixing:
  rms(total) = 0.46292E-02    rms(broyden)= 0.46287E-02
  rms(prec ) = 0.48458E-02
  weight for this iteration     100.00

 eigenvalues of (default mixing * dielectric matrix)
  average eigenvalue GAMMA=   1.8455
 11.3242  6.9484  3.2856  2.3614  1.7703  1.0636  1.0636  0.9350  0.9350  0.8111
  0.8111  0.2935  0.6251  0.6251  0.4975  0.3859  0.4532  0.4532  0.4224

 Free energy of the ion-electron system (eV)
  ---------------------------------------------------
  alpha Z        PSCENC =       216.17040255
  Ewald energy   TEWEN  =     42536.69931684
  -Hartree energ DENC   =    -53294.02440174
  -exchange      EXHF   =         0.00000000
  -V(xc)+E(xc)   XCENC  =       362.58176069
  PAW double counting   =     10567.80395611   -11430.39170498
  entropy T*S    EENTRO =         0.01783222
  eigenvalues    EBANDS =      -146.36573843
  atomic energy  EATOM  =     11152.61838693
  Solvation  Ediel_sol  =         0.00000000
  ---------------------------------------------------
  free energy    TOTEN  =       -34.89018982 eV

  energy without entropy =      -34.90802204  energy(sigma->0) =      -34.89613389


--------------------------------------------------------------------------------------------------------




--------------------------------------- Iteration      1(  25)  ---------------------------------------


    POTLOK:  cpu time      0.0159: real time      0.0161
    SETDIJ:  cpu time      0.0056: real time      0.0056
     EDDAV:  cpu time      0.2841: real time      0.2866
       DOS:  cpu time      0.0009: real time      0.0009
    CHARGE:  cpu time      0.0535: real time      0.0538
    MIXING:  cpu time      0.0021: real time      0.0021
    --------------------------------------------
      LOOP:  cpu time      0.3621: real time      0.3651

 eigenvalue-minimisations  :   880
 total energy-change (2. order) :-0.1880401E-01  (-0.6836690E-04)
 number of electron      90.0000866 magnetization       0.0049937
 augmentation part       56.1563679 magnetization       0.0036340

 Broyden mixing:
  rms(total) = 0.29233E-02    rms(broyden)= 0.29226E-02
  rms(prec ) = 0.31737E-02
  weight for this iteration     100.00

 eigenvalues of (default mixing * dielectric matrix)
  average eigenvalue GAMMA=   1.9477
 11.2676  9.2762  3.2848  2.7252  2.0625  1.2387  0.9554  0.9554  1.0162  0.8702
  0.8702  0.6881  0.6881  0.2935  0.5923  0.4866  0.3859  0.4476  0.4331  0.4168

 Free energy of the ion-electron system (eV)
  ---------------------------------------------------
  alpha Z        PSCENC =       216.17040255
  Ewald energy   TEWEN  =     42536.69931684
  -Hartree energ DENC   =    -53292.74927301
  -exchange      EXHF   =         0.00000000
  -V(xc)+E(xc)   XCENC  =       362.56251585
  PAW double counting   =     10566.87152266   -11429.43771114
  entropy T*S    EENTRO =         0.01793325
[...]
      2      -5.2448      1.00000
      3      -4.4634      1.00000
      4      -3.7252      1.00000
      5      -3.2647      1.00000
      6      -2.9044      1.00000
      7      -2.8164      1.00000
      8      -2.7935      1.00000
      9      -2.6664      1.00000
     10      -2.5195      1.00000
     11      -2.5095      1.00000
     12      -2.4849      1.00000
     13      -2.3970      1.00000
     14      -2.2074      1.00000
     15      -2.1459      1.00000
     16      -2.1156      1.00000
     17      -1.9618      1.00000
     18      -1.8696      1.00000
     19      -1.5810      1.00000
     20      -1.5445      1.00000
     21      -1.4537      1.00000
     22      -1.3749      1.00000
     23      -1.1445      1.00000
     24      -1.0393      1.00000
     25      -0.9257      1.00000
     26      -0.8594      1.00000
     27      -0.7970      1.00000
     28      -0.7948      1.00000
     29      -0.6926      1.00000
     30      -0.6679      1.00000
     31      -0.6160      1.00000
     32      -0.5755      1.00000
     33      -0.5519      1.00000
     34      -0.4560      1.00000
     35      -0.3948      1.00000
     36      -0.3639      1.00000
     37      -0.3511      1.00000
     38      -0.3167      1.00000
     39      -0.2618      1.00000
     40      -0.2055      1.00000
     41      -0.1779      1.00000
     42      -0.0649      1.00000
     43       0.0159      1.00000
     44       0.0226      1.00000
     45       1.0166      1.03483
     46       2.9398     -0.00000
     47       4.1942     -0.00000
     48       4.8292     -0.00000
     49       5.0952     -0.00000
     50       5.6190     -0.00000
     51       6.9042      0.00000
     52       7.0307      0.00000
     53       7.4823      0.00000
     54       7.7627      0.00000
     55       8.4047      0.00000
     56       8.4373      0.00000
     57       8.7864      0.00000
     58       9.7406      0.00000
     59       9.8266      0.00000
     60       9.9341      0.00000

 k-point     4 :       0.3333    0.3333    0.0000
  band No.  band energies     occupation 
      1      -7.0287      1.00000
      2      -4.4038      1.00000
      3      -3.6760      1.00000
      4      -3.1316      1.00000
      5      -3.0580      1.00000
      6      -2.7977      1.00000
      7      -2.7074      1.00000
      8      -2.6111      1.00000
      9      -2.5458      1.00000
     10      -2.4247      1.00000
     11      -2.3774      1.00000
     12      -2.1725      1.00000
     13      -2.1553      1.00000
     14      -2.1093      1.00000
     15      -1.9367      1.00000
     16      -1.8835      1.00000
     17      -1.8090      1.00000
     18      -1.7557      1.00000
     19      -1.6916      1.00000
     20      -1.6502      1.00000
     21      -1.5893      1.00000
     22      -1.5164      1.00000
     23      -1.4670      1.00000
     24      -1.4388      1.00000
     25      -1.3024      1.00000
     26      -1.2210      1.00000
     27      -1.1476      1.00000
     28      -1.0957      1.00000
     29      -0.9173      1.00000
     30      -0.8114      1.00000
     31      -0.7384      1.00000
     32      -0.6502      1.00000
     33      -0.6362      1.00000
     34      -0.5816      1.00000
     35      -0.5311      1.00000
     36      -0.5039      1.00000
     37      -0.3840      1.00000
     38      -0.3349      1.00000
     39      -0.2857      1.00000
     40      -0.1921      1.00000
     41      -0.1607      1.00000
     42      -0.0690      1.00000
     43       0.2245      1.00000
     44       1.0985      0.97731
     45       2.1062     -0.00000
     46       2.6030     -0.00000
     47       3.0301     -0.00000
     48       4.3616     -0.00000
     49       4.4336     -0.00000
     50       5.2228     -0.00000
     51       5.9439     -0.00000
     52       6.4418     -0.00000
     53       6.5420     -0.00000
     54       7.2744      0.00000
     55       7.5559      0.00000
     56       8.3206      0.00000
     57       8.3876      0.00000
     58       8.8037      0.00000
     59       9.2480      0.00000
     60       9.7132      0.00000


--------------------------------------------------------------------------------------------------------


 soft charge-density along one line, spin component           1
         0         1         2         3         4         5         6         7         8         9
 total charge-density along one line
 
 soft charge-density along one line, spin component           2
         0         1         2         3         4         5         6         7         8         9
 total charge-density along one line
 
 pseudopotential strength for first ion, spin component:           1
 -6.919  -0.000   0.000   0.000  -0.000  -1.693   0.000  -0.000
 -0.000  -6.910  -0.000  -0.000  -0.000   0.000  -1.702   0.000
  0.000  -0.000  -6.932  -0.000   0.003  -0.000   0.000  -1.688
  0.000  -0.000  -0.000  -6.924  -0.000  -0.000   0.000   0.000
 -0.000  -0.000   0.003  -0.000  -6.916   0.000   0.000  -0.002
 -1.693   0.000  -0.000  -0.000   0.000   8.181  -0.000   0.000
  0.000  -1.702   0.000   0.000   0.000  -0.000   8.189  -0.000
 -0.000   0.000  -1.688   0.000  -0.002   0.000  -0.000   8.181
 -0.000   0.000   0.000  -1.694   0.000   0.000  -0.000  -0.000
  0.000   0.000  -0.002   0.000  -1.695  -0.000  -0.000   0.000
  0.000  -0.000  -0.003   0.000  -0.000   0.000   0.000   0.004
  0.000  -0.000  -0.006   0.000  -0.001   0.000   0.000   0.008
  0.000  -0.017   0.000   0.000   0.000  -0.000   0.014  -0.000
  0.000  -0.000  -0.018   0.000   0.001   0.000   0.000   0.013
 -0.000   0.000  -0.000  -0.015   0.000   0.000   0.000   0.000
  0.000  -0.019   0.000  -0.000   0.000   0.000   0.015  -0.000
 -0.000  -0.000  -0.019   0.000   0.001   0.000   0.000   0.013
 -0.000  -0.000  -0.000  -0.017   0.000   0.000   0.000  -0.000
 pseudopotential strength for first ion, spin component:           2
 -6.919  -0.000   0.000   0.000  -0.000  -1.693   0.000  -0.000
 -0.000  -6.910  -0.000  -0.000  -0.000   0.000  -1.702   0.000
  0.000  -0.000  -6.932  -0.000   0.003  -0.000   0.000  -1.688
  0.000  -0.000  -0.000  -6.924  -0.000  -0.000   0.000   0.000
 -0.000  -0.000   0.003  -0.000  -6.916   0.000   0.000  -0.002
 -1.693   0.000  -0.000  -0.000   0.000   8.181  -0.000   0.000
  0.000  -1.702   0.000   0.000   0.000  -0.000   8.189  -0.000
 -0.000   0.000  -1.688   0.000  -0.002   0.000  -0.000   8.181
 -0.000   0.000   0.000  -1.694   0.000   0.000  -0.000  -0.000
  0.000   0.000  -0.002   0.000  -1.695  -0.000  -0.000   0.000
  0.000  -0.000  -0.003   0.000  -0.000   0.000   0.000   0.004
  0.000  -0.000  -0.006   0.000  -0.001   0.000   0.000   0.008
  0.000  -0.017   0.000   0.000   0.000  -0.000   0.014  -0.000
  0.000  -0.000  -0.018   0.000   0.001   0.000   0.000   0.013
 -0.000   0.000  -0.000  -0.015   0.000   0.000   0.000   0.000
  0.000  -0.019   0.000  -0.000   0.000   0.000   0.015  -0.000
 -0.000  -0.000  -0.019   0.000   0.001   0.000   0.000   0.013
 -0.000  -0.000  -0.000  -0.017   0.000   0.000   0.000  -0.000
 total augmentation occupancy for first ion, spin component:           1
  1.923   0.000   0.000   0.000   0.000  -0.013   0.000   0.000  -0.000   0.000   0.000   0.000   0.000   0.000  -0.000   0.000
  0.000   1.946  -0.000   0.000  -0.000   0.000  -0.027   0.000   0.000  -0.000   0.000  -0.000   0.024  -0.000   0.000  -0.023
  0.000  -0.000   1.929   0.000   0.001   0.000   0.000  -0.013   0.000   0.005  -0.018   0.016   0.000   0.071   0.000  -0.000
  0.000   0.000   0.000   1.940   0.000  -0.000   0.000   0.000  -0.025   0.000   0.000   0.000   0.000   0.000   0.068   0.000
  0.000  -0.000   0.001   0.000   1.925   0.000  -0.000   0.005   0.000  -0.017  -0.053   0.010   0.000   0.024   0.000  -0.000
 -0.013   0.000   0.000  -0.000   0.000   0.011   0.000   0.000   0.000   0.000   0.000   0.000   0.000   0.000   0.000   0.000
  0.000  -0.027   0.000   0.000  -0.000   0.000   0.010   0.000   0.000  -0.000   0.000  -0.000   0.021   0.000   0.000  -0.001
  0.000   0.000  -0.013   0.000   0.005   0.000   0.000   0.011   0.000   0.001  -0.014  -0.000   0.000   0.020   0.000  -0.000
 -0.000   0.000   0.000  -0.025   0.000   0.000   0.000   0.000   0.012   0.000   0.000   0.000   0.000   0.000   0.030   0.000
  0.000  -0.000   0.005   0.000  -0.017   0.000  -0.000   0.001   0.000   0.010  -0.005   0.001   0.000   0.002   0.000   0.000
  0.000   0.000  -0.018   0.000  -0.053   0.000   0.000  -0.014   0.000  -0.005   1.703  -0.128   0.000   0.230   0.000  -0.000
  0.000  -0.000   0.016   0.000   0.010   0.000  -0.000  -0.000   0.000   0.001  -0.128   0.016  -0.000  -0.028   0.000   0.000
  0.000   0.024   0.000   0.000   0.000   0.000   0.021   0.000   0.000   0.000   0.000  -0.000   0.217   0.000   0.000  -0.013
  0.000  -0.000   0.071   0.000   0.024   0.000   0.000   0.020   0.000   0.002   0.230  -0.028   0.000   0.107   0.000  -0.000
 -0.000   0.000   0.000   0.068   0.000   0.000   0.000   0.000   0.030   0.000   0.000   0.000   0.000   0.000   0.151   0.000
  0.000  -0.023  -0.000   0.000  -0.000   0.000  -0.001  -0.000   0.000   0.000  -0.000   0.000  -0.013  -0.000   0.000   0.001
  0.000   0.000  -0.029   0.000  -0.001   0.000  -0.000  -0.001   0.000  -0.000  -0.029   0.003  -0.000  -0.010   0.000   0.000
  0.000   0.000   0.000  -0.027   0.000  -0.000   0.000   0.000  -0.002   0.000   0.000   0.000   0.000   0.000  -0.010   0.000
 total augmentation occupancy for first ion, spin component:           2
  0.000   0.000   0.000  -0.000   0.000   0.000   0.000   0.000  -0.000   0.000   0.000   0.000   0.000   0.000   0.000   0.000
  0.000  -0.000  -0.000   0.000  -0.000   0.000  -0.000   0.000   0.000  -0.000  -0.000   0.000  -0.000   0.000   0.000   0.000
  0.000  -0.000   0.000   0.000   0.000   0.000  -0.000   0.000   0.000  -0.000   0.000   0.000   0.000   0.000   0.000  -0.000
 -0.000   0.000   0.000  -0.000   0.000  -0.000   0.000   0.000  -0.000   0.000   0.000   0.000   0.000   0.000  -0.000   0.000
  0.000  -0.000   0.000   0.000   0.000   0.000   0.000  -0.000   0.000   0.000   0.000   0.000   0.000  -0.000   0.000  -0.000
  0.000   0.000   0.000  -0.000   0.000   0.000   0.000   0.000   0.000   0.000   0.000   0.000   0.000   0.000  -0.000   0.000
  0.000  -0.000  -0.000   0.000   0.000   0.000   0.000  -0.000   0.000   0.000   0.000   0.000  -0.000  -0.000   0.000   0.000
  0.000   0.000   0.000   0.000  -0.000   0.000  -0.000  -0.000   0.000   0.000  -0.000   0.000   0.000   0.000   0.000  -0.000
 -0.000   0.000   0.000  -0.000   0.000   0.000   0.000   0.000   0.000   0.000   0.000   0.000   0.000   0.000  -0.000   0.000
  0.000  -0.000  -0.000   0.000   0.000   0.000   0.000   0.000   0.000   0.000  -0.000   0.000  -0.000   0.000   0.000   0.000
  0.000  -0.000   0.000   0.000   0.000   0.000   0.000  -0.000   0.000  -0.000  -0.000   0.000  -0.000  -0.000   0.000   0.000
  0.000   0.000   0.000   0.000   0.000   0.000   0.000   0.000   0.000   0.000   0.000  -0.000  -0.000   0.000   0.000  -0.000
  0.000  -0.000   0.000   0.000   0.000   0.000  -0.000   0.000   0.000  -0.000  -0.000  -0.000   0.000  -0.000   0.000   0.000
  0.000   0.000   0.000   0.000  -0.000   0.000  -0.000   0.000   0.000   0.000  -0.000   0.000  -0.000   0.000   0.000   0.000
  0.000   0.000   0.000  -0.000   0.000  -0.000   0.000   0.000  -0.000   0.000   0.000   0.000   0.000   0.000   0.000   0.000
  0.000   0.000  -0.000   0.000  -0.000   0.000   0.000  -0.000   0.000   0.000   0.000  -0.000   0.000   0.000   0.000  -0.000
  0.000   0.000  -0.000   0.000   0.000   0.000   0.000  -0.000   0.000  -0.000   0.000  -0.000   0.000  -0.000   0.000  -0.000
 -0.000   0.000   0.000   0.000   0.000   0.000   0.000   0.000   0.000   0.000   0.000   0.000   0.000   0.000   0.000   0.000


------------------------ aborting loop because EDIFF is reached ----------------------------------------


    CHARGE:  cpu time      0.0494: real time      0.0497
    FORLOC:  cpu time      0.0012: real time      0.0012
    FORNL :  cpu time      0.1415: real time      0.1421
    STRESS:  cpu time      0.1621: real time      0.1632
    FORCOR:  cpu time      0.0161: real time      0.0161
    FORHAR:  cpu time      0.0028: real time      0.0028
    MIXING:  cpu time      0.0004: real time      0.0004
    OFIELD:  cpu time      0.0000: real time      0.0000

 ---------------------------------------------------------------------------------------------

         DFTD3 V3.0 Rev 1        
 Edisp (eV)   -3.21207

 E6    (eV) :    -1.3225
 E8    (eV) :    -1.8896
 % E8        : 58.83
    FORVDW:  cpu time      0.0494: real time      0.0496

  FORCE on cell =-STRESS in cart. coord.  units (eV):
  Direction    XX          YY          ZZ          XY          YZ          ZX
  --------------------------------------------------------------------------------------
  Alpha Z   216.17040   216.17040   216.17040
  Ewald   48370.16369 48567.66826-54228.69371    -0.00000     0.56795     0.00000
  Hartree 51492.23196 51625.40222-49651.64039     0.00000     1.66287    -0.00000
  E(xc)    -520.60554  -520.13276  -520.69922    -0.00000    -0.03019    -0.00000
  Local  ************************102869.95267     0.00000    -3.61054    -0.00000
  n-local  -178.48244  -174.95083  -178.89121     7.31348     0.17836    -0.01392
  augment   756.42725   759.04337   756.94598     0.00000    -0.12150    -0.00000
  Kinetic   740.01423   734.78235   739.19745     7.00363     1.23171    -0.03459
  Fock        0.00000     0.00000     0.00000     0.00000     0.00000     0.00000
  vdW        -3.95988    -3.88517    -2.88122     0.00000    -0.05929    -0.00000
  -------------------------------------------------------------------------------------
  Total      -4.70625    -3.86099    -0.53926     0.00000    -0.18061     0.00000
  in kB     -33.74193   -27.68172    -3.86626     0.00000    -1.29491     0.00000
  external pressure =      -21.76 kB  Pullay stress =        0.00 kB


 VOLUME and BASIS-vectors are now :
 -----------------------------------------------------------------------------
  energy-cutoff  :      400.00
  volume of cell :      223.47
      direct lattice vectors                 reciprocal lattice vectors
     3.630000114  0.000000000  0.000000000     0.275482085  0.000000000  0.000000000
     0.000000000  2.566797733  0.000000000     0.000000000  0.389590495  0.000000000
     0.000000000  0.000000000 23.983791351     0.000000000  0.000000000  0.041694826

  length of vectors
     3.630000114  2.566797733 23.983791351     0.275482085  0.389590495  0.041694826


 FORCES acting on ions
    electron-ion (+dipol)            ewald-force                    non-local-force                 convergence-correction
 -----------------------------------------------------------------------------------------------
   -.203E-13 0.357E-01 0.461E+04   -.743E-07 -.299E-01 -.460E+04   0.000E+00 -.125E-01 -.638E+01   -.358E-10 0.430E-02 -.619E-01
   0.736E-06 -.264E-01 0.353E+04   0.134E-06 0.324E-01 -.353E+04   0.000E+00 -.196E-01 0.176E+01   0.170E-10 0.117E-01 -.820E-01
   -.445E-13 -.164E-01 0.210E+04   -.124E-06 0.364E-01 -.210E+04   0.000E+00 -.592E-01 -.117E+01   0.465E-10 0.335E-01 -.169E+00
   0.751E-06 0.896E-01 0.773E+03   0.131E-06 -.641E-01 -.773E+03   0.000E+00 -.664E-01 0.331E+00   -.197E-10 0.359E-01 -.171E+00
   -.710E-13 -.152E+00 -.568E+03   -.129E-06 0.168E+00 0.568E+03   0.000E+00 -.346E-01 -.133E+00   -.198E-12 0.187E-01 -.168E+00
   0.760E-06 -.300E+00 -.190E+04   0.125E-06 0.306E+00 0.190E+04   0.000E+00 -.565E-01 0.109E+01   -.479E-10 0.462E-01 -.730E-01
   -.510E-13 -.701E-01 -.331E+04   -.136E-06 0.116E+00 0.331E+04   0.000E+00 -.103E+00 -.194E+01   -.283E-10 0.544E-01 -.254E-02
   0.808E-06 0.408E+01 -.439E+04   0.857E-07 -.433E+01 0.438E+04   0.000E+00 0.228E+00 0.963E+01   0.440E-10 0.887E-02 0.617E-01
   0.552E-07 0.159E+02 -.421E+03   -.479E-08 -.201E+02 0.422E+03   0.000E+00 0.420E+01 -.160E+01   -.975E-11 0.217E-03 0.329E-02
   0.581E-07 -.195E+02 -.425E+03   -.675E-08 0.239E+02 0.424E+03   0.000E+00 -.437E+01 0.856E+00   -.422E-11 0.509E-02 0.112E-02
 -----------------------------------------------------------------------------------------------
   0.317E-05 0.222E-01 -.178E+01   0.318E-13 0.675E-13 0.114E-12   0.000E+00 -.297E+00 0.244E+01   -.384E-10 0.219E+00 -.661E+00
 
 
 POSITION                                       TOTAL-FORCE (eV/Angst)
 -----------------------------------------------------------------------------------
      0.00000      0.00157      0.02643         0.000000      0.003325      0.018215
      1.81500      1.28507      1.16229         0.000000      0.004036     -0.018295
      0.00000      0.00348      2.45921         0.000000      0.000461     -0.017587
      1.81500      1.29105      3.71716         0.000000      0.001816      0.002645
      0.00000      0.01432      4.94820         0.000000      0.007757      0.007300
      1.81500      1.31318      6.23315         0.000000      0.001773     -0.006778
      0.00000      0.05632      7.50193         0.000000      0.001394      0.009305
      1.81500      1.35539      8.66453         0.000000      0.004476     -0.009108
      1.81500      1.18939     10.64352         0.000000     -0.019413      0.007164
      1.81500      1.93662     10.41380         0.000000     -0.005624      0.007140
 -----------------------------------------------------------------------------------
    total drift:                                0.000003     -0.055894      0.005423


--------------------------------------------------------------------------------------------------------



  FREE ENERGIE OF THE ION-ELECTRON SYSTEM (eV)
  ---------------------------------------------------
  free  energy   TOTEN  =       -38.54795165 eV

  energy  without entropy=      -38.55949721  energy(sigma->0) =      -38.55180017
 
 d Force = 0.6683887E-04[ 0.276E-04, 0.106E-03]  d Energy = 0.8149760E-04-0.147E-04
 d Force = 0.1358937E+01[ 0.136E+01, 0.136E+01]  d Ewald  = 0.1358937E+01-0.714E-07


--------------------------------------------------------------------------------------------------------


    POTLOK:  cpu time      0.0249: real time      0.0250


--------------------------------------------------------------------------------------------------------


 stress matrix after NEB project (eV)
     -4.70625      0.00000      0.00000
      0.00000     -3.86099     -0.18061
      0.00000     -0.18061     -0.53926
  FORCES: max atom, RMS     0.020693    0.013706
  FORCE total and by dimension    0.043342    0.019413
  Stress total and by dimension    6.116544    4.706254


--------------------------------------------------------------------------------------------------------


  
 reached required accuracy - stopping structural energy minimisation
     LOOP+:  cpu time      1.1001: real time      1.2107
    4ORBIT:  cpu time      0.0000: real time      0.0000

 total amount of memory used by VASP MPI-rank0    35069. kBytes
=======================================================================

   base      :      30000. kBytes
   nonl-proj :       1086. kBytes
   fftplans  :        642. kBytes
   grid      :       1621. kBytes
   one-center:         62. kBytes
   wavefun   :       1658. kBytes
 
  
  
 General timing and accounting informations for this job:
 ========================================================
  
                  Total CPU time used (sec):       93.742
                            User time (sec):       93.333
                          System time (sec):        0.410
                         Elapsed time (sec):       97.361
  
                   Maximum memory used (kb):      233920.
                   Average memory used (kb):          N/A
  
                          Minor page faults:       108938
                          Major page faults:         6621
                 Voluntary context switches:         3366
