<?xml version="1.0" encoding="ISO-8859-1"?>
<modeling>
 <generator>
  <i name="program" type="string">vasp </i>
  <i name="version" type="string">6.3.2  </i>
  <i name="subversion" type="string">27Jun22 (build Aug 17 2022 15:43:34) complex                          parallel </i>
  <i name="platform" type="string">tv2STDVTST </i>
  <i name="date" type="string">2025 02 04 </i>
  <i name="time" type="string">13:59:27 </i>
 </generator>
 <incar>
  <i type="int" name="ISTART">     0</i>
  <i type="string" name="PREC">Normal</i>
  <i type="int" name="ISPIN">     2</i>
  <i type="int" name="ICHARG">     2</i>
  <i type="int" name="IBRION">     2</i>
  <i name="EDIFF">      0.00020000</i>
  <i name="EDIFFG">     -0.03000000</i>
  <i type="int" name="NSW">   800</i>
  <i type="int" name="ISIF">     2</i>
  <i type="int" name="ISYM">     1</i>
  <i name="ENCUT">    400.00000000</i>
  <i name="POTIM">      0.50000000</i>
  <i type="logical" name="LREAL"> F  </i>
  <i type="int" name="ISMEAR">     1</i>
  <i name="SIGMA">      0.20000000</i>
  <i type="logical" name="LWAVE"> F  </i>
  <i type="logical" name="LCHARG"> F  </i>
  <i type="string" name="GGA">PE</i>
  <i type="int" name="IVDW">    11</i>
 </incar>
 <primitive_cell>
  <structure name="primitive_cell" >
   <crystal>
    <varray name="basis" >
     <v>       3.63000011       0.00000000       0.00000000 </v>
     <v>       0.00000000       2.56679773       0.00000000 </v>
     <v>       0.00000000       0.00000000      23.98379135 </v>
    </varray>
    <i name="volume">    223.46840188 </i>
    <varray name="rec_basis" >
     <v>       0.27548208       0.00000000       0.00000000 </v>
     <v>       0.00000000       0.38959050       0.00000000 </v>
     <v>       0.00000000       0.00000000       0.04169483 </v>
    </varray>
   </crystal>
   <varray name="positions" >
    <v>       0.00000000       0.00000000       0.00000000 </v>
    <v>       0.50000000       0.50000000       0.05351109 </v>
    <v>       0.00000000       0.00000000       0.10468148 </v>
    <v>       0.50000000       0.50000000       0.15792996 </v>
    <v>       0.00000000       0.00000000       0.21070899 </v>
    <v>       0.50000000       0.50000000       0.26289048 </v>
    <v>       0.00000000       0.00000000       0.31711592 </v>
    <v>       0.50000000       0.50000000       0.36467590 </v>
    <v>       0.50000000       0.50000000       0.42690792 </v>
    <v>       0.50000000       0.79063451       0.42690792 </v>
   </varray>
  </structure>
  <varray name="primitive_index" >
   <v type="int" >        1 </v>
   <v type="int" >        2 </v>
   <v type="int" >        3 </v>
   <v type="int" >        4 </v>
   <v type="int" >        5 </v>
   <v type="int" >        6 </v>
   <v type="int" >        7 </v>
   <v type="int" >        8 </v>
   <v type="int" >        9 </v>
   <v type="int" >       10 </v>
  </varray>
 </primitive_cell>
 <kpoints>
  <generation param="Monkhorst-Pack">
   <v type="int" name="divisions">       3        3        1 </v>
   <v name="usershift">      0.00000000       0.00000000       0.00000000 </v>
   <v name="genvec1">      0.33333333       0.00000000       0.00000000 </v>
   <v name="genvec2">      0.00000000       0.33333333       0.00000000 </v>
   <v name="genvec3">      0.00000000       0.00000000       1.00000000 </v>
   <v name="shift">      0.00000000       0.00000000       0.00000000 </v>
  </generation>
  <varray name="kpointlist" >
   <v>       0.00000000       0.00000000       0.00000000 </v>
   <v>       0.33333333       0.00000000       0.00000000 </v>
   <v>       0.00000000       0.33333333       0.00000000 </v>
   <v>       0.33333333       0.33333333       0.00000000 </v>
  </varray>
  <varray name="weights" >
   <v>       0.11111111 </v>
   <v>       0.22222222 </v>
   <v>       0.22222222 </v>
   <v>       0.44444444 </v>
  </varray>
 </kpoints>
 <parameters>
  <separator name="general" >
   <i type="string" name="SYSTEM">unknown system</i>
   <i type="logical" name="LCOMPAT"> F  </i>
  </separator>
  <separator name="electronic" >
   <i type="string" name="PREC">normal</i>
   <i name="ENMAX">    400.00000000</i>
   <i name="ENAUG">    586.98000000</i>
   <i name="EDIFF">      0.00020000</i>
   <i type="int" name="IALGO">    38</i>
   <i type="int" name="IWAVPR">    11</i>
   <i type="int" name="NBANDS">    60</i>
   <i type="int" name="NBANDSLOW">    -1</i>
   <i type="int" name="NBANDSHIGH">    -1</i>
   <i name="NELECT">     90.00000000</i>
   <i type="int" name="TURBO">     0</i>
   <i type="int" name="IRESTART">     0</i>
   <i type="int" name="NREBOOT">     0</i>
   <i type="int" name="NMIN">     0</i>
   <i name="EREF">      0.00000000</i>
   <separator name="electronic smearing" >
    <i type="int" name="ISMEAR">     1</i>
    <i name="SIGMA">      0.20000000</i>
    <i name="KSPACING">      0.50000000</i>
    <i type="logical" name="KGAMMA"> T  </i>
    <i type="logical" name="KBLOWUP"> T  </i>
   </separator>
   <separator name="electronic projectors" >
    <i type="logical" name="LREAL"> F  </i>
    <v name="ROPT">      0.00000000      0.00000000</v>
    <i type="int" name="LMAXPAW">  -100</i>
    <i type="int" name="LMAXMIX">     2</i>
    <i type="logical" name="NLSPLINE"> F  </i>
   </separator>
   <separator name="electronic startup" >
    <i type="int" name="ISTART">     0</i>
    <i type="int" name="ICHARG">     2</i>
    <i type="int" name="INIWAV">     1</i>
   </separator>
   <separator name="electronic spin" >
    <i type="int" name="ISPIN">     2</i>
    <i type="logical" name="LNONCOLLINEAR"> F  </i>
    <v name="MAGMOM">      1.00000000      1.00000000      1.00000000      1.00000000      1.00000000      1.00000000      1.00000000      1.00000000      1.00000000      1.00000000</v>
    <i name="NUPDOWN">     -1.00000000</i>
    <i type="logical" name="LSORBIT"> F  </i>
    <v name="SAXIS">      0.00000000      0.00000000      1.00000000</v>
    <i type="logical" name="LSPIRAL"> F  </i>
    <v name="QSPIRAL">      0.00000000      0.00000000      0.00000000</v>
    <i type="logical" name="LZEROZ"> F  </i>
   </separator>
   <separator name="electronic exchange-correlation" >
    <i type="logical" name="LASPH"> F  </i>
    <i type="logical" name="LMETAGGA"> F  </i>
   </separator>
   <separator name="electronic convergence" >
    <i type="int" name="NELM">    60</i>
    <i type="int" name="NELMDL">    -5</i>
    <i type="int" name="NELMIN">     2</i>
    <i name="ENINI">    400.00000000</i>
    <separator name="electronic convergence detail" >
     <i type="logical" name="LDIAG"> T  </i>
     <i type="logical" name="LSUBROT"> F  </i>
     <i name="WEIMIN">      0.00100000</i>
     <i name="EBREAK">      0.00000083</i>
     <i name="DEPER">      0.30000000</i>
     <i type="int" name="NRMM">     4</i>
     <i name="TIME">      0.40000000</i>
    </separator>
   </separator>
   <separator name="electronic mixer" >
    <i name="AMIX">      0.40000000</i>
    <i name="BMIX">      1.00000000</i>
    <i name="AMIN">      0.10000000</i>
    <i name="AMIX_MAG">      1.60000000</i>
    <i name="BMIX_MAG">      1.00000000</i>
    <separator name="electronic mixer details" >
     <i type="int" name="IMIX">     4</i>
     <i type="logical" name="MIXFIRST"> F  </i>
     <i type="int" name="MAXMIX">   -45</i>
     <i name="WC">    100.00000000</i>
     <i type="int" name="INIMIX">     1</i>
     <i type="int" name="MIXPRE">     1</i>
     <i type="int" name="MREMOVE">     5</i>
    </separator>
   </separator>
   <separator name="electronic dipolcorrection" >
    <i type="logical" name="LDIPOL"> F  </i>
    <i type="logical" name="LMONO"> F  </i>
    <i type="int" name="IDIPOL">     0</i>
    <i name="EPSILON">      1.00000000</i>
    <v name="DIPOL">   -100.00000000   -100.00000000   -100.00000000</v>
    <i name="EFIELD">      0.00000000</i>
   </separator>
  </separator>
  <separator name="grids" >
   <i type="int" name="NGX">    18</i>
   <i type="int" name="NGY">    14</i>
   <i type="int" name="NGZ">   120</i>
   <i type="int" name="NGXF">    36</i>
   <i type="int" name="NGYF">    28</i>
   <i type="int" name="NGZF">   240</i>
   <i type="logical" name="ADDGRID"> F  </i>
  </separator>
  <separator name="ionic" >
   <i type="int" name="NSW">   800</i>
   <i type="int" name="IBRION">     2</i>
   <i type="int" name="MDALGO">     0</i>
   <i type="int" name="ISIF">     2</i>
   <i name="PSTRESS">      0.00000000</i>
   <i name="EDIFFG">     -0.03000000</i>
   <i type="int" name="NFREE">     1</i>
   <i name="POTIM">      0.50000000</i>
   <i name="SMASS">     -3.00000000</i>
   <i name="SCALEE">      1.00000000</i>
  </separator>
  <separator name="ionic md" >
   <i name="TEBEG">      0.00010000</i>
   <i name="TEEND">      0.00010000</i>
   <i type="int" name="NBLOCK">     1</i>
   <i type="int" name="KBLOCK">   800</i>
   <i type="int" name="NPACO">   256</i>
   <i name="APACO">     10.00000000</i>
  </separator>
  <separator name="symmetry" >
   <i type="int" name="ISYM">     1</i>
   <i name="SYMPREC">      0.00001000</i>
  </separator>
  <separator name="dos" >
   <i type="int" name="LORBIT">     0</i>
   <v name="RWIGS">     -1.00000000     -1.00000000</v>
   <i type="int" name="NEDOS">   301</i>
   <i name="EMIN">     10.00000000</i>
   <i name="EMAX">    -10.00000000</i>
   <i name="EFERMI">      0.00000000</i>
  </separator>
  <separator name="writing" >
   <i type="int" name="NWRITE">     2</i>
   <i type="logical" name="LWAVE"> F  </i>
   <i type="logical" name="LDOWNSAMPLE"> F  </i>
   <i type="logical" name="LCHARG"> F  </i>
   <i type="logical" name="LPARD"> F  </i>
   <i type="logical" name="LVTOT"> F  </i>
   <i type="logical" name="LVHAR"> F  </i>
   <i type="logical" name="LELF"> F  </i>
   <i type="logical" name="LOPTICS"> F  </i>
   <v name="STM">      0.00000000      0.00000000      0.00000000      0.00000000      0.00000000      0.00000000      0.00000000</v>
  </separator>
  <separator name="performance" >
   <i type="int" name="NPAR">     4</i>
   <i type="int" name="NSIM">     4</i>
   <i type="int" name="NBLK">    -1</i>
   <i type="logical" name="LPLANE"> T  </i>
   <i type="logical" name="LSCALAPACK"> T  </i>
   <i type="logical" name="LSCAAWARE"> F  </i>
   <i type="logical" name="LSCALU"> F  </i>
   <i type="logical" name="LASYNC"> F  </i>
   <i type="logical" name="LORBITALREAL"> F  </i>
  </separator>
  <separator name="miscellaneous" >
   <i type="int" name="IDIOT">     3</i>
   <i type="int" name="PHON_NSTRUCT">    -1</i>
   <i type="logical" name="LMUSIC"> F  </i>
   <v name="POMASS">     63.54600000      1.00000000</v>
   <v name="DARWINR">      0.00000000      0.00000000</v>
   <v name="DARWINV">      1.00000000      1.00000000</v>
   <i type="logical" name="LCORR"> T  </i>
  </separator>
  <i type="logical" name="GGA_COMPAT"> T  </i>
  <i type="logical" name="LBERRY"> F  </i>
  <i type="int" name="ICORELEVEL">     0</i>
  <i type="logical" name="LDAU"> F  </i>
  <i type="int" name="I_CONSTRAINED_M">     0</i>
  <separator name="electronic exchange-correlation" >
   <i type="string" name="GGA">PE</i>
   <i type="int" name="VOSKOWN">     0</i>
   <i type="logical" name="LHFCALC"> F  </i>
   <i type="string" name="PRECFOCK"></i>
   <i type="logical" name="LSYMGRAD"> F  </i>
   <i type="logical" name="LHFONE"> F  </i>
   <i type="logical" name="LRHFCALC"> F  </i>
   <i type="logical" name="LTHOMAS"> F  </i>
   <i type="logical" name="LMODELHF"> F  </i>
   <i type="logical" name="LFOCKACE"> F  </i>
   <i name="ENCUT4O">     -1.00000000</i>
   <i type="int" name="EXXOEP">     0</i>
   <i type="int" name="FOURORBIT">     0</i>
   <i name="AEXX">      0.00000000</i>
   <i name="HFALPHA">      0.00000000</i>
   <i name="MCALPHA">      0.00000000</i>
   <i name="ALDAX">      1.00000000</i>
   <i name="AGGAX">      1.00000000</i>
   <i name="ALDAC">      1.00000000</i>
   <i name="AGGAC">      1.00000000</i>
   <i type="int" name="NKREDX">     1</i>
   <i type="int" name="NKREDY">     1</i>
   <i type="int" name="NKREDZ">     1</i>
   <i type="logical" name="SHIFTRED"> F  </i>
   <i type="logical" name="ODDONLY"> F  </i>
   <i type="logical" name="EVENONLY"> F  </i>
   <i type="int" name="LMAXFOCK">     0</i>
   <i type="int" name="NMAXFOCKAE">     0</i>
   <i type="logical" name="LFOCKAEDFT"> F  </i>
   <i name="HFSCREEN">      0.00000000</i>
   <i name="HFSCREENC">      0.00000000</i>
   <i type="int" name="NBANDSGWLOW">     0</i>
  </separator>
  <separator name="vdW DFT" >
   <i type="logical" name="LUSE_VDW"> F  </i>
   <i name="Zab_VDW">     -0.84910000</i>
   <i name="PARAM1">      0.12340000</i>
   <i name="PARAM2">      1.00000000</i>
   <i name="PARAM3">      0.00000000</i>
  </separator>
  <separator name="model GW" >
   <i type="int" name="MODEL_GW">     0</i>
   <i name="MODEL_EPS0">     13.40810411</i>
   <i name="MODEL_ALPHA">      1.00000000</i>
  </separator>
  <separator name="linear response parameters" >
   <i type="logical" name="LEPSILON"> F  </i>
   <i type="logical" name="LRPA"> F  </i>
   <i type="logical" name="LNABLA"> F  </i>
   <i type="logical" name="LVEL"> F  </i>
   <i name="CSHIFT">      0.10000000</i>
   <i name="OMEGAMAX">     -1.00000000</i>
   <i name="DEG_THRESHOLD">      0.00200000</i>
   <i name="RTIME">     -0.10000000</i>
   <i name="WPLASMAI">      0.00000000</i>
   <v name="DFIELD">      0.00000000      0.00000000      0.00000000</v>
   <v name="WPLASMA">      0.00000000      0.00000000      0.00000000      0.00000000      0.00000000      0.00000000      0.00000000      0.00000000      0.00000000</v>
  </separator>
  <separator name="orbital magnetization" >
   <i type="logical" name="NUCIND"> F  </i>
   <v name="MAGPOS">      0.00000000      0.00000000      0.00000000</v>
   <i type="logical" name="LNICSALL"> T  </i>
   <i type="logical" name="ORBITALMAG"> F  </i>
   <i type="logical" name="LMAGBLOCH"> F  </i>
   <i type="logical" name="LCHIMAG"> F  </i>
   <i type="logical" name="LGAUGE"> T  </i>
   <i type="int" name="MAGATOM">     0</i>
   <v name="MAGDIPOL">      0.00000000      0.00000000      0.00000000</v>
   <v name="AVECCONST">      0.00000000      0.00000000      0.00000000</v>
  </separator>
  <separator name="response functions" >
   <i type="logical" name="LFINITE_TEMPERATURE"> F  </i>
   <i type="logical" name="LADDER"> F  </i>
   <i type="logical" name="LRPAFORCE"> F  </i>
   <i type="logical" name="LFXC"> F  </i>
   <i type="logical" name="LHARTREE"> T  </i>
   <i type="int" name="IBSE">     0</i>
   <v type="int" name="KPOINT">    -1     0     0     0</v>
   <i type="logical" name="LTCTC"> F  </i>
   <i type="logical" name="LTCTE"> F  </i>
   <i type="logical" name="LTETE"> F  </i>
   <i type="logical" name="LTRIPLET"> F  </i>
   <i type="logical" name="LFXCEPS"> F  </i>
   <i type="logical" name="LFXHEG"> F  </i>
   <i type="int" name="NATURALO">     2</i>
   <i type="logical" name="LHOLEGF"> F  </i>
   <i type="logical" name="L2ORDER"> F  </i>
   <i type="logical" name="LDMP1"> F  </i>
   <i type="logical" name="LMP2LT"> F  </i>
   <i type="logical" name="LSMP2LT"> F  </i>
   <i type="logical" name="LGWLF"> F  </i>
   <i name="ENCUTGW">     -2.00000000</i>
   <i name="ENCUTGWSOFT">     -2.00000000</i>
   <i name="ENCUTLF">     -1.00000000</i>
   <i type="logical" name="LESF_SPLINES"> F  </i>
   <i type="int" name="LMAXMP2">    -1</i>
   <i name="SCISSOR">      0.00000000</i>
   <i type="int" name="NOMEGA">     0</i>
   <i type="int" name="NOMEGAR">     0</i>
   <i type="int" name="NBANDSGW">    -1</i>
   <i type="int" name="NBANDSO">    -1</i>
   <i type="int" name="NBANDSV">    -1</i>
   <i type="int" name="NELMGW">     1</i>
   <i type="int" name="NELMHF">     1</i>
   <i type="int" name="DIM">     3</i>
   <i type="int" name="IESPILON">     4</i>
   <i type="int" name="ANTIRES">     0</i>
   <i name="OMEGAMAX">    -30.00000000</i>
   <i name="OMEGAMIN">    -30.00000000</i>
   <i name="OMEGATL">   -200.00000000</i>
   <i type="int" name="OMEGAGRID">     0</i>
   <i name="CSHIFT">     -0.10000000</i>
   <i type="logical" name="LSELFENERGY"> F  </i>
   <i type="logical" name="LSPECTRAL"> F  </i>
   <i type="logical" name="LSPECTRALGW"> F  </i>
   <i type="logical" name="LSINGLES"> F  </i>
   <i type="logical" name="LFERMIGW"> F  </i>
   <i type="logical" name="ODDONLYGW"> F  </i>
   <i type="logical" name="EVENONLYGW"> F  </i>
   <i type="int" name="NKREDLFX">     1</i>
   <i type="int" name="NKREDLFY">     1</i>
   <i type="int" name="NKREDLFZ">     1</i>
   <i type="int" name="MAXMEM">  2800</i>
   <i type="int" name="TELESCOPE">     0</i>
   <i type="int" name="NTAUPAR">    -1</i>
   <i type="int" name="NOMEGAPAR">    -1</i>
   <i name="DAMP_NEWTON">      0.80000001</i>
   <i name="LAMBDA">      1.00000000</i>
  </separator>
  <separator name="External order field" >
   <i name="OFIELD_KAPPA">      0.00000000</i>
   <v name="OFIELD_K">      0.00000000      0.00000000      0.00000000</v>
   <i name="OFIELD_Q6_NEAR">      0.00000000</i>
   <i name="OFIELD_Q6_FAR">      0.00000000</i>
   <i name="OFIELD_A">      0.00000000</i>
  </separator>
  <separator name="optional k-points parameters" >
   <i type="int" name="KPOINTS_OPT_MODE">     1</i>
   <i type="logical" name="LKPOINTS_OPT"> F  </i>
  </separator>
 </parameters>
 <atominfo>
  <atoms>      10 </atoms>
  <types>       2 </types>
  <array name="atoms" >
   <dimension dim="1">ion</dimension>
   <field type="string">element</field>
   <field type="int">atomtype</field>
   <set>
    <rc><c>Cu</c><c>   1</c></rc>
    <rc><c>Cu</c><c>   1</c></rc>
    <rc><c>Cu</c><c>   1</c></rc>
    <rc><c>Cu</c><c>   1</c></rc>
    <rc><c>Cu</c><c>   1</c></rc>
    <rc><c>Cu</c><c>   1</c></rc>
    <rc><c>Cu</c><c>   1</c></rc>
    <rc><c>Cu</c><c>   1</c></rc>
    <rc><c>H </c><c>   2</c></rc>
    <rc><c>H </c><c>   2</c></rc>
   </set>
  </array>
  <array name="atomtypes" >
   <dimension dim="1">type</dimension>
   <field type="int">atomspertype</field>
   <field type="string">element</field>
   <field>mass</field>
   <field>valence</field>
   <field type="string">pseudopotential</field>
   <set>
    <rc><c>   8</c><c>Cu</c><c>     63.54600000</c><c>     11.00000000</c><c>  PAW_PBE Cu 22Jun2005                  </c></rc>
    <rc><c>   2</c><c>H </c><c>      1.00000000</c><c>      1.00000000</c><c>  PAW_PBE H 15Jun2001                   </c></rc>
   </set>
  </array>
 </atominfo>
 <structure name="initialpos" >
  <crystal>
   <varray name="basis" >
    <v>       3.63000011       0.00000000       0.00000000 </v>
    <v>       0.00000000       2.56679773       0.00000000 </v>
    <v>       0.00000000       0.00000000      23.98379135 </v>
   </varray>
   <i name="volume">    223.46840188 </i>
   <varray name="rec_basis" >
    <v>       0.27548208       0.00000000       0.00000000 </v>
    <v>       0.00000000       0.38959050       0.00000000 </v>
    <v>       0.00000000       0.00000000       0.04169483 </v>
   </varray>
  </crystal>
  <varray name="positions" >
   <v>       0.00000000       0.00000000       0.00000000 </v>
   <v>       0.50000000       0.50000000       0.05351109 </v>
   <v>       0.00000000       0.00000000       0.10468148 </v>
   <v>       0.50000000       0.50000000       0.15792996 </v>
   <v>       0.00000000       0.00000000       0.21070899 </v>
   <v>       0.50000000       0.50000000       0.26289048 </v>
   <v>       0.00000000       0.00000000       0.31711592 </v>
   <v>       0.50000000       0.50000000       0.36467590 </v>
   <v>       0.50000000       0.50000000       0.42690792 </v>
   <v>       0.50000000       0.79063451       0.42690792 </v>
  </varray>
 </structure>
 <calculation>
  <scstep>
   <time name="dav">    0.32    0.32</time>
   <time name="total">    0.34    0.35</time>
   <energy>
    <i name="alphaZ">    216.17040255 </i>
    <i name="ewald">  42536.69931684 </i>
    <i name="hartreedc"> -53351.51348873 </i>
    <i name="XCdc">    371.92717308 </i>
    <i name="pawpsdc">   9828.36862813 </i>
    <i name="pawaedc"> -10674.97285505 </i>
    <i name="eentropy">     -0.00069997 </i>
    <i name="bandstr">    696.38465961 </i>
    <i name="atom">  11152.61838693 </i>
    <i name="e_fr_energy">    775.68152340 </i>
    <i name="e_wo_entrp">    775.68222336 </i>
    <i name="e_0_energy">    775.68175672 </i>
   </energy>
  </scstep>
  <scstep>
   <time name="dav">    0.30    0.31</time>
   <time name="total">    0.31    0.31</time>
   <energy>
    <i name="e_fr_energy">     58.73310581 </i>
    <i name="e_wo_entrp">     58.74693986 </i>
    <i name="e_0_energy">     58.73771716 </i>
   </energy>
  </scstep>
  <scstep>
   <time name="dav">    0.31    0.32</time>
   <time name="total">    0.31    0.32</time>
   <energy>
    <i name="e_fr_energy">    -32.13291935 </i>
    <i name="e_wo_entrp">    -32.14526475 </i>
    <i name="e_0_energy">    -32.13703449 </i>
   </energy>
  </scstep>
  <scstep>
   <time name="dav">    0.35    0.35</time>
   <time name="total">    0.35    0.35</time>
   <energy>
    <i name="e_fr_energy">    -35.97633583 </i>
    <i name="e_wo_entrp">    -35.98729317 </i>
    <i name="e_0_energy">    -35.97998828 </i>
   </energy>
  </scstep>
  <scstep>
   <time name="dav">    0.36    0.36</time>
   <time name="total">    0.42    0.42</time>
   <energy>
    <i name="e_fr_energy">    -36.06873543 </i>
    <i name="e_wo_entrp">    -36.07980771 </i>
    <i name="e_0_energy">    -36.07242619 </i>
   </energy>
  </scstep>
  <scstep>
   <time name="dav">    0.34    0.34</time>
   <time name="total">    0.41    0.42</time>
   <energy>
    <i name="e_fr_energy">    -27.94890761 </i>
    <i name="e_wo_entrp">    -27.94872701 </i>
    <i name="e_0_energy">    -27.94884741 </i>
   </energy>
  </scstep>
  <scstep>
   <time name="dav">    0.34    0.35</time>
   <time name="total">    0.42    0.42</time>
   <energy>
    <i name="e_fr_energy">    -26.28177259 </i>
    <i name="e_wo_entrp">    -26.28100791 </i>
    <i name="e_0_energy">    -26.28151770 </i>
   </energy>
  </scstep>
  <scstep>
   <time name="dav">    0.38    0.39</time>
   <time name="total">    0.46    0.46</time>
   <energy>
    <i name="e_fr_energy">    -25.92917021 </i>
    <i name="e_wo_entrp">    -25.93130808 </i>
    <i name="e_0_energy">    -25.92988283 </i>
   </energy>
  </scstep>
  <scstep>
   <time name="dav">    0.46    0.47</time>
   <time name="total">    0.54    0.54</time>
   <energy>
    <i name="e_fr_energy">    -26.02419205 </i>
    <i name="e_wo_entrp">    -26.02385706 </i>
    <i name="e_0_energy">    -26.02408039 </i>
   </energy>
  </scstep>
  <scstep>
   <time name="dav">    0.39    0.40</time>
   <time name="total">    0.48    0.48</time>
   <energy>
    <i name="e_fr_energy">    -26.50053631 </i>
    <i name="e_wo_entrp">    -26.49667761 </i>
    <i name="e_0_energy">    -26.49925008 </i>
   </energy>
  </scstep>
  <scstep>
   <time name="dav">    0.38    0.39</time>
   <time name="total">    0.46    0.46</time>
   <energy>
    <i name="e_fr_energy">    -28.31101006 </i>
    <i name="e_wo_entrp">    -28.29832657 </i>
    <i name="e_0_energy">    -28.30678223 </i>
   </energy>
  </scstep>
  <scstep>
   <time name="dav">    0.36    0.36</time>
   <time name="total">    0.43    0.44</time>
   <energy>
    <i name="e_fr_energy">    -29.60966739 </i>
    <i name="e_wo_entrp">    -29.60035511 </i>
    <i name="e_0_energy">    -29.60656329 </i>
   </energy>
  </scstep>
  <scstep>
   <time name="dav">    0.39    0.39</time>
   <time name="total">    0.46    0.47</time>
   <energy>
    <i name="e_fr_energy">    -31.92521544 </i>
    <i name="e_wo_entrp">    -31.91527083 </i>
    <i name="e_0_energy">    -31.92190057 </i>
   </energy>
  </scstep>
  <scstep>
   <time name="dav">    0.35    0.35</time>
   <time name="total">    0.42    0.42</time>
   <energy>
    <i name="e_fr_energy">    -33.51050278 </i>
    <i name="e_wo_entrp">    -33.49838971 </i>
    <i name="e_0_energy">    -33.50646509 </i>
   </energy>
  </scstep>
  <scstep>
   <time name="dav">    0.36    0.36</time>
   <time name="total">    0.44    0.44</time>
   <energy>
    <i name="e_fr_energy">    -34.08864994 </i>
    <i name="e_wo_entrp">    -34.08733056 </i>
    <i name="e_0_energy">    -34.08821015 </i>
   </energy>
  </scstep>
  <scstep>
   <time name="dav">    0.33    0.33</time>
   <time name="total">    0.40    0.41</time>
   <energy>
    <i name="e_fr_energy">    -34.37776219 </i>
    <i name="e_wo_entrp">    -34.38812456 </i>
    <i name="e_0_energy">    -34.38121632 </i>
   </energy>
  </scstep>
  <scstep>
   <time name="dav">    0.34    0.34</time>
   <time name="total">    0.41    0.41</time>
   <energy>
    <i name="e_fr_energy">    -34.56110665 </i>
    <i name="e_wo_entrp">    -34.57577939 </i>
    <i name="e_0_energy">    -34.56599756 </i>
   </energy>
  </scstep>
  <scstep>
   <time name="dav">    0.33    0.33</time>
   <time name="total">    0.41    0.41</time>
   <energy>
    <i name="e_fr_energy">    -34.64642617 </i>
    <i name="e_wo_entrp">    -34.66184359 </i>
    <i name="e_0_energy">    -34.65156531 </i>
   </energy>
  </scstep>
  <scstep>
   <time name="dav">    0.37    0.37</time>
   <time name="total">    0.44    0.44</time>
   <energy>
    <i name="e_fr_energy">    -34.70206643 </i>
    <i name="e_wo_entrp">    -34.71898875 </i>
    <i name="e_0_energy">    -34.70770721 </i>
   </energy>
  </scstep>
  <scstep>
   <time name="dav">    0.34    0.35</time>
   <time name="total">    0.42    0.42</time>
   <energy>
    <i name="e_fr_energy">    -34.74958754 </i>
    <i name="e_wo_entrp">    -34.76666199 </i>
    <i name="e_0_energy">    -34.75527902 </i>
   </energy>
  </scstep>
  <scstep>
   <time name="dav">    0.35    0.36</time>
   <time name="total">    0.43    0.43</time>
   <energy>
    <i name="e_fr_energy">    -34.78313598 </i>
    <i name="e_wo_entrp">    -34.80052097 </i>
    <i name="e_0_energy">    -34.78893098 </i>
   </energy>
  </scstep>
  <scstep>
   <time name="dav">    0.33    0.33</time>
   <time name="total">    0.41    0.41</time>
   <energy>
    <i name="e_fr_energy">    -34.82736358 </i>
    <i name="e_wo_entrp">    -34.84505943 </i>
    <i name="e_0_energy">    -34.83326219 </i>
   </energy>
  </scstep>
  <scstep>
   <time name="dav">    0.29    0.30</time>
   <time name="total">    0.37    0.37</time>
   <energy>
    <i name="e_fr_energy">    -34.86242813 </i>
    <i name="e_wo_entrp">    -34.88022338 </i>
    <i name="e_0_energy">    -34.86835988 </i>
   </energy>
  </scstep>
  <scstep>
   <time name="dav">    0.28    0.28</time>
   <time name="total">    0.36    0.36</time>
   <energy>
    <i name="e_fr_energy">    -34.89018982 </i>
    <i name="e_wo_entrp">    -34.90802204 </i>
    <i name="e_0_energy">    -34.89613389 </i>
   </energy>
  </scstep>
  <scstep>
   <time name="dav">    0.28    0.29</time>
   <time name="total">    0.36    0.37</time>
   <energy>
    <i name="e_fr_energy">    -34.90899383 </i>
    <i name="e_wo_entrp">    -34.92692708 </i>
    <i name="e_0_energy">    -34.91497158 </i>
   </energy>
  </scstep>
  <scstep>
   <time name="dav">    0.27    0.27</time>
   <time name="total">    0.35    0.35</time>
   <energy>
    <i name="e_fr_energy">    -34.91618789 </i>
    <i name="e_wo_entrp">    -34.93414484 </i>
    <i name="e_0_energy">    -34.92217354 </i>
   </energy>
  </scstep>
  <scstep>
   <time name="dav">    0.25    0.26</time>
   <time name="total">    0.33    0.34</time>
   <energy>
    <i name="e_fr_energy">    -34.91710902 </i>
    <i name="e_wo_entrp">    -34.93508614 </i>
    <i name="e_0_energy">    -34.92310139 </i>
   </energy>
  </scstep>
  <scstep>
   <time name="dav">    0.24    0.25</time>
   <time name="total">    0.32    0.32</time>
   <energy>
    <i name="e_fr_energy">    -34.91738129 </i>
    <i name="e_wo_entrp">    -34.93535465 </i>
    <i name="e_0_energy">    -34.92337241 </i>
   </energy>
  </scstep>
  <scstep>
   <time name="dav">    0.24    0.24</time>
   <time name="total">    0.26    0.27</time>
   <energy>
    <i name="alphaZ">    216.17040255 </i>
    <i name="ewald">  42536.69931684 </i>
    <i name="hartreedc"> -53292.35079368 </i>
    <i name="XCdc">    362.55040197 </i>
    <i name="pawpsdc">  10566.56721961 </i>
    <i name="pawaedc"> -11429.09591703 </i>
    <i name="eentropy">      0.01795867 </i>
    <i name="bandstr">   -148.09445274 </i>
    <i name="atom">  11152.61838693 </i>
    <i name="e_fr_energy">    -34.91747689 </i>
    <i name="e_wo_entrp">    -34.93543556 </i>
    <i name="e_0_energy">    -34.92346311 </i>
   </energy>
  </scstep>
  <structure>
   <crystal>
    <varray name="basis" >
     <v>       3.63000011       0.00000000       0.00000000 </v>
     <v>       0.00000000       2.56679773       0.00000000 </v>
     <v>       0.00000000       0.00000000      23.98379135 </v>
    </varray>
    <i name="volume">    223.46840188 </i>
    <varray name="rec_basis" >
     <v>       0.27548208       0.00000000       0.00000000 </v>
     <v>       0.00000000       0.38959050       0.00000000 </v>
     <v>       0.00000000       0.00000000       0.04169483 </v>
    </varray>
   </crystal>
   <varray name="positions" >
    <v>       0.00000000       0.00000000       0.00000000 </v>
    <v>       0.50000000       0.50000000       0.05351109 </v>
    <v>       0.00000000       0.00000000       0.10468148 </v>
    <v>       0.50000000       0.50000000       0.15792996 </v>
    <v>       0.00000000       0.00000000       0.21070899 </v>
    <v>       0.50000000       0.50000000       0.26289048 </v>
    <v>       0.00000000       0.00000000       0.31711592 </v>
    <v>       0.50000000       0.50000000       0.36467590 </v>
    <v>       0.50000000       0.50000000       0.42690792 </v>
    <v>       0.50000000       0.79063451       0.42690792 </v>
   </varray>
  </structure>
  <varray name="forces" >
   <v>       0.00000000       0.00023281       0.53578270 </v>
   <v>       0.00000000       0.00031299      -0.51273426 </v>
   <v>       0.00000000      -0.00265604       0.02423300 </v>
   <v>       0.00000000       0.00475332       0.16617398 </v>
   <v>       0.00000000       0.00140376      -0.34667148 </v>
   <v>       0.00000000      -0.02592390       0.12761631 </v>
   <v>       0.00000000       0.05238157      -0.22495635 </v>
   <v>       0.00000000       0.24001210      -1.93331738 </v>
   <v>       0.00000000      -1.98335148       1.99993498 </v>
   <v>       0.00000000       1.71283487       0.16393850 </v>
  </varray>
  <varray name="stress" >
   <v>     -37.10303984       0.00000000       0.00000000 </v>
   <v>       0.00000000     -16.38026275      -2.98851291 </v>
   <v>       0.00000000      -2.98851291      15.16455431 </v>
  </varray>
  <energy>
   <i name="e_fr_energy">    -38.14945046 </i>
   <i name="e_wo_entrp">    -38.16740913 </i>
   <i name="e_0_energy">    -38.15543669 </i>
  </energy>
  <time name="totalsc">   12.01   12.15</time>
 </calculation>
 <calculation>
  <scstep>
   <time name="dav">    0.32    0.32</time>
   <time name="total">    0.40    0.40</time>
   <energy>
    <i name="alphaZ">    216.17040255 </i>
    <i name="ewald">  42966.08691981 </i>
    <i name="hartreedc"> -53725.75320592 </i>
    <i name="XCdc">    362.43088913 </i>
    <i name="pawpsdc">  10566.59936659 </i>
    <i name="pawaedc"> -11429.13513052 </i>
    <i name="eentropy">      0.02041971 </i>
    <i name="bandstr">   -143.95424832 </i>
    <i name="atom">  11152.61838693 </i>
    <i name="e_fr_energy">    -34.91620005 </i>
    <i name="e_wo_entrp">    -34.93661976 </i>
    <i name="e_0_energy">    -34.92300662 </i>
   </energy>
  </scstep>
  <scstep>
   <time name="dav">    0.41    0.41</time>
   <time name="total">    0.48    0.49</time>
   <energy>
    <i name="e_fr_energy">    -35.05720460 </i>
    <i name="e_wo_entrp">    -35.07607899 </i>
    <i name="e_0_energy">    -35.06349606 </i>
   </energy>
  </scstep>
  <scstep>
   <time name="dav">    0.36    0.36</time>
   <time name="total">    0.43    0.43</time>
   <energy>
    <i name="e_fr_energy">    -35.04480370 </i>
    <i name="e_wo_entrp">    -35.06458979 </i>
    <i name="e_0_energy">    -35.05139906 </i>
   </energy>
  </scstep>
  <scstep>
   <time name="dav">    0.37    0.37</time>
   <time name="total">    0.44    0.45</time>
   <energy>
    <i name="e_fr_energy">    -35.04274662 </i>
    <i name="e_wo_entrp">    -35.06275071 </i>
    <i name="e_0_energy">    -35.04941465 </i>
   </energy>
  </scstep>
  <scstep>
   <time name="dav">    0.41    0.41</time>
   <time name="total">    0.48    0.49</time>
   <energy>
    <i name="e_fr_energy">    -35.03889391 </i>
    <i name="e_wo_entrp">    -35.05912511 </i>
    <i name="e_0_energy">    -35.04563764 </i>
   </energy>
  </scstep>
  <scstep>
   <time name="dav">    0.45    0.45</time>
   <time name="total">    0.52    0.53</time>
   <energy>
    <i name="e_fr_energy">    -35.03792077 </i>
    <i name="e_wo_entrp">    -35.05839715 </i>
    <i name="e_0_energy">    -35.04474623 </i>
   </energy>
  </scstep>
  <scstep>
   <time name="dav">    0.38    0.38</time>
   <time name="total">    0.45    0.45</time>
   <energy>
    <i name="e_fr_energy">    -35.03804747 </i>
    <i name="e_wo_entrp">    -35.05852669 </i>
    <i name="e_0_energy">    -35.04487388 </i>
   </energy>
  </scstep>
  <scstep>
   <time name="dav">    0.32    0.32</time>
   <time name="total">    0.34    0.35</time>
   <energy>
    <i name="alphaZ">    216.17040255 </i>
    <i name="ewald">  42966.08691981 </i>
    <i name="hartreedc"> -53719.36980184 </i>
    <i name="XCdc">    362.24273426 </i>
    <i name="pawpsdc">  10554.56175736 </i>
    <i name="pawaedc"> -11417.16229904 </i>
    <i name="eentropy">      0.02048027 </i>
    <i name="bandstr">   -150.20672206 </i>
    <i name="atom">  11152.61838693 </i>
    <i name="e_fr_energy">    -35.03814178 </i>
    <i name="e_wo_entrp">    -35.05862205 </i>
    <i name="e_0_energy">    -35.04496853 </i>
   </energy>
  </scstep>
  <structure>
   <crystal>
    <varray name="basis" >
     <v>       3.63000011       0.00000000       0.00000000 </v>
     <v>       0.00000000       2.56679773       0.00000000 </v>
     <v>       0.00000000       0.00000000      23.98379135 </v>
    </varray>
    <i name="volume">    223.46840188 </i>
    <varray name="rec_basis" >
     <v>       0.27548208       0.00000000       0.00000000 </v>
     <v>       0.00000000       0.38959050       0.00000000 </v>
     <v>       0.00000000       0.00000000       0.04169483 </v>
    </varray>
   </crystal>
   <varray name="positions" >
    <v>       0.00000000       0.00000438       0.00107771 </v>
    <v>       0.50000000       0.50000588       0.05247974 </v>
    <v>       0.00000000      -0.00004992       0.10473022 </v>
    <v>       0.50000000       0.50008934       0.15826421 </v>
    <v>       0.00000000       0.00002638       0.21001167 </v>
    <v>       0.50000000       0.49951276       0.26314717 </v>
    <v>       0.00000000       0.00098451       0.31666342 </v>
    <v>       0.50000000       0.50451100       0.36078709 </v>
    <v>       0.50000000       0.46272315       0.43093073 </v>
    <v>       0.50000000       0.82282703       0.42723768 </v>
   </varray>
  </structure>
  <varray name="forces" >
   <v>       0.00000000       0.00093076       0.35951346 </v>
   <v>       0.00000000       0.00047498      -0.29540134 </v>
   <v>       0.00000000      -0.00053597       0.01699000 </v>
   <v>       0.00000000       0.00287813       0.03606981 </v>
   <v>       0.00000000      -0.00065388      -0.24324166 </v>
   <v>       0.00000000      -0.01193843      -0.36030152 </v>
   <v>       0.00000000       0.05853613      -0.35130338 </v>
   <v>       0.00000000       0.17730222       0.50787139 </v>
   <v>       0.00000000       1.50204678       0.32073621 </v>
   <v>       0.00000000      -1.72904074       0.00906702 </v>
  </varray>
  <varray name="stress" >
   <v>     -32.08519808       0.00000000       0.00000000 </v>
   <v>       0.00000000     -36.75341725      -1.97746890 </v>
   <v>       0.00000000      -1.97746889       4.88604106 </v>
  </varray>
  <energy>
   <i name="e_fr_energy">    -38.28454426 </i>
   <i name="e_wo_entrp">    -38.30502453 </i>
   <i name="e_0_energy">    -38.29137102 </i>
  </energy>
  <time name="totalsc">    4.05    4.15</time>
 </calculation>
 <calculation>
  <scstep>
   <time name="dav">    0.31    0.31</time>
   <time name="total">    0.39    0.39</time>
   <energy>
    <i name="alphaZ">    216.17040255 </i>
    <i name="ewald">  42788.30515810 </i>
    <i name="hartreedc"> -53540.06711605 </i>
    <i name="XCdc">    362.28649727 </i>
    <i name="pawpsdc">  10554.98162564 </i>
    <i name="pawaedc"> -11417.57888637 </i>
    <i name="eentropy">      0.02031227 </i>
    <i name="bandstr">   -151.83001980 </i>
    <i name="atom">  11152.61838693 </i>
    <i name="e_fr_energy">    -35.09363946 </i>
    <i name="e_wo_entrp">    -35.11395173 </i>
    <i name="e_0_energy">    -35.10041021 </i>
   </energy>
  </scstep>
  <scstep>
   <time name="dav">    0.38    0.39</time>
   <time name="total">    0.46    0.46</time>
   <energy>
    <i name="e_fr_energy">    -35.11556964 </i>
    <i name="e_wo_entrp">    -35.13602299 </i>
    <i name="e_0_energy">    -35.12238742 </i>
   </energy>
  </scstep>
  <scstep>
   <time name="dav">    0.37    0.37</time>
   <time name="total">    0.44    0.45</time>
   <energy>
    <i name="e_fr_energy">    -35.11517998 </i>
    <i name="e_wo_entrp">    -35.13507227 </i>
    <i name="e_0_energy">    -35.12181074 </i>
   </energy>
  </scstep>
  <scstep>
   <time name="dav">    0.34    0.34</time>
   <time name="total">    0.42    0.42</time>
   <energy>
    <i name="e_fr_energy">    -35.11457075 </i>
    <i name="e_wo_entrp">    -35.13514570 </i>
    <i name="e_0_energy">    -35.12142907 </i>
   </energy>
  </scstep>
  <scstep>
   <time name="dav">    0.44    0.44</time>
   <time name="total">    0.51    0.52</time>
   <energy>
    <i name="e_fr_energy">    -35.11373814 </i>
    <i name="e_wo_entrp">    -35.13401876 </i>
    <i name="e_0_energy">    -35.12049835 </i>
   </energy>
  </scstep>
  <scstep>
   <time name="dav">    0.32    0.32</time>
   <time name="total">    0.34    0.34</time>
   <energy>
    <i name="alphaZ">    216.17040255 </i>
    <i name="ewald">  42788.30515810 </i>
    <i name="hartreedc"> -53541.85789896 </i>
    <i name="XCdc">    362.34986798 </i>
    <i name="pawpsdc">  10557.09301127 </i>
    <i name="pawaedc"> -11419.63737730 </i>
    <i name="eentropy">      0.02038021 </i>
    <i name="bandstr">   -150.17567237 </i>
    <i name="atom">  11152.61838693 </i>
    <i name="e_fr_energy">    -35.11374160 </i>
    <i name="e_wo_entrp">    -35.13412181 </i>
    <i name="e_0_energy">    -35.12053501 </i>
   </energy>
  </scstep>
  <structure>
   <crystal>
    <varray name="basis" >
     <v>       3.63000011       0.00000000       0.00000000 </v>
     <v>       0.00000000       2.56679773       0.00000000 </v>
     <v>       0.00000000       0.00000000      23.98379135 </v>
    </varray>
    <i name="volume">    223.46840188 </i>
    <varray name="rec_basis" >
     <v>       0.27548208       0.00000000       0.00000000 </v>
     <v>       0.00000000       0.38959050       0.00000000 </v>
     <v>       0.00000000       0.00000000       0.04169483 </v>
    </varray>
   </crystal>
   <varray name="positions" >
    <v>       0.00000000       0.00000257       0.00063396 </v>
    <v>       0.50000000       0.50000346       0.05290440 </v>
    <v>       0.00000000      -0.00002937       0.10471015 </v>
    <v>       0.50000000       0.50005255       0.15812658 </v>
    <v>       0.00000000       0.00001552       0.21029879 </v>
    <v>       0.50000000       0.49971338       0.26304148 </v>
    <v>       0.00000000       0.00057913       0.31684974 </v>
    <v>       0.50000000       0.50265358       0.36238832 </v>
    <v>       0.50000000       0.47807197       0.42927433 </v>
    <v>       0.50000000       0.80957169       0.42710190 </v>
   </varray>
  </structure>
  <varray name="forces" >
   <v>       0.00000000       0.00019556       0.45856747 </v>
   <v>       0.00000000       0.00003169      -0.40190452 </v>
   <v>       0.00000000      -0.00222086       0.02892079 </v>
   <v>       0.00000000       0.00357595       0.10302534 </v>
   <v>       0.00000000      -0.00040346      -0.29791456 </v>
   <v>       0.00000000      -0.01921018      -0.12616661 </v>
   <v>       0.00000000       0.05710124      -0.30818266 </v>
   <v>       0.00000000       0.26285952      -0.27680983 </v>
   <v>       0.00000000       0.64193239       0.86917082 </v>
   <v>       0.00000000      -0.94386183      -0.04870625 </v>
  </varray>
  <varray name="stress" >
   <v>     -34.49942275       0.00000000       0.00000000 </v>
   <v>       0.00000000     -30.93909697      -3.27734110 </v>
   <v>       0.00000000      -3.27734115       6.30614741 </v>
  </varray>
  <energy>
   <i name="e_fr_energy">    -38.34882375 </i>
   <i name="e_wo_entrp">    -38.36920395 </i>
   <i name="e_0_energy">    -38.35561715 </i>
  </energy>
  <time name="totalsc">    3.05    3.19</time>
 </calculation>
 <calculation>
  <scstep>
   <time name="dav">    0.32    0.32</time>
   <time name="total">    0.39    0.40</time>
   <energy>
    <i name="alphaZ">    216.17040255 </i>
    <i name="ewald">  42996.91292254 </i>
    <i name="hartreedc"> -53750.41270419 </i>
    <i name="XCdc">    362.39670420 </i>
    <i name="pawpsdc">  10557.04616554 </i>
    <i name="pawaedc"> -11419.59452368 </i>
    <i name="eentropy">      0.02010704 </i>
    <i name="bandstr">   -150.32766565 </i>
    <i name="atom">  11152.61838693 </i>
    <i name="e_fr_energy">    -35.17020473 </i>
    <i name="e_wo_entrp">    -35.19031177 </i>
    <i name="e_0_energy">    -35.17690708 </i>
   </energy>
  </scstep>
  <scstep>
   <time name="dav">    0.39    0.39</time>
   <time name="total">    0.46    0.47</time>
   <energy>
    <i name="e_fr_energy">    -35.20257115 </i>
    <i name="e_wo_entrp">    -35.22162753 </i>
    <i name="e_0_energy">    -35.20892327 </i>
   </energy>
  </scstep>
  <scstep>
   <time name="dav">    0.33    0.33</time>
   <time name="total">    0.41    0.41</time>
   <energy>
    <i name="e_fr_energy">    -35.20183235 </i>
    <i name="e_wo_entrp">    -35.22202312 </i>
    <i name="e_0_energy">    -35.20856261 </i>
   </energy>
  </scstep>
  <scstep>
   <time name="dav">    0.34    0.34</time>
   <time name="total">    0.41    0.41</time>
   <energy>
    <i name="e_fr_energy">    -35.20111133 </i>
    <i name="e_wo_entrp">    -35.22084937 </i>
    <i name="e_0_energy">    -35.20769067 </i>
   </energy>
  </scstep>
  <scstep>
   <time name="dav">    0.38    0.38</time>
   <time name="total">    0.45    0.46</time>
   <energy>
    <i name="e_fr_energy">    -35.20084944 </i>
    <i name="e_wo_entrp">    -35.22099012 </i>
    <i name="e_0_energy">    -35.20756300 </i>
   </energy>
  </scstep>
  <scstep>
   <time name="dav">    0.33    0.33</time>
   <time name="total">    0.40    0.41</time>
   <energy>
    <i name="e_fr_energy">    -35.20064674 </i>
    <i name="e_wo_entrp">    -35.22047125 </i>
    <i name="e_0_energy">    -35.20725491 </i>
   </energy>
  </scstep>
  <scstep>
   <time name="dav">    0.31    0.32</time>
   <time name="total">    0.34    0.34</time>
   <energy>
    <i name="alphaZ">    216.17040255 </i>
    <i name="ewald">  42996.91292254 </i>
    <i name="hartreedc"> -53751.17859721 </i>
    <i name="XCdc">    362.43082486 </i>
    <i name="pawpsdc">  10562.27848001 </i>
    <i name="pawaedc"> -11424.91436715 </i>
    <i name="eentropy">      0.01990051 </i>
    <i name="bandstr">   -149.53863374 </i>
    <i name="atom">  11152.61838693 </i>
    <i name="e_fr_energy">    -35.20068071 </i>
    <i name="e_wo_entrp">    -35.22058121 </i>
    <i name="e_0_energy">    -35.20731421 </i>
   </energy>
  </scstep>
  <structure>
   <crystal>
    <varray name="basis" >
     <v>       3.63000011       0.00000000       0.00000000 </v>
     <v>       0.00000000       2.56679773       0.00000000 </v>
     <v>       0.00000000       0.00000000      23.98379135 </v>
    </varray>
    <i name="volume">    223.46840188 </i>
    <varray name="rec_basis" >
     <v>       0.27548208       0.00000000       0.00000000 </v>
     <v>       0.00000000       0.38959050       0.00000000 </v>
     <v>       0.00000000       0.00000000       0.04169483 </v>
    </varray>
   </crystal>
   <varray name="positions" >
    <v>       0.00000000       0.00000665       0.00165472 </v>
    <v>       0.50000000       0.50000496       0.05199573 </v>
    <v>       0.00000000      -0.00007574       0.10477142 </v>
    <v>       0.50000000       0.50012868       0.15837081 </v>
    <v>       0.00000000       0.00001283       0.20963610 </v>
    <v>       0.50000000       0.49930325       0.26285012 </v>
    <v>       0.00000000       0.00172321       0.31620770 </v>
    <v>       0.50000000       0.50791682       0.36124835 </v>
    <v>       0.50000000       0.48311385       0.43152936 </v>
    <v>       0.50000000       0.79850000       0.42706534 </v>
   </varray>
  </structure>
  <varray name="forces" >
   <v>       0.00000000       0.00050174       0.28190910 </v>
   <v>       0.00000000      -0.00003108      -0.20479664 </v>
   <v>       0.00000000      -0.00039565       0.01221474 </v>
   <v>       0.00000000       0.00145946      -0.04086514 </v>
   <v>       0.00000000      -0.00172022      -0.19441508 </v>
   <v>       0.00000000      -0.00916070      -0.24280236 </v>
   <v>       0.00000000       0.07220933      -0.26051124 </v>
   <v>       0.00000000       0.15317723       0.12482538 </v>
   <v>       0.00000000       0.23002482       0.48852165 </v>
   <v>       0.00000000      -0.44606493       0.03591958 </v>
  </varray>
  <varray name="stress" >
   <v>     -33.11313628       0.00000000       0.00000000 </v>
   <v>       0.00000000     -27.98327102      -2.63385713 </v>
   <v>       0.00000000      -2.63385707       6.09790036 </v>
  </varray>
  <energy>
   <i name="e_fr_energy">    -38.43926189 </i>
   <i name="e_wo_entrp">    -38.45916240 </i>
   <i name="e_0_energy">    -38.44589539 </i>
  </energy>
  <time name="totalsc">    3.36    3.43</time>
 </calculation>
 <calculation>
  <scstep>
   <time name="dav">    0.31    0.31</time>
   <time name="total">    0.39    0.39</time>
   <energy>
    <i name="alphaZ">    216.17040255 </i>
    <i name="ewald">  43366.96585117 </i>
    <i name="hartreedc"> -54120.70809121 </i>
    <i name="XCdc">    362.54021110 </i>
    <i name="pawpsdc">  10562.32164514 </i>
    <i name="pawaedc"> -11424.95696729 </i>
    <i name="eentropy">      0.01683062 </i>
    <i name="bandstr">   -150.09362420 </i>
    <i name="atom">  11152.61838693 </i>
    <i name="e_fr_energy">    -35.12535520 </i>
    <i name="e_wo_entrp">    -35.14218582 </i>
    <i name="e_0_energy">    -35.13096541 </i>
   </energy>
  </scstep>
  <scstep>
   <time name="dav">    0.38    0.38</time>
   <time name="total">    0.45    0.46</time>
   <energy>
    <i name="e_fr_energy">    -35.23169539 </i>
    <i name="e_wo_entrp">    -35.24701675 </i>
    <i name="e_0_energy">    -35.23680251 </i>
   </energy>
  </scstep>
  <scstep>
   <time name="dav">    0.35    0.35</time>
   <time name="total">    0.42    0.43</time>
   <energy>
    <i name="e_fr_energy">    -35.22811617 </i>
    <i name="e_wo_entrp">    -35.24506406 </i>
    <i name="e_0_energy">    -35.23376547 </i>
   </energy>
  </scstep>
  <scstep>
   <time name="dav">    0.35    0.35</time>
   <time name="total">    0.42    0.42</time>
   <energy>
    <i name="e_fr_energy">    -35.22610253 </i>
    <i name="e_wo_entrp">    -35.24213866 </i>
    <i name="e_0_energy">    -35.23144790 </i>
   </energy>
  </scstep>
  <scstep>
   <time name="dav">    0.38    0.38</time>
   <time name="total">    0.46    0.46</time>
   <energy>
    <i name="e_fr_energy">    -35.22506404 </i>
    <i name="e_wo_entrp">    -35.24193880 </i>
    <i name="e_0_energy">    -35.23068896 </i>
   </energy>
  </scstep>
  <scstep>
   <time name="dav">    0.33    0.34</time>
   <time name="total">    0.41    0.41</time>
   <energy>
    <i name="e_fr_energy">    -35.22435077 </i>
    <i name="e_wo_entrp">    -35.24063183 </i>
    <i name="e_0_energy">    -35.22977779 </i>
   </energy>
  </scstep>
  <scstep>
   <time name="dav">    0.38    0.39</time>
   <time name="total">    0.46    0.46</time>
   <energy>
    <i name="e_fr_energy">    -35.22451712 </i>
    <i name="e_wo_entrp">    -35.24087555 </i>
    <i name="e_0_energy">    -35.22996993 </i>
   </energy>
  </scstep>
  <scstep>
   <time name="dav">    0.24    0.25</time>
   <time name="total">    0.27    0.27</time>
   <energy>
    <i name="alphaZ">    216.17040255 </i>
    <i name="ewald">  43366.96585117 </i>
    <i name="hartreedc"> -54120.34911148 </i>
    <i name="XCdc">    362.58767862 </i>
    <i name="pawpsdc">  10579.09031483 </i>
    <i name="pawaedc"> -11442.03145327 </i>
    <i name="eentropy">      0.01639888 </i>
    <i name="bandstr">   -150.29299082 </i>
    <i name="atom">  11152.61838693 </i>
    <i name="e_fr_energy">    -35.22452260 </i>
    <i name="e_wo_entrp">    -35.24092148 </i>
    <i name="e_0_energy">    -35.22998890 </i>
   </energy>
  </scstep>
  <structure>
   <crystal>
    <varray name="basis" >
     <v>       3.63000011       0.00000000       0.00000000 </v>
     <v>       0.00000000       2.56679773       0.00000000 </v>
     <v>       0.00000000       0.00000000      23.98379135 </v>
    </varray>
    <i name="volume">    223.46840188 </i>
    <varray name="rec_basis" >
     <v>       0.27548208       0.00000000       0.00000000 </v>
     <v>       0.00000000       0.38959050       0.00000000 </v>
     <v>       0.00000000       0.00000000       0.04169483 </v>
    </varray>
   </crystal>
   <varray name="positions" >
    <v>       0.00000000       0.00001386       0.00345633 </v>
    <v>       0.50000000       0.50000760       0.05039195 </v>
    <v>       0.00000000      -0.00015760       0.10487955 </v>
    <v>       0.50000000       0.50026304       0.15880188 </v>
    <v>       0.00000000       0.00000808       0.20846647 </v>
    <v>       0.50000000       0.49857938       0.26251237 </v>
    <v>       0.00000000       0.00374248       0.31507450 </v>
    <v>       0.50000000       0.51720632       0.35923634 </v>
    <v>       0.50000000       0.49201267       0.43550945 </v>
    <v>       0.50000000       0.77895868       0.42700080 </v>
   </varray>
  </structure>
  <varray name="forces" >
   <v>       0.00000000       0.00025371       0.00486537 </v>
   <v>       0.00000000       0.00006225       0.09368748 </v>
   <v>       0.00000000       0.00143388       0.00391794 </v>
   <v>       0.00000000      -0.00172550      -0.25307508 </v>
   <v>       0.00000000      -0.00396307       0.00285969 </v>
   <v>       0.00000000       0.00109469      -0.45838850 </v>
   <v>       0.00000000       0.09966024      -0.20970080 </v>
   <v>       0.00000000      -0.00375760       0.50351423 </v>
   <v>       0.00000000      -0.72704352       0.36547236 </v>
   <v>       0.00000000       0.63398492      -0.05315267 </v>
  </varray>
  <varray name="stress" >
   <v>     -29.91261266       0.00000000       0.00000000 </v>
   <v>       0.00000000     -22.87509304      -2.75365447 </v>
   <v>       0.00000000      -2.75365438       9.95039913 </v>
  </varray>
  <energy>
   <i name="e_fr_energy">    -38.47055021 </i>
   <i name="e_wo_entrp">    -38.48694909 </i>
   <i name="e_0_energy">    -38.47601650 </i>
  </energy>
  <time name="totalsc">    3.76    3.85</time>
 </calculation>
 <calculation>
  <scstep>
   <time name="dav">    0.31    0.31</time>
   <time name="total">    0.38    0.39</time>
   <energy>
    <i name="alphaZ">    216.17040255 </i>
    <i name="ewald">  43277.20275550 </i>
    <i name="hartreedc"> -54030.99704596 </i>
    <i name="XCdc">    362.56080688 </i>
    <i name="pawpsdc">  10579.19042234 </i>
    <i name="pawaedc"> -11442.11610183 </i>
    <i name="eentropy">      0.01696068 </i>
    <i name="bandstr">   -149.87293346 </i>
    <i name="atom">  11152.61838693 </i>
    <i name="e_fr_energy">    -35.22634635 </i>
    <i name="e_wo_entrp">    -35.24330704 </i>
    <i name="e_0_energy">    -35.23199991 </i>
   </energy>
  </scstep>
  <scstep>
   <time name="dav">    0.39    0.39</time>
   <time name="total">    0.46    0.47</time>
   <energy>
    <i name="e_fr_energy">    -35.23164869 </i>
    <i name="e_wo_entrp">    -35.24895661 </i>
    <i name="e_0_energy">    -35.23741799 </i>
   </energy>
  </scstep>
  <scstep>
   <time name="dav">    0.34    0.34</time>
   <time name="total">    0.41    0.42</time>
   <energy>
    <i name="e_fr_energy">    -35.23147449 </i>
    <i name="e_wo_entrp">    -35.24838515 </i>
    <i name="e_0_energy">    -35.23711138 </i>
   </energy>
  </scstep>
  <scstep>
   <time name="dav">    0.31    0.31</time>
   <time name="total">    0.33    0.33</time>
   <energy>
    <i name="alphaZ">    216.17040255 </i>
    <i name="ewald">  43277.20275550 </i>
    <i name="hartreedc"> -54031.50179154 </i>
    <i name="XCdc">    362.55083848 </i>
    <i name="pawpsdc">  10576.56701171 </i>
    <i name="pawaedc"> -11439.40410097 </i>
    <i name="eentropy">      0.01723937 </i>
    <i name="bandstr">   -149.45210567 </i>
    <i name="atom">  11152.61838693 </i>
    <i name="e_fr_energy">    -35.23136364 </i>
    <i name="e_wo_entrp">    -35.24860300 </i>
    <i name="e_0_energy">    -35.23711009 </i>
   </energy>
  </scstep>
  <structure>
   <crystal>
    <varray name="basis" >
     <v>       3.63000011       0.00000000       0.00000000 </v>
     <v>       0.00000000       2.56679773       0.00000000 </v>
     <v>       0.00000000       0.00000000      23.98379135 </v>
    </varray>
    <i name="volume">    223.46840188 </i>
    <varray name="rec_basis" >
     <v>       0.27548208       0.00000000       0.00000000 </v>
     <v>       0.00000000       0.38959050       0.00000000 </v>
     <v>       0.00000000       0.00000000       0.04169483 </v>
    </varray>
   </crystal>
   <varray name="positions" >
    <v>       0.00000000       0.00001211       0.00302024 </v>
    <v>       0.50000000       0.50000696       0.05078016 </v>
    <v>       0.00000000      -0.00013779       0.10485338 </v>
    <v>       0.50000000       0.50023052       0.15869754 </v>
    <v>       0.00000000       0.00000923       0.20874958 </v>
    <v>       0.50000000       0.49875460       0.26259413 </v>
    <v>       0.00000000       0.00325371       0.31534880 </v>
    <v>       0.50000000       0.51495775       0.35972336 </v>
    <v>       0.50000000       0.48985867       0.43454605 </v>
    <v>       0.50000000       0.78368876       0.42701642 </v>
   </varray>
  </structure>
  <varray name="forces" >
   <v>       0.00000000       0.00081544       0.07930965 </v>
   <v>       0.00000000       0.00055217       0.01694296 </v>
   <v>       0.00000000       0.00116575       0.00754552 </v>
   <v>       0.00000000      -0.00041810      -0.19747698 </v>
   <v>       0.00000000      -0.00303756      -0.05524070 </v>
   <v>       0.00000000      -0.00047982      -0.40118714 </v>
   <v>       0.00000000       0.09258053      -0.21189453 </v>
   <v>       0.00000000       0.02712084       0.42331256 </v>
   <v>       0.00000000      -0.48878002       0.34098975 </v>
   <v>       0.00000000       0.37048077      -0.00230110 </v>
  </varray>
  <varray name="stress" >
   <v>     -27.88044898       0.00000000       0.00000000 </v>
   <v>       0.00000000     -21.09273040      -2.54038958 </v>
   <v>       0.00000000      -2.54038957      11.28944151 </v>
  </varray>
  <energy>
   <i name="e_fr_energy">    -38.47547054 </i>
   <i name="e_wo_entrp">    -38.49270991 </i>
   <i name="e_0_energy">    -38.48121699 </i>
  </energy>
  <time name="totalsc">    2.08    2.16</time>
 </calculation>
 <calculation>
  <scstep>
   <time name="dav">    0.31    0.31</time>
   <time name="total">    0.39    0.39</time>
   <energy>
    <i name="alphaZ">    216.17040255 </i>
    <i name="ewald">  43383.87803019 </i>
    <i name="hartreedc"> -54139.27208621 </i>
    <i name="XCdc">    362.51894296 </i>
    <i name="pawpsdc">  10575.04850563 </i>
    <i name="pawaedc"> -11437.91176788 </i>
    <i name="eentropy">      0.01741592 </i>
    <i name="bandstr">   -148.30251821 </i>
    <i name="atom">  11152.61838693 </i>
    <i name="e_fr_energy">    -35.23468811 </i>
    <i name="e_wo_entrp">    -35.25210403 </i>
    <i name="e_0_energy">    -35.24049342 </i>
   </energy>
  </scstep>
  <scstep>
   <time name="dav">    0.39    0.39</time>
   <time name="total">    0.46    0.47</time>
   <energy>
    <i name="e_fr_energy">    -35.25643811 </i>
    <i name="e_wo_entrp">    -35.27374925 </i>
    <i name="e_0_energy">    -35.26220849 </i>
   </energy>
  </scstep>
  <scstep>
   <time name="dav">    0.34    0.35</time>
   <time name="total">    0.42    0.42</time>
   <energy>
    <i name="e_fr_energy">    -35.25528773 </i>
    <i name="e_wo_entrp">    -35.27236658 </i>
    <i name="e_0_energy">    -35.26098068 </i>
   </energy>
  </scstep>
  <scstep>
   <time name="dav">    0.33    0.33</time>
   <time name="total">    0.40    0.40</time>
   <energy>
    <i name="e_fr_energy">    -35.25487843 </i>
    <i name="e_wo_entrp">    -35.27241795 </i>
    <i name="e_0_energy">    -35.26072494 </i>
   </energy>
  </scstep>
  <scstep>
   <time name="dav">    0.44    0.44</time>
   <time name="total">    0.52    0.52</time>
   <energy>
    <i name="e_fr_energy">    -35.25473739 </i>
    <i name="e_wo_entrp">    -35.27159051 </i>
    <i name="e_0_energy">    -35.26035510 </i>
   </energy>
  </scstep>
  <scstep>
   <time name="dav">    0.29    0.29</time>
   <time name="total">    0.37    0.37</time>
   <energy>
    <i name="e_fr_energy">    -35.25450348 </i>
    <i name="e_wo_entrp">    -35.27180453 </i>
    <i name="e_0_energy">    -35.26027050 </i>
   </energy>
  </scstep>
  <scstep>
   <time name="dav">    0.24    0.24</time>
   <time name="total">    0.26    0.26</time>
   <energy>
    <i name="alphaZ">    216.17040255 </i>
    <i name="ewald">  43383.87803019 </i>
    <i name="hartreedc"> -54136.83521089 </i>
    <i name="XCdc">    362.47643316 </i>
    <i name="pawpsdc">  10571.80040971 </i>
    <i name="pawaedc"> -11434.62738191 </i>
    <i name="eentropy">      0.01717769 </i>
    <i name="bandstr">   -150.75271209 </i>
    <i name="atom">  11152.61838693 </i>
    <i name="e_fr_energy">    -35.25446467 </i>
    <i name="e_wo_entrp">    -35.27164236 </i>
    <i name="e_0_energy">    -35.26019057 </i>
   </energy>
  </scstep>
  <structure>
   <crystal>
    <varray name="basis" >
     <v>       3.63000011       0.00000000       0.00000000 </v>
     <v>       0.00000000       2.56679773       0.00000000 </v>
     <v>       0.00000000       0.00000000      23.98379135 </v>
    </varray>
    <i name="volume">    223.46840188 </i>
    <varray name="rec_basis" >
     <v>       0.27548208       0.00000000       0.00000000 </v>
     <v>       0.00000000       0.38959050       0.00000000 </v>
     <v>       0.00000000       0.00000000       0.04169483 </v>
    </varray>
   </crystal>
   <varray name="positions" >
    <v>       0.00000000       0.00003228       0.00379198 </v>
    <v>       0.50000000       0.50001989       0.05029798 </v>
    <v>       0.00000000      -0.00013893       0.10490621 </v>
    <v>       0.50000000       0.50026509       0.15837576 </v>
    <v>       0.00000000      -0.00005872       0.20823978 </v>
    <v>       0.50000000       0.49850858       0.26154559 </v>
    <v>       0.00000000       0.00593467       0.31448433 </v>
    <v>       0.50000000       0.51857313       0.36005913 </v>
    <v>       0.50000000       0.48206851       0.43663884 </v>
    <v>       0.50000000       0.78543002       0.42699004 </v>
   </varray>
  </structure>
  <varray name="forces" >
   <v>       0.00000000       0.00135441      -0.06755049 </v>
   <v>       0.00000000       0.00088929       0.11644199 </v>
   <v>       0.00000000       0.00265990      -0.01582642 </v>
   <v>       0.00000000      -0.00144232      -0.24519130 </v>
   <v>       0.00000000      -0.00343140      -0.01765425 </v>
   <v>       0.00000000       0.01903237      -0.13729337 </v>
   <v>       0.00000000       0.07086885      -0.15706334 </v>
   <v>       0.00000000      -0.02528934       0.31562963 </v>
   <v>       0.00000000       0.35587571      -0.00520035 </v>
   <v>       0.00000000      -0.42051747       0.21370790 </v>
  </varray>
  <varray name="stress" >
   <v>     -29.41734040       0.00000000       0.00000000 </v>
   <v>       0.00000000     -27.67889572      -0.84077991 </v>
   <v>       0.00000000      -0.84077992       7.32212847 </v>
  </varray>
  <energy>
   <i name="e_fr_energy">    -38.50033080 </i>
   <i name="e_wo_entrp">    -38.51750849 </i>
   <i name="e_0_energy">    -38.50605670 </i>
  </energy>
  <time name="totalsc">    3.30    3.35</time>
 </calculation>
 <calculation>
  <scstep>
   <time name="dav">    0.34    0.35</time>
   <time name="total">    0.42    0.42</time>
   <energy>
    <i name="alphaZ">    216.17040255 </i>
    <i name="ewald">  43383.02530064 </i>
    <i name="hartreedc"> -54135.91953772 </i>
    <i name="XCdc">    362.47597487 </i>
    <i name="pawpsdc">  10571.86673249 </i>
    <i name="pawaedc"> -11434.68494806 </i>
    <i name="eentropy">      0.01714078 </i>
    <i name="bandstr">   -150.82397619 </i>
    <i name="atom">  11152.61838693 </i>
    <i name="e_fr_energy">    -35.25452372 </i>
    <i name="e_wo_entrp">    -35.27166449 </i>
    <i name="e_0_energy">    -35.26023731 </i>
   </energy>
  </scstep>
  <scstep>
   <time name="dav">    0.23    0.23</time>
   <time name="total">    0.25    0.26</time>
   <energy>
    <i name="alphaZ">    216.17040255 </i>
    <i name="ewald">  43383.02530064 </i>
    <i name="hartreedc"> -54135.94412291 </i>
    <i name="XCdc">    362.47632500 </i>
    <i name="pawpsdc">  10571.98499179 </i>
    <i name="pawaedc"> -11434.80408964 </i>
    <i name="eentropy">      0.01719386 </i>
    <i name="bandstr">   -150.79891525 </i>
    <i name="atom">  11152.61838693 </i>
    <i name="e_fr_energy">    -35.25452704 </i>
    <i name="e_wo_entrp">    -35.27172090 </i>
    <i name="e_0_energy">    -35.26025833 </i>
   </energy>
  </scstep>
  <structure>
   <crystal>
    <varray name="basis" >
     <v>       3.63000011       0.00000000       0.00000000 </v>
     <v>       0.00000000       2.56679773       0.00000000 </v>
     <v>       0.00000000       0.00000000      23.98379135 </v>
    </varray>
    <i name="volume">    223.46840188 </i>
    <varray name="rec_basis" >
     <v>       0.27548208       0.00000000       0.00000000 </v>
     <v>       0.00000000       0.38959050       0.00000000 </v>
     <v>       0.00000000       0.00000000       0.04169483 </v>
    </varray>
   </crystal>
   <varray name="positions" >
    <v>       0.00000000       0.00003212       0.00378583 </v>
    <v>       0.50000000       0.50001979       0.05030183 </v>
    <v>       0.00000000      -0.00013893       0.10490579 </v>
    <v>       0.50000000       0.50026482       0.15837832 </v>
    <v>       0.00000000      -0.00005818       0.20824384 </v>
    <v>       0.50000000       0.49851054       0.26155394 </v>
    <v>       0.00000000       0.00591330       0.31449122 </v>
    <v>       0.50000000       0.51854432       0.36005646 </v>
    <v>       0.50000000       0.48213058       0.43662216 </v>
    <v>       0.50000000       0.78541614       0.42699025 </v>
   </varray>
  </structure>
  <varray name="forces" >
   <v>       0.00000000       0.00005334      -0.04064613 </v>
   <v>       0.00000000      -0.00033895       0.10199921 </v>
   <v>       0.00000000       0.00118145      -0.01042505 </v>
   <v>       0.00000000      -0.00275138      -0.24742972 </v>
   <v>       0.00000000      -0.00461961      -0.02306756 </v>
   <v>       0.00000000       0.01606620      -0.15390821 </v>
   <v>       0.00000000       0.07459080      -0.16746676 </v>
   <v>       0.00000000      -0.01577520       0.33247644 </v>
   <v>       0.00000000       0.35122080      -0.00370574 </v>
   <v>       0.00000000      -0.41962744       0.21217351 </v>
  </varray>
  <varray name="stress" >
   <v>     -28.13879800       0.00000000       0.00000000 </v>
   <v>       0.00000000     -26.38976443      -0.87563747 </v>
   <v>       0.00000000      -0.87563747       8.62405905 </v>
  </varray>
  <energy>
   <i name="e_fr_energy">    -38.50037249 </i>
   <i name="e_wo_entrp">    -38.51756635 </i>
   <i name="e_0_energy">    -38.50610378 </i>
  </energy>
  <time name="totalsc">    1.16    1.24</time>
 </calculation>
 <calculation>
  <scstep>
   <time name="dav">    0.31    0.32</time>
   <time name="total">    0.39    0.39</time>
   <energy>
    <i name="alphaZ">    216.17040255 </i>
    <i name="ewald">  43414.31016567 </i>
    <i name="hartreedc"> -54167.14861833 </i>
    <i name="XCdc">    362.46834355 </i>
    <i name="pawpsdc">  10572.01240690 </i>
    <i name="pawaedc"> -11434.83195687 </i>
    <i name="eentropy">      0.01765551 </i>
    <i name="bandstr">   -150.86473263 </i>
    <i name="atom">  11152.61838693 </i>
    <i name="e_fr_energy">    -35.24794672 </i>
    <i name="e_wo_entrp">    -35.26560223 </i>
    <i name="e_0_energy">    -35.25383189 </i>
   </energy>
  </scstep>
  <scstep>
   <time name="dav">    0.38    0.39</time>
   <time name="total">    0.46    0.46</time>
   <energy>
    <i name="e_fr_energy">    -35.27449328 </i>
    <i name="e_wo_entrp">    -35.29139025 </i>
    <i name="e_0_energy">    -35.28012560 </i>
   </energy>
  </scstep>
  <scstep>
   <time name="dav">    0.33    0.34</time>
   <time name="total">    0.41    0.41</time>
   <energy>
    <i name="e_fr_energy">    -35.27409818 </i>
    <i name="e_wo_entrp">    -35.29149288 </i>
    <i name="e_0_energy">    -35.27989641 </i>
   </energy>
  </scstep>
  <scstep>
   <time name="dav">    0.33    0.33</time>
   <time name="total">    0.40    0.40</time>
   <energy>
    <i name="e_fr_energy">    -35.27369067 </i>
    <i name="e_wo_entrp">    -35.29095068 </i>
    <i name="e_0_energy">    -35.27944401 </i>
   </energy>
  </scstep>
  <scstep>
   <time name="dav">    0.33    0.33</time>
   <time name="total">    0.41    0.41</time>
   <energy>
    <i name="e_fr_energy">    -35.27322680 </i>
    <i name="e_wo_entrp">    -35.29091064 </i>
    <i name="e_0_energy">    -35.27912141 </i>
   </energy>
  </scstep>
  <scstep>
   <time name="dav">    0.36    0.36</time>
   <time name="total">    0.43    0.44</time>
   <energy>
    <i name="e_fr_energy">    -35.27300989 </i>
    <i name="e_wo_entrp">    -35.29026052 </i>
    <i name="e_0_energy">    -35.27876010 </i>
   </energy>
  </scstep>
  <scstep>
   <time name="dav">    0.24    0.24</time>
   <time name="total">    0.26    0.26</time>
   <energy>
    <i name="alphaZ">    216.17040255 </i>
    <i name="ewald">  43414.31016567 </i>
    <i name="hartreedc"> -54167.10285893 </i>
    <i name="XCdc">    362.50080296 </i>
    <i name="pawpsdc">  10570.17592822 </i>
    <i name="pawaedc"> -11432.96638209 </i>
    <i name="eentropy">      0.01743731 </i>
    <i name="bandstr">   -150.99680846 </i>
    <i name="atom">  11152.61838693 </i>
    <i name="e_fr_energy">    -35.27292586 </i>
    <i name="e_wo_entrp">    -35.29036317 </i>
    <i name="e_0_energy">    -35.27873830 </i>
   </energy>
  </scstep>
  <structure>
   <crystal>
    <varray name="basis" >
     <v>       3.63000011       0.00000000       0.00000000 </v>
     <v>       0.00000000       2.56679773       0.00000000 </v>
     <v>       0.00000000       0.00000000      23.98379135 </v>
    </varray>
    <i name="volume">    223.46840188 </i>
    <varray name="rec_basis" >
     <v>       0.27548208       0.00000000       0.00000000 </v>
     <v>       0.00000000       0.38959050       0.00000000 </v>
     <v>       0.00000000       0.00000000       0.04169483 </v>
    </varray>
   </crystal>
   <varray name="positions" >
    <v>       0.00000000       0.00004669       0.00420372 </v>
    <v>       0.50000000       0.50002099       0.05021968 </v>
    <v>       0.00000000      -0.00011390       0.10491655 </v>
    <v>       0.50000000       0.50022774       0.15758651 </v>
    <v>       0.00000000      -0.00020417       0.20785119 </v>
    <v>       0.50000000       0.49869774       0.26049766 </v>
    <v>       0.00000000       0.00932290       0.31352558 </v>
    <v>       0.50000000       0.52060245       0.36105623 </v>
    <v>       0.50000000       0.48461996       0.43800418 </v>
    <v>       0.50000000       0.77741411       0.42746835 </v>
   </varray>
  </structure>
  <varray name="forces" >
   <v>       0.00000000       0.00006981      -0.12383985 </v>
   <v>       0.00000000      -0.00034038       0.10090422 </v>
   <v>       0.00000000       0.00126717      -0.05100532 </v>
   <v>       0.00000000      -0.00401887      -0.17520744 </v>
   <v>       0.00000000      -0.00368458      -0.03249344 </v>
   <v>       0.00000000       0.03653237       0.11747849 </v>
   <v>       0.00000000       0.04111945      -0.05261448 </v>
   <v>       0.00000000      -0.04476733      -0.04196215 </v>
   <v>       0.00000000      -0.06285047       0.08653918 </v>
   <v>       0.00000000       0.03667282       0.17220080 </v>
  </varray>
  <varray name="stress" >
   <v>     -28.46761563       0.00000000       0.00000000 </v>
   <v>       0.00000000     -23.50133405      -1.10984054 </v>
   <v>       0.00000000      -1.10984063       8.96175698 </v>
  </varray>
  <energy>
   <i name="e_fr_energy">    -38.51853568 </i>
   <i name="e_wo_entrp">    -38.53597299 </i>
   <i name="e_0_energy">    -38.52434812 </i>
  </energy>
  <time name="totalsc">    3.24    3.31</time>
 </calculation>
 <calculation>
  <scstep>
   <time name="dav">    0.32    0.32</time>
   <time name="total">    0.39    0.39</time>
   <energy>
    <i name="alphaZ">    216.17040255 </i>
    <i name="ewald">  43417.67462690 </i>
    <i name="hartreedc"> -54170.54289328 </i>
    <i name="XCdc">    362.50030156 </i>
    <i name="pawpsdc">  10570.18472829 </i>
    <i name="pawaedc"> -11432.97890377 </i>
    <i name="eentropy">      0.01751414 </i>
    <i name="bandstr">   -150.91707269 </i>
    <i name="atom">  11152.61838693 </i>
    <i name="e_fr_energy">    -35.27290937 </i>
    <i name="e_wo_entrp">    -35.29042351 </i>
    <i name="e_0_energy">    -35.27874742 </i>
   </energy>
  </scstep>
  <scstep>
   <time name="dav">    0.39    0.39</time>
   <time name="total">    0.46    0.46</time>
   <energy>
    <i name="e_fr_energy">    -35.27319445 </i>
    <i name="e_wo_entrp">    -35.29064331 </i>
    <i name="e_0_energy">    -35.27901074 </i>
   </energy>
  </scstep>
  <scstep>
   <time name="dav">    0.23    0.23</time>
   <time name="total">    0.25    0.25</time>
   <energy>
    <i name="alphaZ">    216.17040255 </i>
    <i name="ewald">  43417.67462690 </i>
    <i name="hartreedc"> -54170.53310146 </i>
    <i name="XCdc">    362.49919760 </i>
    <i name="pawpsdc">  10569.88857766 </i>
    <i name="pawaedc"> -11432.65001081 </i>
    <i name="eentropy">      0.01749952 </i>
    <i name="bandstr">   -150.95877598 </i>
    <i name="atom">  11152.61838693 </i>
    <i name="e_fr_energy">    -35.27319710 </i>
    <i name="e_wo_entrp">    -35.29069662 </i>
    <i name="e_0_energy">    -35.27903027 </i>
   </energy>
  </scstep>
  <structure>
   <crystal>
    <varray name="basis" >
     <v>       3.63000011       0.00000000       0.00000000 </v>
     <v>       0.00000000       2.56679773       0.00000000 </v>
     <v>       0.00000000       0.00000000      23.98379135 </v>
    </varray>
    <i name="volume">    223.46840188 </i>
    <varray name="rec_basis" >
     <v>       0.27548208       0.00000000       0.00000000 </v>
     <v>       0.00000000       0.38959050       0.00000000 </v>
     <v>       0.00000000       0.00000000       0.04169483 </v>
    </varray>
   </crystal>
   <varray name="positions" >
    <v>       0.00000000       0.00004824       0.00424812 </v>
    <v>       0.50000000       0.50002111       0.05021096 </v>
    <v>       0.00000000      -0.00011124       0.10491770 </v>
    <v>       0.50000000       0.50022380       0.15750238 </v>
    <v>       0.00000000      -0.00021968       0.20780947 </v>
    <v>       0.50000000       0.49871763       0.26038542 </v>
    <v>       0.00000000       0.00968520       0.31342298 </v>
    <v>       0.50000000       0.52082114       0.36116247 </v>
    <v>       0.50000000       0.48488448       0.43815103 </v>
    <v>       0.50000000       0.77656383       0.42751915 </v>
   </varray>
  </structure>
  <varray name="forces" >
   <v>       0.00000000       0.00085465      -0.13049963 </v>
   <v>       0.00000000       0.00031689       0.09724356 </v>
   <v>       0.00000000       0.00194247      -0.05362214 </v>
   <v>       0.00000000      -0.00321671      -0.16519430 </v>
   <v>       0.00000000      -0.00278388      -0.03353639 </v>
   <v>       0.00000000       0.03830584       0.14742851 </v>
   <v>       0.00000000       0.03625586      -0.03168024 </v>
   <v>       0.00000000      -0.05107411      -0.09119209 </v>
   <v>       0.00000000      -0.10530914       0.09564722 </v>
   <v>       0.00000000       0.08470811       0.16540549 </v>
  </varray>
  <varray name="stress" >
   <v>     -29.19874415       0.00000000       0.00000000 </v>
   <v>       0.00000000     -23.87990492      -1.12743880 </v>
   <v>       0.00000000      -1.12743875       8.37489306 </v>
  </varray>
  <energy>
   <i name="e_fr_energy">    -38.51881013 </i>
   <i name="e_wo_entrp">    -38.53630965 </i>
   <i name="e_0_energy">    -38.52464331 </i>
  </energy>
  <time name="totalsc">    1.58    1.63</time>
 </calculation>
 <calculation>
  <scstep>
   <time name="dav">    0.30    0.31</time>
   <time name="total">    0.38    0.38</time>
   <energy>
    <i name="alphaZ">    216.17040255 </i>
    <i name="ewald">  43405.73012762 </i>
    <i name="hartreedc"> -54158.87970706 </i>
    <i name="XCdc">    362.47153128 </i>
    <i name="pawpsdc">  10569.87993268 </i>
    <i name="pawaedc"> -11432.64157697 </i>
    <i name="eentropy">      0.01731266 </i>
    <i name="bandstr">   -150.64371532 </i>
    <i name="atom">  11152.61838693 </i>
    <i name="e_fr_energy">    -35.27730564 </i>
    <i name="e_wo_entrp">    -35.29461830 </i>
    <i name="e_0_energy">    -35.28307652 </i>
   </energy>
  </scstep>
  <scstep>
   <time name="dav">    0.38    0.38</time>
   <time name="total">    0.45    0.45</time>
   <energy>
    <i name="e_fr_energy">    -35.28184733 </i>
    <i name="e_wo_entrp">    -35.29904424 </i>
    <i name="e_0_energy">    -35.28757964 </i>
   </energy>
  </scstep>
  <scstep>
   <time name="dav">    0.34    0.35</time>
   <time name="total">    0.42    0.42</time>
   <energy>
    <i name="e_fr_energy">    -35.28171192 </i>
    <i name="e_wo_entrp">    -35.29908286 </i>
    <i name="e_0_energy">    -35.28750223 </i>
   </energy>
  </scstep>
  <scstep>
   <time name="dav">    0.23    0.24</time>
   <time name="total">    0.26    0.26</time>
   <energy>
    <i name="alphaZ">    216.17040255 </i>
    <i name="ewald">  43405.73012762 </i>
    <i name="hartreedc"> -54159.04465987 </i>
    <i name="XCdc">    362.47939351 </i>
    <i name="pawpsdc">  10567.78595229 </i>
    <i name="pawaedc"> -11430.51577245 </i>
    <i name="eentropy">      0.01724584 </i>
    <i name="bandstr">   -150.52267099 </i>
    <i name="atom">  11152.61838693 </i>
    <i name="e_fr_energy">    -35.28159457 </i>
    <i name="e_wo_entrp">    -35.29884040 </i>
    <i name="e_0_energy">    -35.28734318 </i>
   </energy>
  </scstep>
  <structure>
   <crystal>
    <varray name="basis" >
     <v>       3.63000011       0.00000000       0.00000000 </v>
     <v>       0.00000000       2.56679773       0.00000000 </v>
     <v>       0.00000000       0.00000000      23.98379135 </v>
    </varray>
    <i name="volume">    223.46840188 </i>
    <varray name="rec_basis" >
     <v>       0.27548208       0.00000000       0.00000000 </v>
     <v>       0.00000000       0.38959050       0.00000000 </v>
     <v>       0.00000000       0.00000000       0.04169483 </v>
    </varray>
   </crystal>
   <varray name="positions" >
    <v>       0.00000000       0.00007167       0.00406258 </v>
    <v>       0.50000000       0.50002854       0.05041821 </v>
    <v>       0.00000000      -0.00006041       0.10479301 </v>
    <v>       0.50000000       0.50014094       0.15686997 </v>
    <v>       0.00000000      -0.00032567       0.20761128 </v>
    <v>       0.50000000       0.49962783       0.26041919 </v>
    <v>       0.00000000       0.01151961       0.31305675 </v>
    <v>       0.50000000       0.52030213       0.36124584 </v>
    <v>       0.50000000       0.48328634       0.43879517 </v>
    <v>       0.50000000       0.77604353       0.42805764 </v>
   </varray>
  </structure>
  <varray name="forces" >
   <v>       0.00000000       0.00149844      -0.09826240 </v>
   <v>       0.00000000       0.00133992       0.00207771 </v>
   <v>       0.00000000       0.00178894      -0.06977927 </v>
   <v>       0.00000000      -0.00175464      -0.02310940 </v>
   <v>       0.00000000       0.00246200      -0.02631162 </v>
   <v>       0.00000000       0.03576154       0.06156452 </v>
   <v>       0.00000000       0.01237987       0.02194189 </v>
   <v>       0.00000000      -0.02456605      -0.07975607 </v>
   <v>       0.00000000      -0.01086331       0.04526450 </v>
   <v>       0.00000000      -0.01804672       0.16637014 </v>
  </varray>
  <varray name="stress" >
   <v>     -30.29343433       0.00000000       0.00000000 </v>
   <v>       0.00000000     -25.05976855      -0.90015000 </v>
   <v>       0.00000000      -0.90014991       7.23809803 </v>
  </varray>
  <energy>
   <i name="e_fr_energy">    -38.52554949 </i>
   <i name="e_wo_entrp">    -38.54279532 </i>
   <i name="e_0_energy">    -38.53129810 </i>
  </energy>
  <time name="totalsc">    1.99    2.04</time>
 </calculation>
 <calculation>
  <scstep>
   <time name="dav">    0.31    0.31</time>
   <time name="total">    0.38    0.39</time>
   <energy>
    <i name="alphaZ">    216.17040255 </i>
    <i name="ewald">  43395.25253515 </i>
    <i name="hartreedc"> -54148.69290061 </i>
    <i name="XCdc">    362.45451428 </i>
    <i name="pawpsdc">  10566.99742572 </i>
    <i name="pawaedc"> -11429.69736781 </i>
    <i name="eentropy">      0.01722383 </i>
    <i name="bandstr">   -150.40285646 </i>
    <i name="atom">  11152.61838693 </i>
    <i name="e_fr_energy">    -35.28263643 </i>
    <i name="e_wo_entrp">    -35.29986026 </i>
    <i name="e_0_energy">    -35.28837771 </i>
   </energy>
  </scstep>
  <scstep>
   <time name="dav">    0.43    0.43</time>
   <time name="total">    0.50    0.51</time>
   <energy>
    <i name="e_fr_energy">    -35.28595634 </i>
    <i name="e_wo_entrp">    -35.30277140 </i>
    <i name="e_0_energy">    -35.29156136 </i>
   </energy>
  </scstep>
  <scstep>
   <time name="dav">    0.35    0.36</time>
   <time name="total">    0.43    0.43</time>
   <energy>
    <i name="e_fr_energy">    -35.28585725 </i>
    <i name="e_wo_entrp">    -35.30305476 </i>
    <i name="e_0_energy">    -35.29158975 </i>
   </energy>
  </scstep>
  <scstep>
   <time name="dav">    0.32    0.32</time>
   <time name="total">    0.34    0.35</time>
   <energy>
    <i name="alphaZ">    216.17040255 </i>
    <i name="ewald">  43395.25253515 </i>
    <i name="hartreedc"> -54148.85812926 </i>
    <i name="XCdc">    362.45920884 </i>
    <i name="pawpsdc">  10565.27208551 </i>
[...]
       <r>     6.0135     2.9054    51.1584 </r>
       <r>     6.0894     2.1085    51.3184 </r>
       <r>     6.1653     1.3539    51.4212 </r>
       <r>     6.2412     1.2057    51.5127 </r>
       <r>     6.3171     1.5730    51.6321 </r>
       <r>     6.3930     2.2970    51.8065 </r>
       <r>     6.4689     3.0734    52.0398 </r>
       <r>     6.5448     3.2516    52.2866 </r>
       <r>     6.6207     2.5223    52.4780 </r>
       <r>     6.6966     1.4408    52.5874 </r>
       <r>     6.7725     0.8405    52.6512 </r>
       <r>     6.8485     1.0524    52.7311 </r>
       <r>     6.9244     1.7579    52.8645 </r>
       <r>     7.0003     2.2853    53.0380 </r>
       <r>     7.0762     2.2070    53.2055 </r>
       <r>     7.1521     1.8111    53.3430 </r>
       <r>     7.2280     1.6402    53.4675 </r>
       <r>     7.3039     1.7321    53.5989 </r>
       <r>     7.3798     1.9330    53.7457 </r>
       <r>     7.4557     2.4378    53.9307 </r>
       <r>     7.5316     3.2211    54.1752 </r>
       <r>     7.6075     3.6935    54.4556 </r>
       <r>     7.6834     3.5395    54.7242 </r>
       <r>     7.7593     3.0028    54.9522 </r>
       <r>     7.8352     2.2163    55.1204 </r>
       <r>     7.9111     1.1931    55.2110 </r>
       <r>     7.9870     0.2352    55.2288 </r>
       <r>     8.0629    -0.2959    55.2064 </r>
       <r>     8.1388    -0.1799    55.1927 </r>
       <r>     8.2147     0.8612    55.2581 </r>
       <r>     8.2907     2.8313    55.4730 </r>
       <r>     8.3666     4.7448    55.8331 </r>
       <r>     8.4425     5.1199    56.2218 </r>
       <r>     8.5184     3.6839    56.5014 </r>
       <r>     8.5943     1.9600    56.6502 </r>
       <r>     8.6702     1.6878    56.7783 </r>
       <r>     8.7461     2.9218    57.0000 </r>
       <r>     8.8220     4.0207    57.3052 </r>
       <r>     8.8979     3.6140    57.5796 </r>
       <r>     8.9738     2.1309    57.7413 </r>
       <r>     9.0497     1.0068    57.8177 </r>
       <r>     9.1256     1.0397    57.8966 </r>
       <r>     9.2015     1.8957    58.0405 </r>
       <r>     9.2774     2.5917    58.2373 </r>
       <r>     9.3533     2.3392    58.4148 </r>
       <r>     9.4292     1.3133    58.5145 </r>
       <r>     9.5051     0.5191    58.5539 </r>
       <r>     9.5810     0.8086    58.6153 </r>
       <r>     9.6569     2.1030    58.7749 </r>
       <r>     9.7329     3.4916    59.0399 </r>
       <r>     9.8088     4.0983    59.3510 </r>
       <r>     9.8847     3.7688    59.6371 </r>
       <r>     9.9606     2.8256    59.8516 </r>
       <r>    10.0365     1.6307    59.9754 </r>
       <r>    10.1124     0.5851    60.0198 </r>
       <r>    10.1883     0.0054    60.0202 </r>
       <r>    10.2642    -0.1357    60.0099 </r>
       <r>    10.3401    -0.0885    60.0032 </r>
       <r>    10.4160    -0.0323    60.0007 </r>
       <r>    10.4919    -0.0078    60.0001 </r>
       <r>    10.5678    -0.0013    60.0000 </r>
       <r>    10.6437    -0.0002    60.0000 </r>
       <r>    10.7196    -0.0000    60.0000 </r>
       <r>    10.7955    -0.0000    60.0000 </r>
       <r>    10.8714    -0.0000    60.0000 </r>
       <r>    10.9473    -0.0000    60.0000 </r>
       <r>    11.0232    -0.0000    60.0000 </r>
       <r>    11.0991    -0.0000    60.0000 </r>
       <r>    11.1751    -0.0000    60.0000 </r>
       <r>    11.2510     0.0000    60.0000 </r>
       <r>    11.3269     0.0000    60.0000 </r>
       <r>    11.4028     0.0000    60.0000 </r>
       <r>    11.4787     0.0000    60.0000 </r>
       <r>    11.5546     0.0000    60.0000 </r>
       <r>    11.6305     0.0000    60.0000 </r>
       <r>    11.7064     0.0000    60.0000 </r>
       <r>    11.7823     0.0000    60.0000 </r>
       <r>    11.8582     0.0000    60.0000 </r>
       <r>    11.9341     0.0000    60.0000 </r>
      </set>
      <set comment="spin 2">
       <r>   -10.8375     0.0000     0.0000 </r>
       <r>   -10.7616     0.0000     0.0000 </r>
       <r>   -10.6857     0.0000     0.0000 </r>
       <r>   -10.6098     0.0000     0.0000 </r>
       <r>   -10.5339     0.0000     0.0000 </r>
       <r>   -10.4580    -0.0000    -0.0000 </r>
       <r>   -10.3820    -0.0000    -0.0000 </r>
       <r>   -10.3061    -0.0000    -0.0000 </r>
       <r>   -10.2302    -0.0000    -0.0000 </r>
       <r>   -10.1543    -0.0000    -0.0000 </r>
       <r>   -10.0784    -0.0000    -0.0000 </r>
       <r>   -10.0025    -0.0000    -0.0000 </r>
       <r>    -9.9266    -0.0000    -0.0000 </r>
       <r>    -9.8507    -0.0000    -0.0000 </r>
       <r>    -9.7748    -0.0000    -0.0000 </r>
       <r>    -9.6989    -0.0000    -0.0000 </r>
       <r>    -9.6230    -0.0000    -0.0000 </r>
       <r>    -9.5471    -0.0000    -0.0000 </r>
       <r>    -9.4712    -0.0000    -0.0000 </r>
       <r>    -9.3953    -0.0004    -0.0000 </r>
       <r>    -9.3194    -0.0021    -0.0002 </r>
       <r>    -9.2435    -0.0081    -0.0008 </r>
       <r>    -9.1676    -0.0202    -0.0023 </r>
       <r>    -9.0917    -0.0237    -0.0041 </r>
       <r>    -9.0158     0.0258    -0.0022 </r>
       <r>    -8.9398     0.1632     0.0102 </r>
       <r>    -8.8639     0.3406     0.0361 </r>
       <r>    -8.7880     0.4777     0.0723 </r>
       <r>    -8.7121     0.6117     0.1187 </r>
       <r>    -8.6362     0.8097     0.1802 </r>
       <r>    -8.5603     0.9265     0.2505 </r>
       <r>    -8.4844     0.7532     0.3077 </r>
       <r>    -8.4085     0.3740     0.3361 </r>
       <r>    -8.3326     0.0681     0.3413 </r>
       <r>    -8.2567    -0.0436     0.3379 </r>
       <r>    -8.1808    -0.0406     0.3349 </r>
       <r>    -8.1049    -0.0204     0.3333 </r>
       <r>    -8.0290    -0.0175     0.3320 </r>
       <r>    -7.9531    -0.0247     0.3301 </r>
       <r>    -7.8772    -0.0043     0.3298 </r>
       <r>    -7.8013     0.1014     0.3375 </r>
       <r>    -7.7254     0.2921     0.3597 </r>
       <r>    -7.6495     0.4386     0.3929 </r>
       <r>    -7.5736     0.3917     0.4227 </r>
       <r>    -7.4976     0.1800     0.4363 </r>
       <r>    -7.4217     0.0097     0.4371 </r>
       <r>    -7.3458     0.0854     0.4436 </r>
       <r>    -7.2699     0.4772     0.4798 </r>
       <r>    -7.1940     1.1028     0.5635 </r>
       <r>    -7.1181     1.7646     0.6974 </r>
       <r>    -7.0422     2.1438     0.8602 </r>
       <r>    -6.9663     1.9172     1.0057 </r>
       <r>    -6.8904     1.1558     1.0934 </r>
       <r>    -6.8145     0.4084     1.1244 </r>
       <r>    -6.7386     0.1235     1.1338 </r>
       <r>    -6.6627     0.2345     1.1516 </r>
       <r>    -6.5868     0.4485     1.1856 </r>
       <r>    -6.5109     0.6590     1.2357 </r>
       <r>    -6.4350     0.8702     1.3017 </r>
       <r>    -6.3591     0.9334     1.3726 </r>
       <r>    -6.2832     0.6998     1.4257 </r>
       <r>    -6.2073     0.3116     1.4493 </r>
       <r>    -6.1314     0.0366     1.4521 </r>
       <r>    -6.0554    -0.0483     1.4484 </r>
       <r>    -5.9795    -0.0386     1.4455 </r>
       <r>    -5.9036    -0.0254     1.4436 </r>
       <r>    -5.8277    -0.0369     1.4408 </r>
       <r>    -5.7518    -0.0514     1.4369 </r>
       <r>    -5.6759     0.0127     1.4378 </r>
       <r>    -5.6000     0.2514     1.4569 </r>
       <r>    -5.5241     0.6191     1.5039 </r>
       <r>    -5.4482     0.9165     1.5735 </r>
       <r>    -5.3723     1.0819     1.6556 </r>
       <r>    -5.2964     1.2571     1.7510 </r>
       <r>    -5.2205     1.3894     1.8565 </r>
       <r>    -5.1446     1.1944     1.9472 </r>
       <r>    -5.0687     0.6706     1.9981 </r>
       <r>    -4.9928     0.1754     2.0114 </r>
       <r>    -4.9169    -0.0577     2.0070 </r>
       <r>    -4.8410    -0.1137     1.9984 </r>
       <r>    -4.7651    -0.1549     1.9866 </r>
       <r>    -4.6892    -0.1675     1.9739 </r>
       <r>    -4.6132     0.1390     1.9844 </r>
       <r>    -4.5373     1.1200     2.0695 </r>
       <r>    -4.4614     2.5728     2.2647 </r>
       <r>    -4.3855     3.4927     2.5299 </r>
       <r>    -4.3096     3.0470     2.7611 </r>
       <r>    -4.2337     1.6389     2.8855 </r>
       <r>    -4.1578     0.3714     2.9137 </r>
       <r>    -4.0819    -0.2270     2.8965 </r>
       <r>    -4.0060    -0.3523     2.8698 </r>
       <r>    -3.9301    -0.1408     2.8591 </r>
       <r>    -3.8542     0.6963     2.9119 </r>
       <r>    -3.7783     2.3002     3.0865 </r>
       <r>    -3.7024     3.9280     3.3847 </r>
       <r>    -3.6265     4.3638     3.7159 </r>
       <r>    -3.5506     3.3197     3.9679 </r>
       <r>    -3.4747     1.8822     4.1108 </r>
       <r>    -3.3988     1.2747     4.2075 </r>
       <r>    -3.3229     1.6990     4.3365 </r>
       <r>    -3.2470     2.6666     4.5389 </r>
       <r>    -3.1710     3.8014     4.8274 </r>
       <r>    -3.0951     4.7904     5.1911 </r>
       <r>    -3.0192     5.2811     5.5919 </r>
       <r>    -2.9433     5.4517     6.0057 </r>
       <r>    -2.8674     5.9469     6.4571 </r>
       <r>    -2.7915     6.9555     6.9851 </r>
       <r>    -2.7156     8.0851     7.5988 </r>
       <r>    -2.6397     9.0416     8.2851 </r>
       <r>    -2.5638     9.7088     9.0221 </r>
       <r>    -2.4879     9.7526     9.7623 </r>
       <r>    -2.4120     8.8515    10.4342 </r>
       <r>    -2.3361     7.5518    11.0074 </r>
       <r>    -2.2602     7.2719    11.5594 </r>
       <r>    -2.1843     8.5349    12.2073 </r>
       <r>    -2.1084     9.9349    12.9614 </r>
       <r>    -2.0325    10.2307    13.7379 </r>
       <r>    -1.9566    10.1231    14.5063 </r>
       <r>    -1.8807    10.5923    15.3103 </r>
       <r>    -1.8048    11.4474    16.1793 </r>
       <r>    -1.7288    12.5034    17.1283 </r>
       <r>    -1.6529    14.1936    18.2057 </r>
       <r>    -1.5770    16.3648    19.4479 </r>
       <r>    -1.5011    17.7434    20.7947 </r>
       <r>    -1.4252    17.1248    22.0946 </r>
       <r>    -1.3493    14.8593    23.2225 </r>
       <r>    -1.2734    12.7278    24.1886 </r>
       <r>    -1.1975    11.8865    25.0908 </r>
       <r>    -1.1216    11.5595    25.9682 </r>
       <r>    -1.0457    10.6588    26.7773 </r>
       <r>    -0.9698     9.8297    27.5234 </r>
       <r>    -0.8939    10.5470    28.3240 </r>
       <r>    -0.8180    12.9375    29.3060 </r>
       <r>    -0.7421    15.8780    30.5112 </r>
       <r>    -0.6662    18.3285    31.9025 </r>
       <r>    -0.5903    19.4752    33.3807 </r>
       <r>    -0.5144    18.9958    34.8226 </r>
       <r>    -0.4385    17.8952    36.1810 </r>
       <r>    -0.3626    17.4330    37.5042 </r>
       <r>    -0.2866    17.2587    38.8142 </r>
       <r>    -0.2107    16.1561    40.0406 </r>
       <r>    -0.1348    13.9143    41.0967 </r>
       <r>    -0.0589    11.2432    41.9502 </r>
       <r>     0.0170     8.7365    42.6133 </r>
       <r>     0.0929     6.7330    43.1244 </r>
       <r>     0.1688     5.3577    43.5311 </r>
       <r>     0.2447     4.1882    43.8490 </r>
       <r>     0.3206     2.6933    44.0534 </r>
       <r>     0.3965     1.0978    44.1367 </r>
       <r>     0.4724     0.0523    44.1407 </r>
       <r>     0.5483    -0.2641    44.1207 </r>
       <r>     0.6242    -0.1244    44.1112 </r>
       <r>     0.7001     0.2265    44.1284 </r>
       <r>     0.7760     0.6257    44.1759 </r>
       <r>     0.8519     0.9567    44.2485 </r>
       <r>     0.9278     1.3458    44.3507 </r>
       <r>     1.0037     1.9756    44.5006 </r>
       <r>     1.0796     2.5165    44.6917 </r>
       <r>     1.1556     2.3482    44.8699 </r>
       <r>     1.2315     1.4972    44.9835 </r>
       <r>     1.3074     0.6851    45.0355 </r>
       <r>     1.3833     0.4097    45.0666 </r>
       <r>     1.4592     0.5662    45.1096 </r>
       <r>     1.5351     0.8505    45.1742 </r>
       <r>     1.6110     1.0638    45.2549 </r>
       <r>     1.6869     1.1394    45.3414 </r>
       <r>     1.7628     1.0741    45.4229 </r>
       <r>     1.8387     0.8629    45.4884 </r>
       <r>     1.9146     0.6662    45.5390 </r>
       <r>     1.9905     0.8476    45.6033 </r>
       <r>     2.0664     1.4248    45.7115 </r>
       <r>     2.1423     1.7783    45.8465 </r>
       <r>     2.2182     1.3973    45.9525 </r>
       <r>     2.2941     0.5810    45.9966 </r>
       <r>     2.3700     0.0405    45.9997 </r>
       <r>     2.4459     0.1890    46.0141 </r>
       <r>     2.5219     0.9166    46.0836 </r>
       <r>     2.5978     1.6229    46.2068 </r>
       <r>     2.6737     1.6451    46.3317 </r>
       <r>     2.7496     1.0510    46.4115 </r>
       <r>     2.8255     0.6943    46.4642 </r>
       <r>     2.9014     1.2137    46.5563 </r>
       <r>     2.9773     2.2444    46.7267 </r>
       <r>     3.0532     2.7896    46.9384 </r>
       <r>     3.1291     2.3161    47.1142 </r>
       <r>     3.2050     1.3204    47.2144 </r>
       <r>     3.2809     0.6940    47.2671 </r>
       <r>     3.3568     0.7461    47.3237 </r>
       <r>     3.4327     1.0471    47.4032 </r>
       <r>     3.5086     1.0508    47.4830 </r>
       <r>     3.5845     0.6878    47.5352 </r>
       <r>     3.6604     0.3614    47.5626 </r>
       <r>     3.7363     0.4148    47.5941 </r>
       <r>     3.8122     0.7044    47.6476 </r>
       <r>     3.8881     0.8242    47.7101 </r>
       <r>     3.9641     0.6852    47.7621 </r>
       <r>     4.0400     0.6028    47.8079 </r>
       <r>     4.1159     0.8202    47.8702 </r>
       <r>     4.1918     1.3291    47.9710 </r>
       <r>     4.2677     2.1307    48.1328 </r>
       <r>     4.3436     3.0983    48.3680 </r>
       <r>     4.4195     3.5850    48.6401 </r>
       <r>     4.4954     2.9474    48.8638 </r>
       <r>     4.5713     1.5428    48.9809 </r>
       <r>     4.6472     0.5067    49.0194 </r>
       <r>     4.7231     0.5195    49.0588 </r>
       <r>     4.7990     1.1887    49.1490 </r>
       <r>     4.8749     1.6372    49.2733 </r>
       <r>     4.9508     1.6057    49.3952 </r>
       <r>     5.0267     1.7112    49.5251 </r>
       <r>     5.1026     2.3820    49.7059 </r>
       <r>     5.1785     3.0512    49.9375 </r>
       <r>     5.2544     2.8677    50.1552 </r>
       <r>     5.3303     1.8107    50.2926 </r>
       <r>     5.4063     0.6888    50.3449 </r>
       <r>     5.4822     0.2207    50.3616 </r>
       <r>     5.5581     0.3896    50.3912 </r>
       <r>     5.6340     0.6646    50.4417 </r>
       <r>     5.7099     0.7588    50.4992 </r>
       <r>     5.7858     1.0423    50.5784 </r>
       <r>     5.8617     1.9019    50.7227 </r>
       <r>     5.9376     2.8340    50.9378 </r>
       <r>     6.0135     2.9054    51.1584 </r>
       <r>     6.0894     2.1085    51.3184 </r>
       <r>     6.1653     1.3539    51.4212 </r>
       <r>     6.2412     1.2057    51.5127 </r>
       <r>     6.3171     1.5731    51.6321 </r>
       <r>     6.3930     2.2970    51.8065 </r>
       <r>     6.4689     3.0734    52.0398 </r>
       <r>     6.5448     3.2516    52.2866 </r>
       <r>     6.6207     2.5223    52.4780 </r>
       <r>     6.6966     1.4408    52.5874 </r>
       <r>     6.7725     0.8405    52.6512 </r>
       <r>     6.8485     1.0523    52.7311 </r>
       <r>     6.9244     1.7578    52.8645 </r>
       <r>     7.0003     2.2853    53.0380 </r>
       <r>     7.0762     2.2071    53.2055 </r>
       <r>     7.1521     1.8111    53.3430 </r>
       <r>     7.2280     1.6402    53.4675 </r>
       <r>     7.3039     1.7321    53.5989 </r>
       <r>     7.3798     1.9330    53.7457 </r>
       <r>     7.4557     2.4378    53.9307 </r>
       <r>     7.5316     3.2210    54.1752 </r>
       <r>     7.6075     3.6933    54.4556 </r>
       <r>     7.6834     3.5393    54.7242 </r>
       <r>     7.7593     3.0028    54.9521 </r>
       <r>     7.8352     2.2164    55.1204 </r>
       <r>     7.9111     1.1933    55.2109 </r>
       <r>     7.9870     0.2354    55.2288 </r>
       <r>     8.0629    -0.2958    55.2064 </r>
       <r>     8.1388    -0.1800    55.1927 </r>
       <r>     8.2147     0.8611    55.2581 </r>
       <r>     8.2907     2.8312    55.4730 </r>
       <r>     8.3666     4.7447    55.8331 </r>
       <r>     8.4425     5.1199    56.2217 </r>
       <r>     8.5184     3.6840    56.5014 </r>
       <r>     8.5943     1.9601    56.6502 </r>
       <r>     8.6702     1.6877    56.7783 </r>
       <r>     8.7461     2.9217    57.0000 </r>
       <r>     8.8220     4.0207    57.3052 </r>
       <r>     8.8979     3.6141    57.5796 </r>
       <r>     8.9738     2.1310    57.7413 </r>
       <r>     9.0497     1.0068    57.8177 </r>
       <r>     9.1256     1.0395    57.8966 </r>
       <r>     9.2015     1.8955    58.0405 </r>
       <r>     9.2774     2.5917    58.2372 </r>
       <r>     9.3533     2.3394    58.4148 </r>
       <r>     9.4292     1.3135    58.5145 </r>
       <r>     9.5051     0.5192    58.5539 </r>
       <r>     9.5810     0.8086    58.6153 </r>
       <r>     9.6569     2.1029    58.7749 </r>
       <r>     9.7329     3.4915    59.0399 </r>
       <r>     9.8088     4.0982    59.3510 </r>
       <r>     9.8847     3.7688    59.6371 </r>
       <r>     9.9606     2.8257    59.8516 </r>
       <r>    10.0365     1.6309    59.9753 </r>
       <r>    10.1124     0.5852    60.0198 </r>
       <r>    10.1883     0.0054    60.0202 </r>
       <r>    10.2642    -0.1357    60.0099 </r>
       <r>    10.3401    -0.0885    60.0032 </r>
       <r>    10.4160    -0.0323    60.0007 </r>
       <r>    10.4919    -0.0078    60.0001 </r>
       <r>    10.5678    -0.0013    60.0000 </r>
       <r>    10.6437    -0.0002    60.0000 </r>
       <r>    10.7196    -0.0000    60.0000 </r>
       <r>    10.7955    -0.0000    60.0000 </r>
       <r>    10.8714    -0.0000    60.0000 </r>
       <r>    10.9473    -0.0000    60.0000 </r>
       <r>    11.0232    -0.0000    60.0000 </r>
       <r>    11.0991    -0.0000    60.0000 </r>
       <r>    11.1751    -0.0000    60.0000 </r>
       <r>    11.2510     0.0000    60.0000 </r>
       <r>    11.3269     0.0000    60.0000 </r>
       <r>    11.4028     0.0000    60.0000 </r>
       <r>    11.4787     0.0000    60.0000 </r>
       <r>    11.5546     0.0000    60.0000 </r>
       <r>    11.6305     0.0000    60.0000 </r>
       <r>    11.7064     0.0000    60.0000 </r>
       <r>    11.7823     0.0000    60.0000 </r>
       <r>    11.8582     0.0000    60.0000 </r>
       <r>    11.9341     0.0000    60.0000 </r>
      </set>
     </set>
    </array>
   </total>
  </dos>
 </calculation>
 <structure name="finalpos" >
  <crystal>
   <varray name="basis" >
    <v>       3.63000011       0.00000000       0.00000000 </v>
    <v>       0.00000000       2.56679773       0.00000000 </v>
    <v>       0.00000000       0.00000000      23.98379135 </v>
   </varray>
   <i name="volume">    223.46840188 </i>
   <varray name="rec_basis" >
    <v>       0.27548208       0.00000000       0.00000000 </v>
    <v>       0.00000000       0.38959050       0.00000000 </v>
    <v>       0.00000000       0.00000000       0.04169483 </v>
   </varray>
  </crystal>
  <varray name="positions" >
   <v>       0.00000000       0.00061292       0.00110188 </v>
   <v>       0.50000000       0.50065025       0.04846154 </v>
   <v>       0.00000000       0.00135716       0.10253640 </v>
   <v>       0.50000000       0.50298108       0.15498624 </v>
   <v>       0.00000000       0.00557971       0.20631440 </v>
   <v>       0.50000000       0.51160296       0.25989007 </v>
   <v>       0.00000000       0.02193991       0.31279175 </v>
   <v>       0.50000000       0.52804679       0.36126594 </v>
   <v>       0.50000000       0.46337430       0.44377982 </v>
   <v>       0.50000000       0.75448942       0.43420163 </v>
  </varray>
 </structure>
</modeling>
