unknown system                          
           1
     3.630000    0.000000    0.000000
     0.000000    2.566798    0.000000
     0.000000    0.000000   23.983791
   Cu   H 
     8     2
Direct configuration=     1
   0.00000000  0.00000000  0.00000000
   0.50000000  0.50000000  0.05351109
   0.00000000  0.00000000  0.10468148
   0.50000000  0.50000000  0.15792996
   0.00000000  0.00000000  0.21070899
   0.50000000  0.50000000  0.26289048
   0.00000000  0.00000000  0.31711592
   0.50000000  0.50000000  0.36467590
   0.50000000  0.50000000  0.42690792
   0.50000000  0.79063451  0.42690792
Direct configuration=     2
   0.00000000  0.00000438  0.00107771
   0.50000000  0.50000588  0.05247974
   0.00000000 -0.00004992  0.10473022
   0.50000000  0.50008934  0.15826421
   0.00000000  0.00002638  0.21001167
   0.50000000  0.49951276  0.26314717
   0.00000000  0.00098451  0.31666342
   0.50000000  0.50451100  0.36078709
   0.50000000  0.46272315  0.43093073
   0.50000000  0.82282703  0.42723768
Direct configuration=     3
   0.00000000  0.00000257  0.00063396
   0.50000000  0.50000346  0.05290440
   0.00000000 -0.00002937  0.10471015
   0.50000000  0.50005255  0.15812658
   0.00000000  0.00001552  0.21029879
   0.50000000  0.49971338  0.26304148
   0.00000000  0.00057913  0.31684974
   0.50000000  0.50265358  0.36238832
   0.50000000  0.47807197  0.42927433
   0.50000000  0.80957169  0.42710190
Direct configuration=     4
   0.00000000  0.00000665  0.00165472
   0.50000000  0.50000496  0.05199573
   0.00000000 -0.00007574  0.10477142
   0.50000000  0.50012868  0.15837081
   0.00000000  0.00001283  0.20963610
   0.50000000  0.49930325  0.26285012
   0.00000000  0.00172321  0.31620770
   0.50000000  0.50791682  0.36124835
   0.50000000  0.48311385  0.43152936
   0.50000000  0.79850000  0.42706534
Direct configuration=     5
   0.00000000  0.00001386  0.00345633
   0.50000000  0.50000760  0.05039195
   0.00000000 -0.00015760  0.10487955
   0.50000000  0.50026304  0.15880188
   0.00000000  0.00000808  0.20846647
   0.50000000  0.49857938  0.26251237
   0.00000000  0.00374248  0.31507450
   0.50000000  0.51720632  0.35923634
   0.50000000  0.49201267  0.43550945
   0.50000000  0.77895868  0.42700080
Direct configuration=     6
   0.00000000  0.00001211  0.00302024
   0.50000000  0.50000696  0.05078016
   0.00000000 -0.00013779  0.10485338
   0.50000000  0.50023052  0.15869754
   0.00000000  0.00000923  0.20874958
   0.50000000  0.49875460  0.26259413
   0.00000000  0.00325371  0.31534880
   0.50000000  0.51495775  0.35972336
   0.50000000  0.48985867  0.43454605
   0.50000000  0.78368876  0.42701642
Direct configuration=     7
   0.00000000  0.00003228  0.00379198
   0.50000000  0.50001989  0.05029798
   0.00000000 -0.00013893  0.10490621
   0.50000000  0.50026509  0.15837576
   0.00000000 -0.00005872  0.20823978
   0.50000000  0.49850858  0.26154559
   0.00000000  0.00593467  0.31448433
   0.50000000  0.51857313  0.36005913
   0.50000000  0.48206851  0.43663884
   0.50000000  0.78543002  0.42699004
Direct configuration=     8
   0.00000000  0.00003212  0.00378583
   0.50000000  0.50001979  0.05030183
   0.00000000 -0.00013893  0.10490579
   0.50000000  0.50026482  0.15837832
   0.00000000 -0.00005818  0.20824384
   0.50000000  0.49851054  0.26155394
   0.00000000  0.00591330  0.31449122
   0.50000000  0.51854432  0.36005646
   0.50000000  0.48213058  0.43662216
   0.50000000  0.78541614  0.42699025
Direct configuration=     9
   0.00000000  0.00004669  0.00420372
   0.50000000  0.50002099  0.05021968
   0.00000000 -0.00011390  0.10491655
   0.50000000  0.50022774  0.15758651
   0.00000000 -0.00020417  0.20785119
   0.50000000  0.49869774  0.26049766
   0.00000000  0.00932290  0.31352558
   0.50000000  0.52060245  0.36105623
   0.50000000  0.48461996  0.43800418
   0.50000000  0.77741411  0.42746835
Direct configuration=    10
   0.00000000  0.00004824  0.00424812
   0.50000000  0.50002111  0.05021096
   0.00000000 -0.00011124  0.10491770
   0.50000000  0.50022380  0.15750238
   0.00000000 -0.00021968  0.20780947
   0.50000000  0.49871763  0.26038542
   0.00000000  0.00968520  0.31342298
   0.50000000  0.52082114  0.36116247
   0.50000000  0.48488448  0.43815103
   0.50000000  0.77656383  0.42751915
Direct configuration=    11
   0.00000000  0.00007167  0.00406258
   0.50000000  0.50002854  0.05041821
   0.00000000 -0.00006041  0.10479301
   0.50000000  0.50014094  0.15686997
   0.00000000 -0.00032567  0.20761128
   0.50000000  0.49962783  0.26041919
   0.00000000  0.01151961  0.31305675
   0.50000000  0.52030213  0.36124584
   0.50000000  0.48328634  0.43879517
   0.50000000  0.77604353  0.42805764
Direct configuration=    12
   0.00000000  0.00009234  0.00389898
   0.50000000  0.50003508  0.05060096
   0.00000000 -0.00001559  0.10468308
   0.50000000  0.50006788  0.15631237
   0.00000000 -0.00041913  0.20743654
   0.50000000  0.50043037  0.26044897
   0.00000000  0.01313703  0.31273385
   0.50000000  0.51984452  0.36131935
   0.50000000  0.48187725  0.43936312
   0.50000000  0.77558477  0.42853243
Direct configuration=    13
   0.00000000  0.00013366  0.00357179
   0.50000000  0.50004817  0.05096644
   0.00000000  0.00007404  0.10446321
   0.50000000  0.49992175  0.15519716
   0.00000000 -0.00060604  0.20708705
   0.50000000  0.50203544  0.26050854
   0.00000000  0.01637186  0.31208805
   0.50000000  0.51892930  0.36146637
   0.50000000  0.47905906  0.44049902
   0.50000000  0.77466725  0.42948201
Direct configuration=    14
   0.00000000  0.00010204  0.00382213
   0.50000000  0.50003816  0.05068680
   0.00000000  0.00000546  0.10463144
   0.50000000  0.50003355  0.15605043
   0.00000000 -0.00046303  0.20735445
   0.50000000  0.50080737  0.26046296
   0.00000000  0.01389682  0.31258217
   0.50000000  0.51962956  0.36135388
   0.50000000  0.48121532  0.43962992
   0.50000000  0.77536926  0.42875547
Direct configuration=    15
   0.00000000  0.00008455  0.00344400
   0.50000000  0.49999685  0.05070650
   0.00000000  0.00000288  0.10424967
   0.50000000  0.49984858  0.15579557
   0.00000000 -0.00045430  0.20707776
   0.50000000  0.50263867  0.26050384
   0.00000000  0.01524557  0.31250105
   0.50000000  0.51906060  0.36129324
   0.50000000  0.48327909  0.44008171
   0.50000000  0.77093202  0.42967631
Direct configuration=    16
   0.00000000  0.00008897  0.00353963
   0.50000000  0.50000730  0.05070152
   0.00000000  0.00000353  0.10434622
   0.50000000  0.49989536  0.15586003
   0.00000000 -0.00045651  0.20714774
   0.50000000  0.50217552  0.26049350
   0.00000000  0.01490447  0.31252156
   0.50000000  0.51920449  0.36130857
   0.50000000  0.48275715  0.43996745
   0.50000000  0.77205422  0.42944342
Direct configuration=    17
   0.00000000  0.00007132  0.00323681
   0.50000000  0.49997917  0.05055530
   0.00000000 -0.00001626  0.10401393
   0.50000000  0.49976487  0.15588205
   0.00000000 -0.00031608  0.20695513
   0.50000000  0.50371592  0.26046392
   0.00000000  0.01550280  0.31260025
   0.50000000  0.51906755  0.36118960
   0.50000000  0.48133349  0.44037144
   0.50000000  0.77153172  0.43006121
Direct configuration=    18
   0.00000000  0.00003890  0.00268079
   0.50000000  0.49992753  0.05028682
   0.00000000 -0.00005261  0.10340379
   0.50000000  0.49952526  0.15592249
   0.00000000 -0.00005823  0.20660149
   0.50000000  0.50654433  0.26040960
   0.00000000  0.01660143  0.31274473
   0.50000000  0.51881611  0.36097114
   0.50000000  0.47871944  0.44111323
   0.50000000  0.77057234  0.43119557
Direct configuration=    19
   0.00000000  0.00002469  0.00243720
   0.50000000  0.49990490  0.05016920
   0.00000000 -0.00006853  0.10313649
   0.50000000  0.49942029  0.15594020
   0.00000000  0.00005474  0.20644655
   0.50000000  0.50778346  0.26038580
   0.00000000  0.01708274  0.31280803
   0.50000000  0.51870595  0.36087543
   0.50000000  0.47757422  0.44143820
   0.50000000  0.77015204  0.43169253
Direct configuration=    20
   0.00000000  0.00004664  0.00219467
   0.50000000  0.49994358  0.04981988
   0.00000000 -0.00010789  0.10308426
   0.50000000  0.49952440  0.15590621
   0.00000000  0.00073168  0.20645653
   0.50000000  0.50848907  0.26017339
   0.00000000  0.01716808  0.31281846
   0.50000000  0.51994188  0.36097270
   0.50000000  0.47653230  0.44176426
   0.50000000  0.76836475  0.43213929
Direct configuration=    21
   0.00000000  0.00007875  0.00183995
   0.50000000  0.50000015  0.04930896
   0.00000000 -0.00016547  0.10300786
   0.50000000  0.49967668  0.15585649
   0.00000000  0.00172181  0.20647112
   0.50000000  0.50952111  0.25986271
   0.00000000  0.01729290  0.31283370
   0.50000000  0.52174960  0.36111496
   0.50000000  0.47500836  0.44224117
   0.50000000  0.76575061  0.43279273
Direct configuration=    22
   0.00000000  0.00014578  0.00161178
   0.50000000  0.50007590  0.04893795
   0.00000000 -0.00016638  0.10297443
   0.50000000  0.50007032  0.15560778
   0.00000000  0.00274326  0.20653371
   0.50000000  0.50986803  0.25982040
   0.00000000  0.01767753  0.31280952
   0.50000000  0.52366532  0.36116207
   0.50000000  0.47109330  0.44270151
   0.50000000  0.76546144  0.43317049
Direct configuration=    23
   0.00000000  0.00013019  0.00166484
   0.50000000  0.50005829  0.04902423
   0.00000000 -0.00016617  0.10298221
   0.50000000  0.49997878  0.15566562
   0.00000000  0.00250573  0.20651915
   0.50000000  0.50978735  0.25983024
   0.00000000  0.01758809  0.31281514
   0.50000000  0.52321983  0.36115111
   0.50000000  0.47200373  0.44259446
   0.50000000  0.76552869  0.43308264
Direct configuration=    24
   0.00000000  0.00013772  0.00163923
   0.50000000  0.50006679  0.04898258
   0.00000000 -0.00016627  0.10297845
   0.50000000  0.50002297  0.15563770
   0.00000000  0.00262039  0.20652618
   0.50000000  0.50982630  0.25982549
   0.00000000  0.01763127  0.31281243
   0.50000000  0.52343489  0.36115640
   0.50000000  0.47156423  0.44264614
   0.50000000  0.76549622  0.43312505
Direct configuration=    25
   0.00000000  0.00022830  0.00147055
   0.50000000  0.50015464  0.04869420
   0.00000000 -0.00011016  0.10292308
   0.50000000  0.50054612  0.15534450
   0.00000000  0.00358370  0.20657808
   0.50000000  0.50992442  0.25988289
   0.00000000  0.01820092  0.31279046
   0.50000000  0.52522986  0.36119731
   0.50000000  0.46981897  0.44298182
   0.50000000  0.76305775  0.43346675
Direct configuration=    26
   0.00000000  0.00034328  0.00125642
   0.50000000  0.50026615  0.04832812
   0.00000000 -0.00003894  0.10285280
   0.50000000  0.50121021  0.15497230
   0.00000000  0.00480656  0.20664397
   0.50000000  0.51004899  0.25995575
   0.00000000  0.01892406  0.31276257
   0.50000000  0.52750846  0.36124924
   0.50000000  0.46760347  0.44340795
   0.50000000  0.75996226  0.43390051
Direct configuration=    27
   0.00000000  0.00041972  0.00125117
   0.50000000  0.50033171  0.04832708
   0.00000000  0.00016094  0.10271218
   0.50000000  0.50160608  0.15498915
   0.00000000  0.00501181  0.20655031
   0.50000000  0.51017398  0.25992763
   0.00000000  0.01963513  0.31280676
   0.50000000  0.52774388  0.36124928
   0.50000000  0.46766863  0.44349053
   0.50000000  0.75788262  0.43402556
Direct configuration=    28
   0.00000000  0.00041136  0.00125175
   0.50000000  0.50032453  0.04832719
   0.00000000  0.00013906  0.10272758
   0.50000000  0.50156274  0.15498730
   0.00000000  0.00498934  0.20656056
   0.50000000  0.51016029  0.25993071
   0.00000000  0.01955729  0.31280193
   0.50000000  0.52771811  0.36124927
   0.50000000  0.46766150  0.44348149
   0.50000000  0.75811030  0.43401187
Direct configuration=    29
   0.00000000  0.00041767  0.00125131
   0.50000000  0.50032994  0.04832711
   0.00000000  0.00015557  0.10271596
   0.50000000  0.50159544  0.15498869
   0.00000000  0.00500630  0.20655283
   0.50000000  0.51017062  0.25992839
   0.00000000  0.01961603  0.31280558
   0.50000000  0.52773756  0.36124928
   0.50000000  0.46766688  0.44348831
   0.50000000  0.75793851  0.43402220
Direct configuration=    30
   0.00000000  0.00041261  0.00125166
   0.50000000  0.50032561  0.04832718
   0.00000000  0.00014234  0.10272526
   0.50000000  0.50156925  0.15498758
   0.00000000  0.00499272  0.20655902
   0.50000000  0.51016235  0.25993025
   0.00000000  0.01956898  0.31280265
   0.50000000  0.52772198  0.36124927
   0.50000000  0.46766257  0.44348284
   0.50000000  0.75807611  0.43401393
Direct configuration=    31
   0.00000000  0.00041514  0.00125149
   0.50000000  0.50032778  0.04832714
   0.00000000  0.00014895  0.10272061
   0.50000000  0.50158235  0.15498814
   0.00000000  0.00499951  0.20655592
   0.50000000  0.51016648  0.25992932
   0.00000000  0.01959250  0.31280411
   0.50000000  0.52772977  0.36124928
   0.50000000  0.46766472  0.44348558
   0.50000000  0.75800731  0.43401806
Direct configuration=    32
   0.00000000  0.00041365  0.00125159
   0.50000000  0.50032649  0.04832716
   0.00000000  0.00014505  0.10272336
   0.50000000  0.50157461  0.15498781
   0.00000000  0.00499550  0.20655776
   0.50000000  0.51016404  0.25992987
   0.00000000  0.01957860  0.31280325
   0.50000000  0.52772517  0.36124928
   0.50000000  0.46766345  0.44348396
   0.50000000  0.75804796  0.43401562
Direct configuration=    33
   0.00000000  0.00043230  0.00125159
   0.50000000  0.50034255  0.04834605
   0.00000000  0.00029406  0.10261130
   0.50000000  0.50187480  0.15501299
   0.00000000  0.00509581  0.20647651
   0.50000000  0.51025800  0.25990960
   0.00000000  0.02015638  0.31284552
   0.50000000  0.52784572  0.36124852
   0.50000000  0.46682716  0.44356197
   0.50000000  0.75750773  0.43406559
Direct configuration=    34
   0.00000000  0.00044400  0.00125160
   0.50000000  0.50035263  0.04835789
   0.00000000  0.00038749  0.10254103
   0.50000000  0.50206303  0.15502878
   0.00000000  0.00515871  0.20642557
   0.50000000  0.51031691  0.25989690
   0.00000000  0.02051867  0.31287202
   0.50000000  0.52792132  0.36124804
   0.50000000  0.46630278  0.44361089
   0.50000000  0.75716898  0.43409693
Direct configuration=    35
   0.00000000  0.00044603  0.00125160
   0.50000000  0.50035438  0.04835995
   0.00000000  0.00040376  0.10252880
   0.50000000  0.50209580  0.15503153
   0.00000000  0.00516966  0.20641671
   0.50000000  0.51032717  0.25989468
   0.00000000  0.02058174  0.31287663
   0.50000000  0.52793448  0.36124796
   0.50000000  0.46621149  0.44361941
   0.50000000  0.75711000  0.43410238
Direct configuration=    36
   0.00000000  0.00048245  0.00123195
   0.50000000  0.50040588  0.04836085
   0.00000000  0.00048519  0.10255092
   0.50000000  0.50213112  0.15502196
   0.00000000  0.00521206  0.20642377
   0.50000000  0.51044352  0.25990331
   0.00000000  0.02056619  0.31285585
   0.50000000  0.52795419  0.36124196
   0.50000000  0.46565465  0.44364180
   0.50000000  0.75729925  0.43409727
Direct configuration=    37
   0.00000000  0.00047811  0.00123429
   0.50000000  0.50039975  0.04836074
   0.00000000  0.00047550  0.10254829
   0.50000000  0.50212692  0.15502310
   0.00000000  0.00520701  0.20642293
   0.50000000  0.51042967  0.25990229
   0.00000000  0.02056804  0.31285832
   0.50000000  0.52795184  0.36124268
   0.50000000  0.46572096  0.44363913
   0.50000000  0.75727671  0.43409788
Direct configuration=    38
   0.00000000  0.00048188  0.00123226
   0.50000000  0.50040508  0.04836083
   0.00000000  0.00048392  0.10255058
   0.50000000  0.50213057  0.15502211
   0.00000000  0.00521140  0.20642366
   0.50000000  0.51044171  0.25990318
   0.00000000  0.02056643  0.31285617
   0.50000000  0.52795388  0.36124205
   0.50000000  0.46566333  0.44364145
   0.50000000  0.75729630  0.43409735
Direct configuration=    39
   0.00000000  0.00048000  0.00123328
   0.50000000  0.50040241  0.04836079
   0.00000000  0.00047971  0.10254943
   0.50000000  0.50212874  0.15502261
   0.00000000  0.00520921  0.20642329
   0.50000000  0.51043569  0.25990273
   0.00000000  0.02056724  0.31285725
   0.50000000  0.52795286  0.36124236
   0.50000000  0.46569215  0.44364029
   0.50000000  0.75728650  0.43409762
Direct configuration=    40
   0.00000000  0.00048102  0.00123273
   0.50000000  0.50040385  0.04836081
   0.00000000  0.00048199  0.10255005
   0.50000000  0.50212973  0.15502234
   0.00000000  0.00521039  0.20642349
   0.50000000  0.51043895  0.25990298
   0.00000000  0.02056680  0.31285667
   0.50000000  0.52795341  0.36124220
   0.50000000  0.46567656  0.44364092
   0.50000000  0.75729180  0.43409747
Direct configuration=    41
   0.00000000  0.00049472  0.00121489
   0.50000000  0.50042857  0.04837371
   0.00000000  0.00058200  0.10255196
   0.50000000  0.50222310  0.15501770
   0.00000000  0.00524585  0.20641119
   0.50000000  0.51057100  0.25990310
   0.00000000  0.02071834  0.31284781
   0.50000000  0.52796064  0.36124441
   0.50000000  0.46534166  0.44365893
   0.50000000  0.75706864  0.43410595
Direct configuration=    42
   0.00000000  0.00051563  0.00118765
   0.50000000  0.50046631  0.04839339
   0.00000000  0.00073473  0.10255488
   0.50000000  0.50236566  0.15501063
   0.00000000  0.00529999  0.20639240
   0.50000000  0.51077263  0.25990329
   0.00000000  0.02094973  0.31283428
   0.50000000  0.52797166  0.36124780
   0.50000000  0.46483027  0.44368643
   0.50000000  0.75672789  0.43411889
Direct configuration=    43
   0.00000000  0.00055747  0.00113318
   0.50000000  0.50054179  0.04843277
   0.00000000  0.00104017  0.10256071
   0.50000000  0.50265079  0.15499647
   0.00000000  0.00540828  0.20635482
   0.50000000  0.51117591  0.25990367
   0.00000000  0.02141251  0.31280723
   0.50000000  0.52799372  0.36125457
   0.50000000  0.46380749  0.44374144
   0.50000000  0.75604637  0.43414478
Direct configuration=    44
   0.00000000  0.00053408  0.00116364
   0.50000000  0.50049958  0.04841075
   0.00000000  0.00086936  0.10255745
   0.50000000  0.50249134  0.15500439
   0.00000000  0.00534772  0.20637584
   0.50000000  0.51095039  0.25990346
   0.00000000  0.02115371  0.31282236
   0.50000000  0.52798138  0.36125079
   0.50000000  0.46437946  0.44371068
   0.50000000  0.75642749  0.43413030
Direct configuration=    45
   0.00000000  0.00055004  0.00114286
   0.50000000  0.50052838  0.04842578
   0.00000000  0.00098593  0.10255967
   0.50000000  0.50260016  0.15499899
   0.00000000  0.00538905  0.20636149
   0.50000000  0.51110430  0.25990360
   0.00000000  0.02133033  0.31281204
   0.50000000  0.52798980  0.36125337
   0.50000000  0.46398912  0.44373167
   0.50000000  0.75616740  0.43414018
Direct configuration=    46
   0.00000000  0.00055934  0.00113679
   0.50000000  0.50054641  0.04843107
   0.00000000  0.00104085  0.10255623
   0.50000000  0.50265651  0.15499710
   0.00000000  0.00541726  0.20635453
   0.50000000  0.51117807  0.25990160
   0.00000000  0.02142051  0.31280904
   0.50000000  0.52799823  0.36125523
   0.50000000  0.46389816  0.44373879
   0.50000000  0.75591915  0.43414927
Direct configuration=    47
   0.00000000  0.00057720  0.00112515
   0.50000000  0.50058103  0.04844122
   0.00000000  0.00114629  0.10254962
   0.50000000  0.50276470  0.15499348
   0.00000000  0.00547141  0.20634115
   0.50000000  0.51131970  0.25989776
   0.00000000  0.02159364  0.31280328
   0.50000000  0.52801442  0.36125880
   0.50000000  0.46372354  0.44375247
   0.50000000  0.75544258  0.43416672
Direct configuration=    48
   0.00000000  0.00061292  0.00110188
   0.50000000  0.50065025  0.04846154
   0.00000000  0.00135716  0.10253640
   0.50000000  0.50298108  0.15498624
   0.00000000  0.00557971  0.20631440
   0.50000000  0.51160296  0.25989007
   0.00000000  0.02193991  0.31279175
   0.50000000  0.52804679  0.36126594
   0.50000000  0.46337430  0.44377982
   0.50000000  0.75448942  0.43420163
