   5   5   0   0
  0.2668373E+02  0.2566798E-09  0.2566798E-09  0.2338313E-08  0.5000000E-15
  1.000000000000000E-004
  CAR 
 unknown system                          
     11.39050345    -10.22639437  301      0.06919131      1.00000000
    -10.226  0.0000E+00  0.0000E+00  0.0000E+00  0.0000E+00
    -10.154  0.0000E+00  0.0000E+00  0.0000E+00  0.0000E+00
    -10.082  0.0000E+00  0.0000E+00  0.0000E+00  0.0000E+00
    -10.010  0.0000E+00  0.0000E+00  0.0000E+00  0.0000E+00
     -9.938  0.0000E+00  0.0000E+00  0.0000E+00  0.0000E+00
     -9.866 -0.2865E-31 -0.2860E-31 -0.2065E-32 -0.2061E-32
     -9.794 -0.8821E-29 -0.8805E-29 -0.6377E-30 -0.6365E-30
     -9.722 -0.2095E-26 -0.2091E-26 -0.1516E-27 -0.1513E-27
     -9.650 -0.3828E-24 -0.3822E-24 -0.2774E-25 -0.2769E-25
     -9.578 -0.5380E-22 -0.5371E-22 -0.3904E-23 -0.3898E-23
     -9.506 -0.5812E-20 -0.5803E-20 -0.4227E-21 -0.4220E-21
     -9.434 -0.4824E-18 -0.4817E-18 -0.3519E-19 -0.3513E-19
     -9.362 -0.2979E-16 -0.2975E-16 -0.2182E-17 -0.2179E-17
     -9.290 -0.1452E-14 -0.1450E-14 -0.1068E-15 -0.1067E-15
     -9.218 -0.5417E-13 -0.5410E-13 -0.4010E-14 -0.4005E-14
     -9.146 -0.1545E-11 -0.1544E-11 -0.1154E-12 -0.1152E-12
     -9.073 -0.3364E-10 -0.3361E-10 -0.2539E-11 -0.2537E-11
     -9.001 -0.5574E-09 -0.5569E-09 -0.4270E-10 -0.4266E-10
     -8.929 -0.7001E-08 -0.6995E-08 -0.5472E-09 -0.5467E-09
     -8.857 -0.6628E-07 -0.6623E-07 -0.5323E-08 -0.5319E-08
     -8.785 -0.4687E-06 -0.4684E-06 -0.3909E-07 -0.3907E-07
     -8.713 -0.2439E-05 -0.2437E-05 -0.2148E-06 -0.2147E-06
     -8.641 -0.9071E-05 -0.9068E-05 -0.8685E-06 -0.8681E-06
     -8.569 -0.2257E-04 -0.2256E-04 -0.2495E-05 -0.2494E-05
     -8.497 -0.2963E-04 -0.2963E-04 -0.4630E-05 -0.4629E-05
     -8.425  0.1726E-04  0.1723E-04 -0.3386E-05 -0.3388E-05
     -8.353  0.1739E-03  0.1739E-03  0.9147E-05  0.9140E-05
     -8.281  0.4102E-03  0.4101E-03  0.3871E-04  0.3869E-04
     -8.209  0.5693E-03  0.5693E-03  0.7973E-04  0.7972E-04
     -8.137  0.5132E-03  0.5133E-03  0.1167E-03  0.1167E-03
     -8.065  0.2927E-03  0.2928E-03  0.1378E-03  0.1378E-03
     -7.993  0.8242E-04  0.8247E-04  0.1437E-03  0.1437E-03
     -7.921 -0.1657E-04 -0.1655E-04  0.1425E-03  0.1425E-03
     -7.849 -0.2910E-04 -0.2911E-04  0.1405E-03  0.1405E-03
     -7.776 -0.1534E-04 -0.1534E-04  0.1393E-03  0.1393E-03
     -7.704 -0.5096E-05 -0.5098E-05  0.1390E-03  0.1390E-03
     -7.632 -0.1794E-05 -0.1794E-05  0.1388E-03  0.1388E-03
     -7.560 -0.3411E-05 -0.3409E-05  0.1386E-03  0.1386E-03
     -7.488 -0.1121E-04 -0.1120E-04  0.1378E-03  0.1378E-03
     -7.416 -0.2535E-04 -0.2535E-04  0.1360E-03  0.1360E-03
     -7.344 -0.2685E-04 -0.2686E-04  0.1340E-03  0.1340E-03
     -7.272  0.3786E-04  0.3780E-04  0.1368E-03  0.1368E-03
     -7.200  0.2165E-03  0.2164E-03  0.1524E-03  0.1523E-03
     -7.128  0.4526E-03  0.4525E-03  0.1850E-03  0.1850E-03
     -7.056  0.5767E-03  0.5767E-03  0.2265E-03  0.2265E-03
     -6.984  0.4788E-03  0.4788E-03  0.2610E-03  0.2610E-03
     -6.912  0.2465E-03  0.2466E-03  0.2788E-03  0.2788E-03
     -6.840  0.5420E-04  0.5426E-04  0.2827E-03  0.2827E-03
     -6.768 -0.2367E-04 -0.2365E-04  0.2810E-03  0.2810E-03
     -6.696 -0.2704E-04 -0.2705E-04  0.2790E-03  0.2790E-03
     -6.624 -0.1276E-04 -0.1276E-04  0.2781E-03  0.2781E-03
     -6.552 -0.3861E-05 -0.3863E-05  0.2778E-03  0.2778E-03
     -6.479 -0.8230E-06 -0.8236E-06  0.2778E-03  0.2778E-03
     -6.407 -0.1311E-06 -0.1312E-06  0.2778E-03  0.2778E-03
     -6.335 -0.4601E-07 -0.4599E-07  0.2778E-03  0.2778E-03
     -6.263 -0.2458E-06 -0.2455E-06  0.2778E-03  0.2778E-03
     -6.191 -0.1420E-05 -0.1418E-05  0.2777E-03  0.2777E-03
     -6.119 -0.5967E-05 -0.5963E-05  0.2772E-03  0.2772E-03
     -6.047 -0.1730E-04 -0.1730E-04  0.2760E-03  0.2760E-03
     -5.975 -0.3008E-04 -0.3008E-04  0.2738E-03  0.2738E-03
     -5.903 -0.9513E-05 -0.9547E-05  0.2731E-03  0.2731E-03
     -5.831  0.1052E-03  0.1051E-03  0.2807E-03  0.2807E-03
     -5.759  0.3242E-03  0.3240E-03  0.3041E-03  0.3040E-03
     -5.687  0.5219E-03  0.5218E-03  0.3417E-03  0.3416E-03
     -5.615  0.5115E-03  0.5116E-03  0.3785E-03  0.3785E-03
     -5.543  0.2538E-03  0.2540E-03  0.3968E-03  0.3968E-03
     -5.471 -0.3684E-04 -0.3673E-04  0.3942E-03  0.3942E-03
     -5.399  0.4216E-04  0.4206E-04  0.3972E-03  0.3972E-03
     -5.327  0.8576E-03  0.8572E-03  0.4590E-03  0.4590E-03
     -5.255  0.2265E-02  0.2265E-02  0.6222E-03  0.6222E-03
     -5.182  0.3351E-02  0.3351E-02  0.8637E-03  0.8636E-03
     -5.110  0.3191E-02  0.3192E-02  0.1094E-02  0.1094E-02
     -5.038  0.1938E-02  0.1939E-02  0.1233E-02  0.1233E-02
     -4.966  0.6123E-03  0.6127E-03  0.1277E-02  0.1277E-02
     -4.894 -0.9331E-04 -0.9319E-04  0.1271E-02  0.1271E-02
     -4.822 -0.2799E-03 -0.2799E-03  0.1251E-02  0.1251E-02
     -4.750 -0.2981E-03 -0.2981E-03  0.1229E-02  0.1229E-02
     -4.678 -0.1653E-03 -0.1654E-03  0.1217E-02  0.1217E-02
     -4.606  0.4912E-03  0.4908E-03  0.1253E-02  0.1253E-02
     -4.534  0.1898E-02  0.1897E-02  0.1389E-02  0.1389E-02
     -4.462  0.3444E-02  0.3443E-02  0.1637E-02  0.1637E-02
     -4.390  0.3946E-02  0.3946E-02  0.1922E-02  0.1922E-02
     -4.318  0.2979E-02  0.2980E-02  0.2136E-02  0.2136E-02
     -4.246  0.1452E-02  0.1453E-02  0.2241E-02  0.2241E-02
     -4.174  0.4686E-03  0.4688E-03  0.2275E-02  0.2275E-02
     -4.102  0.2004E-03  0.2004E-03  0.2289E-02  0.2289E-02
     -4.030  0.2229E-03  0.2229E-03  0.2305E-02  0.2305E-02
     -3.957  0.4666E-03  0.4664E-03  0.2339E-02  0.2339E-02
     -3.885  0.1284E-02  0.1284E-02  0.2431E-02  0.2431E-02
     -3.813  0.2572E-02  0.2572E-02  0.2617E-02  0.2617E-02
     -3.741  0.3366E-02  0.3366E-02  0.2859E-02  0.2859E-02
     -3.669  0.2821E-02  0.2821E-02  0.3063E-02  0.3063E-02
     -3.597  0.1296E-02  0.1296E-02  0.3156E-02  0.3156E-02
     -3.525  0.4567E-04  0.4594E-04  0.3159E-02  0.3159E-02
     -3.453  0.2100E-03  0.2098E-03  0.3174E-02  0.3174E-02
     -3.381  0.2265E-02  0.2265E-02  0.3338E-02  0.3338E-02
     -3.309  0.5635E-02  0.5634E-02  0.3744E-02  0.3744E-02
     -3.237  0.8586E-02  0.8585E-02  0.4362E-02  0.4362E-02
     -3.165  0.9419E-02  0.9419E-02  0.5041E-02  0.5041E-02
     -3.093  0.8159E-02  0.8160E-02  0.5629E-02  0.5629E-02
     -3.021  0.6414E-02  0.6415E-02  0.6091E-02  0.6091E-02
     -2.949  0.5411E-02  0.5411E-02  0.6481E-02  0.6481E-02
     -2.877  0.4919E-02  0.4919E-02  0.6835E-02  0.6835E-02
     -2.805  0.4342E-02  0.4342E-02  0.7148E-02  0.7148E-02
     -2.733  0.3987E-02  0.3987E-02  0.7436E-02  0.7436E-02
     -2.660  0.4524E-02  0.4524E-02  0.7762E-02  0.7762E-02
     -2.588  0.5709E-02  0.5708E-02  0.8173E-02  0.8173E-02
     -2.516  0.6519E-02  0.6519E-02  0.8643E-02  0.8643E-02
     -2.444  0.6426E-02  0.6426E-02  0.9106E-02  0.9106E-02
     -2.372  0.5881E-02  0.5881E-02  0.9529E-02  0.9529E-02
     -2.300  0.5865E-02  0.5865E-02  0.9952E-02  0.9952E-02
     -2.228  0.7252E-02  0.7252E-02  0.1047E-01  0.1047E-01
     -2.156  0.9916E-02  0.9915E-02  0.1119E-01  0.1119E-01
     -2.084  0.1224E-01  0.1224E-01  0.1207E-01  0.1207E-01
     -2.012  0.1244E-01  0.1244E-01  0.1297E-01  0.1297E-01
     -1.940  0.1047E-01  0.1047E-01  0.1372E-01  0.1372E-01
     -1.868  0.7985E-02  0.7985E-02  0.1430E-01  0.1430E-01
     -1.796  0.6423E-02  0.6423E-02  0.1476E-01  0.1476E-01
     -1.724  0.6149E-02  0.6149E-02  0.1520E-01  0.1520E-01
     -1.652  0.6693E-02  0.6693E-02  0.1569E-01  0.1569E-01
     -1.580  0.7199E-02  0.7199E-02  0.1620E-01  0.1620E-01
     -1.508  0.7501E-02  0.7500E-02  0.1675E-01  0.1674E-01
     -1.436  0.8674E-02  0.8674E-02  0.1737E-01  0.1737E-01
     -1.363  0.1122E-01  0.1122E-01  0.1818E-01  0.1818E-01
     -1.291  0.1364E-01  0.1364E-01  0.1916E-01  0.1916E-01
     -1.219  0.1444E-01  0.1444E-01  0.2020E-01  0.2020E-01
     -1.147  0.1440E-01  0.1440E-01  0.2124E-01  0.2124E-01
     -1.075  0.1495E-01  0.1495E-01  0.2232E-01  0.2232E-01
     -1.003  0.1561E-01  0.1561E-01  0.2344E-01  0.2344E-01
     -0.931  0.1491E-01  0.1491E-01  0.2452E-01  0.2452E-01
     -0.859  0.1305E-01  0.1305E-01  0.2546E-01  0.2546E-01
     -0.787  0.1164E-01  0.1164E-01  0.2630E-01  0.2630E-01
     -0.715  0.1128E-01  0.1128E-01  0.2711E-01  0.2711E-01
     -0.643  0.1100E-01  0.1100E-01  0.2790E-01  0.2790E-01
     -0.571  0.1024E-01  0.1024E-01  0.2864E-01  0.2864E-01
     -0.499  0.9788E-02  0.9788E-02  0.2934E-01  0.2934E-01
     -0.427  0.1015E-01  0.1015E-01  0.3008E-01  0.3008E-01
     -0.355  0.1027E-01  0.1027E-01  0.3082E-01  0.3082E-01
     -0.283  0.9512E-02  0.9512E-02  0.3150E-01  0.3150E-01
     -0.211  0.9095E-02  0.9094E-02  0.3216E-01  0.3216E-01
     -0.139  0.9737E-02  0.9736E-02  0.3286E-01  0.3286E-01
     -0.066  0.9768E-02  0.9768E-02  0.3356E-01  0.3356E-01
      0.006  0.7555E-02  0.7556E-02  0.3411E-01  0.3411E-01
      0.078  0.4021E-02  0.4023E-02  0.3440E-01  0.3440E-01
      0.150  0.1240E-02  0.1241E-02  0.3449E-01  0.3449E-01
      0.222 -0.1603E-05 -0.8997E-06  0.3449E-01  0.3449E-01
      0.294 -0.2506E-03 -0.2503E-03  0.3447E-01  0.3447E-01
      0.366 -0.1854E-03 -0.1853E-03  0.3445E-01  0.3445E-01
      0.438 -0.1034E-03 -0.1034E-03  0.3445E-01  0.3445E-01
      0.510 -0.6274E-04 -0.6276E-04  0.3444E-01  0.3444E-01
      0.582 -0.3730E-04 -0.3737E-04  0.3444E-01  0.3444E-01
      0.654  0.4132E-04  0.4110E-04  0.3444E-01  0.3444E-01
      0.726  0.2278E-03  0.2274E-03  0.3446E-01  0.3446E-01
      0.798  0.4631E-03  0.4628E-03  0.3449E-01  0.3449E-01
      0.870  0.5761E-03  0.5761E-03  0.3453E-01  0.3453E-01
      0.942  0.4620E-03  0.4624E-03  0.3457E-01  0.3457E-01
      1.014  0.2052E-03  0.2057E-03  0.3458E-01  0.3458E-01
      1.086 -0.4279E-04 -0.4250E-04  0.3458E-01  0.3458E-01
      1.159 -0.1986E-03 -0.1985E-03  0.3456E-01  0.3456E-01
      1.231 -0.1313E-03 -0.1315E-03  0.3456E-01  0.3456E-01
      1.303  0.4627E-03  0.4619E-03  0.3459E-01  0.3459E-01
      1.375  0.1722E-02  0.1721E-02  0.3471E-01  0.3471E-01
      1.447  0.3058E-02  0.3057E-02  0.3493E-01  0.3493E-01
      1.519  0.3423E-02  0.3423E-02  0.3518E-01  0.3518E-01
      1.591  0.2490E-02  0.2491E-02  0.3536E-01  0.3536E-01
      1.663  0.1070E-02  0.1071E-02  0.3544E-01  0.3544E-01
      1.735  0.1157E-03  0.1162E-03  0.3544E-01  0.3544E-01
      1.807 -0.1766E-03 -0.1765E-03  0.3543E-01  0.3543E-01
      1.879 -0.1373E-03 -0.1374E-03  0.3542E-01  0.3542E-01
      1.951 -0.5572E-04 -0.5577E-04  0.3542E-01  0.3542E-01
      2.023 -0.1509E-04 -0.1511E-04  0.3542E-01  0.3542E-01
      2.095 -0.2920E-05 -0.2924E-05  0.3542E-01  0.3542E-01
      2.167 -0.4155E-06 -0.4161E-06  0.3542E-01  0.3542E-01
      2.239 -0.4415E-07 -0.4423E-07  0.3542E-01  0.3542E-01
      2.311 -0.3536E-08 -0.3543E-08  0.3542E-01  0.3542E-01
      2.383 -0.2146E-09 -0.2151E-09  0.3542E-01  0.3542E-01
      2.456 -0.9914E-11 -0.9939E-11  0.3542E-01  0.3542E-01
      2.528 -0.3536E-12 -0.3546E-12  0.3542E-01  0.3542E-01
      2.600 -0.1725E-12 -0.1718E-12  0.3542E-01  0.3542E-01
      2.672 -0.4905E-11 -0.4886E-11  0.3542E-01  0.3542E-01
      2.744 -0.1126E-09 -0.1122E-09  0.3542E-01  0.3542E-01
      2.816 -0.1969E-08 -0.1963E-08  0.3542E-01  0.3542E-01
      2.888 -0.2613E-07 -0.2605E-07  0.3542E-01  0.3542E-01
      2.960 -0.2616E-06 -0.2609E-06  0.3542E-01  0.3542E-01
      3.032 -0.1961E-05 -0.1957E-05  0.3542E-01  0.3542E-01
      3.104 -0.1085E-04 -0.1083E-04  0.3542E-01  0.3542E-01
      3.176 -0.4328E-04 -0.4321E-04  0.3541E-01  0.3541E-01
      3.248 -0.1176E-03 -0.1175E-03  0.3540E-01  0.3540E-01
      3.320 -0.1829E-03 -0.1829E-03  0.3539E-01  0.3539E-01
      3.392  0.3745E-05  0.3224E-05  0.3539E-01  0.3539E-01
      3.464  0.8034E-03  0.8021E-03  0.3545E-01  0.3545E-01
      3.536  0.2183E-02  0.2181E-02  0.3561E-01  0.3561E-01
      3.608  0.3316E-02  0.3315E-02  0.3585E-01  0.3585E-01
      3.680  0.3245E-02  0.3246E-02  0.3608E-01  0.3608E-01
      3.753  0.2020E-02  0.2022E-02  0.3622E-01  0.3622E-01
      3.825  0.6282E-03  0.6295E-03  0.3627E-01  0.3627E-01
      3.897 -0.1510E-03 -0.1505E-03  0.3626E-01  0.3626E-01
      3.969 -0.2162E-03 -0.2163E-03  0.3624E-01  0.3624E-01
      4.041  0.2929E-03  0.2927E-03  0.3626E-01  0.3626E-01
      4.113  0.1193E-02  0.1193E-02  0.3635E-01  0.3635E-01
      4.185  0.2014E-02  0.2014E-02  0.3650E-01  0.3650E-01
      4.257  0.2204E-02  0.2205E-02  0.3665E-01  0.3665E-01
      4.329  0.1785E-02  0.1786E-02  0.3678E-01  0.3678E-01
      4.401  0.1319E-02  0.1319E-02  0.3688E-01  0.3688E-01
      4.473  0.1100E-02  0.1101E-02  0.3696E-01  0.3696E-01
      4.545  0.9035E-03  0.9024E-03  0.3702E-01  0.3702E-01
      4.617  0.6060E-03  0.5990E-03  0.3707E-01  0.3707E-01
      4.689  0.5105E-03  0.4973E-03  0.3710E-01  0.3710E-01
      4.761  0.8641E-03  0.8525E-03  0.3717E-01  0.3716E-01
      4.833  0.1392E-02  0.1393E-02  0.3727E-01  0.3726E-01
      4.905  0.1552E-02  0.1564E-02  0.3738E-01  0.3738E-01
      4.977  0.1175E-02  0.1185E-02  0.3746E-01  0.3746E-01
      5.050  0.6400E-03  0.6333E-03  0.3751E-01  0.3751E-01
      5.122  0.3539E-03  0.3350E-03  0.3753E-01  0.3753E-01
      5.194  0.2863E-03  0.2738E-03  0.3755E-01  0.3755E-01
      5.266  0.2132E-03  0.2200E-03  0.3757E-01  0.3757E-01
      5.338  0.3361E-03  0.3552E-03  0.3759E-01  0.3759E-01
      5.410  0.1314E-02  0.1328E-02  0.3769E-01  0.3769E-01
      5.482  0.3315E-02  0.3319E-02  0.3793E-01  0.3793E-01
      5.554  0.5198E-02  0.5197E-02  0.3830E-01  0.3830E-01
      5.626  0.5377E-02  0.5376E-02  0.3869E-01  0.3869E-01
      5.698  0.3699E-02  0.3696E-02  0.3896E-01  0.3896E-01
      5.770  0.1641E-02  0.1631E-02  0.3907E-01  0.3907E-01
      5.842  0.5078E-03  0.4959E-03  0.3911E-01  0.3911E-01
      5.914  0.2790E-03  0.2760E-03  0.3913E-01  0.3913E-01
      5.986  0.2670E-03  0.2764E-03  0.3915E-01  0.3915E-01
      6.058  0.1127E-03  0.1265E-03  0.3916E-01  0.3916E-01
      6.130 -0.6109E-04 -0.5222E-04  0.3915E-01  0.3915E-01
      6.202  0.4553E-04  0.4780E-04  0.3916E-01  0.3916E-01
      6.275  0.6465E-03  0.6456E-03  0.3920E-01  0.3920E-01
      6.347  0.1584E-02  0.1583E-02  0.3932E-01  0.3932E-01
      6.419  0.2237E-02  0.2236E-02  0.3948E-01  0.3948E-01
      6.491  0.2055E-02  0.2055E-02  0.3963E-01  0.3963E-01
      6.563  0.1207E-02  0.1208E-02  0.3971E-01  0.3971E-01
      6.635  0.3633E-03  0.3636E-03  0.3974E-01  0.3974E-01
      6.707 -0.6453E-04 -0.6443E-04  0.3974E-01  0.3974E-01
      6.779 -0.1559E-03 -0.1559E-03  0.3972E-01  0.3972E-01
      6.851 -0.1250E-03 -0.1250E-03  0.3972E-01  0.3972E-01
      6.923 -0.1281E-04 -0.1282E-04  0.3971E-01  0.3971E-01
      6.995  0.2771E-03  0.2773E-03  0.3973E-01  0.3973E-01
      7.067  0.7163E-03  0.7175E-03  0.3979E-01  0.3979E-01
      7.139  0.1001E-02  0.1003E-02  0.3986E-01  0.3986E-01
      7.211  0.8534E-03  0.8536E-03  0.3992E-01  0.3992E-01
      7.283  0.5372E-03  0.5254E-03  0.3996E-01  0.3996E-01
      7.355  0.8262E-03  0.7931E-03  0.4002E-01  0.4001E-01
      7.427  0.2153E-02  0.2107E-02  0.4017E-01  0.4017E-01
      7.499  0.3798E-02  0.3770E-02  0.4045E-01  0.4044E-01
      7.572  0.4382E-02  0.4396E-02  0.4076E-01  0.4076E-01
      7.644  0.3436E-02  0.3481E-02  0.4101E-01  0.4101E-01
      7.716  0.1965E-02  0.2007E-02  0.4115E-01  0.4115E-01
      7.788  0.1219E-02  0.1230E-02  0.4124E-01  0.4124E-01
      7.860  0.1565E-02  0.1542E-02  0.4135E-01  0.4135E-01
      7.932  0.2592E-02  0.2553E-02  0.4154E-01  0.4153E-01
      8.004  0.3468E-02  0.3445E-02  0.4179E-01  0.4178E-01
      8.076  0.3352E-02  0.3365E-02  0.4203E-01  0.4203E-01
      8.148  0.2171E-02  0.2208E-02  0.4219E-01  0.4218E-01
      8.220  0.7388E-03  0.7714E-03  0.4224E-01  0.4224E-01
      8.292 -0.1734E-03 -0.1568E-03  0.4223E-01  0.4223E-01
      8.364 -0.3996E-03 -0.3958E-03  0.4220E-01  0.4220E-01
      8.436  0.3907E-04  0.2822E-04  0.4220E-01  0.4220E-01
      8.508  0.1237E-02  0.1194E-02  0.4229E-01  0.4229E-01
      8.580  0.3040E-02  0.2942E-02  0.4251E-01  0.4250E-01
      8.652  0.4825E-02  0.4681E-02  0.4286E-01  0.4284E-01
      8.724  0.5863E-02  0.5747E-02  0.4328E-01  0.4325E-01
      8.796  0.5681E-02  0.5689E-02  0.4369E-01  0.4366E-01
      8.869  0.4262E-02  0.4398E-02  0.4400E-01  0.4398E-01
      8.941  0.2235E-02  0.2396E-02  0.4416E-01  0.4415E-01
      9.013  0.5450E-03  0.6409E-03  0.4420E-01  0.4420E-01
      9.085 -0.2971E-03 -0.2737E-03  0.4418E-01  0.4418E-01
      9.157 -0.3264E-03 -0.3425E-03  0.4415E-01  0.4415E-01
      9.229  0.3895E-03  0.3520E-03  0.4418E-01  0.4418E-01
      9.301  0.1752E-02  0.1705E-02  0.4431E-01  0.4430E-01
      9.373  0.3096E-02  0.3066E-02  0.4453E-01  0.4452E-01
      9.445  0.3402E-02  0.3414E-02  0.4477E-01  0.4477E-01
      9.517  0.2420E-02  0.2461E-02  0.4495E-01  0.4495E-01
      9.589  0.1006E-02  0.1044E-02  0.4502E-01  0.4502E-01
      9.661  0.8676E-04  0.1035E-03  0.4503E-01  0.4503E-01
      9.733 -0.1793E-03 -0.1778E-03  0.4501E-01  0.4501E-01
      9.805 -0.1327E-03 -0.1354E-03  0.4501E-01  0.4501E-01
      9.877 -0.5262E-04 -0.5443E-04  0.4500E-01  0.4500E-01
      9.949 -0.1400E-04 -0.1463E-04  0.4500E-01  0.4500E-01
     10.021 -0.2665E-05 -0.2812E-05  0.4500E-01  0.4500E-01
     10.093 -0.3735E-06 -0.3977E-06  0.4500E-01  0.4500E-01
     10.166 -0.3912E-07 -0.4201E-07  0.4500E-01  0.4500E-01
     10.238 -0.3089E-08 -0.3344E-08  0.4500E-01  0.4500E-01
     10.310 -0.1849E-09 -0.2018E-09  0.4500E-01  0.4500E-01
     10.382 -0.8426E-11 -0.9271E-11  0.4500E-01  0.4500E-01
     10.454 -0.2930E-12 -0.3250E-12  0.4500E-01  0.4500E-01
     10.526 -0.7794E-14 -0.8710E-14  0.4500E-01  0.4500E-01
     10.598 -0.1592E-15 -0.1798E-15  0.4500E-01  0.4500E-01
     10.670 -0.2568E-17 -0.2568E-17  0.4500E-01  0.4500E-01
     10.742  0.0000E+00  0.0000E+00  0.4500E-01  0.4500E-01
     10.814  0.0000E+00  0.0000E+00  0.4500E-01  0.4500E-01
     10.886  0.0000E+00  0.0000E+00  0.4500E-01  0.4500E-01
     10.958  0.0000E+00  0.0000E+00  0.4500E-01  0.4500E-01
     11.030  0.0000E+00  0.0000E+00  0.4500E-01  0.4500E-01
     11.102  0.0000E+00  0.0000E+00  0.4500E-01  0.4500E-01
     11.174  0.0000E+00  0.0000E+00  0.4500E-01  0.4500E-01
     11.246  0.0000E+00  0.0000E+00  0.4500E-01  0.4500E-01
     11.318  0.0000E+00  0.0000E+00  0.4500E-01  0.4500E-01
     11.391  0.0000E+00  0.0000E+00  0.4500E-01  0.4500E-01
