    5    5  800    2
  0.2668373E+02  0.2566798E-09  0.2566798E-09  0.2338313E-08  0.5000000E-15
  1.000000000000000E-004
  CAR 
 unknown system                          
     55      3     36
 
  0.0000000E+00  0.0000000E+00  0.0000000E+00  0.1111111E+00
      1         -8.226394       -8.226370   1.000000   1.000000
      2         -7.087311       -7.087279   1.000000   1.000000
      3         -5.679198       -5.679156   1.000000   1.000000
      4         -4.398664       -4.398626   1.000000   1.000000
      5         -4.092764       -4.092738   1.000000   1.000000
      6         -2.210200       -2.210185   1.000000   1.000000
      7         -2.165335       -2.165328   1.000000   1.000000
      8         -2.165332       -2.165325   1.000000   1.000000
      9         -2.095864       -2.095855   1.000000   1.000000
     10         -2.095862       -2.095853   1.000000   1.000000
     11         -2.010619       -2.010600   1.000000   1.000000
     12         -1.899643       -1.899632   1.000000   1.000000
     13         -1.899639       -1.899628   1.000000   1.000000
     14         -1.641599       -1.641571   1.000000   1.000000
     15         -1.445545       -1.445534   1.000000   1.000000
     16         -1.445543       -1.445532   1.000000   1.000000
     17         -1.342775       -1.342756   1.000000   1.000000
     18         -1.342775       -1.342755   1.000000   1.000000
     19         -1.327873       -1.327826   1.000000   1.000000
     20         -1.115195       -1.115174   1.000000   1.000000
     21         -1.115193       -1.115172   1.000000   1.000000
     22         -0.909349       -0.909328   1.000000   1.000000
     23         -0.909345       -0.909325   1.000000   1.000000
     24         -0.812779       -0.812760   1.000000   1.000000
     25         -0.812778       -0.812758   1.000000   1.000000
     26         -0.345681       -0.345673   1.006241   1.006242
     27         -0.345679       -0.345671   1.006241   1.006242
     28         -0.304651       -0.304631   1.011916   1.011920
     29         -0.304649       -0.304629   1.011917   1.011920
     30          0.097211        0.097348   0.382720   0.382158
     31          0.835184        0.835310  -0.000000  -0.000000
     32          4.798082        4.802280  -0.000000  -0.000000
     33          5.199686        5.205790  -0.000000  -0.000000
     34          5.892692        5.896821   0.000000   0.000000
     35          7.461407        7.466751   0.000000   0.000000
     36          7.552309        7.556961   0.000000   0.000000
 
  0.3333333E+00  0.0000000E+00  0.0000000E+00  0.6666667E+00
      1         -5.191022       -5.191001   1.000000   1.000000
      2         -4.444305       -4.444282   1.000000   1.000000
      3         -3.765187       -3.765162   1.000000   1.000000
      4         -3.301301       -3.301288   1.000000   1.000000
      5         -3.217082       -3.217057   1.000000   1.000000
      6         -2.906369       -2.906353   1.000000   1.000000
      7         -2.586707       -2.586687   1.000000   1.000000
      8         -2.392696       -2.392679   1.000000   1.000000
      9         -2.180054       -2.180035   1.000000   1.000000
     10         -2.063872       -2.063861   1.000000   1.000000
     11         -2.047454       -2.047432   1.000000   1.000000
     12         -1.815448       -1.815428   1.000000   1.000000
     13         -1.634150       -1.634129   1.000000   1.000000
     14         -1.575470       -1.575454   1.000000   1.000000
     15         -1.362336       -1.362313   1.000000   1.000000
     16         -1.225979       -1.225969   1.000000   1.000000
     17         -1.107170       -1.107149   1.000000   1.000000
     18         -1.036224       -1.036215   1.000000   1.000000
     19         -1.007604       -1.007563   1.000000   1.000000
     20         -0.980803       -0.980794   1.000000   1.000000
     21         -0.831482       -0.831473   1.000000   1.000000
     22         -0.700828       -0.700802   1.000000   1.000000
     23         -0.634551       -0.634523   1.000004   1.000004
     24         -0.421939       -0.421925   1.001408   1.001409
     25         -0.372166       -0.372150   1.003876   1.003877
     26         -0.146857       -0.146849   1.031575   1.031573
     27         -0.116606       -0.116561   1.016101   1.016068
     28         -0.070929       -0.070884   0.960084   0.960005
     29          1.465810        1.465865  -0.000000  -0.000000
     30          3.604994        3.605079  -0.000000  -0.000000
     31          5.566209        5.566353   0.000000   0.000000
     32          7.527061        7.527913   0.000000   0.000000
     33          8.011108        8.012920   0.000000   0.000000
     34          8.610626        8.612221   0.000000   0.000000
     35          8.766684        8.774543   0.000000   0.000000
     36          9.388363        9.390503   0.000000   0.000000
 
 -0.3333333E+00  0.3333333E+00  0.0000000E+00  0.2222222E+00
      1         -3.219044       -3.219029   1.000000   1.000000
      2         -3.155859       -3.155848   1.000000   1.000000
      3         -3.155089       -3.155078   1.000000   1.000000
      4         -3.055002       -3.054987   1.000000   1.000000
      5         -3.017423       -3.017408   1.000000   1.000000
      6         -2.814353       -2.814339   1.000000   1.000000
      7         -2.700365       -2.700351   1.000000   1.000000
      8         -2.568678       -2.568652   1.000000   1.000000
      9         -2.496145       -2.496123   1.000000   1.000000
     10         -2.313456       -2.313443   1.000000   1.000000
     11         -2.004723       -2.004713   1.000000   1.000000
     12         -1.870484       -1.870459   1.000000   1.000000
     13         -1.361766       -1.361756   1.000000   1.000000
     14         -1.312635       -1.312618   1.000000   1.000000
     15         -1.309679       -1.309668   1.000000   1.000000
     16         -1.302669       -1.302655   1.000000   1.000000
     17         -1.253476       -1.253426   1.000000   1.000000
     18         -1.239688       -1.239644   1.000000   1.000000
     19         -0.976507       -0.976493   1.000000   1.000000
     20         -0.804845       -0.804827   1.000000   1.000000
     21         -0.699691       -0.699677   1.000000   1.000000
     22         -0.606950       -0.606939   1.000009   1.000010
     23         -0.601326       -0.601307   1.000011   1.000011
     24         -0.456606       -0.456587   1.000638   1.000639
     25         -0.438076       -0.438036   1.000983   1.000984
     26          4.174676        4.174694  -0.000000  -0.000000
     27          4.215682        4.215703  -0.000000  -0.000000
     28          4.472478        4.472501  -0.000000  -0.000000
     29          4.875745        4.875778  -0.000000  -0.000000
     30          5.510232        5.510261  -0.000000  -0.000000
     31          5.586500        5.586553   0.000000   0.000000
     32          6.386474        6.386508   0.000000   0.000000
     33          6.420892        6.420922   0.000000   0.000000
     34          7.131361        7.131417   0.000000   0.000000
     35          7.804254        7.804311   0.000000   0.000000
     36          8.830052        8.830122   0.000000   0.000000
