       N       E                     dE             d eps       ncg     rms          rms(c)
DAV:   1     0.440047116255E+03    0.44005E+03   -0.21420E+04   432   0.175E+03
DAV:   2     0.188862132460E+02   -0.42116E+03   -0.40647E+03   432   0.361E+02
DAV:   3    -0.206367532707E+02   -0.39523E+02   -0.38136E+02   448   0.164E+02
DAV:   4    -0.218867963044E+02   -0.12500E+01   -0.12457E+01   472   0.383E+01
DAV:   5    -0.219147360167E+02   -0.27940E-01   -0.27936E-01   516   0.454E+00    0.215E+01
DAV:   6    -0.177866611251E+02    0.41281E+01   -0.55697E+01   468   0.128E+02    0.112E+01
DAV:   7    -0.152518093112E+02    0.25349E+01   -0.13242E+01   480   0.749E+01    0.534E+00
DAV:   8    -0.150726951754E+02    0.17911E+00   -0.27719E+00   512   0.582E+01    0.501E+00
DAV:   9    -0.148100611236E+02    0.26263E+00   -0.81398E-01   600   0.273E+01    0.399E+00
DAV:  10    -0.153410828566E+02   -0.53102E+00   -0.15096E+00   568   0.198E+01    0.316E+00
DAV:  11    -0.158359797547E+02   -0.49490E+00   -0.62687E-01   524   0.216E+01    0.167E+00
DAV:  12    -0.167535702445E+02   -0.91759E+00   -0.76673E-01   620   0.205E+01    0.112E+00
DAV:  13    -0.177000342082E+02   -0.94646E+00   -0.77313E-01   556   0.902E+00    0.731E-01
DAV:  14    -0.181301870691E+02   -0.43015E+00   -0.30860E-01   536   0.543E+00    0.639E-01
DAV:  15    -0.182523762458E+02   -0.12219E+00   -0.68000E-02   572   0.584E+00    0.488E-01
DAV:  16    -0.184033580660E+02   -0.15098E+00   -0.10800E-01   576   0.364E+00    0.433E-01
DAV:  17    -0.184233419587E+02   -0.19984E-01   -0.66000E-02   592   0.385E+00    0.440E-01
DAV:  18    -0.184867594284E+02   -0.63417E-01   -0.21269E-02   536   0.267E+00    0.217E-01
DAV:  19    -0.185295018207E+02   -0.42742E-01   -0.89782E-03   492   0.163E+00    0.273E-01
DAV:  20    -0.185438388967E+02   -0.14337E-01   -0.18492E-03   532   0.711E-01    0.230E-01
DAV:  21    -0.186092153158E+02   -0.65376E-01   -0.38949E-03   532   0.995E-01    0.150E-01
DAV:  22    -0.186121469449E+02   -0.29316E-02   -0.46037E-04   400   0.428E-01    0.137E-01
DAV:  23    -0.186388119878E+02   -0.26665E-01   -0.82705E-04   400   0.414E-01    0.736E-02
DAV:  24    -0.186608643731E+02   -0.22052E-01   -0.24119E-03   448   0.536E-01    0.883E-02
DAV:  25    -0.186783414027E+02   -0.17477E-01   -0.65550E-04   412   0.248E-01    0.619E-02
DAV:  26    -0.186854332803E+02   -0.70919E-02   -0.55289E-04   352   0.232E-01    0.458E-02
DAV:  27    -0.186873235033E+02   -0.18902E-02   -0.42885E-04   324   0.331E-01    0.690E-02
DAV:  28    -0.186888334011E+02   -0.15099E-02   -0.13783E-04   296   0.252E-01    0.312E-02
DAV:  29    -0.186890943506E+02   -0.26095E-03   -0.12569E-04   316   0.205E-01    0.135E-02
DAV:  30    -0.186893433318E+02   -0.24898E-03   -0.70197E-05   276   0.982E-02    0.136E-02
DAV:  31    -0.186893871630E+02   -0.43831E-04   -0.29925E-05   268   0.806E-02
   1 F= -.20555632E+02 E0= -.20563927E+02  d E =-.205556E+02  mag=     0.0066
       N       E                     dE             d eps       ncg     rms          rms(c)
DAV:   1    -0.186936604977E+02   -0.43172E-02   -0.45109E+00   448   0.106E+01    0.177E-01
DAV:   2    -0.187062564166E+02   -0.12596E-01   -0.12283E-01   692   0.649E+00    0.733E-01
DAV:   3    -0.187021332963E+02    0.41231E-02   -0.50848E-02   696   0.379E+00    0.362E-01
DAV:   4    -0.187009414170E+02    0.11919E-02   -0.20717E-03   532   0.214E+00    0.133E-01
DAV:   5    -0.187009613927E+02   -0.19976E-04   -0.18296E-03   428   0.859E-01
   2 F= -.20569627E+02 E0= -.20578261E+02  d E =-.139945E-01  mag=     0.0059
       N       E                     dE             d eps       ncg     rms          rms(c)
DAV:   1    -0.186711581663E+02    0.29783E-01   -0.20796E+01   448   0.231E+01    0.514E-01
DAV:   2    -0.187453869928E+02   -0.74229E-01   -0.89939E-01   712   0.194E+01    0.196E+00
DAV:   3    -0.187113785023E+02    0.34008E-01   -0.44758E-01   684   0.121E+01    0.581E-01
DAV:   4    -0.187068973742E+02    0.44811E-02   -0.11554E-02   592   0.491E+00    0.274E-01
DAV:   5    -0.187065476025E+02    0.34977E-03   -0.53558E-03   580   0.909E-01    0.186E-01
DAV:   6    -0.187059572028E+02    0.59040E-03   -0.15114E-03   584   0.162E+00    0.170E-01
DAV:   7    -0.187054896980E+02    0.46750E-03   -0.95119E-04   480   0.140E+00    0.872E-02
DAV:   8    -0.187052637449E+02    0.22595E-03   -0.57747E-04   316   0.768E-01    0.865E-02
DAV:   9    -0.187059272162E+02   -0.66347E-03   -0.19535E-03   484   0.206E+00    0.745E-02
DAV:  10    -0.187060804071E+02   -0.15319E-03   -0.66902E-04   424   0.129E+00
   3 F= -.20579849E+02 E0= -.20586314E+02  d E =-.242170E-01  mag=     0.0048
       N       E                     dE             d eps       ncg     rms          rms(c)
DAV:   1    -0.187059709773E+02   -0.43761E-04   -0.18711E+00   452   0.663E+00    0.982E-02
DAV:   2    -0.187107696162E+02   -0.47986E-02   -0.49247E-02   744   0.418E+00    0.410E-01
DAV:   3    -0.187086859972E+02    0.20836E-02   -0.61532E-03   652   0.241E+00    0.200E-01
DAV:   4    -0.187086280552E+02    0.57942E-04   -0.67559E-04   376   0.475E-01
   4 F= -.20580892E+02 E0= -.20589625E+02  d E =-.252599E-01  mag=     0.0046
       N       E                     dE             d eps       ncg     rms          rms(c)
DAV:   1    -0.187086891296E+02   -0.31324E-05   -0.74747E-02   592   0.185E+00    0.189E-01
DAV:   2    -0.187168175140E+02   -0.81284E-02   -0.85143E-02   556   0.459E+00    0.121E+00
DAV:   3    -0.187074762482E+02    0.93413E-02   -0.97327E-02   536   0.459E+00    0.172E-01
DAV:   4    -0.187076081341E+02   -0.13189E-03   -0.60155E-04   384   0.882E-01
   5 F= -.20580181E+02 E0= -.20589412E+02  d E =-.245484E-01  mag=     0.0044
       N       E                     dE             d eps       ncg     rms          rms(c)
DAV:   1    -0.187060451995E+02    0.14310E-02   -0.26315E+00   456   0.847E+00    0.179E-01
DAV:   2    -0.187113867317E+02   -0.53415E-02   -0.51106E-02   640   0.308E+00    0.571E-01
DAV:   3    -0.187094603924E+02    0.19263E-02   -0.16421E-02   568   0.286E+00    0.223E-01
DAV:   4    -0.187091501822E+02    0.31021E-03   -0.44144E-04   408   0.807E-01    0.141E-01
DAV:   5    -0.187093006640E+02   -0.15048E-03   -0.22530E-03   456   0.187E+00    0.145E-01
DAV:   6    -0.187088066502E+02    0.49401E-03   -0.11643E-03   336   0.150E+00    0.439E-02
DAV:   7    -0.187087888723E+02    0.17778E-04   -0.35594E-04   280   0.604E-01
   6 F= -.20585146E+02 E0= -.20593961E+02  d E =-.496481E-02  mag=     0.0034
       N       E                     dE             d eps       ncg     rms          rms(c)
DAV:   1    -0.186672112045E+02    0.41595E-01   -0.24040E+01   456   0.262E+01    0.470E-01
DAV:   2    -0.187331993311E+02   -0.65988E-01   -0.77757E-01   704   0.167E+01    0.174E+00
DAV:   3    -0.187137456620E+02    0.19454E-01   -0.33389E-01   720   0.951E+00    0.564E-01
DAV:   4    -0.187097737600E+02    0.39719E-02   -0.85602E-03   592   0.424E+00    0.308E-01
DAV:   5    -0.187088431209E+02    0.93064E-03   -0.61326E-03   688   0.143E+00    0.232E-01
DAV:   6    -0.187075706085E+02    0.12725E-02   -0.23212E-03   508   0.225E+00    0.162E-01
DAV:   7    -0.187079038471E+02   -0.33324E-03   -0.80816E-03   640   0.153E+00    0.323E-01
DAV:   8    -0.187079013223E+02    0.25248E-05   -0.76183E-04   428   0.234E-01
   7 F= -.20595797E+02 E0= -.20604216E+02  d E =-.156164E-01  mag=     0.0028
       N       E                     dE             d eps       ncg     rms          rms(c)
DAV:   1    -0.185709723099E+02    0.13693E+00   -0.10294E+02   560   0.605E+01    0.167E+00
DAV:   2    -0.190307410701E+02   -0.45977E+00   -0.75027E+00   632   0.570E+01    0.309E+00
DAV:   3    -0.186950819246E+02    0.33566E+00   -0.20731E+00   744   0.402E+01    0.132E+00
DAV:   4    -0.186687331823E+02    0.26349E-01   -0.16627E-01   744   0.138E+01    0.648E-01
DAV:   5    -0.186663972994E+02    0.23359E-02   -0.43484E-02   608   0.435E+00    0.554E-01
DAV:   6    -0.186635624081E+02    0.28349E-02   -0.15975E-02   600   0.363E+00    0.322E-01
DAV:   7    -0.186621361232E+02    0.14263E-02   -0.66064E-03   760   0.372E+00    0.204E-01
DAV:   8    -0.186617277894E+02    0.40833E-03   -0.31166E-03   624   0.159E+00    0.146E-01
DAV:   9    -0.186614997594E+02    0.22803E-03   -0.43542E-04   400   0.927E-01    0.119E-01
DAV:  10    -0.186608893875E+02    0.61037E-03   -0.57919E-04   360   0.124E+00    0.162E-01
DAV:  11    -0.186602108132E+02    0.67857E-03   -0.87167E-04   408   0.112E+00    0.119E-01
DAV:  12    -0.186602997322E+02   -0.88919E-04   -0.32835E-03   528   0.150E+00    0.181E-01
DAV:  13    -0.186603335252E+02   -0.33793E-04   -0.58714E-03   448   0.198E+00    0.121E-01
DAV:  14    -0.186602667452E+02    0.66780E-04   -0.12965E-04   272   0.259E-01
   8 F= -.20572164E+02 E0= -.20581513E+02  d E =0.801674E-02  mag=     0.0015
       N       E                     dE             d eps       ncg     rms          rms(c)
DAV:   1    -0.186142318962E+02    0.46102E-01   -0.71929E+01   504   0.485E+01    0.472E-01
DAV:   2    -0.187134693771E+02   -0.99237E-01   -0.10499E+00   616   0.100E+01    0.700E-01
DAV:   3    -0.187106810711E+02    0.27883E-02   -0.13203E-01   568   0.726E+00    0.541E-01
DAV:   4    -0.187091424990E+02    0.15386E-02   -0.16108E-02   568   0.405E+00    0.493E-01
DAV:   5    -0.187068264413E+02    0.23161E-02   -0.40641E-03   536   0.303E+00    0.339E-01
DAV:   6    -0.187067020603E+02    0.12438E-03   -0.10788E-02   720   0.206E+00    0.606E-01
DAV:   7    -0.187046514910E+02    0.20506E-02   -0.24639E-02   532   0.288E+00    0.340E-01
DAV:   8    -0.187041879183E+02    0.46357E-03   -0.23625E-03   616   0.195E+00    0.955E-02
DAV:   9    -0.187042050660E+02   -0.17148E-04   -0.29957E-04   304   0.672E-01
   9 F= -.20595706E+02 E0= -.20604706E+02  d E =-.155249E-01  mag=     0.0011
       N       E                     dE             d eps       ncg     rms          rms(c)
DAV:   1    -0.187009677683E+02    0.32202E-02   -0.23401E+00   456   0.797E+00    0.104E-01
DAV:   2    -0.187051777482E+02   -0.42100E-02   -0.41549E-02   640   0.290E+00    0.199E-01
DAV:   3    -0.187049196040E+02    0.25814E-03   -0.45818E-03   584   0.206E+00    0.193E-01
DAV:   4    -0.187046298984E+02    0.28971E-03   -0.94161E-04   352   0.106E+00    0.966E-02
DAV:   5    -0.187045862750E+02    0.43623E-04   -0.21068E-04   280   0.252E-01
  10 F= -.20599423E+02 E0= -.20608451E+02  d E =-.371710E-02  mag=     0.0010
       N       E                     dE             d eps       ncg     rms          rms(c)
DAV:   1    -0.186687477618E+02    0.35882E-01   -0.21356E+01   452   0.247E+01    0.457E-01
DAV:   2    -0.187373738596E+02   -0.68626E-01   -0.81043E-01   696   0.183E+01    0.186E+00
DAV:   3    -0.187077821038E+02    0.29592E-01   -0.33596E-01   704   0.103E+01    0.545E-01
DAV:   4    -0.187050962558E+02    0.26858E-02   -0.90126E-03   632   0.390E+00    0.268E-01
DAV:   5    -0.187045774575E+02    0.51880E-03   -0.46308E-03   584   0.125E+00    0.185E-01
DAV:   6    -0.187037295076E+02    0.84795E-03   -0.22071E-03   632   0.173E+00    0.153E-01
DAV:   7    -0.187032610285E+02    0.46848E-03   -0.81420E-04   472   0.133E+00    0.890E-02
DAV:   8    -0.187030932803E+02    0.16775E-03   -0.42535E-04   336   0.560E-01
  11 F= -.20608050E+02 E0= -.20617146E+02  d E =-.123446E-01  mag=     0.0008
       N       E                     dE             d eps       ncg     rms          rms(c)
DAV:   1    -0.185977356335E+02    0.10553E+00   -0.90201E+01   528   0.554E+01    0.581E-01
DAV:   2    -0.187021089427E+02   -0.10437E+00   -0.11562E+00   664   0.126E+01    0.133E+00
DAV:   3    -0.186956179286E+02    0.64910E-02   -0.23587E-01   640   0.776E+00    0.606E-01
DAV:   4    -0.186909213854E+02    0.46965E-02   -0.87939E-03   672   0.268E+00    0.397E-01
DAV:   5    -0.186882287926E+02    0.26926E-02   -0.16180E-02   744   0.279E+00    0.430E-01
DAV:   6    -0.186874658564E+02    0.76294E-03   -0.50432E-03   672   0.259E+00    0.334E-01
DAV:   7    -0.186866489188E+02    0.81694E-03   -0.80892E-03   488   0.194E+00    0.553E-02
DAV:   8    -0.186867173465E+02   -0.68428E-04   -0.32047E-04   288   0.710E-01
  12 F= -.20612380E+02 E0= -.20618448E+02  d E =-.166744E-01  mag=     0.0006
       N       E                     dE             d eps       ncg     rms          rms(c)
DAV:   1    -0.186833275003E+02    0.33214E-02   -0.63462E+00   448   0.131E+01    0.179E-01
DAV:   2    -0.186968788131E+02   -0.13551E-01   -0.12210E-01   612   0.426E+00    0.411E-01
DAV:   3    -0.186939774423E+02    0.29014E-02   -0.12922E-02   588   0.390E+00    0.193E-01
DAV:   4    -0.186938725279E+02    0.10491E-03   -0.16946E-03   456   0.105E+00
  13 F= -.20613817E+02 E0= -.20620028E+02  d E =-.181112E-01  mag=     0.0006
       N       E                     dE             d eps       ncg     rms          rms(c)
DAV:   1    -0.186875239230E+02    0.64535E-02   -0.46522E+00   448   0.112E+01    0.169E-01
DAV:   2    -0.186966712988E+02   -0.91474E-02   -0.84887E-02   608   0.365E+00    0.348E-01
DAV:   3    -0.186958921931E+02    0.77911E-03   -0.84510E-03   600   0.284E+00    0.214E-01
DAV:   4    -0.186956014988E+02    0.29069E-03   -0.15395E-03   448   0.129E+00    0.105E-01
DAV:   5    -0.186955054190E+02    0.96080E-04   -0.36240E-04   304   0.681E-01
  14 F= -.20617377E+02 E0= -.20624226E+02  d E =-.355963E-02  mag=     0.0005
       N       E                     dE             d eps       ncg     rms          rms(c)
DAV:   1    -0.186948802207E+02    0.72128E-03   -0.16024E-01   460   0.229E+00    0.578E-02
DAV:   2    -0.186952887188E+02   -0.40850E-03   -0.41872E-03   648   0.158E+00    0.212E-01
DAV:   3    -0.186949411489E+02    0.34757E-03   -0.49587E-04   352   0.723E-01    0.944E-02
DAV:   4    -0.186950248316E+02   -0.83683E-04   -0.17326E-04   280   0.367E-01
  15 F= -.20617271E+02 E0= -.20625503E+02  d E =-.345412E-02  mag=     0.0005
       N       E                     dE             d eps       ncg     rms          rms(c)
DAV:   1    -0.186950425391E+02   -0.10139E-03   -0.19853E-02   608   0.135E+00    0.484E-02
DAV:   2    -0.186950759583E+02   -0.33419E-04   -0.33283E-04   320   0.703E-01
  16 F= -.20617446E+02 E0= -.20624693E+02  d E =-.362895E-02  mag=     0.0005
       N       E                     dE             d eps       ncg     rms          rms(c)
DAV:   1    -0.186950785903E+02   -0.36051E-04   -0.10759E-02   552   0.874E-01    0.687E-02
DAV:   2    -0.186954724564E+02   -0.39387E-03   -0.83438E-04   368   0.136E+00    0.283E-01
DAV:   3    -0.186947766285E+02    0.69583E-03   -0.12960E-03   344   0.124E+00    0.874E-02
DAV:   4    -0.186951389148E+02   -0.36229E-03   -0.19697E-03   432   0.203E+00    0.257E-02
DAV:   5    -0.186952141051E+02   -0.75190E-04   -0.19260E-04   328   0.522E-01
  17 F= -.20617485E+02 E0= -.20624158E+02  d E =-.366809E-02  mag=     0.0005
       N       E                     dE             d eps       ncg     rms          rms(c)
DAV:   1    -0.186952148459E+02   -0.75931E-04   -0.41726E-03   508   0.477E-01    0.324E-02
DAV:   2    -0.186951523137E+02    0.62532E-04   -0.38756E-04   304   0.975E-01
  18 F= -.20617489E+02 E0= -.20624607E+02  d E =-.367250E-02  mag=     0.0004
       N       E                     dE             d eps       ncg     rms          rms(c)
DAV:   1    -0.186951399336E+02    0.74912E-04   -0.17044E-04   304   0.180E-01    0.364E-02
DAV:   2    -0.186951685440E+02   -0.28610E-04   -0.48796E-04   304   0.854E-01
  19 F= -.20617498E+02 E0= -.20625438E+02  d E =-.368154E-02  mag=     0.0004
       N       E                     dE             d eps       ncg     rms          rms(c)
DAV:   1    -0.186950268780E+02    0.11306E-03   -0.13078E-04   288   0.331E-01    0.613E-02
DAV:   2    -0.186952144690E+02   -0.18759E-03   -0.47176E-04   400   0.119E+00
  20 F= -.20617551E+02 E0= -.20625270E+02  d E =-.373429E-02  mag=     0.0004
       N       E                     dE             d eps       ncg     rms          rms(c)
DAV:   1    -0.186947776312E+02    0.24925E-03   -0.86297E-04   320   0.101E+00    0.876E-02
DAV:   2    -0.186942215872E+02    0.55604E-03   -0.14991E-03   484   0.172E+00    0.947E-02
DAV:   3    -0.186943170938E+02   -0.95507E-04   -0.38252E-04   336   0.360E-01
  21 F= -.20616660E+02 E0= -.20626293E+02  d E =-.284326E-02  mag=     0.0004
       N       E                     dE             d eps       ncg     rms          rms(c)
DAV:   1    -0.186941991695E+02    0.22418E-04   -0.17344E-04   284   0.507E-01    0.107E-01
DAV:   2    -0.186971787470E+02   -0.29796E-02   -0.38371E-02   472   0.349E+00    0.459E-01
DAV:   3    -0.186939951063E+02    0.31836E-02   -0.28223E-02   472   0.335E+00    0.104E-01
DAV:   4    -0.186940367809E+02   -0.41675E-04   -0.21311E-04   304   0.624E-01
  22 F= -.20616376E+02 E0= -.20625898E+02  d E =-.255916E-02  mag=     0.0003
       N       E                     dE             d eps       ncg     rms          rms(c)
DAV:   1    -0.186940009374E+02   -0.58311E-05   -0.14097E-04   288   0.357E-01    0.382E-02
DAV:   2    -0.186943333917E+02   -0.33245E-03   -0.53113E-04   328   0.100E+00    0.235E-01
DAV:   3    -0.186939792799E+02    0.35411E-03   -0.82606E-04   284   0.101E+00    0.597E-02
DAV:   4    -0.186939998816E+02   -0.20602E-04   -0.19730E-04   268   0.511E-01
  23 F= -.20616336E+02 E0= -.20625759E+02  d E =-.251895E-02  mag=     0.0003
       N       E                     dE             d eps       ncg     rms          rms(c)
DAV:   1    -0.186940372407E+02   -0.57961E-04   -0.29299E-01   452   0.274E+00    0.366E-02
DAV:   2    -0.186945073585E+02   -0.47012E-03   -0.49634E-03   608   0.685E-01    0.426E-02
DAV:   3    -0.186945222645E+02   -0.14906E-04   -0.14659E-04   280   0.409E-01
  24 F= -.20616464E+02 E0= -.20625967E+02  d E =-.128538E-03  mag=     0.0003
       N       E                     dE             d eps       ncg     rms          rms(c)
DAV:   1    -0.186942466285E+02    0.26073E-03   -0.58713E-02   456   0.131E+00    0.269E-02
DAV:   2    -0.186944800910E+02   -0.23346E-03   -0.14699E-03   504   0.789E-01    0.126E-01
DAV:   3    -0.186943085236E+02    0.17157E-03   -0.58991E-04   280   0.795E-01
  25 F= -.20616427E+02 E0= -.20625827E+02  d E =-.912105E-04  mag=     0.0003
       N       E                     dE             d eps       ncg     rms          rms(c)
DAV:   1    -0.186944042567E+02    0.75834E-04   -0.64283E-03   448   0.430E-01    0.133E-02
DAV:   2    -0.186944950881E+02   -0.90831E-04   -0.33040E-04   288   0.643E-01
  26 F= -.20616557E+02 E0= -.20626041E+02  d E =-.220883E-03  mag=     0.0003
       N       E                     dE             d eps       ncg     rms          rms(c)
DAV:   1    -0.186943625399E+02    0.41717E-04   -0.16064E-03   536   0.594E-01    0.142E-02
DAV:   2    -0.186944273685E+02   -0.64829E-04   -0.96475E-05   264   0.391E-01
  27 F= -.20616514E+02 E0= -.20626040E+02  d E =-.178364E-03  mag=     0.0003
       N       E                     dE             d eps       ncg     rms          rms(c)
DAV:   1    -0.186943809442E+02   -0.18404E-04   -0.17382E-04   264   0.398E-01    0.225E-02
DAV:   2    -0.186946319282E+02   -0.25098E-03   -0.12970E-03   296   0.106E+00    0.165E-01
DAV:   3    -0.186943453841E+02    0.28654E-03   -0.11578E-03   288   0.979E-01    0.277E-02
DAV:   4    -0.186943953839E+02   -0.50000E-04   -0.39367E-05   264   0.168E-01
  28 F= -.20616469E+02 E0= -.20625889E+02  d E =-.133259E-03  mag=     0.0002
       N       E                     dE             d eps       ncg     rms          rms(c)
DAV:   1    -0.186943919179E+02   -0.46534E-04   -0.46980E-05   276   0.954E-02    0.467E-03
DAV:   2    -0.186943941096E+02   -0.21917E-05   -0.19588E-05   248   0.878E-02
  29 F= -.20616476E+02 E0= -.20625895E+02  d E =-.140293E-03  mag=     0.0002
       N       E                     dE             d eps       ncg     rms          rms(c)
DAV:   1    -0.186943986978E+02   -0.67800E-05   -0.11925E-05   232   0.100E-01    0.110E-02
DAV:   2    -0.186944678438E+02   -0.69146E-04   -0.17255E-04   280   0.480E-01
  30 F= -.20616548E+02 E0= -.20626057E+02  d E =-.212293E-03  mag=     0.0002
       N       E                     dE             d eps       ncg     rms          rms(c)
DAV:   1    -0.186943763929E+02    0.22305E-04   -0.15481E-04   264   0.451E-01    0.366E-03
DAV:   2    -0.186944021451E+02   -0.25752E-04   -0.19926E-05   264   0.152E-01
  31 F= -.20616482E+02 E0= -.20625918E+02  d E =-.146139E-03  mag=     0.0002
