<?xml version="1.0" encoding="ISO-8859-1"?>
<modeling>
 <generator>
  <i name="program" type="string">vasp </i>
  <i name="version" type="string">6.3.2  </i>
  <i name="subversion" type="string">27Jun22 (build Aug 17 2022 15:43:34) complex                          parallel </i>
  <i name="platform" type="string">tv2STDVTST </i>
  <i name="date" type="string">2025 01 17 </i>
  <i name="time" type="string">13:52:04 </i>
 </generator>
 <incar>
  <i type="int" name="ISTART">     0</i>
  <i type="string" name="PREC">Normal</i>
  <i type="int" name="ISPIN">     2</i>
  <i type="int" name="ICHARG">     2</i>
  <i type="int" name="IBRION">     2</i>
  <i name="EDIFF">      0.00020000</i>
  <i name="EDIFFG">     -0.03000000</i>
  <i type="int" name="NSW">   800</i>
  <i type="int" name="ISIF">     2</i>
  <i type="int" name="ISYM">     1</i>
  <i name="ENCUT">    400.00000000</i>
  <i name="POTIM">      0.50000000</i>
  <i type="logical" name="LREAL"> F  </i>
  <i type="int" name="ISMEAR">     1</i>
  <i name="SIGMA">      0.20000000</i>
  <i type="logical" name="LWAVE"> F  </i>
  <i type="logical" name="LCHARG"> F  </i>
  <i type="string" name="GGA">PE</i>
  <i type="int" name="IDIPOL">     3</i>
  <i type="int" name="IVDW">    11</i>
 </incar>
 <primitive_cell>
  <structure name="primitive_cell" >
   <crystal>
    <varray name="basis" >
     <v>       2.56679773       0.00000000       0.00000000 </v>
     <v>       1.28339887       2.22291204       0.00000000 </v>
     <v>       0.00000000       0.00000000      23.38312616 </v>
    </varray>
    <i name="volume">    133.41863673 </i>
    <varray name="rec_basis" >
     <v>       0.38959050      -0.22493018       0.00000000 </v>
     <v>       0.00000000       0.44986035       0.00000000 </v>
     <v>       0.00000000       0.00000000       0.04276588 </v>
    </varray>
   </crystal>
   <varray name="positions" >
    <v>       0.00000000       0.00000000       0.00000000 </v>
    <v>       0.33333333       0.33333333       0.08962794 </v>
    <v>       0.66666667       0.66666667       0.17925589 </v>
    <v>       0.00000000       0.00000000       0.26888383 </v>
    <v>       0.33333333       0.33333333       0.35851178 </v>
   </varray>
  </structure>
  <varray name="primitive_index" >
   <v type="int" >        1 </v>
   <v type="int" >        2 </v>
   <v type="int" >        3 </v>
   <v type="int" >        4 </v>
   <v type="int" >        5 </v>
  </varray>
 </primitive_cell>
 <kpoints>
  <generation param="Monkhorst-Pack">
   <v type="int" name="divisions">       3        3        1 </v>
   <v name="usershift">      0.00000000       0.00000000       0.00000000 </v>
   <v name="genvec1">      0.33333333       0.00000000       0.00000000 </v>
   <v name="genvec2">      0.00000000       0.33333333       0.00000000 </v>
   <v name="genvec3">      0.00000000       0.00000000       1.00000000 </v>
   <v name="shift">      0.00000000       0.00000000       0.00000000 </v>
  </generation>
  <varray name="kpointlist" >
   <v>       0.00000000       0.00000000       0.00000000 </v>
   <v>       0.33333333       0.00000000       0.00000000 </v>
   <v>      -0.33333333       0.33333333       0.00000000 </v>
  </varray>
  <varray name="weights" >
   <v>       0.11111111 </v>
   <v>       0.66666667 </v>
   <v>       0.22222222 </v>
  </varray>
 </kpoints>
 <parameters>
  <separator name="general" >
   <i type="string" name="SYSTEM">unknown system</i>
   <i type="logical" name="LCOMPAT"> F  </i>
  </separator>
  <separator name="electronic" >
   <i type="string" name="PREC">normal</i>
   <i name="ENMAX">    400.00000000</i>
   <i name="ENAUG">    586.98000000</i>
   <i name="EDIFF">      0.00020000</i>
   <i type="int" name="IALGO">    38</i>
   <i type="int" name="IWAVPR">    11</i>
   <i type="int" name="NBANDS">    36</i>
   <i type="int" name="NBANDSLOW">    -1</i>
   <i type="int" name="NBANDSHIGH">    -1</i>
   <i name="NELECT">     55.00000000</i>
   <i type="int" name="TURBO">     0</i>
   <i type="int" name="IRESTART">     0</i>
   <i type="int" name="NREBOOT">     0</i>
   <i type="int" name="NMIN">     0</i>
   <i name="EREF">      0.00000000</i>
   <separator name="electronic smearing" >
    <i type="int" name="ISMEAR">     1</i>
    <i name="SIGMA">      0.20000000</i>
    <i name="KSPACING">      0.50000000</i>
    <i type="logical" name="KGAMMA"> T  </i>
    <i type="logical" name="KBLOWUP"> T  </i>
   </separator>
   <separator name="electronic projectors" >
    <i type="logical" name="LREAL"> F  </i>
    <v name="ROPT">      0.00000000</v>
    <i type="int" name="LMAXPAW">  -100</i>
    <i type="int" name="LMAXMIX">     2</i>
    <i type="logical" name="NLSPLINE"> F  </i>
   </separator>
   <separator name="electronic startup" >
    <i type="int" name="ISTART">     0</i>
    <i type="int" name="ICHARG">     2</i>
    <i type="int" name="INIWAV">     1</i>
   </separator>
   <separator name="electronic spin" >
    <i type="int" name="ISPIN">     2</i>
    <i type="logical" name="LNONCOLLINEAR"> F  </i>
    <v name="MAGMOM">      1.00000000      1.00000000      1.00000000      1.00000000      1.00000000</v>
    <i name="NUPDOWN">     -1.00000000</i>
    <i type="logical" name="LSORBIT"> F  </i>
    <v name="SAXIS">      0.00000000      0.00000000      1.00000000</v>
    <i type="logical" name="LSPIRAL"> F  </i>
    <v name="QSPIRAL">      0.00000000      0.00000000      0.00000000</v>
    <i type="logical" name="LZEROZ"> F  </i>
   </separator>
   <separator name="electronic exchange-correlation" >
    <i type="logical" name="LASPH"> F  </i>
    <i type="logical" name="LMETAGGA"> F  </i>
   </separator>
   <separator name="electronic convergence" >
    <i type="int" name="NELM">    60</i>
    <i type="int" name="NELMDL">    -5</i>
    <i type="int" name="NELMIN">     2</i>
    <i name="ENINI">    400.00000000</i>
    <separator name="electronic convergence detail" >
     <i type="logical" name="LDIAG"> T  </i>
     <i type="logical" name="LSUBROT"> F  </i>
     <i name="WEIMIN">      0.00100000</i>
     <i name="EBREAK">      0.00000139</i>
     <i name="DEPER">      0.30000000</i>
     <i type="int" name="NRMM">     4</i>
     <i name="TIME">      0.40000000</i>
    </separator>
   </separator>
   <separator name="electronic mixer" >
    <i name="AMIX">      0.40000000</i>
    <i name="BMIX">      1.00000000</i>
    <i name="AMIN">      0.10000000</i>
    <i name="AMIX_MAG">      1.60000000</i>
    <i name="BMIX_MAG">      1.00000000</i>
    <separator name="electronic mixer details" >
     <i type="int" name="IMIX">     4</i>
     <i type="logical" name="MIXFIRST"> F  </i>
     <i type="int" name="MAXMIX">   -45</i>
     <i name="WC">    100.00000000</i>
     <i type="int" name="INIMIX">     1</i>
     <i type="int" name="MIXPRE">     1</i>
     <i type="int" name="MREMOVE">     5</i>
    </separator>
   </separator>
   <separator name="electronic dipolcorrection" >
    <i type="logical" name="LDIPOL"> F  </i>
    <i type="logical" name="LMONO"> F  </i>
    <i type="int" name="IDIPOL">     3</i>
    <i name="EPSILON">      1.00000000</i>
    <v name="DIPOL">   -100.00000000   -100.00000000   -100.00000000</v>
    <i name="EFIELD">      0.00000000</i>
   </separator>
  </separator>
  <separator name="grids" >
   <i type="int" name="NGX">    14</i>
   <i type="int" name="NGY">    14</i>
   <i type="int" name="NGZ">   120</i>
   <i type="int" name="NGXF">    28</i>
   <i type="int" name="NGYF">    28</i>
   <i type="int" name="NGZF">   240</i>
   <i type="logical" name="ADDGRID"> F  </i>
  </separator>
  <separator name="ionic" >
   <i type="int" name="NSW">   800</i>
   <i type="int" name="IBRION">     2</i>
   <i type="int" name="MDALGO">     0</i>
   <i type="int" name="ISIF">     2</i>
   <i name="PSTRESS">      0.00000000</i>
   <i name="EDIFFG">     -0.03000000</i>
   <i type="int" name="NFREE">     1</i>
   <i name="POTIM">      0.50000000</i>
   <i name="SMASS">     -3.00000000</i>
   <i name="SCALEE">      1.00000000</i>
  </separator>
  <separator name="ionic md" >
   <i name="TEBEG">      0.00010000</i>
   <i name="TEEND">      0.00010000</i>
   <i type="int" name="NBLOCK">     1</i>
   <i type="int" name="KBLOCK">   800</i>
   <i type="int" name="NPACO">   256</i>
   <i name="APACO">     10.00000000</i>
  </separator>
  <separator name="symmetry" >
   <i type="int" name="ISYM">     1</i>
   <i name="SYMPREC">      0.00001000</i>
  </separator>
  <separator name="dos" >
   <i type="int" name="LORBIT">     0</i>
   <v name="RWIGS">     -1.00000000</v>
   <i type="int" name="NEDOS">   301</i>
   <i name="EMIN">     10.00000000</i>
   <i name="EMAX">    -10.00000000</i>
   <i name="EFERMI">      0.00000000</i>
  </separator>
  <separator name="writing" >
   <i type="int" name="NWRITE">     2</i>
   <i type="logical" name="LWAVE"> F  </i>
   <i type="logical" name="LDOWNSAMPLE"> F  </i>
   <i type="logical" name="LCHARG"> F  </i>
   <i type="logical" name="LPARD"> F  </i>
   <i type="logical" name="LVTOT"> F  </i>
   <i type="logical" name="LVHAR"> F  </i>
   <i type="logical" name="LELF"> F  </i>
   <i type="logical" name="LOPTICS"> F  </i>
   <v name="STM">      0.00000000      0.00000000      0.00000000      0.00000000      0.00000000      0.00000000      0.00000000</v>
  </separator>
  <separator name="performance" >
   <i type="int" name="NPAR">     4</i>
   <i type="int" name="NSIM">     4</i>
   <i type="int" name="NBLK">    -1</i>
   <i type="logical" name="LPLANE"> T  </i>
   <i type="logical" name="LSCALAPACK"> T  </i>
   <i type="logical" name="LSCAAWARE"> F  </i>
   <i type="logical" name="LSCALU"> F  </i>
   <i type="logical" name="LASYNC"> F  </i>
   <i type="logical" name="LORBITALREAL"> F  </i>
  </separator>
  <separator name="miscellaneous" >
   <i type="int" name="IDIOT">     3</i>
   <i type="int" name="PHON_NSTRUCT">    -1</i>
   <i type="logical" name="LMUSIC"> F  </i>
   <v name="POMASS">     63.54600000</v>
   <v name="DARWINR">      0.00000000</v>
   <v name="DARWINV">      1.00000000</v>
   <i type="logical" name="LCORR"> T  </i>
  </separator>
  <i type="logical" name="GGA_COMPAT"> T  </i>
  <i type="logical" name="LBERRY"> F  </i>
  <i type="int" name="ICORELEVEL">     0</i>
  <i type="logical" name="LDAU"> F  </i>
  <i type="int" name="I_CONSTRAINED_M">     0</i>
  <separator name="electronic exchange-correlation" >
   <i type="string" name="GGA">PE</i>
   <i type="int" name="VOSKOWN">     0</i>
   <i type="logical" name="LHFCALC"> F  </i>
   <i type="string" name="PRECFOCK"></i>
   <i type="logical" name="LSYMGRAD"> F  </i>
   <i type="logical" name="LHFONE"> F  </i>
   <i type="logical" name="LRHFCALC"> F  </i>
   <i type="logical" name="LTHOMAS"> F  </i>
   <i type="logical" name="LMODELHF"> F  </i>
   <i type="logical" name="LFOCKACE"> F  </i>
   <i name="ENCUT4O">     -1.00000000</i>
   <i type="int" name="EXXOEP">     0</i>
   <i type="int" name="FOURORBIT">     0</i>
   <i name="AEXX">      0.00000000</i>
   <i name="HFALPHA">      0.00000000</i>
   <i name="MCALPHA">      0.00000000</i>
   <i name="ALDAX">      1.00000000</i>
   <i name="AGGAX">      1.00000000</i>
   <i name="ALDAC">      1.00000000</i>
   <i name="AGGAC">      1.00000000</i>
   <i type="int" name="NKREDX">     1</i>
   <i type="int" name="NKREDY">     1</i>
   <i type="int" name="NKREDZ">     1</i>
   <i type="logical" name="SHIFTRED"> F  </i>
   <i type="logical" name="ODDONLY"> F  </i>
   <i type="logical" name="EVENONLY"> F  </i>
   <i type="int" name="LMAXFOCK">     0</i>
   <i type="int" name="NMAXFOCKAE">     0</i>
   <i type="logical" name="LFOCKAEDFT"> F  </i>
   <i name="HFSCREEN">      0.00000000</i>
   <i name="HFSCREENC">      0.00000000</i>
   <i type="int" name="NBANDSGWLOW">     0</i>
  </separator>
  <separator name="vdW DFT" >
   <i type="logical" name="LUSE_VDW"> F  </i>
   <i name="Zab_VDW">     -0.84910000</i>
   <i name="PARAM1">      0.12340000</i>
   <i name="PARAM2">      1.00000000</i>
   <i name="PARAM3">      0.00000000</i>
  </separator>
  <separator name="model GW" >
   <i type="int" name="MODEL_GW">     0</i>
   <i name="MODEL_EPS0">     16.01023641</i>
   <i name="MODEL_ALPHA">      1.00000000</i>
  </separator>
  <separator name="linear response parameters" >
   <i type="logical" name="LEPSILON"> F  </i>
   <i type="logical" name="LRPA"> F  </i>
   <i type="logical" name="LNABLA"> F  </i>
   <i type="logical" name="LVEL"> F  </i>
   <i name="CSHIFT">      0.10000000</i>
   <i name="OMEGAMAX">     -1.00000000</i>
   <i name="DEG_THRESHOLD">      0.00200000</i>
   <i name="RTIME">     -0.10000000</i>
   <i name="WPLASMAI">      0.00000000</i>
   <v name="DFIELD">      0.00000000      0.00000000      0.00000000</v>
   <v name="WPLASMA">      0.00000000      0.00000000      0.00000000      0.00000000      0.00000000      0.00000000      0.00000000      0.00000000      0.00000000</v>
  </separator>
  <separator name="orbital magnetization" >
   <i type="logical" name="NUCIND"> F  </i>
   <v name="MAGPOS">      0.00000000      0.00000000      0.00000000</v>
   <i type="logical" name="LNICSALL"> T  </i>
   <i type="logical" name="ORBITALMAG"> F  </i>
   <i type="logical" name="LMAGBLOCH"> F  </i>
   <i type="logical" name="LCHIMAG"> F  </i>
   <i type="logical" name="LGAUGE"> T  </i>
   <i type="int" name="MAGATOM">     0</i>
   <v name="MAGDIPOL">      0.00000000      0.00000000      0.00000000</v>
   <v name="AVECCONST">      0.00000000      0.00000000      0.00000000</v>
  </separator>
  <separator name="response functions" >
   <i type="logical" name="LFINITE_TEMPERATURE"> F  </i>
   <i type="logical" name="LADDER"> F  </i>
   <i type="logical" name="LRPAFORCE"> F  </i>
   <i type="logical" name="LFXC"> F  </i>
   <i type="logical" name="LHARTREE"> T  </i>
   <i type="int" name="IBSE">     0</i>
   <v type="int" name="KPOINT">    -1     0     0     0</v>
   <i type="logical" name="LTCTC"> F  </i>
   <i type="logical" name="LTCTE"> F  </i>
   <i type="logical" name="LTETE"> F  </i>
   <i type="logical" name="LTRIPLET"> F  </i>
   <i type="logical" name="LFXCEPS"> F  </i>
   <i type="logical" name="LFXHEG"> F  </i>
   <i type="int" name="NATURALO">     2</i>
   <i type="logical" name="LHOLEGF"> F  </i>
   <i type="logical" name="L2ORDER"> F  </i>
   <i type="logical" name="LDMP1"> F  </i>
   <i type="logical" name="LMP2LT"> F  </i>
   <i type="logical" name="LSMP2LT"> F  </i>
   <i type="logical" name="LGWLF"> F  </i>
   <i name="ENCUTGW">     -2.00000000</i>
   <i name="ENCUTGWSOFT">     -2.00000000</i>
   <i name="ENCUTLF">     -1.00000000</i>
   <i type="logical" name="LESF_SPLINES"> F  </i>
   <i type="int" name="LMAXMP2">    -1</i>
   <i name="SCISSOR">      0.00000000</i>
   <i type="int" name="NOMEGA">     0</i>
   <i type="int" name="NOMEGAR">     0</i>
   <i type="int" name="NBANDSGW">    -1</i>
   <i type="int" name="NBANDSO">    -1</i>
   <i type="int" name="NBANDSV">    -1</i>
   <i type="int" name="NELMGW">     1</i>
   <i type="int" name="NELMHF">     1</i>
   <i type="int" name="DIM">     3</i>
   <i type="int" name="IESPILON">     4</i>
   <i type="int" name="ANTIRES">     0</i>
   <i name="OMEGAMAX">    -30.00000000</i>
   <i name="OMEGAMIN">    -30.00000000</i>
   <i name="OMEGATL">   -200.00000000</i>
   <i type="int" name="OMEGAGRID">     0</i>
   <i name="CSHIFT">     -0.10000000</i>
   <i type="logical" name="LSELFENERGY"> F  </i>
   <i type="logical" name="LSPECTRAL"> F  </i>
   <i type="logical" name="LSPECTRALGW"> F  </i>
   <i type="logical" name="LSINGLES"> F  </i>
   <i type="logical" name="LFERMIGW"> F  </i>
   <i type="logical" name="ODDONLYGW"> F  </i>
   <i type="logical" name="EVENONLYGW"> F  </i>
   <i type="int" name="NKREDLFX">     1</i>
   <i type="int" name="NKREDLFY">     1</i>
   <i type="int" name="NKREDLFZ">     1</i>
   <i type="int" name="MAXMEM">  2800</i>
   <i type="int" name="TELESCOPE">     0</i>
   <i type="int" name="NTAUPAR">    -1</i>
   <i type="int" name="NOMEGAPAR">    -1</i>
   <i name="DAMP_NEWTON">      0.80000001</i>
   <i name="LAMBDA">      1.00000000</i>
  </separator>
  <separator name="External order field" >
   <i name="OFIELD_KAPPA">      0.00000000</i>
   <v name="OFIELD_K">      0.00000000      0.00000000      0.00000000</v>
   <i name="OFIELD_Q6_NEAR">      0.00000000</i>
   <i name="OFIELD_Q6_FAR">      0.00000000</i>
   <i name="OFIELD_A">      0.00000000</i>
  </separator>
  <separator name="optional k-points parameters" >
   <i type="int" name="KPOINTS_OPT_MODE">     1</i>
   <i type="logical" name="LKPOINTS_OPT"> F  </i>
  </separator>
 </parameters>
 <atominfo>
  <atoms>       5 </atoms>
  <types>       1 </types>
  <array name="atoms" >
   <dimension dim="1">ion</dimension>
   <field type="string">element</field>
   <field type="int">atomtype</field>
   <set>
    <rc><c>Cu</c><c>   1</c></rc>
    <rc><c>Cu</c><c>   1</c></rc>
    <rc><c>Cu</c><c>   1</c></rc>
    <rc><c>Cu</c><c>   1</c></rc>
    <rc><c>Cu</c><c>   1</c></rc>
   </set>
  </array>
  <array name="atomtypes" >
   <dimension dim="1">type</dimension>
   <field type="int">atomspertype</field>
   <field type="string">element</field>
   <field>mass</field>
   <field>valence</field>
   <field type="string">pseudopotential</field>
   <set>
    <rc><c>   5</c><c>Cu</c><c>     63.54600000</c><c>     11.00000000</c><c>  PAW_PBE Cu 22Jun2005                  </c></rc>
   </set>
  </array>
 </atominfo>
 <structure name="initialpos" >
  <crystal>
   <varray name="basis" >
    <v>       2.56679773       0.00000000       0.00000000 </v>
    <v>       1.28339887       2.22291204       0.00000000 </v>
    <v>       0.00000000       0.00000000      23.38312616 </v>
   </varray>
   <i name="volume">    133.41863673 </i>
   <varray name="rec_basis" >
    <v>       0.38959050      -0.22493018       0.00000000 </v>
    <v>       0.00000000       0.44986035       0.00000000 </v>
    <v>       0.00000000       0.00000000       0.04276588 </v>
   </varray>
  </crystal>
  <varray name="positions" >
   <v>       0.00000000       0.00000000       0.00000000 </v>
   <v>       0.33333333       0.33333333       0.08962794 </v>
   <v>       0.66666667       0.66666667       0.17925589 </v>
   <v>       0.00000000       0.00000000       0.26888383 </v>
   <v>       0.33333333       0.33333333       0.35851178 </v>
  </varray>
  <varray name="selective"  type="logical" >
   <v type="logical" >  F  F  F </v>
   <v type="logical" >  F  F  F </v>
   <v type="logical" >  T  T  T </v>
   <v type="logical" >  T  T  T </v>
   <v type="logical" >  T  T  T </v>
  </varray>
  <nose>
   <v>      -3.00000000       0.00000000       0.00010000       0.00010000 </v>
  </nose>
 </structure>
 <calculation>
  <scstep>
   <time name="dav">    0.11    0.11</time>
   <time name="total">    0.13    0.14</time>
   <energy>
    <i name="alphaZ">    137.03633445 </i>
    <i name="ewald">  23894.32100839 </i>
    <i name="hartreedc"> -30651.74225580 </i>
    <i name="XCdc">    228.35422928 </i>
    <i name="pawpsdc">   6140.48748024 </i>
    <i name="pawaedc">  -6669.60465762 </i>
    <i name="eentropy">      0.01717470 </i>
    <i name="bandstr">    406.38960162 </i>
    <i name="atom">   6954.78820100 </i>
    <i name="e_fr_energy">    440.04711625 </i>
    <i name="e_wo_entrp">    440.02994156 </i>
    <i name="e_0_energy">    440.04139136 </i>
   </energy>
  </scstep>
  <scstep>
   <time name="dav">    0.10    0.10</time>
   <time name="total">    0.10    0.10</time>
   <energy>
    <i name="e_fr_energy">     18.88621325 </i>
    <i name="e_wo_entrp">     18.92754562 </i>
    <i name="e_0_energy">     18.89999070 </i>
   </energy>
  </scstep>
  <scstep>
   <time name="dav">    0.10    0.10</time>
   <time name="total">    0.10    0.10</time>
   <energy>
    <i name="e_fr_energy">    -20.63675327 </i>
    <i name="e_wo_entrp">    -20.64730440 </i>
    <i name="e_0_energy">    -20.64027031 </i>
   </energy>
  </scstep>
  <scstep>
   <time name="dav">    0.10    0.10</time>
   <time name="total">    0.10    0.10</time>
   <energy>
    <i name="e_fr_energy">    -21.88679630 </i>
    <i name="e_wo_entrp">    -21.89715283 </i>
    <i name="e_0_energy">    -21.89024848 </i>
   </energy>
  </scstep>
  <scstep>
   <time name="dav">    0.11    0.11</time>
   <time name="total">    0.15    0.15</time>
   <energy>
    <i name="e_fr_energy">    -21.91473602 </i>
    <i name="e_wo_entrp">    -21.92504788 </i>
    <i name="e_0_energy">    -21.91817331 </i>
   </energy>
  </scstep>
  <scstep>
   <time name="dav">    0.10    0.10</time>
   <time name="total">    0.16    0.16</time>
   <energy>
    <i name="e_fr_energy">    -17.78666113 </i>
    <i name="e_wo_entrp">    -17.79583713 </i>
    <i name="e_0_energy">    -17.78971979 </i>
   </energy>
  </scstep>
  <scstep>
   <time name="dav">    0.10    0.10</time>
   <time name="total">    0.16    0.16</time>
   <energy>
    <i name="e_fr_energy">    -15.25180931 </i>
    <i name="e_wo_entrp">    -15.24310473 </i>
    <i name="e_0_energy">    -15.24890778 </i>
   </energy>
  </scstep>
  <scstep>
   <time name="dav">    0.11    0.11</time>
   <time name="total">    0.17    0.17</time>
   <energy>
    <i name="e_fr_energy">    -15.07269518 </i>
    <i name="e_wo_entrp">    -15.07078210 </i>
    <i name="e_0_energy">    -15.07205748 </i>
   </energy>
  </scstep>
  <scstep>
   <time name="dav">    0.12    0.13</time>
   <time name="total">    0.18    0.19</time>
   <energy>
    <i name="e_fr_energy">    -14.81006112 </i>
    <i name="e_wo_entrp">    -14.80382420 </i>
    <i name="e_0_energy">    -14.80798215 </i>
   </energy>
  </scstep>
  <scstep>
   <time name="dav">    0.12    0.12</time>
   <time name="total">    0.19    0.19</time>
   <energy>
    <i name="e_fr_energy">    -15.34108286 </i>
    <i name="e_wo_entrp">    -15.33234967 </i>
    <i name="e_0_energy">    -15.33817179 </i>
   </energy>
  </scstep>
  <scstep>
   <time name="dav">    0.11    0.11</time>
   <time name="total">    0.17    0.17</time>
   <energy>
    <i name="e_fr_energy">    -15.83597975 </i>
    <i name="e_wo_entrp">    -15.82717072 </i>
    <i name="e_0_energy">    -15.83304341 </i>
   </energy>
  </scstep>
  <scstep>
   <time name="dav">    0.13    0.13</time>
   <time name="total">    0.18    0.19</time>
   <energy>
    <i name="e_fr_energy">    -16.75357024 </i>
    <i name="e_wo_entrp">    -16.75700371 </i>
    <i name="e_0_energy">    -16.75471473 </i>
   </energy>
  </scstep>
  <scstep>
   <time name="dav">    0.12    0.12</time>
   <time name="total">    0.17    0.18</time>
   <energy>
    <i name="e_fr_energy">    -17.70003421 </i>
    <i name="e_wo_entrp">    -17.71770674 </i>
    <i name="e_0_energy">    -17.70592505 </i>
   </energy>
  </scstep>
  <scstep>
   <time name="dav">    0.11    0.11</time>
   <time name="total">    0.17    0.17</time>
   <energy>
    <i name="e_fr_energy">    -18.13018707 </i>
    <i name="e_wo_entrp">    -18.15476628 </i>
    <i name="e_0_energy">    -18.13838014 </i>
   </energy>
  </scstep>
  <scstep>
   <time name="dav">    0.12    0.12</time>
   <time name="total">    0.18    0.18</time>
   <energy>
    <i name="e_fr_energy">    -18.25237625 </i>
    <i name="e_wo_entrp">    -18.28949180 </i>
    <i name="e_0_energy">    -18.26474810 </i>
   </energy>
  </scstep>
  <scstep>
   <time name="dav">    0.12    0.12</time>
   <time name="total">    0.18    0.18</time>
   <energy>
    <i name="e_fr_energy">    -18.40335807 </i>
    <i name="e_wo_entrp">    -18.43698506 </i>
    <i name="e_0_energy">    -18.41456706 </i>
   </energy>
  </scstep>
  <scstep>
   <time name="dav">    0.12    0.12</time>
   <time name="total">    0.18    0.18</time>
   <energy>
    <i name="e_fr_energy">    -18.42334196 </i>
    <i name="e_wo_entrp">    -18.45682814 </i>
    <i name="e_0_energy">    -18.43450402 </i>
   </energy>
  </scstep>
  <scstep>
   <time name="dav">    0.11    0.11</time>
   <time name="total">    0.17    0.17</time>
   <energy>
    <i name="e_fr_energy">    -18.48675943 </i>
    <i name="e_wo_entrp">    -18.51966491 </i>
    <i name="e_0_energy">    -18.49772792 </i>
   </energy>
  </scstep>
  <scstep>
   <time name="dav">    0.11    0.11</time>
   <time name="total">    0.17    0.17</time>
   <energy>
    <i name="e_fr_energy">    -18.52950182 </i>
    <i name="e_wo_entrp">    -18.55899175 </i>
    <i name="e_0_energy">    -18.53933180 </i>
   </energy>
  </scstep>
  <scstep>
   <time name="dav">    0.11    0.11</time>
   <time name="total">    0.17    0.17</time>
   <energy>
    <i name="e_fr_energy">    -18.54383890 </i>
    <i name="e_wo_entrp">    -18.57298132 </i>
    <i name="e_0_energy">    -18.55355304 </i>
   </energy>
  </scstep>
  <scstep>
   <time name="dav">    0.11    0.11</time>
   <time name="total">    0.17    0.17</time>
   <energy>
    <i name="e_fr_energy">    -18.60921532 </i>
    <i name="e_wo_entrp">    -18.63825856 </i>
    <i name="e_0_energy">    -18.61889640 </i>
   </energy>
  </scstep>
  <scstep>
   <time name="dav">    0.09    0.09</time>
   <time name="total">    0.15    0.15</time>
   <energy>
    <i name="e_fr_energy">    -18.61214694 </i>
    <i name="e_wo_entrp">    -18.64081906 </i>
    <i name="e_0_energy">    -18.62170432 </i>
   </energy>
  </scstep>
  <scstep>
   <time name="dav">    0.09    0.09</time>
   <time name="total">    0.15    0.15</time>
   <energy>
    <i name="e_fr_energy">    -18.63881199 </i>
    <i name="e_wo_entrp">    -18.66578630 </i>
    <i name="e_0_energy">    -18.64780343 </i>
   </energy>
  </scstep>
  <scstep>
   <time name="dav">    0.11    0.11</time>
   <time name="total">    0.17    0.17</time>
   <energy>
    <i name="e_fr_energy">    -18.66086437 </i>
    <i name="e_wo_entrp">    -18.68784533 </i>
    <i name="e_0_energy">    -18.66985803 </i>
   </energy>
  </scstep>
  <scstep>
   <time name="dav">    0.09    0.10</time>
   <time name="total">    0.16    0.16</time>
   <energy>
    <i name="e_fr_energy">    -18.67834140 </i>
    <i name="e_wo_entrp">    -18.70336821 </i>
    <i name="e_0_energy">    -18.68668367 </i>
   </energy>
  </scstep>
  <scstep>
   <time name="dav">    0.08    0.09</time>
   <time name="total">    0.15    0.15</time>
   <energy>
    <i name="e_fr_energy">    -18.68543328 </i>
    <i name="e_wo_entrp">    -18.71024006 </i>
    <i name="e_0_energy">    -18.69370221 </i>
   </energy>
  </scstep>
  <scstep>
   <time name="dav">    0.08    0.08</time>
   <time name="total">    0.14    0.14</time>
   <energy>
    <i name="e_fr_energy">    -18.68732350 </i>
    <i name="e_wo_entrp">    -18.71224285 </i>
    <i name="e_0_energy">    -18.69562995 </i>
   </energy>
  </scstep>
  <scstep>
   <time name="dav">    0.08    0.08</time>
   <time name="total">    0.14    0.14</time>
   <energy>
    <i name="e_fr_energy">    -18.68883340 </i>
    <i name="e_wo_entrp">    -18.71385430 </i>
    <i name="e_0_energy">    -18.69717370 </i>
   </energy>
  </scstep>
  <scstep>
   <time name="dav">    0.08    0.08</time>
   <time name="total">    0.14    0.14</time>
   <energy>
    <i name="e_fr_energy">    -18.68909435 </i>
    <i name="e_wo_entrp">    -18.71405109 </i>
    <i name="e_0_energy">    -18.69741326 </i>
   </energy>
  </scstep>
  <scstep>
   <time name="dav">    0.07    0.07</time>
   <time name="total">    0.14    0.14</time>
   <energy>
    <i name="e_fr_energy">    -18.68934333 </i>
    <i name="e_wo_entrp">    -18.71430509 </i>
    <i name="e_0_energy">    -18.69766392 </i>
   </energy>
  </scstep>
  <scstep>
   <time name="dav">    0.07    0.07</time>
   <time name="total">    0.09    0.09</time>
   <energy>
    <i name="alphaZ">    137.03633445 </i>
    <i name="ewald">  23894.32100839 </i>
    <i name="hartreedc"> -30593.81904823 </i>
    <i name="XCdc">    222.88547735 </i>
    <i name="pawpsdc">   6527.56846997 </i>
    <i name="pawaedc">  -7065.09324968 </i>
    <i name="eentropy">      0.02488348 </i>
    <i name="bandstr">    -96.40146389 </i>
    <i name="atom">   6954.78820100 </i>
    <i name="e_fr_energy">    -18.68938716 </i>
    <i name="e_wo_entrp">    -18.71427064 </i>
    <i name="e_0_energy">    -18.69768166 </i>
   </energy>
  </scstep>
  <dipole>
   <v name="dipole">      0.00000000       0.00000000      -0.00338724 </v>
   <i name="Tr[quadrupol]">    -47.96536019 </i>
   <i name="Echarged">      0.00000000 </i>
   <i name="Edipol_quadrupol">      0.00000000 </i>
   <i name="Eion">      0.00000000 </i>
  </dipole>
  <structure>
   <crystal>
    <varray name="basis" >
     <v>       2.56679773       0.00000000       0.00000000 </v>
     <v>       1.28339887       2.22291204       0.00000000 </v>
     <v>       0.00000000       0.00000000      23.38312616 </v>
    </varray>
    <i name="volume">    133.41863673 </i>
    <varray name="rec_basis" >
     <v>       0.38959050      -0.22493018       0.00000000 </v>
     <v>       0.00000000       0.44986035       0.00000000 </v>
     <v>       0.00000000       0.00000000       0.04276588 </v>
    </varray>
   </crystal>
   <varray name="positions" >
    <v>       0.00000000       0.00000000       0.00000000 </v>
    <v>       0.33333333       0.33333333       0.08962794 </v>
    <v>       0.66666667       0.66666667       0.17925589 </v>
    <v>       0.00000000       0.00000000       0.26888383 </v>
    <v>       0.33333333       0.33333333       0.35851178 </v>
   </varray>
  </structure>
  <varray name="forces" >
   <v>       0.00000000       0.00000000       0.54682160 </v>
   <v>       0.00000000       0.00000000      -0.19746206 </v>
   <v>      -0.00000000       0.00000000      -0.00010727 </v>
   <v>      -0.00000000      -0.00000000       0.19583977 </v>
   <v>      -0.00000000       0.00000000      -0.54509204 </v>
  </varray>
  <varray name="stress" >
   <v>     -42.66650556      -0.00000000       0.00000000 </v>
   <v>      -0.00000000     -42.66650556       0.00000000 </v>
   <v>       0.00000000       0.00000000     -48.62769054 </v>
  </varray>
  <energy>
   <i name="e_fr_energy">    -20.55563242 </i>
   <i name="e_wo_entrp">    -20.58051590 </i>
   <i name="e_0_energy">    -20.56392692 </i>
  </energy>
  <time name="totalsc">    5.01    5.06</time>
 </calculation>
 <calculation>
  <scstep>
   <time name="dav">    0.10    0.10</time>
   <time name="total">    0.16    0.16</time>
   <energy>
    <i name="alphaZ">    137.03633445 </i>
    <i name="ewald">  23985.56218387 </i>
    <i name="hartreedc"> -30684.86515899 </i>
    <i name="XCdc">    222.92442566 </i>
    <i name="pawpsdc">   6527.53687630 </i>
    <i name="pawaedc">  -7065.06040571 </i>
    <i name="eentropy">      0.02646257 </i>
    <i name="bandstr">    -96.64257966 </i>
    <i name="atom">   6954.78820100 </i>
    <i name="e_fr_energy">    -18.69366050 </i>
    <i name="e_wo_entrp">    -18.72012307 </i>
    <i name="e_0_energy">    -18.70248136 </i>
   </energy>
  </scstep>
  <scstep>
   <time name="dav">    0.14    0.14</time>
   <time name="total">    0.20    0.20</time>
   <energy>
    <i name="e_fr_energy">    -18.70625642 </i>
    <i name="e_wo_entrp">    -18.72463452 </i>
    <i name="e_0_energy">    -18.71238245 </i>
   </energy>
  </scstep>
  <scstep>
   <time name="dav">    0.14    0.14</time>
   <time name="total">    0.20    0.20</time>
   <energy>
    <i name="e_fr_energy">    -18.70213330 </i>
    <i name="e_wo_entrp">    -18.72911666 </i>
    <i name="e_0_energy">    -18.71112775 </i>
   </energy>
  </scstep>
  <scstep>
   <time name="dav">    0.11    0.11</time>
   <time name="total">    0.17    0.17</time>
   <energy>
    <i name="e_fr_energy">    -18.70094142 </i>
    <i name="e_wo_entrp">    -18.72668678 </i>
    <i name="e_0_energy">    -18.70952321 </i>
   </energy>
  </scstep>
  <scstep>
   <time name="dav">    0.10    0.10</time>
   <time name="total">    0.12    0.12</time>
   <energy>
    <i name="alphaZ">    137.03633445 </i>
    <i name="ewald">  23985.56218387 </i>
    <i name="hartreedc"> -30685.37112820 </i>
    <i name="XCdc">    222.91798925 </i>
    <i name="pawpsdc">   6530.59930317 </i>
    <i name="pawaedc">  -7068.12306202 </i>
    <i name="eentropy">      0.02590318 </i>
    <i name="bandstr">    -96.13668609 </i>
    <i name="atom">   6954.78820100 </i>
    <i name="e_fr_energy">    -18.70096139 </i>
    <i name="e_wo_entrp">    -18.72686457 </i>
    <i name="e_0_energy">    -18.70959578 </i>
   </energy>
  </scstep>
  <dipole>
   <v name="dipole">      0.00000000       0.00000000      -0.00471263 </v>
   <i name="Tr[quadrupol]">    -47.97144193 </i>
   <i name="Echarged">      0.00000000 </i>
   <i name="Edipol_quadrupol">      0.00000000 </i>
   <i name="Eion">      0.00000000 </i>
  </dipole>
  <structure>
   <crystal>
    <varray name="basis" >
     <v>       2.56679773       0.00000000       0.00000000 </v>
     <v>       1.28339887       2.22291204       0.00000000 </v>
     <v>       0.00000000       0.00000000      23.38312616 </v>
    </varray>
    <i name="volume">    133.41863673 </i>
    <varray name="rec_basis" >
     <v>       0.38959050      -0.22493018       0.00000000 </v>
     <v>       0.00000000       0.44986035       0.00000000 </v>
     <v>       0.00000000       0.00000000       0.04276588 </v>
    </varray>
   </crystal>
   <varray name="positions" >
    <v>       0.00000000       0.00000000       0.00000000 </v>
    <v>       0.33333333       0.33333333       0.08962794 </v>
    <v>       0.66666667       0.66666667       0.17925567 </v>
    <v>      -0.00000000      -0.00000000       0.26928788 </v>
    <v>       0.33333333       0.33333333       0.35738718 </v>
   </varray>
  </structure>
  <varray name="forces" >
   <v>       0.00000000       0.00000000       0.55068998 </v>
   <v>      -0.00000000      -0.00000000      -0.19299957 </v>
   <v>       0.00000000       0.00000000       0.02642336 </v>
   <v>      -0.00000000       0.00000000       0.02529912 </v>
   <v>      -0.00000000      -0.00000000      -0.40941289 </v>
  </varray>
  <varray name="stress" >
   <v>     -30.27223741      -0.00000000      -0.00000000 </v>
   <v>      -0.00000000     -30.27223741      -0.00000000 </v>
   <v>      -0.00000000       0.00000000     -34.41350915 </v>
  </varray>
  <energy>
   <i name="e_fr_energy">    -20.56962689 </i>
   <i name="e_wo_entrp">    -20.59553006 </i>
   <i name="e_0_energy">    -20.57826128 </i>
  </energy>
  <time name="totalsc">    1.05    1.13</time>
 </calculation>
 <calculation>
  <scstep>
   <time name="dav">    0.10    0.10</time>
   <time name="total">    0.16    0.16</time>
   <energy>
    <i name="alphaZ">    137.03633445 </i>
    <i name="ewald">  24181.19044387 </i>
    <i name="hartreedc"> -30880.73819318 </i>
    <i name="XCdc">    223.02439481 </i>
    <i name="pawpsdc">   6531.62569054 </i>
    <i name="pawaedc">  -7069.22779539 </i>
    <i name="eentropy">      0.02793057 </i>
    <i name="bandstr">    -96.39816483 </i>
    <i name="atom">   6954.78820100 </i>
    <i name="e_fr_energy">    -18.67115817 </i>
    <i name="e_wo_entrp">    -18.69908873 </i>
    <i name="e_0_energy">    -18.68046836 </i>
   </energy>
  </scstep>
  <scstep>
   <time name="dav">    0.14    0.14</time>
   <time name="total">    0.20    0.20</time>
   <energy>
    <i name="e_fr_energy">    -18.74538699 </i>
    <i name="e_wo_entrp">    -18.75803455 </i>
    <i name="e_0_energy">    -18.74960284 </i>
   </energy>
  </scstep>
  <scstep>
   <time name="dav">    0.14    0.14</time>
   <time name="total">    0.20    0.20</time>
   <energy>
    <i name="e_fr_energy">    -18.71137850 </i>
    <i name="e_wo_entrp">    -18.72679562 </i>
    <i name="e_0_energy">    -18.71651754 </i>
   </energy>
  </scstep>
  <scstep>
   <time name="dav">    0.12    0.13</time>
   <time name="total">    0.19    0.19</time>
   <energy>
    <i name="e_fr_energy">    -18.70689737 </i>
    <i name="e_wo_entrp">    -18.72730669 </i>
    <i name="e_0_energy">    -18.71370048 </i>
   </energy>
  </scstep>
  <scstep>
   <time name="dav">    0.12    0.12</time>
   <time name="total">    0.18    0.18</time>
   <energy>
    <i name="e_fr_energy">    -18.70654760 </i>
    <i name="e_wo_entrp">    -18.72691244 </i>
    <i name="e_0_energy">    -18.71333588 </i>
   </energy>
  </scstep>
  <scstep>
   <time name="dav">    0.12    0.12</time>
   <time name="total">    0.18    0.18</time>
   <energy>
    <i name="e_fr_energy">    -18.70595720 </i>
    <i name="e_wo_entrp">    -18.72835882 </i>
    <i name="e_0_energy">    -18.71342441 </i>
   </energy>
  </scstep>
  <scstep>
   <time name="dav">    0.10    0.11</time>
   <time name="total">    0.16    0.17</time>
   <energy>
    <i name="e_fr_energy">    -18.70548970 </i>
    <i name="e_wo_entrp">    -18.73159238 </i>
    <i name="e_0_energy">    -18.71419059 </i>
   </energy>
  </scstep>
  <scstep>
   <time name="dav">    0.08    0.08</time>
   <time name="total">    0.14    0.14</time>
   <energy>
    <i name="e_fr_energy">    -18.70526374 </i>
    <i name="e_wo_entrp">    -18.73228392 </i>
    <i name="e_0_energy">    -18.71427047 </i>
   </energy>
  </scstep>
  <scstep>
   <time name="dav">    0.10    0.11</time>
   <time name="total">    0.16    0.17</time>
   <energy>
    <i name="e_fr_energy">    -18.70592722 </i>
    <i name="e_wo_entrp">    -18.72872789 </i>
    <i name="e_0_energy">    -18.71352744 </i>
   </energy>
  </scstep>
  <scstep>
   <time name="dav">    0.10    0.10</time>
   <time name="total">    0.12    0.12</time>
   <energy>
    <i name="alphaZ">    137.03633445 </i>
    <i name="ewald">  24181.19044387 </i>
    <i name="hartreedc"> -30880.16893471 </i>
    <i name="XCdc">    222.97373992 </i>
    <i name="pawpsdc">   6543.79632919 </i>
    <i name="pawaedc">  -7081.63788102 </i>
    <i name="eentropy">      0.01939416 </i>
    <i name="bandstr">    -96.70370727 </i>
    <i name="atom">   6954.78820100 </i>
    <i name="e_fr_energy">    -18.70608041 </i>
    <i name="e_wo_entrp">    -18.72547457 </i>
    <i name="e_0_energy">    -18.71254513 </i>
   </energy>
  </scstep>
  <dipole>
   <v name="dipole">      0.00000000       0.00000000      -0.00970084 </v>
   <i name="Tr[quadrupol]">    -47.96722527 </i>
   <i name="Echarged">      0.00000000 </i>
   <i name="Edipol_quadrupol">      0.00000000 </i>
   <i name="Eion">      0.00000000 </i>
  </dipole>
  <structure>
   <crystal>
    <varray name="basis" >
     <v>       2.56679773       0.00000000       0.00000000 </v>
     <v>       1.28339887       2.22291204       0.00000000 </v>
     <v>       0.00000000       0.00000000      23.38312616 </v>
    </varray>
    <i name="volume">    133.41863673 </i>
    <varray name="rec_basis" >
     <v>       0.38959050      -0.22493018       0.00000000 </v>
     <v>       0.00000000       0.44986035       0.00000000 </v>
     <v>       0.00000000       0.00000000       0.04276588 </v>
    </varray>
   </crystal>
   <varray name="positions" >
    <v>       0.00000000       0.00000000       0.00000000 </v>
    <v>       0.33333333       0.33333333       0.08962794 </v>
    <v>       0.66666667       0.66666667       0.17925520 </v>
    <v>      -0.00000000      -0.00000000       0.27014640 </v>
    <v>       0.33333333       0.33333333       0.35499760 </v>
   </varray>
  </structure>
  <varray name="forces" >
   <v>       0.00000000       0.00000000       0.55296727 </v>
   <v>       0.00000000       0.00000000      -0.19444268 </v>
   <v>      -0.00000000       0.00000000       0.08914779 </v>
   <v>       0.00000000       0.00000000      -0.46370623 </v>
   <v>       0.00000000      -0.00000000       0.01603385 </v>
  </varray>
  <varray name="stress" >
   <v>     -41.37005203      -0.00000000      -0.00000000 </v>
   <v>      -0.00000000     -41.37005203       0.00000000 </v>
   <v>      -0.00000000       0.00000000     -39.25338141 </v>
  </varray>
  <energy>
   <i name="e_fr_energy">    -20.57984938 </i>
   <i name="e_wo_entrp">    -20.59924355 </i>
   <i name="e_0_energy">    -20.58631411 </i>
  </energy>
  <time name="totalsc">    1.89    1.96</time>
 </calculation>
 <calculation>
  <scstep>
   <time name="dav">    0.10    0.10</time>
   <time name="total">    0.16    0.16</time>
   <energy>
    <i name="alphaZ">    137.03633445 </i>
    <i name="ewald">  24121.50108959 </i>
    <i name="hartreedc"> -30820.29267342 </i>
    <i name="XCdc">    222.93913970 </i>
    <i name="pawpsdc">   6543.44780844 </i>
    <i name="pawaedc">  -7081.28419119 </i>
    <i name="eentropy">      0.01671246 </i>
    <i name="bandstr">    -96.85839201 </i>
    <i name="atom">   6954.78820100 </i>
    <i name="e_fr_energy">    -18.70597098 </i>
    <i name="e_wo_entrp">    -18.72268344 </i>
    <i name="e_0_energy">    -18.71154180 </i>
   </energy>
  </scstep>
  <scstep>
   <time name="dav">    0.15    0.15</time>
   <time name="total">    0.21    0.21</time>
   <energy>
    <i name="e_fr_energy">    -18.71076962 </i>
    <i name="e_wo_entrp">    -18.73736428 </i>
    <i name="e_0_energy">    -18.71963450 </i>
   </energy>
  </scstep>
  <scstep>
   <time name="dav">    0.13    0.13</time>
   <time name="total">    0.19    0.19</time>
   <energy>
    <i name="e_fr_energy">    -18.70868600 </i>
    <i name="e_wo_entrp">    -18.73390566 </i>
    <i name="e_0_energy">    -18.71709255 </i>
   </energy>
  </scstep>
  <scstep>
   <time name="dav">    0.09    0.09</time>
   <time name="total">    0.11    0.11</time>
   <energy>
    <i name="alphaZ">    137.03633445 </i>
    <i name="ewald">  24121.50108959 </i>
    <i name="hartreedc"> -30819.82254653 </i>
    <i name="XCdc">    222.94515332 </i>
    <i name="pawpsdc">   6541.65333486 </i>
    <i name="pawaedc">  -7079.44564959 </i>
    <i name="eentropy">      0.02619877 </i>
    <i name="bandstr">    -97.39074393 </i>
    <i name="atom">   6954.78820100 </i>
    <i name="e_fr_energy">    -18.70862806 </i>
    <i name="e_wo_entrp">    -18.73482683 </i>
    <i name="e_0_energy">    -18.71736098 </i>
   </energy>
  </scstep>
  <dipole>
   <v name="dipole">      0.00000000       0.00000000      -0.00170059 </v>
   <i name="Tr[quadrupol]">    -47.96252584 </i>
   <i name="Echarged">      0.00000000 </i>
   <i name="Edipol_quadrupol">      0.00000000 </i>
   <i name="Eion">      0.00000000 </i>
  </dipole>
  <structure>
   <crystal>
    <varray name="basis" >
     <v>       2.56679773       0.00000000       0.00000000 </v>
     <v>       1.28339887       2.22291204       0.00000000 </v>
     <v>       0.00000000       0.00000000      23.38312616 </v>
    </varray>
    <i name="volume">    133.41863673 </i>
    <varray name="rec_basis" >
     <v>       0.38959050      -0.22493018       0.00000000 </v>
     <v>       0.00000000       0.44986035       0.00000000 </v>
     <v>       0.00000000       0.00000000       0.04276588 </v>
    </varray>
   </crystal>
   <varray name="positions" >
    <v>       0.00000000       0.00000000       0.00000000 </v>
    <v>       0.33333333       0.33333333       0.08962794 </v>
    <v>       0.66666667       0.66666667       0.17925534 </v>
    <v>      -0.00000000      -0.00000000       0.26988555 </v>
    <v>       0.33333333       0.33333333       0.35572364 </v>
   </varray>
  </structure>
  <varray name="forces" >
   <v>       0.00000000       0.00000000       0.53955777 </v>
   <v>      -0.00000000      -0.00000000      -0.19981675 </v>
   <v>       0.00000000      -0.00000000       0.05619340 </v>
   <v>       0.00000000       0.00000000      -0.25793685 </v>
   <v>      -0.00000000       0.00000000      -0.13799758 </v>
  </varray>
  <varray name="stress" >
   <v>     -15.53532398      -0.00000000       0.00000000 </v>
   <v>      -0.00000000     -15.53532398      -0.00000000 </v>
   <v>      -0.00000000      -0.00000000     -12.55342651 </v>
  </varray>
  <energy>
   <i name="e_fr_energy">    -20.58089228 </i>
   <i name="e_wo_entrp">    -20.60709105 </i>
   <i name="e_0_energy">    -20.58962520 </i>
  </energy>
  <time name="totalsc">    0.87    0.93</time>
 </calculation>
 <calculation>
  <scstep>
   <time name="dav">    0.12    0.12</time>
   <time name="total">    0.18    0.18</time>
   <energy>
    <i name="alphaZ">    137.03633445 </i>
    <i name="ewald">  24133.34891759 </i>
    <i name="hartreedc"> -30831.55854943 </i>
    <i name="XCdc">    222.94664905 </i>
    <i name="pawpsdc">   6541.63055194 </i>
    <i name="pawaedc">  -7079.44409958 </i>
    <i name="eentropy">      0.02311099 </i>
    <i name="bandstr">    -97.47980514 </i>
    <i name="atom">   6954.78820100 </i>
    <i name="e_fr_energy">    -18.70868913 </i>
    <i name="e_wo_entrp">    -18.73180012 </i>
    <i name="e_0_energy">    -18.71639279 </i>
   </energy>
  </scstep>
  <scstep>
   <time name="dav">    0.11    0.12</time>
   <time name="total">    0.17    0.18</time>
   <energy>
    <i name="e_fr_energy">    -18.71681751 </i>
    <i name="e_wo_entrp">    -18.73204909 </i>
    <i name="e_0_energy">    -18.72189471 </i>
   </energy>
  </scstep>
  <scstep>
   <time name="dav">    0.11    0.11</time>
   <time name="total">    0.17    0.17</time>
   <energy>
    <i name="e_fr_energy">    -18.70747625 </i>
    <i name="e_wo_entrp">    -18.73368730 </i>
    <i name="e_0_energy">    -18.71621326 </i>
   </energy>
  </scstep>
  <scstep>
   <time name="dav">    0.09    0.09</time>
   <time name="total">    0.11    0.11</time>
   <energy>
    <i name="alphaZ">    137.03633445 </i>
    <i name="ewald">  24133.34891759 </i>
    <i name="hartreedc"> -30832.22761576 </i>
    <i name="XCdc">    222.96384328 </i>
    <i name="pawpsdc">   6541.61773853 </i>
    <i name="pawaedc">  -7079.46102636 </i>
    <i name="eentropy">      0.02769318 </i>
    <i name="bandstr">    -96.80169403 </i>
    <i name="atom">   6954.78820100 </i>
    <i name="e_fr_energy">    -18.70760813 </i>
    <i name="e_wo_entrp">    -18.73530131 </i>
    <i name="e_0_energy">    -18.71683919 </i>
   </energy>
  </scstep>
  <dipole>
   <v name="dipole">      0.00000000       0.00000000      -0.00261170 </v>
   <i name="Tr[quadrupol]">    -47.96606591 </i>
   <i name="Echarged">      0.00000000 </i>
   <i name="Edipol_quadrupol">      0.00000000 </i>
   <i name="Eion">      0.00000000 </i>
  </dipole>
  <structure>
   <crystal>
    <varray name="basis" >
     <v>       2.56679773       0.00000000       0.00000000 </v>
     <v>       1.28339887       2.22291204       0.00000000 </v>
     <v>       0.00000000       0.00000000      23.38312616 </v>
    </varray>
    <i name="volume">    133.41863673 </i>
    <varray name="rec_basis" >
     <v>       0.38959050      -0.22493018       0.00000000 </v>
     <v>       0.00000000       0.44986035       0.00000000 </v>
     <v>       0.00000000       0.00000000       0.04276588 </v>
    </varray>
   </crystal>
   <varray name="positions" >
    <v>       0.00000000       0.00000000       0.00000000 </v>
    <v>       0.33333333       0.33333333       0.08962794 </v>
    <v>       0.66666667       0.66666667       0.17925531 </v>
    <v>      -0.00000000      -0.00000000       0.26993740 </v>
    <v>       0.33333333       0.33333333       0.35557932 </v>
   </varray>
  </structure>
  <varray name="forces" >
   <v>       0.00000000      -0.00000000       0.53643407 </v>
   <v>       0.00000000      -0.00000000      -0.20561967 </v>
   <v>      -0.00000000       0.00000000       0.05418530 </v>
   <v>       0.00000000      -0.00000000      -0.27367458 </v>
   <v>      -0.00000000      -0.00000000      -0.11132513 </v>
  </varray>
  <varray name="stress" >
   <v>     -29.21962621      -0.00000000      -0.00000000 </v>
   <v>      -0.00000000     -29.21962621       0.00000000 </v>
   <v>       0.00000000       0.00000000     -26.50947993 </v>
  </varray>
  <energy>
   <i name="e_fr_energy">    -20.58018078 </i>
   <i name="e_wo_entrp">    -20.60787396 </i>
   <i name="e_0_energy">    -20.58941184 </i>
  </energy>
  <time name="totalsc">    0.84    0.88</time>
 </calculation>
 <calculation>
  <scstep>
   <time name="dav">    0.10    0.10</time>
   <time name="total">    0.16    0.16</time>
   <energy>
    <i name="alphaZ">    137.03633445 </i>
    <i name="ewald">  24230.58646028 </i>
    <i name="hartreedc"> -30928.94230678 </i>
    <i name="XCdc">    222.97562401 </i>
    <i name="pawpsdc">   6541.31569779 </i>
    <i name="pawaedc">  -7079.14085045 </i>
    <i name="eentropy">      0.02456531 </i>
    <i name="bandstr">    -97.34977081 </i>
    <i name="atom">   6954.78820100 </i>
    <i name="e_fr_energy">    -18.70604520 </i>
    <i name="e_wo_entrp">    -18.73061051 </i>
    <i name="e_0_energy">    -18.71423364 </i>
   </energy>
  </scstep>
  <scstep>
   <time name="dav">    0.13    0.13</time>
   <time name="total">    0.19    0.19</time>
   <energy>
    <i name="e_fr_energy">    -18.71138673 </i>
    <i name="e_wo_entrp">    -18.73432571 </i>
    <i name="e_0_energy">    -18.71903306 </i>
   </energy>
  </scstep>
  <scstep>
   <time name="dav">    0.12    0.12</time>
   <time name="total">    0.18    0.18</time>
   <energy>
    <i name="e_fr_energy">    -18.70946039 </i>
    <i name="e_wo_entrp">    -18.73831805 </i>
    <i name="e_0_energy">    -18.71907961 </i>
   </energy>
  </scstep>
  <scstep>
   <time name="dav">    0.09    0.09</time>
   <time name="total">    0.15    0.15</time>
   <energy>
    <i name="e_fr_energy">    -18.70915018 </i>
    <i name="e_wo_entrp">    -18.73745235 </i>
    <i name="e_0_energy">    -18.71858424 </i>
   </energy>
  </scstep>
  <scstep>
   <time name="dav">    0.11    0.11</time>
   <time name="total">    0.17    0.17</time>
   <energy>
    <i name="e_fr_energy">    -18.70930066 </i>
    <i name="e_wo_entrp">    -18.73596191 </i>
    <i name="e_0_energy">    -18.71818774 </i>
   </energy>
  </scstep>
  <scstep>
   <time name="dav">    0.08    0.08</time>
   <time name="total">    0.15    0.15</time>
   <energy>
    <i name="e_fr_energy">    -18.70880665 </i>
    <i name="e_wo_entrp">    -18.73562668 </i>
    <i name="e_0_energy">    -18.71774666 </i>
   </energy>
  </scstep>
  <scstep>
   <time name="dav">    0.08    0.08</time>
   <time name="total">    0.10    0.10</time>
   <energy>
    <i name="alphaZ">    137.03633445 </i>
    <i name="ewald">  24230.58646028 </i>
    <i name="hartreedc"> -30930.00373942 </i>
    <i name="XCdc">    222.99401150 </i>
    <i name="pawpsdc">   6543.81653279 </i>
    <i name="pawaedc">  -7081.58195031 </i>
    <i name="eentropy">      0.02644727 </i>
    <i name="bandstr">    -96.37108644 </i>
    <i name="atom">   6954.78820100 </i>
    <i name="e_fr_energy">    -18.70878887 </i>
    <i name="e_wo_entrp">    -18.73523615 </i>
    <i name="e_0_energy">    -18.71760463 </i>
   </energy>
  </scstep>
  <dipole>
   <v name="dipole">      0.00000000       0.00000000      -0.00278597 </v>
   <i name="Tr[quadrupol]">    -47.97706123 </i>
   <i name="Echarged">      0.00000000 </i>
   <i name="Edipol_quadrupol">      0.00000000 </i>
   <i name="Eion">      0.00000000 </i>
  </dipole>
  <structure>
   <crystal>
    <varray name="basis" >
     <v>       2.56679773       0.00000000       0.00000000 </v>
     <v>       1.28339887       2.22291204       0.00000000 </v>
     <v>       0.00000000       0.00000000      23.38312616 </v>
    </varray>
    <i name="volume">    133.41863673 </i>
    <varray name="rec_basis" >
     <v>       0.38959050      -0.22493018       0.00000000 </v>
     <v>       0.00000000       0.44986035       0.00000000 </v>
     <v>       0.00000000       0.00000000       0.04276588 </v>
    </varray>
   </crystal>
   <varray name="positions" >
    <v>       0.00000000       0.00000000       0.00000000 </v>
    <v>       0.33333333       0.33333333       0.08962794 </v>
    <v>       0.66666667       0.66666667       0.17940297 </v>
    <v>       0.00000000      -0.00000000       0.26932358 </v>
    <v>       0.33333333       0.33333333       0.35490745 </v>
   </varray>
  </structure>
  <varray name="forces" >
   <v>       0.00000000      -0.00000000       0.54979749 </v>
   <v>      -0.00000000      -0.00000000      -0.18147845 </v>
   <v>      -0.00000000      -0.00000000      -0.02520109 </v>
   <v>      -0.00000000      -0.00000000      -0.21368414 </v>
   <v>      -0.00000000       0.00000000      -0.12943381 </v>
  </varray>
  <varray name="stress" >
   <v>     -40.26370500      -0.00000000      -0.00000000 </v>
   <v>      -0.00000000     -40.26370500      -0.00000000 </v>
   <v>       0.00000000       0.00000000     -38.81554819 </v>
  </varray>
  <energy>
   <i name="e_fr_energy">    -20.58514559 </i>
   <i name="e_wo_entrp">    -20.61159287 </i>
   <i name="e_0_energy">    -20.59396135 </i>
  </energy>
  <time name="totalsc">    1.29    1.31</time>
 </calculation>
 <calculation>
  <scstep>
   <time name="dav">    0.10    0.10</time>
   <time name="total">    0.16    0.16</time>
   <energy>
    <i name="alphaZ">    137.03633445 </i>
    <i name="ewald">  24523.80521254 </i>
    <i name="hartreedc"> -31222.86827980 </i>
    <i name="XCdc">    223.07227178 </i>
    <i name="pawpsdc">   6543.83451764 </i>
    <i name="pawaedc">  -7081.59850276 </i>
    <i name="eentropy">      0.02618378 </i>
    <i name="bandstr">    -96.76314983 </i>
    <i name="atom">   6954.78820100 </i>
    <i name="e_fr_energy">    -18.66721120 </i>
    <i name="e_wo_entrp">    -18.69339498 </i>
    <i name="e_0_energy">    -18.67593913 </i>
   </energy>
  </scstep>
  <scstep>
   <time name="dav">    0.14    0.14</time>
   <time name="total">    0.20    0.20</time>
   <energy>
    <i name="e_fr_energy">    -18.73319933 </i>
    <i name="e_wo_entrp">    -18.74589986 </i>
    <i name="e_0_energy">    -18.73743284 </i>
   </energy>
  </scstep>
  <scstep>
   <time name="dav">    0.14    0.15</time>
   <time name="total">    0.20    0.21</time>
   <energy>
    <i name="e_fr_energy">    -18.71374566 </i>
    <i name="e_wo_entrp">    -18.73173091 </i>
    <i name="e_0_energy">    -18.71974075 </i>
   </energy>
  </scstep>
  <scstep>
   <time name="dav">    0.12    0.12</time>
   <time name="total">    0.18    0.18</time>
   <energy>
    <i name="e_fr_energy">    -18.70977376 </i>
    <i name="e_wo_entrp">    -18.73275335 </i>
    <i name="e_0_energy">    -18.71743362 </i>
   </energy>
  </scstep>
  <scstep>
   <time name="dav">    0.14    0.14</time>
   <time name="total">    0.20    0.20</time>
   <energy>
    <i name="e_fr_energy">    -18.70884312 </i>
    <i name="e_wo_entrp">    -18.73372884 </i>
    <i name="e_0_energy">    -18.71713836 </i>
   </energy>
  </scstep>
  <scstep>
   <time name="dav">    0.11    0.11</time>
   <time name="total">    0.17    0.17</time>
   <energy>
    <i name="e_fr_energy">    -18.70757061 </i>
    <i name="e_wo_entrp">    -18.73447567 </i>
    <i name="e_0_energy">    -18.71653896 </i>
   </energy>
  </scstep>
  <scstep>
   <time name="dav">    0.13    0.13</time>
   <time name="total">    0.19    0.19</time>
   <energy>
    <i name="e_fr_energy">    -18.70790385 </i>
    <i name="e_wo_entrp">    -18.73316203 </i>
    <i name="e_0_energy">    -18.71632324 </i>
   </energy>
  </scstep>
  <scstep>
   <time name="dav">    0.10    0.10</time>
   <time name="total">    0.12    0.12</time>
   <energy>
    <i name="alphaZ">    137.03633445 </i>
    <i name="ewald">  24523.80521254 </i>
    <i name="hartreedc"> -31222.66679079 </i>
    <i name="XCdc">    223.04537422 </i>
    <i name="pawpsdc">   6552.13113631 </i>
    <i name="pawaedc">  -7089.94274692 </i>
    <i name="eentropy">      0.02525718 </i>
    <i name="bandstr">    -96.92987931 </i>
    <i name="atom">   6954.78820100 </i>
    <i name="e_fr_energy">    -18.70790132 </i>
    <i name="e_wo_entrp">    -18.73315850 </i>
    <i name="e_0_energy">    -18.71632038 </i>
   </energy>
  </scstep>
  <dipole>
   <v name="dipole">      0.00000000       0.00000000      -0.00397158 </v>
   <i name="Tr[quadrupol]">    -47.97916818 </i>
   <i name="Echarged">      0.00000000 </i>
   <i name="Edipol_quadrupol">      0.00000000 </i>
   <i name="Eion">      0.00000000 </i>
  </dipole>
  <structure>
   <crystal>
    <varray name="basis" >
     <v>       2.56679773       0.00000000       0.00000000 </v>
     <v>       1.28339887       2.22291204       0.00000000 </v>
     <v>       0.00000000       0.00000000      23.38312616 </v>
    </varray>
    <i name="volume">    133.41863673 </i>
    <varray name="rec_basis" >
     <v>       0.38959050      -0.22493018       0.00000000 </v>
     <v>       0.00000000       0.44986035       0.00000000 </v>
     <v>       0.00000000       0.00000000       0.04276588 </v>
    </varray>
   </crystal>
   <varray name="positions" >
    <v>       0.00000000       0.00000000       0.00000000 </v>
    <v>       0.33333333       0.33333333       0.08962794 </v>
    <v>       0.66666667       0.66666667       0.17984596 </v>
    <v>       0.00000000      -0.00000000       0.26748210 </v>
    <v>       0.33333333       0.33333333       0.35289185 </v>
   </varray>
  </structure>
  <varray name="forces" >
   <v>      -0.00000000      -0.00000000       0.55482608 </v>
   <v>       0.00000000       0.00000000      -0.14765267 </v>
   <v>      -0.00000000       0.00000000      -0.24075149 </v>
   <v>      -0.00000000      -0.00000000      -0.05912175 </v>
   <v>       0.00000000       0.00000000      -0.10730016 </v>
  </varray>
  <varray name="stress" >
   <v>     -41.65290289      -0.00000000      -0.00000000 </v>
   <v>      -0.00000000     -41.65290289      -0.00000000 </v>
   <v>      -0.00000000      -0.00000000     -39.14896406 </v>
  </varray>
  <energy>
   <i name="e_fr_energy">    -20.59579718 </i>
   <i name="e_wo_entrp">    -20.62105436 </i>
   <i name="e_0_energy">    -20.60421624 </i>
  </energy>
  <time name="totalsc">    1.62    1.71</time>
 </calculation>
 <calculation>
  <scstep>
   <time name="dav">    0.12    0.12</time>
   <time name="total">    0.18    0.18</time>
   <energy>
    <i name="alphaZ">    137.03633445 </i>
    <i name="ewald">  25116.95474881 </i>
    <i name="hartreedc"> -31815.11219437 </i>
    <i name="XCdc">    223.23921186 </i>
    <i name="pawpsdc">   6552.03621447 </i>
    <i name="pawaedc">  -7089.84241879 </i>
    <i name="eentropy">      0.02275820 </i>
    <i name="bandstr">    -97.69382794 </i>
    <i name="atom">   6954.78820100 </i>
    <i name="e_fr_energy">    -18.57097231 </i>
    <i name="e_wo_entrp">    -18.59373051 </i>
    <i name="e_0_energy">    -18.57855838 </i>
   </energy>
  </scstep>
  <scstep>
   <time name="dav">    0.13    0.13</time>
   <time name="total">    0.19    0.19</time>
   <energy>
    <i name="e_fr_energy">    -19.03074107 </i>
    <i name="e_wo_entrp">    -19.03111321 </i>
    <i name="e_0_energy">    -19.03086512 </i>
   </energy>
  </scstep>
  <scstep>
   <time name="dav">    0.15    0.15</time>
   <time name="total">    0.21    0.21</time>
   <energy>
    <i name="e_fr_energy">    -18.69508192 </i>
    <i name="e_wo_entrp">    -18.69803677 </i>
    <i name="e_0_energy">    -18.69606687 </i>
   </energy>
  </scstep>
  <scstep>
   <time name="dav">    0.15    0.15</time>
   <time name="total">    0.21    0.21</time>
   <energy>
    <i name="e_fr_energy">    -18.66873318 </i>
    <i name="e_wo_entrp">    -18.68560813 </i>
    <i name="e_0_energy">    -18.67435816 </i>
   </energy>
  </scstep>
  <scstep>
   <time name="dav">    0.12    0.13</time>
   <time name="total">    0.18    0.18</time>
   <energy>
    <i name="e_fr_energy">    -18.66639730 </i>
    <i name="e_wo_entrp">    -18.68004429 </i>
    <i name="e_0_energy">    -18.67094629 </i>
   </energy>
  </scstep>
  <scstep>
   <time name="dav">    0.12    0.12</time>
   <time name="total">    0.18    0.18</time>
   <energy>
    <i name="e_fr_energy">    -18.66356241 </i>
    <i name="e_wo_entrp">    -18.68164239 </i>
    <i name="e_0_energy">    -18.66958907 </i>
   </energy>
  </scstep>
  <scstep>
   <time name="dav">    0.15    0.15</time>
   <time name="total">    0.21    0.21</time>
   <energy>
    <i name="e_fr_energy">    -18.66213612 </i>
    <i name="e_wo_entrp">    -18.68298408 </i>
    <i name="e_0_energy">    -18.66908544 </i>
   </energy>
  </scstep>
  <scstep>
   <time name="dav">    0.13    0.13</time>
   <time name="total">    0.19    0.19</time>
   <energy>
    <i name="e_fr_energy">    -18.66172779 </i>
    <i name="e_wo_entrp">    -18.68516845 </i>
    <i name="e_0_energy">    -18.66954134 </i>
   </energy>
  </scstep>
  <scstep>
   <time name="dav">    0.09    0.09</time>
   <time name="total">    0.15    0.15</time>
   <energy>
    <i name="e_fr_energy">    -18.66149976 </i>
    <i name="e_wo_entrp">    -18.68502621 </i>
    <i name="e_0_energy">    -18.66934191 </i>
   </energy>
  </scstep>
  <scstep>
   <time name="dav">    0.09    0.09</time>
   <time name="total">    0.15    0.15</time>
   <energy>
    <i name="e_fr_energy">    -18.66088939 </i>
    <i name="e_wo_entrp">    -18.68732411 </i>
    <i name="e_0_energy">    -18.66970096 </i>
   </energy>
  </scstep>
  <scstep>
   <time name="dav">    0.09    0.10</time>
   <time name="total">    0.15    0.16</time>
   <energy>
    <i name="e_fr_energy">    -18.66021081 </i>
    <i name="e_wo_entrp">    -18.68813885 </i>
    <i name="e_0_energy">    -18.66952016 </i>
   </energy>
  </scstep>
  <scstep>
   <time name="dav">    0.12    0.12</time>
   <time name="total">    0.18    0.18</time>
   <energy>
    <i name="e_fr_energy">    -18.66029973 </i>
    <i name="e_wo_entrp">    -18.68658794 </i>
    <i name="e_0_energy">    -18.66906247 </i>
   </energy>
  </scstep>
  <scstep>
   <time name="dav">    0.10    0.10</time>
   <time name="total">    0.16    0.16</time>
   <energy>
    <i name="e_fr_energy">    -18.66033353 </i>
    <i name="e_wo_entrp">    -18.68819274 </i>
    <i name="e_0_energy">    -18.66961993 </i>
   </energy>
  </scstep>
  <scstep>
   <time name="dav">    0.07    0.07</time>
   <time name="total">    0.09    0.10</time>
   <energy>
    <i name="alphaZ">    137.03633445 </i>
    <i name="ewald">  25116.95474881 </i>
    <i name="hartreedc"> -31813.40580738 </i>
    <i name="XCdc">    223.15603766 </i>
    <i name="pawpsdc">   6572.90518875 </i>
    <i name="pawaedc">  -7111.16158163 </i>
    <i name="eentropy">      0.02804596 </i>
    <i name="bandstr">    -98.96143437 </i>
    <i name="atom">   6954.78820100 </i>
    <i name="e_fr_energy">    -18.66026675 </i>
    <i name="e_wo_entrp">    -18.68831271 </i>
    <i name="e_0_energy">    -18.66961540 </i>
   </energy>
  </scstep>
  <dipole>
   <v name="dipole">      0.00000000       0.00000000      -0.00384622 </v>
   <i name="Tr[quadrupol]">    -47.96581810 </i>
   <i name="Echarged">      0.00000000 </i>
   <i name="Edipol_quadrupol">      0.00000000 </i>
   <i name="Eion">      0.00000000 </i>
  </dipole>
  <structure>
   <crystal>
    <varray name="basis" >
     <v>       2.56679773       0.00000000       0.00000000 </v>
     <v>       1.28339887       2.22291204       0.00000000 </v>
     <v>       0.00000000       0.00000000      23.38312616 </v>
    </varray>
    <i name="volume">    133.41863673 </i>
    <varray name="rec_basis" >
     <v>       0.38959050      -0.22493018       0.00000000 </v>
     <v>       0.00000000       0.44986035       0.00000000 </v>
     <v>       0.00000000       0.00000000       0.04276588 </v>
    </varray>
   </crystal>
   <varray name="positions" >
    <v>       0.00000000       0.00000000       0.00000000 </v>
    <v>       0.33333333       0.33333333       0.08962794 </v>
    <v>       0.66666667       0.66666667       0.18073193 </v>
    <v>       0.00000000      -0.00000000       0.26379914 </v>
    <v>       0.33333333       0.33333333       0.34886066 </v>
   </varray>
  </structure>
  <varray name="forces" >
   <v>      -0.00000000      -0.00000000       0.55740958 </v>
   <v>       0.00000000      -0.00000000      -0.10443950 </v>
   <v>       0.00000000       0.00000000      -0.89585330 </v>
   <v>      -0.00000000       0.00000000       0.47164430 </v>
   <v>      -0.00000000       0.00000000      -0.02876108 </v>
  </varray>
  <varray name="stress" >
   <v>     -27.31992228      -0.00000000      -0.00000000 </v>
   <v>      -0.00000000     -27.31992228       0.00000000 </v>
   <v>      -0.00000000       0.00000000     -12.34467995 </v>
  </varray>
  <energy>
   <i name="e_fr_energy">    -20.57216405 </i>
   <i name="e_wo_entrp">    -20.60021001 </i>
   <i name="e_0_energy">    -20.58151270 </i>
  </energy>
  <time name="totalsc">    2.62    2.67</time>
 </calculation>
 <calculation>
  <scstep>
   <time name="dav">    0.12    0.12</time>
   <time name="total">    0.18    0.18</time>
   <energy>
    <i name="alphaZ">    137.03633445 </i>
    <i name="ewald">  24614.11754984 </i>
    <i name="hartreedc"> -31312.16129034 </i>
    <i name="XCdc">    223.04315994 </i>
    <i name="pawpsdc">   6572.94539254 </i>
    <i name="pawaedc">  -7111.20131207 </i>
    <i name="eentropy">      0.02535725 </i>
    <i name="bandstr">    -97.20762449 </i>
    <i name="atom">   6954.78820100 </i>
    <i name="e_fr_energy">    -18.61423190 </i>
    <i name="e_wo_entrp">    -18.63958915 </i>
    <i name="e_0_energy">    -18.62268431 </i>
   </energy>
  </scstep>
  <scstep>
   <time name="dav">    0.13    0.13</time>
   <time name="total">    0.19    0.19</time>
   <energy>
    <i name="e_fr_energy">    -18.71346938 </i>
    <i name="e_wo_entrp">    -18.73935776 </i>
    <i name="e_0_energy">    -18.72209884 </i>
   </energy>
  </scstep>
  <scstep>
   <time name="dav">    0.12    0.12</time>
   <time name="total">    0.18    0.18</time>
   <energy>
    <i name="e_fr_energy">    -18.71068107 </i>
    <i name="e_wo_entrp">    -18.73363506 </i>
    <i name="e_0_energy">    -18.71833240 </i>
   </energy>
  </scstep>
  <scstep>
   <time name="dav">    0.12    0.12</time>
   <time name="total">    0.18    0.18</time>
   <energy>
    <i name="e_fr_energy">    -18.70914250 </i>
    <i name="e_wo_entrp">    -18.73823693 </i>
    <i name="e_0_energy">    -18.71884064 </i>
   </energy>
  </scstep>
  <scstep>
   <time name="dav">    0.11    0.11</time>
   <time name="total">    0.17    0.17</time>
   <energy>
    <i name="e_fr_energy">    -18.70682644 </i>
    <i name="e_wo_entrp">    -18.73462161 </i>
    <i name="e_0_energy">    -18.71609150 </i>
   </energy>
  </scstep>
  <scstep>
   <time name="dav">    0.15    0.15</time>
   <time name="total">    0.20    0.21</time>
   <energy>
    <i name="e_fr_energy">    -18.70670206 </i>
    <i name="e_wo_entrp">    -18.73055154 </i>
    <i name="e_0_energy">    -18.71465189 </i>
   </energy>
  </scstep>
  <scstep>
   <time name="dav">    0.11    0.11</time>
   <time name="total">    0.17    0.17</time>
   <energy>
    <i name="e_fr_energy">    -18.70465149 </i>
    <i name="e_wo_entrp">    -18.73049563 </i>
    <i name="e_0_energy">    -18.71326621 </i>
   </energy>
  </scstep>
  <scstep>
   <time name="dav">    0.13    0.13</time>
   <time name="total">    0.19    0.19</time>
   <energy>
    <i name="e_fr_energy">    -18.70418792 </i>
    <i name="e_wo_entrp">    -18.73169173 </i>
    <i name="e_0_energy">    -18.71335586 </i>
   </energy>
  </scstep>
  <scstep>
   <time name="dav">    0.08    0.08</time>
   <time name="total">    0.10    0.10</time>
   <energy>
    <i name="alphaZ">    137.03633445 </i>
    <i name="ewald">  24614.11754984 </i>
    <i name="hartreedc"> -31312.37414288 </i>
    <i name="XCdc">    223.06052523 </i>
    <i name="pawpsdc">   6555.27798528 </i>
    <i name="pawaedc">  -7093.23443699 </i>
    <i name="eentropy">      0.02699975 </i>
    <i name="bandstr">    -97.40322075 </i>
    <i name="atom">   6954.78820100 </i>
    <i name="e_fr_energy">    -18.70420507 </i>
    <i name="e_wo_entrp">    -18.73120482 </i>
    <i name="e_0_energy">    -18.71320498 </i>
   </energy>
  </scstep>
  <dipole>
   <v name="dipole">      0.00000000       0.00000000      -0.00215077 </v>
   <i name="Tr[quadrupol]">    -47.96551645 </i>
   <i name="Echarged">      0.00000000 </i>
   <i name="Edipol_quadrupol">      0.00000000 </i>
   <i name="Eion">      0.00000000 </i>
  </dipole>
  <structure>
   <crystal>
    <varray name="basis" >
     <v>       2.56679773       0.00000000       0.00000000 </v>
     <v>       1.28339887       2.22291204       0.00000000 </v>
     <v>       0.00000000       0.00000000      23.38312616 </v>
    </varray>
    <i name="volume">    133.41863673 </i>
    <varray name="rec_basis" >
     <v>       0.38959050      -0.22493018       0.00000000 </v>
     <v>       0.00000000       0.44986035       0.00000000 </v>
     <v>       0.00000000       0.00000000       0.04276588 </v>
    </varray>
   </crystal>
   <varray name="positions" >
    <v>       0.00000000       0.00000000       0.00000000 </v>
    <v>       0.33333333       0.33333333       0.08962794 </v>
    <v>       0.66666667       0.66666667       0.17998172 </v>
    <v>       0.00000000      -0.00000000       0.26691774 </v>
    <v>       0.33333333       0.33333333       0.35227414 </v>
   </varray>
  </structure>
  <varray name="forces" >
   <v>      -0.00000000      -0.00000000       0.54901123 </v>
   <v>       0.00000000       0.00000000      -0.13724105 </v>
   <v>       0.00000000      -0.00000000      -0.34570836 </v>
   <v>      -0.00000000      -0.00000000       0.02119142 </v>
   <v>      -0.00000000      -0.00000000      -0.08725325 </v>
  </varray>
  <varray name="stress" >
   <v>     -36.61784486      -0.00000000      -0.00000000 </v>
   <v>      -0.00000000     -36.61784486       0.00000000 </v>
   <v>      -0.00000000       0.00000000     -30.34523575 </v>
  </varray>
  <energy>
   <i name="e_fr_energy">    -20.59570571 </i>
   <i name="e_wo_entrp">    -20.62270546 </i>
   <i name="e_0_energy">    -20.60470563 </i>
  </energy>
  <time name="totalsc">    1.76    1.82</time>
 </calculation>
 <calculation>
  <scstep>
   <time name="dav">    0.10    0.10</time>
   <time name="total">    0.16    0.16</time>
   <energy>
    <i name="alphaZ">    137.03633445 </i>
    <i name="ewald">  24702.30661742 </i>
    <i name="hartreedc"> -31400.46810733 </i>
    <i name="XCdc">    223.08615119 </i>
    <i name="pawpsdc">   6555.31665851 </i>
    <i name="pawaedc">  -7093.28177400 </i>
    <i name="eentropy">      0.02695293 </i>
    <i name="bandstr">    -97.51200193 </i>
    <i name="atom">   6954.78820100 </i>
    <i name="e_fr_energy">    -18.70096777 </i>
    <i name="e_wo_entrp">    -18.72792070 </i>
    <i name="e_0_energy">    -18.70995208 </i>
   </energy>
  </scstep>
  <scstep>
   <time name="dav">    0.13    0.13</time>
   <time name="total">    0.19    0.19</time>
   <energy>
    <i name="e_fr_energy">    -18.70517775 </i>
    <i name="e_wo_entrp">    -18.73112225 </i>
    <i name="e_0_energy">    -18.71382592 </i>
   </energy>
  </scstep>
  <scstep>
   <time name="dav">    0.12    0.12</time>
   <time name="total">    0.18    0.18</time>
   <energy>
    <i name="e_fr_energy">    -18.70491960 </i>
    <i name="e_wo_entrp">    -18.73279481 </i>
    <i name="e_0_energy">    -18.71421134 </i>
   </energy>
  </scstep>
  <scstep>
   <time name="dav">    0.09    0.09</time>
   <time name="total">    0.15    0.15</time>
   <energy>
    <i name="e_fr_energy">    -18.70462990 </i>
    <i name="e_wo_entrp">    -18.73176744 </i>
    <i name="e_0_energy">    -18.71367574 </i>
   </energy>
  </scstep>
  <scstep>
   <time name="dav">    0.07    0.07</time>
   <time name="total">    0.10    0.10</time>
   <energy>
    <i name="alphaZ">    137.03633445 </i>
    <i name="ewald">  24702.30661742 </i>
    <i name="hartreedc"> -31400.55908036 </i>
    <i name="XCdc">    223.07827918 </i>
    <i name="pawpsdc">   6556.71669131 </i>
    <i name="pawaedc">  -7094.66440060 </i>
    <i name="eentropy">      0.02708581 </i>
    <i name="bandstr">    -97.43431447 </i>
    <i name="atom">   6954.78820100 </i>
    <i name="e_fr_energy">    -18.70458627 </i>
    <i name="e_wo_entrp">    -18.73167208 </i>
    <i name="e_0_energy">    -18.71361488 </i>
   </energy>
  </scstep>
  <dipole>
   <v name="dipole">      0.00000000       0.00000000      -0.00378249 </v>
   <i name="Tr[quadrupol]">    -47.96983787 </i>
   <i name="Echarged">      0.00000000 </i>
   <i name="Edipol_quadrupol">      0.00000000 </i>
   <i name="Eion">      0.00000000 </i>
  </dipole>
  <structure>
   <crystal>
    <varray name="basis" >
     <v>       2.56679773       0.00000000       0.00000000 </v>
     <v>       1.28339887       2.22291204       0.00000000 </v>
     <v>       0.00000000       0.00000000      23.38312616 </v>
    </varray>
    <i name="volume">    133.41863673 </i>
    <varray name="rec_basis" >
     <v>       0.38959050      -0.22493018       0.00000000 </v>
     <v>       0.00000000       0.44986035       0.00000000 </v>
     <v>       0.00000000       0.00000000       0.04276588 </v>
    </varray>
   </crystal>
   <varray name="positions" >
    <v>       0.00000000       0.00000000       0.00000000 </v>
    <v>       0.33333333       0.33333333       0.08962794 </v>
    <v>       0.66666667       0.66666667       0.17962532 </v>
    <v>       0.00000000      -0.00000000       0.26646017 </v>
    <v>       0.33333333       0.33333333       0.35162203 </v>
   </varray>
  </structure>
  <varray name="forces" >
   <v>       0.00000000       0.00000000       0.54835697 </v>
   <v>       0.00000000      -0.00000000      -0.17860012 </v>
   <v>      -0.00000000       0.00000000      -0.33230066 </v>
   <v>       0.00000000       0.00000000       0.00637804 </v>
   <v>      -0.00000000      -0.00000000      -0.04383423 </v>
  </varray>
  <varray name="stress" >
   <v>     -34.33576943      -0.00000000      -0.00000000 </v>
   <v>      -0.00000000     -34.33576943       0.00000000 </v>
   <v>      -0.00000000       0.00000000     -26.87597590 </v>
  </varray>
  <energy>
   <i name="e_fr_energy">    -20.59942281 </i>
   <i name="e_wo_entrp">    -20.62650862 </i>
   <i name="e_0_energy">    -20.60845142 </i>
  </energy>
  <time name="totalsc">    0.97    1.03</time>
 </calculation>
 <calculation>
  <scstep>
   <time name="dav">    0.10    0.10</time>
   <time name="total">    0.16    0.16</time>
   <energy>
    <i name="alphaZ">    137.03633445 </i>
    <i name="ewald">  24967.74077151 </i>
    <i name="hartreedc"> -31665.52856826 </i>
    <i name="XCdc">    223.15509896 </i>
    <i name="pawpsdc">   6557.26473469 </i>
    <i name="pawaedc">  -7095.21854815 </i>
    <i name="eentropy">      0.02731396 </i>
    <i name="bandstr">    -97.93408592 </i>
    <i name="atom">   6954.78820100 </i>
    <i name="e_fr_energy">    -18.66874776 </i>
    <i name="e_wo_entrp">    -18.69606172 </i>
    <i name="e_0_energy">    -18.67785241 </i>
   </energy>
  </scstep>
  <scstep>
   <time name="dav">    0.14    0.14</time>
   <time name="total">    0.20    0.20</time>
   <energy>
    <i name="e_fr_energy">    -18.73737386 </i>
    <i name="e_wo_entrp">    -18.74904463 </i>
    <i name="e_0_energy">    -18.74126412 </i>
   </energy>
  </scstep>
  <scstep>
   <time name="dav">    0.14    0.14</time>
   <time name="total">    0.20    0.20</time>
   <energy>
    <i name="e_fr_energy">    -18.70778210 </i>
    <i name="e_wo_entrp">    -18.72552911 </i>
    <i name="e_0_energy">    -18.71369777 </i>
   </energy>
  </scstep>
  <scstep>
   <time name="dav">    0.13    0.13</time>
   <time name="total">    0.19    0.19</time>
   <energy>
    <i name="e_fr_energy">    -18.70509626 </i>
    <i name="e_wo_entrp">    -18.72577213 </i>
    <i name="e_0_energy">    -18.71198821 </i>
   </energy>
  </scstep>
  <scstep>
   <time name="dav">    0.12    0.12</time>
   <time name="total">    0.18    0.18</time>
   <energy>
    <i name="e_fr_energy">    -18.70457746 </i>
    <i name="e_wo_entrp">    -18.72497160 </i>
    <i name="e_0_energy">    -18.71137551 </i>
   </energy>
  </scstep>
  <scstep>
   <time name="dav">    0.13    0.13</time>
   <time name="total">    0.19    0.19</time>
   <energy>
    <i name="e_fr_energy">    -18.70372951 </i>
    <i name="e_wo_entrp">    -18.72637020 </i>
    <i name="e_0_energy">    -18.71127641 </i>
   </energy>
  </scstep>
  <scstep>
   <time name="dav">    0.10    0.10</time>
   <time name="total">    0.16    0.16</time>
   <energy>
    <i name="e_fr_energy">    -18.70326103 </i>
    <i name="e_wo_entrp">    -18.72963838 </i>
    <i name="e_0_energy">    -18.71205348 </i>
   </energy>
  </scstep>
  <scstep>
   <time name="dav">    0.08    0.08</time>
   <time name="total">    0.10    0.11</time>
   <energy>
    <i name="alphaZ">    137.03633445 </i>
    <i name="ewald">  24967.74077151 </i>
    <i name="hartreedc"> -31664.98021685 </i>
    <i name="XCdc">    223.11972046 </i>
    <i name="pawpsdc">   6565.48948391 </i>
    <i name="pawaedc">  -7103.63066756 </i>
    <i name="eentropy">      0.02728708 </i>
    <i name="bandstr">    -98.29400727 </i>
    <i name="atom">   6954.78820100 </i>
    <i name="e_fr_energy">    -18.70309328 </i>
    <i name="e_wo_entrp">    -18.73038036 </i>
    <i name="e_0_energy">    -18.71218897 </i>
   </energy>
  </scstep>
  <dipole>
   <v name="dipole">      0.00000000       0.00000000      -0.00596133 </v>
   <i name="Tr[quadrupol]">    -47.97062823 </i>
   <i name="Echarged">      0.00000000 </i>
   <i name="Edipol_quadrupol">      0.00000000 </i>
   <i name="Eion">      0.00000000 </i>
  </dipole>
  <structure>
   <crystal>
    <varray name="basis" >
     <v>       2.56679773       0.00000000       0.00000000 </v>
     <v>       1.28339887       2.22291204       0.00000000 </v>
     <v>       0.00000000       0.00000000      23.38312616 </v>
    </varray>
    <i name="volume">    133.41863673 </i>
    <varray name="rec_basis" >
     <v>       0.38959050      -0.22493018       0.00000000 </v>
     <v>       0.00000000       0.44986035       0.00000000 </v>
     <v>       0.00000000       0.00000000       0.04276588 </v>
    </varray>
   </crystal>
   <varray name="positions" >
    <v>       0.00000000       0.00000000       0.00000000 </v>
    <v>       0.33333333       0.33333333       0.08962794 </v>
    <v>       0.66666667       0.66666667       0.17855612 </v>
    <v>       0.00000000      -0.00000000       0.26508743 </v>
    <v>       0.33333333       0.33333333       0.34966572 </v>
   </varray>
  </structure>
  <varray name="forces" >
   <v>       0.00000000      -0.00000000       0.54920859 </v>
   <v>       0.00000000      -0.00000000      -0.26300746 </v>
   <v>      -0.00000000      -0.00000000      -0.28069378 </v>
   <v>       0.00000000      -0.00000000      -0.02175885 </v>
   <v>       0.00000000       0.00000000       0.01625150 </v>
  </varray>
  <varray name="stress" >
   <v>     -27.97170119      -0.00000000      -0.00000000 </v>
   <v>      -0.00000000     -27.97170119      -0.00000000 </v>
   <v>      -0.00000000       0.00000000     -15.30059083 </v>
  </varray>
  <energy>
   <i name="e_fr_energy">    -20.60805027 </i>
   <i name="e_wo_entrp">    -20.63533735 </i>
   <i name="e_0_energy">    -20.61714597 </i>
  </energy>
  <time name="totalsc">    1.58    1.65</time>
 </calculation>
 <calculation>
  <scstep>
   <time name="dav">    0.11    0.11</time>
   <time name="total">    0.17    0.17</time>
   <energy>
    <i name="alphaZ">    137.03633445 </i>
    <i name="ewald">  25502.50257074 </i>
    <i name="hartreedc"> -32198.90407154 </i>
    <i name="XCdc">    223.28233722 </i>
    <i name="pawpsdc">   6565.56047772 </i>
    <i name="pawaedc">  -7103.75753714 </i>
    <i name="eentropy">      0.02992163 </i>
    <i name="bandstr">    -99.13596971 </i>
    <i name="atom">   6954.78820100 </i>
    <i name="e_fr_energy">    -18.59773563 </i>
    <i name="e_wo_entrp">    -18.62765726 </i>
    <i name="e_0_energy">    -18.60770951 </i>
   </energy>
  </scstep>
  <scstep>
   <time name="dav">    0.13    0.13</time>
   <time name="total">    0.19    0.19</time>
   <energy>
[...]
       <r>     5.8422     0.4062    31.2887 </r>
       <r>     5.9142     0.2232    31.3048 </r>
       <r>     5.9863     0.2136    31.3202 </r>
       <r>     6.0583     0.0902    31.3267 </r>
       <r>     6.1304    -0.0489    31.3231 </r>
       <r>     6.2024     0.0364    31.3258 </r>
       <r>     6.2745     0.5172    31.3630 </r>
       <r>     6.3466     1.2674    31.4543 </r>
       <r>     6.4186     1.7893    31.5833 </r>
       <r>     6.4907     1.6436    31.7017 </r>
       <r>     6.5627     0.9657    31.7713 </r>
       <r>     6.6348     0.2906    31.7922 </r>
       <r>     6.7068    -0.0516    31.7885 </r>
       <r>     6.7789    -0.1247    31.7795 </r>
       <r>     6.8510    -0.1000    31.7723 </r>
       <r>     6.9230    -0.0102    31.7716 </r>
       <r>     6.9951     0.2217    31.7876 </r>
       <r>     7.0671     0.5730    31.8289 </r>
       <r>     7.1392     0.8009    31.8866 </r>
       <r>     7.2112     0.6827    31.9358 </r>
       <r>     7.2833     0.4298    31.9667 </r>
       <r>     7.3553     0.6609    32.0144 </r>
       <r>     7.4274     1.7224    32.1385 </r>
       <r>     7.4995     3.0386    32.3574 </r>
       <r>     7.5715     3.5055    32.6100 </r>
       <r>     7.6436     2.7484    32.8080 </r>
       <r>     7.7156     1.5722    32.9213 </r>
       <r>     7.7877     0.9751    32.9916 </r>
       <r>     7.8597     1.2522    33.0818 </r>
       <r>     7.9318     2.0738    33.2313 </r>
       <r>     8.0039     2.7744    33.4312 </r>
       <r>     8.0759     2.6817    33.6244 </r>
       <r>     8.1480     1.7367    33.7495 </r>
       <r>     8.2200     0.5911    33.7921 </r>
       <r>     8.2921    -0.1387    33.7821 </r>
       <r>     8.3641    -0.3197    33.7591 </r>
       <r>     8.4362     0.0313    33.7613 </r>
       <r>     8.5083     0.9896    33.8327 </r>
       <r>     8.5803     2.4324    34.0079 </r>
       <r>     8.6524     3.8603    34.2861 </r>
       <r>     8.7244     4.6901    34.6240 </r>
       <r>     8.7965     4.5446    34.9515 </r>
       <r>     8.8685     3.4095    35.1972 </r>
       <r>     8.9406     1.7877    35.3260 </r>
       <r>     9.0126     0.4360    35.3574 </r>
       <r>     9.0847    -0.2377    35.3403 </r>
       <r>     9.1568    -0.2611    35.3215 </r>
       <r>     9.2288     0.3116    35.3439 </r>
       <r>     9.3009     1.4018    35.4449 </r>
       <r>     9.3729     2.4769    35.6234 </r>
       <r>     9.4450     2.7217    35.8195 </r>
       <r>     9.5170     1.9359    35.9590 </r>
       <r>     9.5891     0.8046    36.0170 </r>
       <r>     9.6612     0.0694    36.0220 </r>
       <r>     9.7332    -0.1434    36.0117 </r>
       <r>     9.8053    -0.1062    36.0040 </r>
       <r>     9.8773    -0.0421    36.0010 </r>
       <r>     9.9494    -0.0112    36.0002 </r>
       <r>    10.0214    -0.0021    36.0000 </r>
       <r>    10.0935    -0.0003    36.0000 </r>
       <r>    10.1655    -0.0000    36.0000 </r>
       <r>    10.2376    -0.0000    36.0000 </r>
       <r>    10.3097    -0.0000    36.0000 </r>
       <r>    10.3817    -0.0000    36.0000 </r>
       <r>    10.4538    -0.0000    36.0000 </r>
       <r>    10.5258    -0.0000    36.0000 </r>
       <r>    10.5979    -0.0000    36.0000 </r>
       <r>    10.6699    -0.0000    36.0000 </r>
       <r>    10.7420     0.0000    36.0000 </r>
       <r>    10.8141     0.0000    36.0000 </r>
       <r>    10.8861     0.0000    36.0000 </r>
       <r>    10.9582     0.0000    36.0000 </r>
       <r>    11.0302     0.0000    36.0000 </r>
       <r>    11.1023     0.0000    36.0000 </r>
       <r>    11.1743     0.0000    36.0000 </r>
       <r>    11.2464     0.0000    36.0000 </r>
       <r>    11.3184     0.0000    36.0000 </r>
       <r>    11.3905     0.0000    36.0000 </r>
      </set>
      <set comment="spin 2">
       <r>   -10.2264     0.0000     0.0000 </r>
       <r>   -10.1543     0.0000     0.0000 </r>
       <r>   -10.0823     0.0000     0.0000 </r>
       <r>   -10.0102     0.0000     0.0000 </r>
       <r>    -9.9382     0.0000     0.0000 </r>
       <r>    -9.8661    -0.0000    -0.0000 </r>
       <r>    -9.7941    -0.0000    -0.0000 </r>
       <r>    -9.7220    -0.0000    -0.0000 </r>
       <r>    -9.6499    -0.0000    -0.0000 </r>
       <r>    -9.5779    -0.0000    -0.0000 </r>
       <r>    -9.5058    -0.0000    -0.0000 </r>
       <r>    -9.4338    -0.0000    -0.0000 </r>
       <r>    -9.3617    -0.0000    -0.0000 </r>
       <r>    -9.2897    -0.0000    -0.0000 </r>
       <r>    -9.2176    -0.0000    -0.0000 </r>
       <r>    -9.1455    -0.0000    -0.0000 </r>
       <r>    -9.0735    -0.0000    -0.0000 </r>
       <r>    -9.0014    -0.0000    -0.0000 </r>
       <r>    -8.9294    -0.0000    -0.0000 </r>
       <r>    -8.8573    -0.0001    -0.0000 </r>
       <r>    -8.7853    -0.0004    -0.0000 </r>
       <r>    -8.7132    -0.0019    -0.0002 </r>
       <r>    -8.6412    -0.0073    -0.0007 </r>
       <r>    -8.5691    -0.0181    -0.0020 </r>
       <r>    -8.4970    -0.0237    -0.0037 </r>
       <r>    -8.4250     0.0138    -0.0027 </r>
       <r>    -8.3529     0.1391     0.0073 </r>
       <r>    -8.2809     0.3281     0.0310 </r>
       <r>    -8.2088     0.4554     0.0638 </r>
       <r>    -8.1368     0.4106     0.0934 </r>
       <r>    -8.0647     0.2342     0.1102 </r>
       <r>    -7.9926     0.0660     0.1150 </r>
       <r>    -7.9206    -0.0132     0.1140 </r>
       <r>    -7.8485    -0.0233     0.1124 </r>
       <r>    -7.7765    -0.0123     0.1115 </r>
       <r>    -7.7044    -0.0041     0.1112 </r>
       <r>    -7.6324    -0.0014     0.1111 </r>
       <r>    -7.5603    -0.0027     0.1109 </r>
       <r>    -7.4883    -0.0090     0.1102 </r>
       <r>    -7.4162    -0.0203     0.1088 </r>
       <r>    -7.3441    -0.0215     0.1072 </r>
       <r>    -7.2721     0.0302     0.1094 </r>
       <r>    -7.2000     0.1731     0.1219 </r>
       <r>    -7.1280     0.3620     0.1480 </r>
       <r>    -7.0559     0.4614     0.1812 </r>
       <r>    -6.9839     0.3831     0.2088 </r>
       <r>    -6.9118     0.1973     0.2230 </r>
       <r>    -6.8397     0.0434     0.2262 </r>
       <r>    -6.7677    -0.0189     0.2248 </r>
       <r>    -6.6956    -0.0216     0.2232 </r>
       <r>    -6.6236    -0.0102     0.2225 </r>
       <r>    -6.5515    -0.0031     0.2223 </r>
       <r>    -6.4795    -0.0007     0.2222 </r>
       <r>    -6.4074    -0.0001     0.2222 </r>
       <r>    -6.3354    -0.0000     0.2222 </r>
       <r>    -6.2633    -0.0002     0.2222 </r>
       <r>    -6.1912    -0.0011     0.2221 </r>
       <r>    -6.1192    -0.0048     0.2218 </r>
       <r>    -6.0471    -0.0138     0.2208 </r>
       <r>    -5.9751    -0.0241     0.2190 </r>
       <r>    -5.9030    -0.0076     0.2185 </r>
       <r>    -5.8310     0.0841     0.2246 </r>
       <r>    -5.7589     0.2592     0.2432 </r>
       <r>    -5.6868     0.4175     0.2733 </r>
       <r>    -5.6148     0.4093     0.3028 </r>
       <r>    -5.5427     0.2032     0.3175 </r>
       <r>    -5.4707    -0.0294     0.3153 </r>
       <r>    -5.3986     0.0336     0.3178 </r>
       <r>    -5.3266     0.6858     0.3672 </r>
       <r>    -5.2545     1.8118     0.4977 </r>
       <r>    -5.1825     2.6809     0.6909 </r>
       <r>    -5.1104     2.5533     0.8749 </r>
       <r>    -5.0383     1.5509     0.9866 </r>
       <r>    -4.9663     0.4901     1.0219 </r>
       <r>    -4.8942    -0.0746     1.0166 </r>
       <r>    -4.8222    -0.2239     1.0004 </r>
       <r>    -4.7501    -0.2385     0.9833 </r>
       <r>    -4.6781    -0.1323     0.9737 </r>
       <r>    -4.6060     0.3927     1.0020 </r>
       <r>    -4.5339     1.5176     1.1114 </r>
       <r>    -4.4619     2.7546     1.3099 </r>
       <r>    -4.3898     3.1566     1.5373 </r>
       <r>    -4.3178     2.3840     1.7091 </r>
       <r>    -4.2457     1.1621     1.7928 </r>
       <r>    -4.1737     0.3751     1.8199 </r>
       <r>    -4.1016     0.1603     1.8314 </r>
       <r>    -4.0296     0.1783     1.8443 </r>
       <r>    -3.9575     0.3732     1.8711 </r>
       <r>    -3.8854     1.0270     1.9451 </r>
       <r>    -3.8134     2.0573     2.0934 </r>
       <r>    -3.7413     2.6930     2.2874 </r>
       <r>    -3.6693     2.2568     2.4500 </r>
       <r>    -3.5972     1.0371     2.5248 </r>
       <r>    -3.5252     0.0368     2.5274 </r>
       <r>    -3.4531     0.1679     2.5395 </r>
       <r>    -3.3810     1.8117     2.6701 </r>
       <r>    -3.3090     4.5073     2.9948 </r>
       <r>    -3.2369     6.8682     3.4897 </r>
       <r>    -3.1649     7.5353     4.0327 </r>
       <r>    -3.0928     6.5277     4.5031 </r>
       <r>    -3.0208     5.1318     4.8728 </r>
       <r>    -2.9487     4.3288     5.1848 </r>
       <r>    -2.8766     3.9351     5.4683 </r>
       <r>    -2.8046     3.4738     5.7186 </r>
       <r>    -2.7325     3.1893     5.9484 </r>
       <r>    -2.6605     3.6191     6.2092 </r>
       <r>    -2.5884     4.5666     6.5383 </r>
       <r>    -2.5164     5.2153     6.9141 </r>
       <r>    -2.4443     5.1407     7.2845 </r>
       <r>    -2.3723     4.7052     7.6235 </r>
       <r>    -2.3002     4.6921     7.9616 </r>
       <r>    -2.2281     5.8016     8.3796 </r>
       <r>    -2.1561     7.9321     8.9512 </r>
       <r>    -2.0840     9.7946     9.6570 </r>
       <r>    -2.0120     9.9512    10.3740 </r>
       <r>    -1.9399     8.3797    10.9778 </r>
       <r>    -1.8679     6.3881    11.4381 </r>
       <r>    -1.7958     5.1384    11.8084 </r>
       <r>    -1.7237     4.9189    12.1628 </r>
       <r>    -1.6517     5.3546    12.5487 </r>
       <r>    -1.5796     5.7591    12.9636 </r>
       <r>    -1.5076     6.0004    13.3960 </r>
       <r>    -1.4355     6.9389    13.8960 </r>
       <r>    -1.3635     8.9772    14.5428 </r>
       <r>    -1.2914    10.9119    15.3291 </r>
       <r>    -1.2194    11.5533    16.1616 </r>
       <r>    -1.1473    11.5165    16.9914 </r>
       <r>    -1.0752    11.9590    17.8532 </r>
       <r>    -1.0032    12.4904    18.7532 </r>
       <r>    -0.9311    11.9312    19.6129 </r>
       <r>    -0.8591    10.4419    20.3653 </r>
       <r>    -0.7870     9.3154    21.0365 </r>
       <r>    -0.7150     9.0247    21.6868 </r>
       <r>    -0.6429     8.8030    22.3211 </r>
       <r>    -0.5708     8.1887    22.9112 </r>
       <r>    -0.4988     7.8307    23.4754 </r>
       <r>    -0.4267     8.1221    24.0607 </r>
       <r>    -0.3547     8.2186    24.6529 </r>
       <r>    -0.2826     7.6099    25.2012 </r>
       <r>    -0.2106     7.2755    25.7255 </r>
       <r>    -0.1385     7.7885    26.2867 </r>
       <r>    -0.0665     7.8143    26.8498 </r>
       <r>     0.0056     6.0447    27.2853 </r>
       <r>     0.0777     3.2182    27.5172 </r>
       <r>     0.1497     0.9928    27.5887 </r>
       <r>     0.2218    -0.0007    27.5887 </r>
       <r>     0.2938    -0.2002    27.5743 </r>
       <r>     0.3659    -0.1483    27.5636 </r>
       <r>     0.4379    -0.0828    27.5576 </r>
       <r>     0.5100    -0.0502    27.5540 </r>
       <r>     0.5821    -0.0299    27.5518 </r>
       <r>     0.6541     0.0329    27.5542 </r>
       <r>     0.7262     0.1819    27.5673 </r>
       <r>     0.7982     0.3702    27.5940 </r>
       <r>     0.8703     0.4609    27.6272 </r>
       <r>     0.9423     0.3699    27.6539 </r>
       <r>     1.0144     0.1645    27.6657 </r>
       <r>     1.0864    -0.0340    27.6633 </r>
       <r>     1.1585    -0.1588    27.6518 </r>
       <r>     1.2306    -0.1052    27.6442 </r>
       <r>     1.3026     0.3695    27.6709 </r>
       <r>     1.3747     1.3769    27.7701 </r>
       <r>     1.4467     2.4456    27.9463 </r>
       <r>     1.5188     2.7388    28.1436 </r>
       <r>     1.5908     1.9928    28.2872 </r>
       <r>     1.6629     0.8572    28.3490 </r>
       <r>     1.7350     0.0929    28.3557 </r>
       <r>     1.8070    -0.1412    28.3455 </r>
       <r>     1.8791    -0.1099    28.3376 </r>
       <r>     1.9511    -0.0446    28.3344 </r>
       <r>     2.0232    -0.0121    28.3335 </r>
       <r>     2.0952    -0.0023    28.3334 </r>
       <r>     2.1673    -0.0003    28.3333 </r>
       <r>     2.2394    -0.0000    28.3333 </r>
       <r>     2.3114    -0.0000    28.3333 </r>
       <r>     2.3835    -0.0000    28.3333 </r>
       <r>     2.4555    -0.0000    28.3333 </r>
       <r>     2.5276    -0.0000    28.3333 </r>
       <r>     2.5996    -0.0000    28.3333 </r>
       <r>     2.6717    -0.0000    28.3333 </r>
       <r>     2.7437    -0.0000    28.3333 </r>
       <r>     2.8158    -0.0000    28.3333 </r>
       <r>     2.8879    -0.0000    28.3333 </r>
       <r>     2.9599    -0.0002    28.3333 </r>
       <r>     3.0320    -0.0016    28.3332 </r>
       <r>     3.1040    -0.0087    28.3326 </r>
       <r>     3.1761    -0.0346    28.3301 </r>
       <r>     3.2481    -0.0940    28.3233 </r>
       <r>     3.3202    -0.1464    28.3128 </r>
       <r>     3.3923     0.0026    28.3130 </r>
       <r>     3.4643     0.6416    28.3592 </r>
       <r>     3.5364     1.7449    28.4849 </r>
       <r>     3.6084     2.6521    28.6760 </r>
       <r>     3.6805     2.5966    28.8631 </r>
       <r>     3.7525     1.6178    28.9797 </r>
       <r>     3.8246     0.5036    29.0160 </r>
       <r>     3.8966    -0.1204    29.0073 </r>
       <r>     3.9687    -0.1730    28.9948 </r>
       <r>     4.0408     0.2341    29.0117 </r>
       <r>     4.1128     0.9541    29.0805 </r>
       <r>     4.1849     1.6110    29.1965 </r>
       <r>     4.2569     1.7636    29.3236 </r>
       <r>     4.3290     1.4286    29.4265 </r>
       <r>     4.4010     1.0556    29.5026 </r>
       <r>     4.4731     0.8807    29.5661 </r>
       <r>     4.5452     0.7219    29.6181 </r>
       <r>     4.6172     0.4792    29.6526 </r>
       <r>     4.6893     0.3978    29.6813 </r>
       <r>     4.7613     0.6820    29.7304 </r>
       <r>     4.8334     1.1141    29.8107 </r>
       <r>     4.9054     1.2514    29.9009 </r>
       <r>     4.9775     0.9477    29.9692 </r>
       <r>     5.0495     0.5066    30.0057 </r>
       <r>     5.1216     0.2680    30.0250 </r>
       <r>     5.1937     0.2190    30.0408 </r>
       <r>     5.2657     0.1760    30.0534 </r>
       <r>     5.3378     0.2841    30.0739 </r>
       <r>     5.4098     1.0628    30.1505 </r>
       <r>     5.4819     2.6555    30.3418 </r>
       <r>     5.5539     4.1573    30.6414 </r>
       <r>     5.6260     4.3009    30.9513 </r>
       <r>     5.6981     2.9570    31.1644 </r>
       <r>     5.7701     1.3047    31.2584 </r>
       <r>     5.8422     0.3967    31.2870 </r>
       <r>     5.9142     0.2208    31.3029 </r>
       <r>     5.9863     0.2211    31.3188 </r>
       <r>     6.0583     0.1012    31.3261 </r>
       <r>     6.1304    -0.0418    31.3231 </r>
       <r>     6.2024     0.0382    31.3259 </r>
       <r>     6.2745     0.5164    31.3631 </r>
       <r>     6.3466     1.2665    31.4543 </r>
       <r>     6.4186     1.7889    31.5832 </r>
       <r>     6.4907     1.6438    31.7017 </r>
       <r>     6.5627     0.9660    31.7713 </r>
       <r>     6.6348     0.2909    31.7922 </r>
       <r>     6.7068    -0.0515    31.7885 </r>
       <r>     6.7789    -0.1247    31.7795 </r>
       <r>     6.8510    -0.1000    31.7723 </r>
       <r>     6.9230    -0.0103    31.7716 </r>
       <r>     6.9951     0.2219    31.7876 </r>
       <r>     7.0671     0.5740    31.8289 </r>
       <r>     7.1392     0.8028    31.8868 </r>
       <r>     7.2112     0.6829    31.9360 </r>
       <r>     7.2833     0.4203    31.9663 </r>
       <r>     7.3553     0.6345    32.0120 </r>
       <r>     7.4274     1.6858    32.1335 </r>
       <r>     7.4995     3.0161    32.3508 </r>
       <r>     7.5715     3.5166    32.6042 </r>
       <r>     7.6436     2.7845    32.8048 </r>
       <r>     7.7156     1.6056    32.9205 </r>
       <r>     7.7877     0.9842    32.9914 </r>
       <r>     7.8597     1.2337    33.0803 </r>
       <r>     7.9318     2.0426    33.2275 </r>
       <r>     8.0039     2.7562    33.4261 </r>
       <r>     8.0759     2.6923    33.6201 </r>
       <r>     8.1480     1.7660    33.7474 </r>
       <r>     8.2200     0.6171    33.7918 </r>
       <r>     8.2921    -0.1255    33.7828 </r>
       <r>     8.3641    -0.3167    33.7600 </r>
       <r>     8.4362     0.0226    33.7616 </r>
       <r>     8.5083     0.9551    33.8304 </r>
       <r>     8.5803     2.3539    34.0001 </r>
       <r>     8.6524     3.7448    34.2699 </r>
       <r>     8.7244     4.5973    34.6012 </r>
       <r>     8.7965     4.5508    34.9291 </r>
       <r>     8.8685     3.5182    35.1826 </r>
       <r>     8.9406     1.9170    35.3207 </r>
       <r>     9.0126     0.5127    35.3576 </r>
       <r>     9.0847    -0.2190    35.3419 </r>
       <r>     9.1568    -0.2740    35.3221 </r>
       <r>     9.2288     0.2816    35.3424 </r>
       <r>     9.3009     1.3639    35.4407 </r>
       <r>     9.3729     2.4530    35.6175 </r>
       <r>     9.4450     2.7308    35.8142 </r>
       <r>     9.5170     1.9688    35.9561 </r>
       <r>     9.5891     0.8349    36.0163 </r>
       <r>     9.6612     0.0828    36.0222 </r>
       <r>     9.7332    -0.1422    36.0120 </r>
       <r>     9.8053    -0.1083    36.0042 </r>
       <r>     9.8773    -0.0435    36.0010 </r>
       <r>     9.9494    -0.0117    36.0002 </r>
       <r>    10.0214    -0.0022    36.0000 </r>
       <r>    10.0935    -0.0003    36.0000 </r>
       <r>    10.1655    -0.0000    36.0000 </r>
       <r>    10.2376    -0.0000    36.0000 </r>
       <r>    10.3097    -0.0000    36.0000 </r>
       <r>    10.3817    -0.0000    36.0000 </r>
       <r>    10.4538    -0.0000    36.0000 </r>
       <r>    10.5258    -0.0000    36.0000 </r>
       <r>    10.5979    -0.0000    36.0000 </r>
       <r>    10.6699    -0.0000    36.0000 </r>
       <r>    10.7420     0.0000    36.0000 </r>
       <r>    10.8141     0.0000    36.0000 </r>
       <r>    10.8861     0.0000    36.0000 </r>
       <r>    10.9582     0.0000    36.0000 </r>
       <r>    11.0302     0.0000    36.0000 </r>
       <r>    11.1023     0.0000    36.0000 </r>
       <r>    11.1743     0.0000    36.0000 </r>
       <r>    11.2464     0.0000    36.0000 </r>
       <r>    11.3184     0.0000    36.0000 </r>
       <r>    11.3905     0.0000    36.0000 </r>
      </set>
     </set>
    </array>
   </total>
  </dos>
 </calculation>
 <structure name="finalpos" >
  <crystal>
   <varray name="basis" >
    <v>       2.56679773       0.00000000       0.00000000 </v>
    <v>       1.28339887       2.22291204       0.00000000 </v>
    <v>       0.00000000       0.00000000      23.38312616 </v>
   </varray>
   <i name="volume">    133.41863673 </i>
   <varray name="rec_basis" >
    <v>       0.38959050      -0.22493018       0.00000000 </v>
    <v>       0.00000000       0.44986035       0.00000000 </v>
    <v>       0.00000000       0.00000000       0.04276588 </v>
   </varray>
  </crystal>
  <varray name="positions" >
   <v>       0.00000000       0.00000000       0.00000000 </v>
   <v>       0.33333333       0.33333333       0.08962794 </v>
   <v>       0.66666667       0.66666667       0.17572787 </v>
   <v>       0.00000000      -0.00000000       0.26216720 </v>
   <v>       0.33333333       0.33333333       0.34692661 </v>
  </varray>
  <varray name="selective"  type="logical" >
   <v type="logical" >  F  F  F </v>
   <v type="logical" >  F  F  F </v>
   <v type="logical" >  T  T  T </v>
   <v type="logical" >  T  T  T </v>
   <v type="logical" >  T  T  T </v>
  </varray>
  <nose>
   <v>      -3.00000000       0.00000000       0.00010000       0.00010000 </v>
  </nose>
 </structure>
</modeling>
