       N       E                     dE             d eps       ncg     rms          rms(c)
DAV:   1     0.155183557390E+05    0.15518E+05   -0.56108E+05 12296   0.190E+03
DAV:   2     0.225499121065E+04   -0.13263E+05   -0.12692E+05 12288   0.452E+02
DAV:   3    -0.388439732856E+03   -0.26434E+04   -0.23919E+04 12312   0.232E+02
DAV:   4    -0.608592461646E+03   -0.22015E+03   -0.20913E+03 13392   0.944E+01
DAV:   5    -0.614524680844E+03   -0.59322E+01   -0.58997E+01 13632   0.157E+01    0.112E+02
