 vasp.6.3.2 27Jun22 (build Aug 17 2022 15:43:34) complex                        
  
 executed on           tv2STDVTST date 2025.02.04  13:56:27
 running   20 mpi-ranks, with    1 threads/rank
 distrk:  each k-point on   20 cores,    1 groups
 distr:  one band on NCORE=   5 cores,    4 groups


--------------------------------------------------------------------------------------------------------


 -----------------------------------------------------------------------------
|                                                                             |
|           W    W    AA    RRRRR   N    N  II  N    N   GGGG   !!!           |
|           W    W   A  A   R    R  NN   N  II  NN   N  G    G  !!!           |
|           W    W  A    A  R    R  N N  N  II  N N  N  G       !!!           |
|           W WW W  AAAAAA  RRRRR   N  N N  II  N  N N  G  GGG   !            |
|           WW  WW  A    A  R   R   N   NN  II  N   NN  G    G                |
|           W    W  A    A  R    R  N    N  II  N    N   GGGG   !!!           |
|                                                                             |
|     Found issues when parsing the INCAR file                                |
|     In line 61: Tagname --- R W I G S contains invalid characters.          |
|     Please check if the interpretation in the OUTCAR file is correct.       |
|                                                                             |
 -----------------------------------------------------------------------------

 INCAR:
    = \=\=\=\=\=\=\=\=\=\=\=\=\=\=\=\=\=\=\=\=\=\=\=\=\=\=\=\=\=\=\=\=\=\=\=\=\=\=\=\=\=\=\=\=\=\=\=\=\=\=\=\=\=\=\=\=\=\=\=\=\=\=\=\=\=\=\=\=\=\=\=\=
    = \=\=\=\=\=\=\=\=\=\=\=\=\=\=\=\=\=\=\=\=\=\=\=\=\=\=\=\=\=\=\=\=\=\=\=\=\=\=\=\=\=\=\=\=\=\=\=\=\=\=\=\=\=\=\=\=\=\=\=\=\=\=\=\=\=\=\=\=\=\=\=\=
   ISTART = 0
   ICHARG = 2
   IPIPOL = 3
   IVDW = 11
    = \=\=\=\=\=\=\=\=\=\=\=\=\=\=\=\=\=\=\=\=\=\=\=\=\=\=\=\=\=\=\=\=\=\=\=\=\=\=\=\=\=\=\=\=\=\=\=\=\=\=\=\=\=\=\=\=\=\=\=\=\=\=\=\=\=\=\=\=\=\=\=\=
    = \=\=\=\=\=\=\=\=\=\=\=\=\=\=\=\=\=\=\=\=\=\=\=\=\=\=\=\=\=\=\=\=\=\=\=\=\=\=\=\=\=\=\=\=\=\=\=\=\=\=\=\=\=\=\=\=\=\=\=\=\=\=\=\=\=\=\=\=\=\=\=\=
   ISPIN = 2
    = \=\=\=\=\=\=\=\=\=\=\=\=\=\=\=\=\=\=\=\=\=\=\=\=\=\=\=\=\=\=\=\=\=\=\=\=\=\=\=\=\=\=\=\=\=\=\=\=\=\=\=\=\=\=\=\=\=\=\=\=\=\=\=\=\=\=\=\=\=\=\=\=
    = \=\=\=\=\=\=\=\=\=\=\=\=\=\=\=\=\=\=\=\=\=\=\=\=\=\=\=\=\=\=\=\=\=\=\=\=\=\=\=\=\=\=\=\=\=\=\=\=\=\=\=\=\=\=\=\=\=\=\=\=\=\=\=\=\=\=\=\=\=\=\=\=
   ENCUT = 400
   PREC = Normal
   EDIFF = 2E-04
   GGA = PE
   ISMEAR = 1
   SIGMA = 0.2
   LREAL = .FALSE.
    = \=\=\=\=\=\=\=\=\=\=\=\=\=\=\=\=\=\=\=\=\=\=\=\=\=\=\=\=\=\=\=\=\=\=\=\=\=\=\=\=\=\=\=\=\=\=\=\=\=\=\=\=\=\=\=\=\=\=\=\=\=\=\=\=\=\=\=\=\=\=\=\=
    = \=\=\=\=\=\=\=\=\=\=\=\=\=\=\=\=\=\=\=\=\=\=\=\=\=\=\=\=\=\=\=\=\=\=\=\=\=\=\=\=\=\=\=\=\=\=\=\=\=\=\=\=\=\=\=\=\=\=\=\=\=\=\=\=\=\=\=\=\=\=\=\=
   ISYM = 1
   NSW = 800
   IBRION = 2
   POTIM = 0.5
   ISIF = 2
   EDIFFG = -.03
    = \=\=\=\=\=\=\=\=\=\=\=\=\=\=\=\=\=\=\=\=\=\=\=\=\=\=\=\=\=\=\=\=\=\=\=\=\=\=\=\=\=\=\=\=\=\=\=\=\=\=\=\=\=\=\=\=\=\=\=\=\=\=\=\=\=\=\=\=\=\=\=\=
    = \=\=\=\=\=\=\=\=\=\=\=\=\=\=\=\=\=\=\=\=\=\=\=\=\=\=\=\=\=\=\=\=\=\=\=\=\=\=\=\=\=\=\=\=\=\=\=\=\=\=\=\=\=\=\=\=\=\=\=\=\=\=\=\=\=\=\=\=\=\=\=\=
   NPAR = 4
   LWAVE = .FALSE.
   LCHARG = .FALSE.

 POTCAR:    PAW_PBE Cu 22Jun2005                  
 POTCAR:    PAW_PBE H 15Jun2001                   
 -----------------------------------------------------------------------------
|                                                                             |
|           W    W    AA    RRRRR   N    N  II  N    N   GGGG   !!!           |
|           W    W   A  A   R    R  NN   N  II  NN   N  G    G  !!!           |
|           W    W  A    A  R    R  N N  N  II  N N  N  G       !!!           |
|           W WW W  AAAAAA  RRRRR   N  N N  II  N  N N  G  GGG   !            |
|           WW  WW  A    A  R   R   N   NN  II  N   NN  G    G                |
|           W    W  A    A  R    R  N    N  II  N    N   GGGG   !!!           |
|                                                                             |
|     You use a magnetic or noncollinear calculation, but did not specify     |
|     the initial magnetic moment with the MAGMOM tag. Note that a            |
|     default of 1 will be used for all atoms. This ferromagnetic setup       |
|     may break the symmetry of the crystal, in particular it may rule        |
|     out finding an antiferromagnetic solution. Thence, we recommend         |
|     setting the initial magnetic moment manually or verifying carefully     |
|     that this magnetic setup is desired.                                    |
|                                                                             |
 -----------------------------------------------------------------------------

 POTCAR:    PAW_PBE Cu 22Jun2005                  
   SHA256 =  0e71e558f37a4e8407882b4609ceaae59938afaad9ced71dfe8490308a0ab630 Cu/POTCAR             
   COPYR  = (c) Copyright 22Jun2005 Georg Kresse                                                    
   COPYR  = This file is part of the software VASP. Any use, copying, and all other rights are regul
   COPYR  = If you do not have a valid VASP license, you may not use, copy or distribute this file. 
   VRHFIN =Cu: d10 p1                                                                               
   LEXCH  = PE                                                                                      
   EATOM  =  1390.9808 eV,  102.2342 Ry                                                             
                                                                                                    
   TITEL  = PAW_PBE Cu 22Jun2005                                                                    
   LULTRA =        F    use ultrasoft PP ?                                                          
   IUNSCR =        1    unscreen: 0-lin 1-nonlin 2-no                                               
   RPACOR =    2.000    partial core radius                                                         
   POMASS =   63.546; ZVAL   =   11.000    mass and valenz                                          
   RCORE  =    2.300    outmost cutoff radius                                                       
   RWIGS  =    2.200; RWIGS  =    1.164    wigner-seitz radius (au A)                               
   ENMAX  =  295.446; ENMIN  =  221.585 eV                                                          
   ICORE  =        3    local potential                                                             
   LCOR   =        T    correct aug charges                                                         
   LPAW   =        T    paw PP                                                                      
   EAUG   =  586.980                                                                                
   DEXC   =    0.000                                                                                
   RMAX   =    2.344    core radius for proj-oper                                                   
   RAUG   =    1.300    factor for augmentation sphere                                              
   RDEP   =    2.302    radius for radial grids                                                     
   RDEPT  =    1.771    core radius for aug-charge                                                  
                                                                                                    
   Atomic configuration                                                                             
    9 entries                                                                                       
     n  l   j            E        occ.                                                              
     1  0  0.50     -8850.2468   2.0000                                                             
     2  0  0.50     -1062.3498   2.0000                                                             
     2  1  1.50      -916.8226   6.0000                                                             
     3  0  0.50      -114.6929   2.0000                                                             
     3  1  1.50       -72.1325   6.0000                                                             
     3  2  2.50        -5.0394  10.0000                                                             
     4  0  0.50        -4.6097   1.0000                                                             
     4  1  0.50        -4.0817   0.0000                                                             
     4  3  2.50        -1.3606   0.0000                                                             
   Description                                                                                      
     l       E           TYP  RCUT    TYP  RCUT                                                     
     2     -5.0393973     23  2.200                                                                 
     2     10.8846608     23  2.200                                                                 
     0     -4.6097109     23  2.200                                                                 
     0      8.2520465     23  2.200                                                                 
     1     -2.7211652     23  2.200                                                                 
     1     21.7055443     23  2.200                                                                 
     3      2.7211652     23  2.300                                                                 
  local pseudopotential read in
  partial core-charges read in
  partial kinetic energy density read in
  atomic valenz-charges read in
  non local Contribution for L=           2  read in
    real space projection operators read in
  non local Contribution for L=           2  read in
    real space projection operators read in
  non local Contribution for L=           0  read in
    real space projection operators read in
  non local Contribution for L=           0  read in
    real space projection operators read in
  non local Contribution for L=           1  read in
    real space projection operators read in
  non local Contribution for L=           1  read in
    real space projection operators read in
    PAW grid and wavefunctions read in
 
   number of l-projection  operators is LMAX  =           6
   number of lm-projection operators is LMMAX =          18
 
 POTCAR:    PAW_PBE H 15Jun2001                   
   SHA256 =  030f79b5d3ab3cf0e668861823c8fb652ff669f3e15e46930bd03bfd63a607b6 H/POTCAR              
   COPYR  = (c) Copyright 15Jun2001 Georg Kresse                                                    
   COPYR  = This file is part of the software VASP. Any use, copying, and all other rights are regul
   COPYR  = If you do not have a valid VASP license, you may not use, copy or distribute this file. 
   VRHFIN =H: ultrasoft test                                                                        
   LEXCH  = PE                                                                                      
   EATOM  =    12.4884 eV,    0.9179 Ry                                                             
                                                                                                    
   TITEL  = PAW_PBE H 15Jun2001                                                                     
   LULTRA =        F    use ultrasoft PP ?                                                          
   IUNSCR =        0    unscreen: 0-lin 1-nonlin 2-no                                               
   RPACOR =    0.000    partial core radius                                                         
   POMASS =    1.000; ZVAL   =    1.000    mass and valenz                                          
   RCORE  =    1.100    outmost cutoff radius                                                       
   RWIGS  =    0.700; RWIGS  =    0.370    wigner-seitz radius (au A)                               
   ENMAX  =  250.000; ENMIN  =  200.000 eV                                                          
   RCLOC  =    0.701    cutoff for local pot                                                        
   LCOR   =        T    correct aug charges                                                         
   LPAW   =        T    paw PP                                                                      
   EAUG   =  400.000                                                                                
   RMAX   =    1.123    core radius for proj-oper                                                   
   RAUG   =    1.200    factor for augmentation sphere                                              
   RDEP   =    1.112    radius for radial grids                                                     
   RDEPT  =    0.926    core radius for aug-charge                                                  
                                                                                                    
   Atomic configuration                                                                             
    2 entries                                                                                       
     n  l   j            E        occ.                                                              
     1  0  0.50        -6.4927   1.0000                                                             
     2  1  0.50        -3.4015   0.0000                                                             
   Description                                                                                      
     l       E           TYP  RCUT    TYP  RCUT                                                     
     0     -6.4927494     23  1.100                                                                 
     0      6.8029130     23  1.100                                                                 
     1     -4.0817478     23  1.100                                                                 
  local pseudopotential read in
  atomic valenz-charges read in
  non local Contribution for L=           0  read in
    real space projection operators read in
  non local Contribution for L=           0  read in
    real space projection operators read in
  non local Contribution for L=           1  read in
    real space projection operators read in
    PAW grid and wavefunctions read in
 
   number of l-projection  operators is LMAX  =           3
   number of lm-projection operators is LMMAX =           5
 
  PAW_PBE Cu 22Jun2005                  :
 energy of atom  1       EATOM=-1390.9808
 kinetic energy error for atom=    0.0232 (will be added to EATOM!!)
  PAW_PBE H 15Jun2001                   :
 energy of atom  2       EATOM=  -12.4884
 kinetic energy error for atom=    0.0098 (will be added to EATOM!!)
 
 
 POSCAR: FCC Cu
  positions in cartesian coordinates
  No initial velocities read in
 exchange correlation table for  LEXCH =        8
   RHO(1)=    0.500       N(1)  =     2000
   RHO(2)=  100.500       N(2)  =     4000

 VTST: version 4.2, (08/11/21)

 CHAIN: initializing optimizer
 
 OPT: Using VASP Conjugate-Gradient optimizer
 CHAIN: Read ICHAIN            0
 
 POSCAR: FCC Cu
  positions in cartesian coordinates
  No initial velocities read in
 


--------------------------------------------------------------------------------------------------------


 ion  position               nearest neighbor table
   1  0.000  0.000  0.000-   3 2.51   2 2.57   2 2.57   2 2.57   2 2.57
   2  0.500  0.500  0.054-   4 2.50   3 2.54   3 2.54   3 2.54   3 2.54   1 2.57   1 2.57   1 2.57
                             1 2.57
   3  0.000  0.000  0.105-   1 2.51   2 2.54   2 2.54   2 2.54   2 2.54   5 2.54   4 2.56   4 2.56
                             4 2.56   4 2.56
   4  0.500  0.500  0.158-   2 2.50   6 2.52   5 2.56   5 2.56   5 2.56   5 2.56   3 2.56   3 2.56
                             3 2.56   3 2.56
   5  0.000  0.000  0.211-   3 2.54   6 2.55   6 2.55   6 2.55   6 2.55   7 2.55   4 2.56   4 2.56
                             4 2.56   4 2.56
   6  0.500  0.500  0.263-   8 2.44   4 2.52   5 2.55   5 2.55   5 2.55   5 2.55   7 2.58   7 2.58
                             7 2.58   7 2.58
   7  0.000  0.000  0.317-   8 2.50   8 2.50   8 2.50   8 2.50   5 2.55   6 2.58   6 2.58   6 2.58
                             6 2.58
   8  0.500  0.500  0.365-   9 1.49   6 2.44   7 2.50   7 2.50   7 2.50   7 2.50
   9  0.500  0.500  0.427-  10 0.75   8 1.49
  10  0.500  0.706  0.449-   9 0.75
 
  LATTYP: Found a simple orthorhombic cell.
 ALAT       =     2.5667977333
 B/A-ratio  =     1.4142135422
 C/A-ratio  =     9.3438571494
  
  Lattice vectors:
  
 A1 = (   0.0000000000,  -2.5667977333,   0.0000000000)
 A2 = (   3.6300001144,   0.0000000000,   0.0000000000)
 A3 = (   0.0000000000,   0.0000000000,  23.9837913513)


Analysis of symmetry for initial positions (statically):
=====================================================================
 Subroutine PRICEL returns:
 Original cell was already a primitive cell.
 

 Routine SETGRP: Setting up the symmetry group for a 
 simple orthorhombic supercell.


 Subroutine GETGRP returns: Found  2 space group operations
 (whereof  2 operations were pure point group operations)
 out of a pool of  8 trial point group operations.


The static configuration has the point symmetry C_1h.


Analysis of symmetry for dynamics (positions and initial velocities):
=====================================================================
 Subroutine PRICEL returns:
 Original cell was already a primitive cell.
 

 Routine SETGRP: Setting up the symmetry group for a 
 simple orthorhombic supercell.


 Subroutine GETGRP returns: Found  2 space group operations
 (whereof  2 operations were pure point group operations)
 out of a pool of  8 trial point group operations.


The dynamic configuration has the point symmetry C_1h.


Analysis of structural, dynamic, and magnetic symmetry:
=====================================================================
 Subroutine PRICEL returns:
 Original cell was already a primitive cell.
 

 Routine SETGRP: Setting up the symmetry group for a 
 simple orthorhombic supercell.


 Subroutine GETGRP returns: Found  2 space group operations
 (whereof  2 operations were pure point group operations)
 out of a pool of  8 trial point group operations.


The overall configuration has the point symmetry C_1h.


 Subroutine INISYM returns: Found  2 space group operations
 (whereof  2 operations are pure point group operations),
 and found     1 'primitive' translations


----------------------------------------------------------------------------------------

                                     Primitive cell                                     

  volume of cell :     223.4684

  direct lattice vectors                    reciprocal lattice vectors
     3.630000114  0.000000000  0.000000000     0.275482085  0.000000000  0.000000000
     0.000000000  2.566797733  0.000000000     0.000000000  0.389590495  0.000000000
     0.000000000  0.000000000 23.983791351     0.000000000  0.000000000  0.041694826

  length of vectors
     3.630000114  2.566797733 23.983791351     0.275482085  0.389590495  0.041694826

  position of ions in fractional coordinates (direct lattice)
     0.000000000  0.000000000  0.000000000
     0.500000000  0.500000000  0.053511090
     0.000000000  0.000000000  0.104681476
     0.500000000  0.500000000  0.157929955
     0.000000000  0.000000000  0.210708991
     0.500000000  0.500000000  0.262890478
     0.000000000  0.000000000  0.317115916
     0.500000000  0.500000000  0.364675901
     0.500000000  0.500000000  0.426907920
     0.500000000  0.705509632  0.448902010

  ion indices of the primitive-cell ions
   primitive index   ion index
                 1           1
                 2           2
                 3           3
                 4           4
                 5           5
                 6           6
                 7           7
                 8           8
                 9           9
                10          10

----------------------------------------------------------------------------------------

 
 
 KPOINTS: Auto-mesh                               

Automatic generation of k-mesh.
 Grid dimensions read from file:
 generate k-points for:    3    3    1

 Generating k-lattice:

  Cartesian coordinates                     Fractional coordinates (reciprocal lattice)
     0.091827362  0.000000000  0.000000000     0.333333333  0.000000000  0.000000000
     0.000000000  0.129863498  0.000000000     0.000000000  0.333333333  0.000000000
     0.000000000  0.000000000  0.041694826     0.000000000  0.000000000  1.000000000

  Length of vectors
     0.091827362  0.129863498  0.041694826

  Shift w.r.t. Gamma in fractional coordinates (k-lattice)
     0.000000000  0.000000000  0.000000000

 
 Subroutine IBZKPT returns following result:
 ===========================================
 
 Found      4 irreducible k-points:
 
 Following reciprocal coordinates:
            Coordinates               Weight
  0.000000  0.000000  0.000000      1.000000
  0.333333  0.000000  0.000000      2.000000
  0.000000  0.333333  0.000000      2.000000
  0.333333  0.333333  0.000000      4.000000
 
 Following cartesian coordinates:
            Coordinates               Weight
  0.000000  0.000000  0.000000      1.000000
  0.091827  0.000000  0.000000      2.000000
  0.000000  0.129863  0.000000      2.000000
  0.091827  0.129863  0.000000      4.000000
 


--------------------------------------------------------------------------------------------------------




 Dimension of arrays:
   k-points           NKPTS =      4   k-points in BZ     NKDIM =      4   number of bands    NBANDS=     60
   number of dos      NEDOS =    301   number of ions     NIONS =     10
   non local maximal  LDIM  =      6   non local SUM 2l+1 LMDIM =     18
   total plane-waves  NPLWV =  30240
   max r-space proj   IRMAX =      1   max aug-charges    IRDMAX=   4119
   dimension x,y,z NGX =    18 NGY =   14 NGZ =  120
   dimension x,y,z NGXF=    36 NGYF=   28 NGZF=  240
   support grid    NGXF=    36 NGYF=   28 NGZF=  240
   ions per type =               8   2
   NGX,Y,Z   is equivalent  to a cutoff of   8.24,  9.07,  8.32 a.u.
   NGXF,Y,Z  is equivalent  to a cutoff of  16.49, 18.13, 16.64 a.u.

 SYSTEM =  unknown system                          
 POSCAR =  FCC Cu                                  

 Startparameter for this run:
   NWRITE =      2    write-flag & timer
   PREC   = normal    normal or accurate (medium, high low for compatibility)
   ISTART =      0    job   : 0-new  1-cont  2-samecut
   ICHARG =      2    charge: 1-file 2-atom 10-const
   ISPIN  =      2    spin polarized calculation?
   LNONCOLLINEAR =      F non collinear calculations
   LSORBIT =      F    spin-orbit coupling
   INIWAV =      1    electr: 0-lowe 1-rand  2-diag
   LASPH  =      F    aspherical Exc in radial PAW
 Electronic Relaxation 1
   ENCUT  =  400.0 eV  29.40 Ry    5.42 a.u.   5.92  4.19 39.11*2*pi/ulx,y,z
   ENINI  =  400.0     initial cutoff
   ENAUG  =  587.0 eV  augmentation charge cutoff
   NELM   =     60;   NELMIN=  2; NELMDL= -5     # of ELM steps 
   EDIFF  = 0.2E-03   stopping-criterion for ELM
   LREAL  =      F    real-space projection
   NLSPLINE    = F    spline interpolate recip. space projectors
   LCOMPAT=      F    compatible to vasp.4.4
   GGA_COMPAT  = T    GGA compatible to vasp.4.4-vasp.4.6
   LMAXPAW     = -100 max onsite density
   LMAXMIX     =    2 max onsite mixed and CHGCAR
   VOSKOWN=      0    Vosko Wilk Nusair interpolation
   ROPT   =    0.00000   0.00000
 Ionic relaxation
   EDIFFG = -.3E-01   stopping-criterion for IOM
   NSW    =    800    number of steps for IOM
   NBLOCK =      1;   KBLOCK =    800    inner block; outer block 
   IBRION =      2    ionic relax: 0-MD 1-quasi-New 2-CG
   NFREE  =      1    steps in history (QN), initial steepest desc. (CG)
   ISIF   =      2    stress and relaxation
   IWAVPR =     11    prediction:  0-non 1-charg 2-wave 3-comb
   ISYM   =      1    0-nonsym 1-usesym 2-fastsym
   LCORR  =      T    Harris-Foulkes like correction to forces

   POTIM  = 0.5000    time-step for ionic-motion
   TEIN   =    0.0    initial temperature
   TEBEG  =    0.0;   TEEND  =   0.0 temperature during run
   SMASS  =  -3.00    Nose mass-parameter (am)
   estimated Nose-frequenzy (Omega)   =  0.10E-29 period in steps = 0.13E+47 mass=  -0.301E-27a.u.
   SCALEE = 1.0000    scale energy and forces
   NPACO  =    256;   APACO  = 10.0  distance and # of slots for P.C.
   PSTRESS=    0.0 pullay stress

  Mass of Ions in am
   POMASS =  63.55  1.00
  Ionic Valenz
   ZVAL   =  11.00  1.00
  Atomic Wigner-Seitz radii
   RWIGS  =  -1.00 -1.00
  virtual crystal weights 
   VCA    =   1.00  1.00
   NELECT =      90.0000    total number of electrons
   NUPDOWN=      -1.0000    fix difference up-down

 DOS related values:
   EMIN   =  10.00;   EMAX   =-10.00  energy-range for DOS
   EFERMI =   0.00
   ISMEAR =     1;   SIGMA  =   0.20  broadening in eV -4-tet -1-fermi 0-gaus

 Electronic relaxation 2 (details)
   IALGO  =     38    algorithm
   LDIAG  =      T    sub-space diagonalisation (order eigenvalues)
   LSUBROT=      F    optimize rotation matrix (better conditioning)
   TURBO    =      0    0=normal 1=particle mesh
   IRESTART =      0    0=no restart 2=restart with 2 vectors
   NREBOOT  =      0    no. of reboots
   NMIN     =      0    reboot dimension
   EREF     =   0.00    reference energy to select bands
   IMIX   =      4    mixing-type and parameters
     AMIX     =   0.40;   BMIX     =  1.00
     AMIX_MAG =   1.60;   BMIX_MAG =  1.00
     AMIN     =   0.10
     WC   =   100.;   INIMIX=   1;  MIXPRE=   1;  MAXMIX= -45

 Intra band minimization:
   WEIMIN = 0.0010     energy-eigenvalue tresh-hold
   EBREAK =  0.83E-06  absolut break condition
   DEPER  =   0.30     relativ break condition  

   TIME   =   0.40     timestep for ELM

  volume/ion in A,a.u.               =      22.35       150.80
  Fermi-wavevector in a.u.,A,eV,Ry     =   1.208974  2.284630 19.886522  1.461618
  Thomas-Fermi vector in A             =   2.344566
 
 Write flags
   LWAVE        =      F    write WAVECAR
   LDOWNSAMPLE  =      F    k-point downsampling of WAVECAR
   LCHARG       =      F    write CHGCAR
   LVTOT        =      F    write LOCPOT, total local potential
   LVHAR        =      F    write LOCPOT, Hartree potential only
   LELF         =      F    write electronic localiz. function (ELF)
   LORBIT       =      0    0 simple, 1 ext, 2 COOP (PROOUT), +10 PAW based schemes


 Dipole corrections
   LMONO  =      F    monopole corrections only (constant potential shift)
   LDIPOL =      F    correct potential (dipole corrections)
   IDIPOL =      0    1-x, 2-y, 3-z, 4-all directions 
   EPSILON=  1.0000000 bulk dielectric constant

 Exchange correlation treatment:
   GGA     =    PE    GGA type
   LEXCH   =     8    internal setting for exchange type
   LIBXC   =     F    Libxc                    
   VOSKOWN =     0    Vosko Wilk Nusair interpolation
   LHFCALC =     F    Hartree Fock is set to
   LHFONE  =     F    Hartree Fock one center treatment
   AEXX    =    0.0000 exact exchange contribution

 Linear response parameters
   LEPSILON=     F    determine dielectric tensor
   LRPA    =     F    only Hartree local field effects (RPA)
   LNABLA  =     F    use nabla operator in PAW spheres
   LVEL    =     F    velocity operator in full k-point grid
   CSHIFT  =0.1000    complex shift for real part using Kramers Kronig
   OMEGAMAX=  -1.0    maximum frequency
   DEG_THRESHOLD= 0.2000000E-02 threshold for treating states as degnerate
   RTIME   =   -0.100 relaxation time in fs
  (WPLASMAI=    0.000 imaginary part of plasma frequency in eV, 0.658/RTIME)
   DFIELD  = 0.0000000 0.0000000 0.0000000 field for delta impulse in time
 
  Optional k-point grid parameters
   LKPOINTS_OPT  =     F    use optional k-point grid
   KPOINTS_OPT_MODE=     1    mode for optional k-point grid
 
 Orbital magnetization related:
   ORBITALMAG=     F  switch on orbital magnetization
   LCHIMAG   =     F  perturbation theory with respect to B field
   DQ        =  0.001000  dq finite difference perturbation B field
   LLRAUG    =     F  two centre corrections for induced B field



--------------------------------------------------------------------------------------------------------


 conjugate gradient relaxation of ions
 charge density and potential will be updated during run
 spin polarized calculation
 Variant of blocked Davidson
 Davidson routine will perform the subspace rotation
 perform sub-space diagonalisation
    after iterative eigenvector-optimisation
 modified Broyden-mixing scheme, WC =      100.0
 initial mixing is a Kerker type mixing with AMIX =  0.4000 and BMIX =      1.0000
 Hartree-type preconditioning will be used
 using additional bands           15
 reciprocal scheme for non local part
 use partial core corrections
 calculate Harris-corrections to forces 
   (improved forces if not selfconsistent)
 use gradient corrections 
 use of overlap-Matrix (Vanderbilt PP)
 Methfessel and Paxton  Order N= 1 SIGMA  =   0.20


--------------------------------------------------------------------------------------------------------


  energy-cutoff  :      400.00
  volume of cell :      223.47
      direct lattice vectors                 reciprocal lattice vectors
     3.630000114  0.000000000  0.000000000     0.275482085  0.000000000  0.000000000
     0.000000000  2.566797733  0.000000000     0.000000000  0.389590495  0.000000000
     0.000000000  0.000000000 23.983791351     0.000000000  0.000000000  0.041694826

  length of vectors
     3.630000114  2.566797733 23.983791351     0.275482085  0.389590495  0.041694826


 
 k-points in units of 2pi/SCALE and weight: Auto-mesh                               
   0.00000000  0.00000000  0.00000000       0.111
   0.09182736  0.00000000  0.00000000       0.222
   0.00000000  0.12986350  0.00000000       0.222
   0.09182736  0.12986350  0.00000000       0.444
 
 k-points in reciprocal lattice and weights: Auto-mesh                               
   0.00000000  0.00000000  0.00000000       0.111
   0.33333333  0.00000000  0.00000000       0.222
   0.00000000  0.33333333  0.00000000       0.222
   0.33333333  0.33333333  0.00000000       0.444
 
 position of ions in fractional coordinates (direct lattice) 
   0.00000000  0.00000000  0.00000000
   0.50000000  0.50000000  0.05351109
   0.00000000  0.00000000  0.10468148
   0.50000000  0.50000000  0.15792996
   0.00000000  0.00000000  0.21070899
   0.50000000  0.50000000  0.26289048
   0.00000000  0.00000000  0.31711592
   0.50000000  0.50000000  0.36467590
   0.50000000  0.50000000  0.42690792
   0.50000000  0.70550963  0.44890201
 
 position of ions in cartesian coordinates  (Angst):
   0.00000000  0.00000000  0.00000000
   1.81500006  1.28339887  1.28339883
   0.00000000  0.00000000  2.51065868
   1.81500006  1.28339887  3.78775910
   0.00000000  0.00000000  5.05360047
   1.81500006  1.28339887  6.30511038
   0.00000000  0.00000000  7.60564196
   1.81500006  1.28339887  8.74631073
   1.81500006  1.28339887 10.23887049
   1.81500006  1.81090053 10.76637215
 


--------------------------------------------------------------------------------------------------------


 k-point   1 :   0.0000 0.0000 0.0000  plane waves:    4037
 k-point   2 :   0.3333 0.0000 0.0000  plane waves:    4064
 k-point   3 :   0.0000 0.3333 0.0000  plane waves:    4032
 k-point   4 :   0.3333 0.3333 0.0000  plane waves:    4072

 maximum and minimum number of plane-waves per node :       827      778

 maximum number of plane-waves:      4072
 maximum index in each direction: 
   IXMAX=    5   IYMAX=    4   IZMAX=   39
   IXMIN=   -6   IYMIN=   -4   IZMIN=  -39


 parallel 3D FFT for wavefunctions:
    minimum data exchange during FFTs selected (reduces bandwidth)
 parallel 3D FFT for charge:
    minimum data exchange during FFTs selected (reduces bandwidth)


 total amount of memory used by VASP MPI-rank0    35069. kBytes
=======================================================================

   base      :      30000. kBytes
   nonl-proj :       1086. kBytes
   fftplans  :        642. kBytes
   grid      :       1621. kBytes
   one-center:         62. kBytes
   wavefun   :       1658. kBytes
 
     INWAV:  cpu time      0.0000: real time      0.0004
 Broyden mixing: mesh for mixing (old mesh)
   NGX = 11   NGY =  9   NGZ = 79
  (NGX  = 36   NGY  = 28   NGZ  =240)
  gives a total of   7821 points

 initial charge density was supplied:
 charge density of overlapping atoms calculated
 number of electron      90.0000000 magnetization      10.0000000
 keeping initial charge density in first step


--------------------------------------------------------------------------------------------------------


 Maximum index for augmentation-charges          309 (set IRDMAX)


--------------------------------------------------------------------------------------------------------


 First call to EWALD:  gamma=   0.292
 Maximum number of real-space cells 4x 6x 1
 Maximum number of reciprocal cells 2x 1x 9

    FEWALD:  cpu time      0.0018: real time      0.0018


--------------------------------------- Iteration      1(   1)  ---------------------------------------


    POTLOK:  cpu time      0.0193: real time      0.0195
    SETDIJ:  cpu time      0.0066: real time      0.0067
     EDDAV:  cpu time      0.3162: real time      0.3187
       DOS:  cpu time      0.0016: real time      0.0017
    --------------------------------------------
      LOOP:  cpu time      0.3438: real time      0.3465

 eigenvalue-minimisations  :   960
 total energy-change (2. order) : 0.7734368E+03  (-0.3326130E+04)
 number of electron      90.0000000 magnetization      10.0000000
 augmentation part       90.0000000 magnetization      10.0000000

 Free energy of the ion-electron system (eV)
  ---------------------------------------------------
  alpha Z        PSCENC =       216.17040255
  Ewald energy   TEWEN  =     42309.77845866
  -Hartree energ DENC   =    -53127.70593157
  -exchange      EXHF   =         0.00000000
  -V(xc)+E(xc)   XCENC  =       371.64367186
  PAW double counting   =      9828.36862813   -10674.97285505
  entropy T*S    EENTRO =         0.00677897
  eigenvalues    EBANDS =       697.52922607
  atomic energy  EATOM  =     11152.61838693
  Solvation  Ediel_sol  =         0.00000000
  ---------------------------------------------------
  free energy    TOTEN  =       773.43676654 eV

  energy without entropy =      773.42998758  energy(sigma->0) =      773.43450689


--------------------------------------------------------------------------------------------------------




--------------------------------------- Iteration      1(   2)  ---------------------------------------


     EDDAV:  cpu time      0.3059: real time      0.3094
       DOS:  cpu time      0.0009: real time      0.0009
    --------------------------------------------
      LOOP:  cpu time      0.3068: real time      0.3103

 eigenvalue-minimisations  :   960
 total energy-change (2. order) :-0.7150670E+03  (-0.6866517E+03)
 number of electron      90.0000000 magnetization      10.0000000
 augmentation part       90.0000000 magnetization      10.0000000

 Free energy of the ion-electron system (eV)
  ---------------------------------------------------
  alpha Z        PSCENC =       216.17040255
  Ewald energy   TEWEN  =     42309.77845866
  -Hartree energ DENC   =    -53127.70593157
  -exchange      EXHF   =         0.00000000
  -V(xc)+E(xc)   XCENC  =       371.64367186
  PAW double counting   =      9828.36862813   -10674.97285505
  entropy T*S    EENTRO =         0.01321998
  eigenvalues    EBANDS =       -17.54423561
  atomic energy  EATOM  =     11152.61838693
  Solvation  Ediel_sol  =         0.00000000
  ---------------------------------------------------
  free energy    TOTEN  =        58.36974589 eV

  energy without entropy =       58.35652590  energy(sigma->0) =       58.36533922


--------------------------------------------------------------------------------------------------------




--------------------------------------- Iteration      1(   3)  ---------------------------------------


     EDDAV:  cpu time      0.3120: real time      0.3144
       DOS:  cpu time      0.0009: real time      0.0009
    --------------------------------------------
      LOOP:  cpu time      0.3130: real time      0.3154

 eigenvalue-minimisations  :  1000
 total energy-change (2. order) :-0.9013004E+02  (-0.8409921E+02)
 number of electron      90.0000000 magnetization      10.0000000
 augmentation part       90.0000000 magnetization      10.0000000

 Free energy of the ion-electron system (eV)
  ---------------------------------------------------
  alpha Z        PSCENC =       216.17040255
  Ewald energy   TEWEN  =     42309.77845866
  -Hartree energ DENC   =    -53127.70593157
  -exchange      EXHF   =         0.00000000
  -V(xc)+E(xc)   XCENC  =       371.64367186
  PAW double counting   =      9828.36862813   -10674.97285505
  entropy T*S    EENTRO =         0.01559944
  eigenvalues    EBANDS =      -107.67665961
  atomic energy  EATOM  =     11152.61838693
  Solvation  Ediel_sol  =         0.00000000
  ---------------------------------------------------
  free energy    TOTEN  =       -31.76029866 eV

  energy without entropy =      -31.77589810  energy(sigma->0) =      -31.76549848


--------------------------------------------------------------------------------------------------------




--------------------------------------- Iteration      1(   4)  ---------------------------------------


     EDDAV:  cpu time      0.3521: real time      0.3550
       DOS:  cpu time      0.0009: real time      0.0009
    --------------------------------------------
      LOOP:  cpu time      0.3530: real time      0.3559

 eigenvalue-minimisations  :  1112
 total energy-change (2. order) :-0.3807814E+01  (-0.3772911E+01)
 number of electron      90.0000000 magnetization      10.0000000
 augmentation part       90.0000000 magnetization      10.0000000

 Free energy of the ion-electron system (eV)
  ---------------------------------------------------
  alpha Z        PSCENC =       216.17040255
  Ewald energy   TEWEN  =     42309.77845866
  -Hartree energ DENC   =    -53127.70593157
  -exchange      EXHF   =         0.00000000
  -V(xc)+E(xc)   XCENC  =       371.64367186
  PAW double counting   =      9828.36862813   -10674.97285505
  entropy T*S    EENTRO =         0.01442813
  eigenvalues    EBANDS =      -111.48330233
  atomic energy  EATOM  =     11152.61838693
  Solvation  Ediel_sol  =         0.00000000
  ---------------------------------------------------
  free energy    TOTEN  =       -35.56811269 eV

  energy without entropy =      -35.58254082  energy(sigma->0) =      -35.57292207


--------------------------------------------------------------------------------------------------------




--------------------------------------- Iteration      1(   5)  ---------------------------------------


     EDDAV:  cpu time      0.3493: real time      0.3523
       DOS:  cpu time      0.0009: real time      0.0009
    CHARGE:  cpu time      0.0563: real time      0.0565
    MIXING:  cpu time      0.0006: real time      0.0006
    --------------------------------------------
      LOOP:  cpu time      0.4070: real time      0.4103

 eigenvalue-minimisations  :  1160
 total energy-change (2. order) :-0.9098994E-01  (-0.9090131E-01)
 number of electron      90.0000817 magnetization       9.0980096
 augmentation part       52.1627857 magnetization       8.8397469

 Broyden mixing:
  rms(total) = 0.27548E+01    rms(broyden)= 0.27545E+01
  rms(prec ) = 0.28365E+01
  weight for this iteration     100.00

 Free energy of the ion-electron system (eV)
  ---------------------------------------------------
  alpha Z        PSCENC =       216.17040255
  Ewald energy   TEWEN  =     42309.77845866
  -Hartree energ DENC   =    -53127.70593157
  -exchange      EXHF   =         0.00000000
  -V(xc)+E(xc)   XCENC  =       371.64367186
  PAW double counting   =      9828.36862813   -10674.97285505
  entropy T*S    EENTRO =         0.01445928
  eigenvalues    EBANDS =      -111.57432343
  atomic energy  EATOM  =     11152.61838693
  Solvation  Ediel_sol  =         0.00000000
  ---------------------------------------------------
  free energy    TOTEN  =       -35.65910264 eV

  energy without entropy =      -35.67356192  energy(sigma->0) =      -35.66392240


--------------------------------------------------------------------------------------------------------




--------------------------------------- Iteration      1(   6)  ---------------------------------------


    POTLOK:  cpu time      0.0178: real time      0.0189
    SETDIJ:  cpu time      0.0059: real time      0.0059
     EDDAV:  cpu time      0.3331: real time      0.3356
       DOS:  cpu time      0.0010: real time      0.0010
    CHARGE:  cpu time      0.0529: real time      0.0531
    MIXING:  cpu time      0.0007: real time      0.0007
    --------------------------------------------
      LOOP:  cpu time      0.4114: real time      0.4152

 eigenvalue-minimisations  :  1096
 total energy-change (2. order) : 0.7759760E+01  (-0.9456481E+01)
 number of electron      90.0000912 magnetization       8.5347606
 augmentation part       58.6482266 magnetization       6.4475298

 Broyden mixing:
  rms(total) = 0.13901E+01    rms(broyden)= 0.13898E+01
  rms(prec ) = 0.14639E+01
  weight for this iteration     100.00

 eigenvalues of (default mixing * dielectric matrix)
  average eigenvalue GAMMA=   0.7973
  0.7973

 Free energy of the ion-electron system (eV)
  ---------------------------------------------------
  alpha Z        PSCENC =       216.17040255
  Ewald energy   TEWEN  =     42309.77845866
  -Hartree energ DENC   =    -52920.93738691
  -exchange      EXHF   =         0.00000000
  -V(xc)+E(xc)   XCENC  =       366.16153107
  PAW double counting   =      9989.00818789   -10793.36042973
  entropy T*S    EENTRO =         0.00100943
  eigenvalues    EBANDS =      -347.33950292
  atomic energy  EATOM  =     11152.61838693
  Solvation  Ediel_sol  =         0.00000000
  ---------------------------------------------------
  free energy    TOTEN  =       -27.89934305 eV

  energy without entropy =      -27.90035247  energy(sigma->0) =      -27.89967952


--------------------------------------------------------------------------------------------------------




--------------------------------------- Iteration      1(   7)  ---------------------------------------


    POTLOK:  cpu time      0.0164: real time      0.0166
    SETDIJ:  cpu time      0.0057: real time      0.0057
     EDDAV:  cpu time      0.3492: real time      0.3521
       DOS:  cpu time      0.0009: real time      0.0009
    CHARGE:  cpu time      0.0498: real time      0.0500
    MIXING:  cpu time      0.0007: real time      0.0007
    --------------------------------------------
      LOOP:  cpu time      0.4227: real time      0.4261

 eigenvalue-minimisations  :  1164
 total energy-change (2. order) : 0.2111454E+01  (-0.2424111E+01)
 number of electron      90.0000883 magnetization       8.0011305
 augmentation part       56.3866927 magnetization       5.9219764

 Broyden mixing:
  rms(total) = 0.80425E+00    rms(broyden)= 0.80411E+00
  rms(prec ) = 0.85292E+00
  weight for this iteration     100.00

 eigenvalues of (default mixing * dielectric matrix)
  average eigenvalue GAMMA=   0.7978
  0.9854  0.6102

 Free energy of the ion-electron system (eV)
  ---------------------------------------------------
  alpha Z        PSCENC =       216.17040255
  Ewald energy   TEWEN  =     42309.77845866
  -Hartree energ DENC   =    -53049.91328365
  -exchange      EXHF   =         0.00000000
  -V(xc)+E(xc)   XCENC  =       369.47907854
  PAW double counting   =     10217.96503323   -11062.53506314
  entropy T*S    EENTRO =        -0.00078803
  eigenvalues    EBANDS =      -179.35011408
  atomic energy  EATOM  =     11152.61838693
  Solvation  Ediel_sol  =         0.00000000
  ---------------------------------------------------
  free energy    TOTEN  =       -25.78788899 eV

  energy without entropy =      -25.78710096  energy(sigma->0) =      -25.78762632


--------------------------------------------------------------------------------------------------------




--------------------------------------- Iteration      1(   8)  ---------------------------------------


    POTLOK:  cpu time      0.0163: real time      0.0166
    SETDIJ:  cpu time      0.0057: real time      0.0058
     EDDAV:  cpu time      0.3688: real time      0.3716
       DOS:  cpu time      0.0009: real time      0.0009
    CHARGE:  cpu time      0.0504: real time      0.0508
    MIXING:  cpu time      0.0007: real time      0.0007
    --------------------------------------------
      LOOP:  cpu time      0.4429: real time      0.4463

 eigenvalue-minimisations  :  1248
 total energy-change (2. order) : 0.3548269E+00  (-0.7919919E+00)
 number of electron      90.0000876 magnetization       7.2579950
 augmentation part       56.1120974 magnetization       5.0471173

 Broyden mixing:
  rms(total) = 0.71547E+00    rms(broyden)= 0.71538E+00
  rms(prec ) = 0.79417E+00
  weight for this iteration     100.00

 eigenvalues of (default mixing * dielectric matrix)
  average eigenvalue GAMMA=   0.7318
  1.1359  0.6565  0.4030

 Free energy of the ion-electron system (eV)
  ---------------------------------------------------
  alpha Z        PSCENC =       216.17040255
  Ewald energy   TEWEN  =     42309.77845866
  -Hartree energ DENC   =    -53052.67814573
  -exchange      EXHF   =         0.00000000
  -V(xc)+E(xc)   XCENC  =       369.69745278
  PAW double counting   =     10333.13789842   -11186.29616160
  entropy T*S    EENTRO =        -0.00945608
  eigenvalues    EBANDS =      -167.85189804
  atomic energy  EATOM  =     11152.61838693
  Solvation  Ediel_sol  =         0.00000000
  ---------------------------------------------------
  free energy    TOTEN  =       -25.43306210 eV

  energy without entropy =      -25.42360603  energy(sigma->0) =      -25.42991008


--------------------------------------------------------------------------------------------------------




--------------------------------------- Iteration      1(   9)  ---------------------------------------


    POTLOK:  cpu time      0.0164: real time      0.0173
    SETDIJ:  cpu time      0.0056: real time      0.0056
     EDDAV:  cpu time      0.4099: real time      0.4133
       DOS:  cpu time      0.0009: real time      0.0009
    CHARGE:  cpu time      0.0533: real time      0.0535
    MIXING:  cpu time      0.0009: real time      0.0009
    --------------------------------------------
      LOOP:  cpu time      0.4871: real time      0.4916

 eigenvalue-minimisations  :  1424
 total energy-change (2. order) :-0.7621088E-01  (-0.4564058E+00)
 number of electron      90.0000876 magnetization       6.3751883
 augmentation part       56.0522526 magnetization       4.2842785

 Broyden mixing:
  rms(total) = 0.59776E+00    rms(broyden)= 0.59770E+00
  rms(prec ) = 0.62784E+00
  weight for this iteration     100.00

 eigenvalues of (default mixing * dielectric matrix)
  average eigenvalue GAMMA=   0.7918
  1.2982  0.7740  0.7740  0.3212

 Free energy of the ion-electron system (eV)
  ---------------------------------------------------
  alpha Z        PSCENC =       216.17040255
  Ewald energy   TEWEN  =     42309.77845866
  -Hartree energ DENC   =    -53071.49309019
  -exchange      EXHF   =         0.00000000
  -V(xc)+E(xc)   XCENC  =       369.17262128
  PAW double counting   =     10466.55733280   -11327.02909342
  entropy T*S    EENTRO =        -0.00006620
  eigenvalues    EBANDS =      -141.28422539
  atomic energy  EATOM  =     11152.61838693
  Solvation  Ediel_sol  =         0.00000000
  ---------------------------------------------------
  free energy    TOTEN  =       -25.50927298 eV

  energy without entropy =      -25.50920679  energy(sigma->0) =      -25.50925092


--------------------------------------------------------------------------------------------------------




--------------------------------------- Iteration      1(  10)  ---------------------------------------


    POTLOK:  cpu time      0.0162: real time      0.0164
    SETDIJ:  cpu time      0.0056: real time      0.0056
     EDDAV:  cpu time      0.4441: real time      0.4474
       DOS:  cpu time      0.0009: real time      0.0009
    CHARGE:  cpu time      0.0534: real time      0.0537
    MIXING:  cpu time      0.0010: real time      0.0010
    --------------------------------------------
      LOOP:  cpu time      0.5211: real time      0.5250

 eigenvalue-minimisations  :  1504
 total energy-change (2. order) :-0.6715673E+00  (-0.1959214E+00)
 number of electron      90.0000877 magnetization       4.8421098
 augmentation part       56.1309962 magnetization       2.8577246

 Broyden mixing:
  rms(total) = 0.50305E+00    rms(broyden)= 0.50302E+00
  rms(prec ) = 0.50796E+00
  weight for this iteration     100.00

 eigenvalues of (default mixing * dielectric matrix)
  average eigenvalue GAMMA=   0.9674
  2.0951  1.2055  0.7074  0.5237  0.3054

 Free energy of the ion-electron system (eV)
  ---------------------------------------------------
  alpha Z        PSCENC =       216.17040255
  Ewald energy   TEWEN  =     42309.77845866
  -Hartree energ DENC   =    -53082.91325942
  -exchange      EXHF   =         0.00000000
  -V(xc)+E(xc)   XCENC  =       368.20727958
  PAW double counting   =     10567.23344040   -11430.94224512
  entropy T*S    EENTRO =        -0.00236909
  eigenvalues    EBANDS =      -126.33093479
  atomic energy  EATOM  =     11152.61838693
  Solvation  Ediel_sol  =         0.00000000
  ---------------------------------------------------
  free energy    TOTEN  =       -26.18084030 eV

  energy without entropy =      -26.17847122  energy(sigma->0) =      -26.18005061


--------------------------------------------------------------------------------------------------------




--------------------------------------- Iteration      1(  11)  ---------------------------------------


    POTLOK:  cpu time      0.0170: real time      0.0172
    SETDIJ:  cpu time      0.0059: real time      0.0059
     EDDAV:  cpu time      0.3845: real time      0.3877
       DOS:  cpu time      0.0009: real time      0.0009
    CHARGE:  cpu time      0.0507: real time      0.0509
    MIXING:  cpu time      0.0009: real time      0.0009
    --------------------------------------------
      LOOP:  cpu time      0.4598: real time      0.4636

 eigenvalue-minimisations  :  1324
 total energy-change (2. order) :-0.1727530E+01  (-0.1107607E+00)
 number of electron      90.0000879 magnetization       3.5435195
 augmentation part       56.3714049 magnetization       1.8543597

 Broyden mixing:
  rms(total) = 0.39486E+00    rms(broyden)= 0.39484E+00
  rms(prec ) = 0.39933E+00
  weight for this iteration     100.00

 eigenvalues of (default mixing * dielectric matrix)
  average eigenvalue GAMMA=   1.1232
  3.2626  1.2103  0.7448  0.7448  0.4706  0.3064

 Free energy of the ion-electron system (eV)
  ---------------------------------------------------
  alpha Z        PSCENC =       216.17040255
  Ewald energy   TEWEN  =     42309.77845866
  -Hartree energ DENC   =    -53087.65255707
  -exchange      EXHF   =         0.00000000
  -V(xc)+E(xc)   XCENC  =       366.65075042
  PAW double counting   =     10665.81781525   -11531.07572926
  entropy T*S    EENTRO =        -0.00844045
  eigenvalues    EBANDS =      -120.20745734
  atomic energy  EATOM  =     11152.61838693
  Solvation  Ediel_sol  =         0.00000000
  ---------------------------------------------------
  free energy    TOTEN  =       -27.90837032 eV

  energy without entropy =      -27.89992986  energy(sigma->0) =      -27.90555683


--------------------------------------------------------------------------------------------------------




--------------------------------------- Iteration      1(  12)  ---------------------------------------


    POTLOK:  cpu time      0.0161: real time      0.0163
    SETDIJ:  cpu time      0.0058: real time      0.0059
     EDDAV:  cpu time      0.3675: real time      0.3703
       DOS:  cpu time      0.0009: real time      0.0009
    CHARGE:  cpu time      0.0519: real time      0.0521
    MIXING:  cpu time      0.0010: real time      0.0010
    --------------------------------------------
      LOOP:  cpu time      0.4432: real time      0.4464

 eigenvalue-minimisations  :  1248
 total energy-change (2. order) :-0.1609223E+01  (-0.9248427E-01)
 number of electron      90.0000877 magnetization       1.7180728
 augmentation part       56.2634292 magnetization       0.3128260

 Broyden mixing:
  rms(total) = 0.30059E+00    rms(broyden)= 0.30057E+00
  rms(prec ) = 0.30749E+00
  weight for this iteration     100.00

 eigenvalues of (default mixing * dielectric matrix)
  average eigenvalue GAMMA=   1.4686
  5.4028  1.7216  0.9599  0.7842  0.3093  0.6269  0.4755

 Free energy of the ion-electron system (eV)
  ---------------------------------------------------
  alpha Z        PSCENC =       216.17040255
  Ewald energy   TEWEN  =     42309.77845866
  -Hartree energ DENC   =    -53103.86997110
  -exchange      EXHF   =         0.00000000
  -V(xc)+E(xc)   XCENC  =       365.85021652
  PAW double counting   =     10691.42902657   -11558.79297240
  entropy T*S    EENTRO =        -0.01462160
  eigenvalues    EBANDS =      -102.68651985
  atomic energy  EATOM  =     11152.61838693
  Solvation  Ediel_sol  =         0.00000000
  ---------------------------------------------------
  free energy    TOTEN  =       -29.51759373 eV

  energy without entropy =      -29.50297213  energy(sigma->0) =      -29.51271986


--------------------------------------------------------------------------------------------------------




--------------------------------------- Iteration      1(  13)  ---------------------------------------


    POTLOK:  cpu time      0.0162: real time      0.0164
    SETDIJ:  cpu time      0.0058: real time      0.0058
     EDDAV:  cpu time      0.3649: real time      0.3677
       DOS:  cpu time      0.0009: real time      0.0009
    CHARGE:  cpu time      0.0492: real time      0.0497
    MIXING:  cpu time      0.0010: real time      0.0010
    --------------------------------------------
      LOOP:  cpu time      0.4379: real time      0.4416

 eigenvalue-minimisations  :  1236
 total energy-change (2. order) :-0.2798583E+01  (-0.2356913E+00)
 number of electron      90.0000874 magnetization       0.9943116
 augmentation part       56.0338947 magnetization       0.0148884

 Broyden mixing:
  rms(total) = 0.19334E+00    rms(broyden)= 0.19328E+00
  rms(prec ) = 0.22896E+00
  weight for this iteration     100.00

 eigenvalues of (default mixing * dielectric matrix)
  average eigenvalue GAMMA=   1.7484
  8.1848  2.1021  0.9522  0.7415  0.7415  0.3086  0.5099  0.4465

 Free energy of the ion-electron system (eV)
  ---------------------------------------------------
  alpha Z        PSCENC =       216.17040255
  Ewald energy   TEWEN  =     42309.77845866
  -Hartree energ DENC   =    -53109.99447740
  -exchange      EXHF   =         0.00000000
  -V(xc)+E(xc)   XCENC  =       364.43414978
  PAW double counting   =     10628.72111209   -11494.95520563
  entropy T*S    EENTRO =        -0.00839224
  eigenvalues    EBANDS =       -99.08061158
  atomic energy  EATOM  =     11152.61838693
  Solvation  Ediel_sol  =         0.00000000
  ---------------------------------------------------
  free energy    TOTEN  =       -32.31617685 eV

  energy without entropy =      -32.30778462  energy(sigma->0) =      -32.31337944


--------------------------------------------------------------------------------------------------------




--------------------------------------- Iteration      1(  14)  ---------------------------------------


    POTLOK:  cpu time      0.0161: real time      0.0163
    SETDIJ:  cpu time      0.0056: real time      0.0056
     EDDAV:  cpu time      0.3447: real time      0.3472
       DOS:  cpu time      0.0009: real time      0.0009
    CHARGE:  cpu time      0.0525: real time      0.0527
    MIXING:  cpu time      0.0010: real time      0.0010
    --------------------------------------------
      LOOP:  cpu time      0.4207: real time      0.4237

 eigenvalue-minimisations  :  1152
 total energy-change (2. order) :-0.1206575E+01  (-0.1478153E+00)
 number of electron      90.0000873 magnetization       0.6285871
 augmentation part       56.0826514 magnetization       0.0631479

 Broyden mixing:
  rms(total) = 0.10804E+00    rms(broyden)= 0.10798E+00
  rms(prec ) = 0.11541E+00
  weight for this iteration     100.00

 eigenvalues of (default mixing * dielectric matrix)
  average eigenvalue GAMMA=   1.7604
  9.2104  2.1710  1.0264  0.7512  0.7512  0.7152  0.3080  0.4844  0.4254

 Free energy of the ion-electron system (eV)
  ---------------------------------------------------
  alpha Z        PSCENC =       216.17040255
  Ewald energy   TEWEN  =     42309.77845866
  -Hartree energ DENC   =    -53101.79650295
  -exchange      EXHF   =         0.00000000
  -V(xc)+E(xc)   XCENC  =       363.57167509
  PAW double counting   =     10580.73928460   -11444.13807303
  entropy T*S    EENTRO =        -0.01361386
  eigenvalues    EBANDS =      -110.45277020
  atomic energy  EATOM  =     11152.61838693
  Solvation  Ediel_sol  =         0.00000000
  ---------------------------------------------------
  free energy    TOTEN  =       -33.52275221 eV

  energy without entropy =      -33.50913835  energy(sigma->0) =      -33.51821426


--------------------------------------------------------------------------------------------------------




--------------------------------------- Iteration      1(  15)  ---------------------------------------


    POTLOK:  cpu time      0.0161: real time      0.0164
    SETDIJ:  cpu time      0.0056: real time      0.0056
     EDDAV:  cpu time      0.3346: real time      0.3373
       DOS:  cpu time      0.0009: real time      0.0009
    CHARGE:  cpu time      0.0516: real time      0.0518
    MIXING:  cpu time      0.0012: real time      0.0012
    --------------------------------------------
      LOOP:  cpu time      0.4100: real time      0.4132

 eigenvalue-minimisations  :  1108
 total energy-change (2. order) :-0.5929801E+00  (-0.7500427E-01)
 number of electron      90.0000874 magnetization       0.4366724
 augmentation part       56.1586474 magnetization       0.1449786

 Broyden mixing:
  rms(total) = 0.74527E-01    rms(broyden)= 0.74490E-01
  rms(prec ) = 0.79402E-01
  weight for this iteration     100.00

 eigenvalues of (default mixing * dielectric matrix)
  average eigenvalue GAMMA=   1.7667
  9.9442  2.3132  0.8805  0.8805  0.8969  0.8969  0.6419  0.3083  0.4684  0.4357

 Free energy of the ion-electron system (eV)
  ---------------------------------------------------
  alpha Z        PSCENC =       216.17040255
  Ewald energy   TEWEN  =     42309.77845866
  -Hartree energ DENC   =    -53093.49023173
  -exchange      EXHF   =         0.00000000
  -V(xc)+E(xc)   XCENC  =       363.12056863
  PAW double counting   =     10565.69221906   -11427.93487565
  entropy T*S    EENTRO =        -0.00617927
  eigenvalues    EBANDS =      -120.06448154
  atomic energy  EATOM  =     11152.61838693
  Solvation  Ediel_sol  =         0.00000000
  ---------------------------------------------------
  free energy    TOTEN  =       -34.11573236 eV

  energy without entropy =      -34.10955309  energy(sigma->0) =      -34.11367260


--------------------------------------------------------------------------------------------------------




--------------------------------------- Iteration      1(  16)  ---------------------------------------


    POTLOK:  cpu time      0.0160: real time      0.0163
    SETDIJ:  cpu time      0.0056: real time      0.0056
     EDDAV:  cpu time      0.3428: real time      0.3456
       DOS:  cpu time      0.0009: real time      0.0009
    CHARGE:  cpu time      0.0554: real time      0.0556
    MIXING:  cpu time      0.0030: real time      0.0030
    --------------------------------------------
      LOOP:  cpu time      0.4238: real time      0.4272

 eigenvalue-minimisations  :  1144
 total energy-change (2. order) :-0.2638115E+00  (-0.1810760E-01)
 number of electron      90.0000874 magnetization       0.2948468
 augmentation part       56.1820082 magnetization       0.1240111

 Broyden mixing:
  rms(total) = 0.52996E-01    rms(broyden)= 0.52967E-01
  rms(prec ) = 0.57289E-01
  weight for this iteration     100.00

 eigenvalues of (default mixing * dielectric matrix)
  average eigenvalue GAMMA=   1.7763
 10.6312  2.2917  1.2360  0.9738  0.9738  0.9403  0.7209  0.3083  0.5738  0.4671
  0.4221

 Free energy of the ion-electron system (eV)
  ---------------------------------------------------
  alpha Z        PSCENC =       216.17040255
  Ewald energy   TEWEN  =     42309.77845866
  -Hartree energ DENC   =    -53087.42650856
  -exchange      EXHF   =         0.00000000
  -V(xc)+E(xc)   XCENC  =       362.91694874
  PAW double counting   =     10550.85046910   -11412.48536532
  entropy T*S    EENTRO =         0.00058685
  eigenvalues    EBANDS =      -126.80292284
  atomic energy  EATOM  =     11152.61838693
  Solvation  Ediel_sol  =         0.00000000
  ---------------------------------------------------
  free energy    TOTEN  =       -34.37954390 eV

  energy without entropy =      -34.38013076  energy(sigma->0) =      -34.37973952


--------------------------------------------------------------------------------------------------------




--------------------------------------- Iteration      1(  17)  ---------------------------------------


    POTLOK:  cpu time      0.0174: real time      0.0177
    SETDIJ:  cpu time      0.0059: real time      0.0060
     EDDAV:  cpu time      0.3693: real time      0.3720
       DOS:  cpu time      0.0009: real time      0.0009
    CHARGE:  cpu time      0.0512: real time      0.0514
    MIXING:  cpu time      0.0013: real time      0.0013
    --------------------------------------------
      LOOP:  cpu time      0.4461: real time      0.4493

 eigenvalue-minimisations  :  1244
 total energy-change (2. order) :-0.1770374E+00  (-0.9980208E-02)
 number of electron      90.0000874 magnetization       0.2265082
 augmentation part       56.1924965 magnetization       0.1297120

 Broyden mixing:
  rms(total) = 0.38756E-01    rms(broyden)= 0.38734E-01
  rms(prec ) = 0.41762E-01
  weight for this iteration     100.00

 eigenvalues of (default mixing * dielectric matrix)
  average eigenvalue GAMMA=   1.7728
 10.9906  2.1904  2.1904  0.9856  0.9856  0.7983  0.7983  0.6992  0.3083  0.4805
  0.4416  0.4052

 Free energy of the ion-electron system (eV)
  ---------------------------------------------------
  alpha Z        PSCENC =       216.17040255
  Ewald energy   TEWEN  =     42309.77845866
  -Hartree energ DENC   =    -53080.24667686
  -exchange      EXHF   =         0.00000000
  -V(xc)+E(xc)   XCENC  =       362.76562952
  PAW double counting   =     10543.92793904   -11405.63106182
  entropy T*S    EENTRO =         0.00565534
  eigenvalues    EBANDS =      -133.94531465
  atomic energy  EATOM  =     11152.61838693
  Solvation  Ediel_sol  =         0.00000000
  ---------------------------------------------------
  free energy    TOTEN  =       -34.55658131 eV

  energy without entropy =      -34.56223665  energy(sigma->0) =      -34.55846643


--------------------------------------------------------------------------------------------------------




--------------------------------------- Iteration      1(  18)  ---------------------------------------


    POTLOK:  cpu time      0.0160: real time      0.0163
    SETDIJ:  cpu time      0.0056: real time      0.0056
     EDDAV:  cpu time      0.3513: real time      0.3542
       DOS:  cpu time      0.0009: real time      0.0009
    CHARGE:  cpu time      0.0502: real time      0.0504
    MIXING:  cpu time      0.0013: real time      0.0013
    --------------------------------------------
      LOOP:  cpu time      0.4253: real time      0.4287

 eigenvalue-minimisations  :  1176
 total energy-change (2. order) :-0.7917546E-01  (-0.4662907E-02)
 number of electron      90.0000873 magnetization       0.2003340
 augmentation part       56.1757645 magnetization       0.1243738

 Broyden mixing:
  rms(total) = 0.22220E-01    rms(broyden)= 0.22211E-01
  rms(prec ) = 0.24668E-01
  weight for this iteration     100.00

 eigenvalues of (default mixing * dielectric matrix)
  average eigenvalue GAMMA=   1.7997
 11.2629  2.9120  2.2191  1.3288  0.8983  0.8983  0.8063  0.8063  0.6466  0.3083
  0.4772  0.4384  0.3938

 Free energy of the ion-electron system (eV)
  ---------------------------------------------------
  alpha Z        PSCENC =       216.17040255
  Ewald energy   TEWEN  =     42309.77845866
  -Hartree energ DENC   =    -53076.56512521
  -exchange      EXHF   =         0.00000000
  -V(xc)+E(xc)   XCENC  =       362.71382199
  PAW double counting   =     10546.21490684   -11408.47590863
  entropy T*S    EENTRO =         0.00596523
  eigenvalues    EBANDS =      -137.09666513
  atomic energy  EATOM  =     11152.61838693
  Solvation  Ediel_sol  =         0.00000000
  ---------------------------------------------------
  free energy    TOTEN  =       -34.63575678 eV

  energy without entropy =      -34.64172201  energy(sigma->0) =      -34.63774519


--------------------------------------------------------------------------------------------------------




--------------------------------------- Iteration      1(  19)  ---------------------------------------


    POTLOK:  cpu time      0.0159: real time      0.0162
    SETDIJ:  cpu time      0.0056: real time      0.0056
     EDDAV:  cpu time      0.3385: real time      0.3410
       DOS:  cpu time      0.0009: real time      0.0009
    CHARGE:  cpu time      0.0500: real time      0.0503
    MIXING:  cpu time      0.0014: real time      0.0014
    --------------------------------------------
      LOOP:  cpu time      0.4123: real time      0.4153

 eigenvalue-minimisations  :  1124
 total energy-change (2. order) :-0.6692043E-01  (-0.2454543E-02)
 number of electron      90.0000873 magnetization       0.1805127
 augmentation part       56.1814174 magnetization       0.1326487

 Broyden mixing:
  rms(total) = 0.18142E-01    rms(broyden)= 0.18137E-01
  rms(prec ) = 0.19155E-01
  weight for this iteration     100.00

 eigenvalues of (default mixing * dielectric matrix)
  average eigenvalue GAMMA=   1.7370
 11.3297  2.9405  2.3557  1.3210  0.9869  0.8453  0.8453  0.7403  0.7403  0.5982
  0.3083  0.4736  0.4420  0.3907

 Free energy of the ion-electron system (eV)
  ---------------------------------------------------
  alpha Z        PSCENC =       216.17040255
  Ewald energy   TEWEN  =     42309.77845866
  -Hartree energ DENC   =    -53070.82513601
  -exchange      EXHF   =         0.00000000
  -V(xc)+E(xc)   XCENC  =       362.64091662
  PAW double counting   =     10539.90464439   -11401.92773391
  entropy T*S    EENTRO =         0.00644982
  eigenvalues    EBANDS =      -143.06906625
  atomic energy  EATOM  =     11152.61838693
  Solvation  Ediel_sol  =         0.00000000
  ---------------------------------------------------
  free energy    TOTEN  =       -34.70267721 eV

  energy without entropy =      -34.70912703  energy(sigma->0) =      -34.70482715


--------------------------------------------------------------------------------------------------------




--------------------------------------- Iteration      1(  20)  ---------------------------------------


    POTLOK:  cpu time      0.0161: real time      0.0163
    SETDIJ:  cpu time      0.0056: real time      0.0056
     EDDAV:  cpu time      0.3546: real time      0.3575
       DOS:  cpu time      0.0010: real time      0.0010
    CHARGE:  cpu time      0.0501: real time      0.0506
    MIXING:  cpu time      0.0016: real time      0.0016
    --------------------------------------------
      LOOP:  cpu time      0.4290: real time      0.4326

 eigenvalue-minimisations  :  1196
 total energy-change (2. order) :-0.2783438E-01  (-0.3503523E-03)
 number of electron      90.0000873 magnetization       0.1387006
 augmentation part       56.1783566 magnetization       0.0951109

 Broyden mixing:
  rms(total) = 0.14041E-01    rms(broyden)= 0.14040E-01
  rms(prec ) = 0.14904E-01
  weight for this iteration     100.00

 eigenvalues of (default mixing * dielectric matrix)
  average eigenvalue GAMMA=   1.7320
 11.4049  3.1830  2.5694  1.4787  1.2296  0.9187  0.9187  0.7723  0.7723  0.6432
  0.3083  0.4941  0.4495  0.4495  0.3881

 Free energy of the ion-electron system (eV)
  ---------------------------------------------------
  alpha Z        PSCENC =       216.17040255
  Ewald energy   TEWEN  =     42309.77845866
  -Hartree energ DENC   =    -53070.07028689
  -exchange      EXHF   =         0.00000000
  -V(xc)+E(xc)   XCENC  =       362.61248648
  PAW double counting   =     10541.63420201   -11403.74306234
  entropy T*S    EENTRO =         0.00582750
  eigenvalues    EBANDS =      -143.73692649
  atomic energy  EATOM  =     11152.61838693
  Solvation  Ediel_sol  =         0.00000000
  ---------------------------------------------------
  free energy    TOTEN  =       -34.73051158 eV

  energy without entropy =      -34.73633909  energy(sigma->0) =      -34.73245409


--------------------------------------------------------------------------------------------------------




--------------------------------------- Iteration      1(  21)  ---------------------------------------


    POTLOK:  cpu time      0.0161: real time      0.0163
    SETDIJ:  cpu time      0.0058: real time      0.0058
     EDDAV:  cpu time      0.3290: real time      0.3314
       DOS:  cpu time      0.0009: real time      0.0009
    CHARGE:  cpu time      0.0501: real time      0.0503
    MIXING:  cpu time      0.0016: real time      0.0016
    --------------------------------------------
      LOOP:  cpu time      0.4034: real time      0.4063

 eigenvalue-minimisations  :  1084
 total energy-change (2. order) :-0.4911011E-01  (-0.5090260E-03)
 number of electron      90.0000873 magnetization       0.0861920
 augmentation part       56.1765027 magnetization       0.0537377

 Broyden mixing:
  rms(total) = 0.11308E-01    rms(broyden)= 0.11307E-01
  rms(prec ) = 0.12069E-01
  weight for this iteration     100.00

 eigenvalues of (default mixing * dielectric matrix)
  average eigenvalue GAMMA=   1.7429
 11.4769  3.7844  2.5188  2.0175  0.9386  0.9386  0.9133  0.9133  0.9234  0.7805
  0.6357  0.3083  0.4759  0.4392  0.4347  0.3868

 Free energy of the ion-electron system (eV)
  ---------------------------------------------------
  alpha Z        PSCENC =       216.17040255
  Ewald energy   TEWEN  =     42309.77845866
  -Hartree energ DENC   =    -53067.89132192
  -exchange      EXHF   =         0.00000000
  -V(xc)+E(xc)   XCENC  =       362.55812154
  PAW double counting   =     10544.87886022   -11407.13475224
  entropy T*S    EENTRO =         0.00534180
  eigenvalues    EBANDS =      -145.76311923
  atomic energy  EATOM  =     11152.61838693
  Solvation  Ediel_sol  =         0.00000000
  ---------------------------------------------------
  free energy    TOTEN  =       -34.77962170 eV

  energy without entropy =      -34.78496349  energy(sigma->0) =      -34.78140229


--------------------------------------------------------------------------------------------------------




--------------------------------------- Iteration      1(  22)  ---------------------------------------


    POTLOK:  cpu time      0.0160: real time      0.0162
    SETDIJ:  cpu time      0.0056: real time      0.0056
     EDDAV:  cpu time      0.3384: real time      0.3411
       DOS:  cpu time      0.0009: real time      0.0009
    CHARGE:  cpu time      0.0517: real time      0.0520
    MIXING:  cpu time      0.0016: real time      0.0016
    --------------------------------------------
      LOOP:  cpu time      0.4142: real time      0.4174

 eigenvalue-minimisations  :  1128
 total energy-change (2. order) :-0.3928956E-01  (-0.4254562E-03)
 number of electron      90.0000873 magnetization       0.0676995
 augmentation part       56.1847849 magnetization       0.0530311

 Broyden mixing:
  rms(total) = 0.91784E-02    rms(broyden)= 0.91769E-02
  rms(prec ) = 0.96158E-02
  weight for this iteration     100.00

 eigenvalues of (default mixing * dielectric matrix)
  average eigenvalue GAMMA=   1.7471
 11.5091  3.8465  3.2104  2.0285  1.3956  0.9135  0.9135  0.9362  0.8261  0.8261
  0.6572  0.6073  0.3083  0.4708  0.4460  0.4192  0.3862

 Free energy of the ion-electron system (eV)
  ---------------------------------------------------
  alpha Z        PSCENC =       216.17040255
  Ewald energy   TEWEN  =     42309.77845866
  -Hartree energ DENC   =    -53064.01289884
  -exchange      EXHF   =         0.00000000
  -V(xc)+E(xc)   XCENC  =       362.50044616
  PAW double counting   =     10543.56566523   -11405.69283721
  entropy T*S    EENTRO =         0.00534673
  eigenvalues    EBANDS =      -149.75188145
  atomic energy  EATOM  =     11152.61838693
  Solvation  Ediel_sol  =         0.00000000
  ---------------------------------------------------
  free energy    TOTEN  =       -34.81891125 eV

  energy without entropy =      -34.82425799  energy(sigma->0) =      -34.82069350


--------------------------------------------------------------------------------------------------------




--------------------------------------- Iteration      1(  23)  ---------------------------------------


    POTLOK:  cpu time      0.0160: real time      0.0162
    SETDIJ:  cpu time      0.0056: real time      0.0056
     EDDAV:  cpu time      0.3009: real time      0.3034
       DOS:  cpu time      0.0009: real time      0.0009
    CHARGE:  cpu time      0.0537: real time      0.0539
    MIXING:  cpu time      0.0018: real time      0.0018
    --------------------------------------------
      LOOP:  cpu time      0.3788: real time      0.3819

 eigenvalue-minimisations  :   956
 total energy-change (2. order) :-0.3097404E-01  (-0.1098577E-03)
 number of electron      90.0000873 magnetization       0.0545388
 augmentation part       56.1832082 magnetization       0.0414145

 Broyden mixing:
  rms(total) = 0.70461E-02    rms(broyden)= 0.70456E-02
  rms(prec ) = 0.73212E-02
  weight for this iteration     100.00

 eigenvalues of (default mixing * dielectric matrix)
  average eigenvalue GAMMA=   1.7656
 11.5210  4.7173  3.3617  2.0818  1.6076  0.9110  0.9110  0.9516  0.9516  0.8561
  0.7319  0.6459  0.3083  0.5132  0.4532  0.4532  0.3870  0.4181

 Free energy of the ion-electron system (eV)
  ---------------------------------------------------
  alpha Z        PSCENC =       216.17040255
  Ewald energy   TEWEN  =     42309.77845866
  -Hartree energ DENC   =    -53063.34194913
  -exchange      EXHF   =         0.00000000
  -V(xc)+E(xc)   XCENC  =       362.47238687
  PAW double counting   =     10544.50144375   -11406.64911220
  entropy T*S    EENTRO =         0.00497686
  eigenvalues    EBANDS =      -150.40487957
  atomic energy  EATOM  =     11152.61838693
  Solvation  Ediel_sol  =         0.00000000
  ---------------------------------------------------
  free energy    TOTEN  =       -34.84988529 eV

  energy without entropy =      -34.85486215  energy(sigma->0) =      -34.85154425


--------------------------------------------------------------------------------------------------------




--------------------------------------- Iteration      1(  24)  ---------------------------------------


    POTLOK:  cpu time      0.0161: real time      0.0163
    SETDIJ:  cpu time      0.0056: real time      0.0056
     EDDAV:  cpu time      0.2943: real time      0.2965
       DOS:  cpu time      0.0009: real time      0.0009
    CHARGE:  cpu time      0.0533: real time      0.0536
    MIXING:  cpu time      0.0019: real time      0.0019
    --------------------------------------------
      LOOP:  cpu time      0.3721: real time      0.3748

 eigenvalue-minimisations  :   912
 total energy-change (2. order) :-0.3686829E-01  (-0.1280462E-03)
 number of electron      90.0000873 magnetization       0.0237618
 augmentation part       56.1787160 magnetization       0.0106389

 Broyden mixing:
  rms(total) = 0.53822E-02    rms(broyden)= 0.53815E-02
  rms(prec ) = 0.57713E-02
  weight for this iteration     100.00

 eigenvalues of (default mixing * dielectric matrix)
  average eigenvalue GAMMA=   1.8476
 11.5858  6.7219  3.0721  2.5476  1.6106  1.3742  0.9047  0.9047  0.8576  0.8576
  0.8669  0.6793  0.6131  0.3083  0.4931  0.4520  0.4520  0.3869  0.4154

 Free energy of the ion-electron system (eV)
  ---------------------------------------------------
  alpha Z        PSCENC =       216.17040255
  Ewald energy   TEWEN  =     42309.77845866
  -Hartree energ DENC   =    -53062.56084559
  -exchange      EXHF   =         0.00000000
  -V(xc)+E(xc)   XCENC  =       362.44381934
  PAW double counting   =     10544.67220495   -11406.84586751
  entropy T*S    EENTRO =         0.00447563
  eigenvalues    EBANDS =      -151.16778854
  atomic energy  EATOM  =     11152.61838693
  Solvation  Ediel_sol  =         0.00000000
  ---------------------------------------------------
  free energy    TOTEN  =       -34.88675359 eV

  energy without entropy =      -34.89122921  energy(sigma->0) =      -34.88824546


--------------------------------------------------------------------------------------------------------




--------------------------------------- Iteration      1(  25)  ---------------------------------------


    POTLOK:  cpu time      0.0160: real time      0.0162
    SETDIJ:  cpu time      0.0056: real time      0.0056
     EDDAV:  cpu time      0.3062: real time      0.3085
       DOS:  cpu time      0.0009: real time      0.0009
    CHARGE:  cpu time      0.0520: real time      0.0523
    MIXING:  cpu time      0.0021: real time      0.0021
    --------------------------------------------
      LOOP:  cpu time      0.3828: real time      0.3856

 eigenvalue-minimisations  :   976
 total energy-change (2. order) :-0.2364165E-01  (-0.1166034E-03)
 number of electron      90.0000873 magnetization       0.0080857
 augmentation part       56.1815900 magnetization       0.0033344

 Broyden mixing:
  rms(total) = 0.28846E-02    rms(broyden)= 0.28835E-02
  rms(prec ) = 0.31786E-02
  weight for this iteration     100.00

 eigenvalues of (default mixing * dielectric matrix)
  average eigenvalue GAMMA=   1.9390
 11.7976  8.7188  3.2914  2.6254  2.0749  1.1596  1.1596  0.8998  0.8998  0.8288
  0.8288  0.7651  0.6694  0.3083  0.5837  0.4624  0.4624  0.3869  0.4388  0.4194

 Free energy of the ion-electron system (eV)
  ---------------------------------------------------
  alpha Z        PSCENC =       216.17040255
  Ewald energy   TEWEN  =     42309.77845866
  -Hartree energ DENC   =    -53060.40298817
  -exchange      EXHF   =         0.00000000
  -V(xc)+E(xc)   XCENC  =       362.41334762
  PAW double counting   =     10543.15619825   -11405.25760782
  entropy T*S    EENTRO =         0.00450526
  eigenvalues    EBANDS =      -153.39109851
[...]
      4      -3.7152      1.00000
      5      -3.2521      1.00000
      6      -2.8932      1.00000
      7      -2.7981      1.00000
      8      -2.7797      1.00000
      9      -2.6531      1.00000
     10      -2.5076      1.00000
     11      -2.4896      1.00000
     12      -2.4753      1.00000
     13      -2.3698      1.00000
     14      -2.1995      1.00000
     15      -2.1553      1.00000
     16      -2.1054      1.00000
     17      -1.9480      1.00000
     18      -1.8366      1.00000
     19      -1.5541      1.00000
     20      -1.5527      1.00000
     21      -1.4158      1.00000
     22      -1.3724      1.00000
     23      -1.1301      1.00000
     24      -1.0309      1.00000
     25      -0.9136      1.00000
     26      -0.8630      1.00000
     27      -0.7999      1.00000
     28      -0.7748      1.00000
     29      -0.6902      1.00000
     30      -0.6661      1.00000
     31      -0.6174      1.00000
     32      -0.5589      1.00000
     33      -0.5542      1.00000
     34      -0.4548      1.00000
     35      -0.3867      1.00000
     36      -0.3610      1.00000
     37      -0.3516      1.00000
     38      -0.2991      1.00000
     39      -0.2561      1.00000
     40      -0.2135      1.00000
     41      -0.1686      1.00000
     42      -0.0735      1.00000
     43       0.0056      1.00000
     44       0.0150      1.00000
     45       0.9990      1.03514
     46       2.9218     -0.00000
     47       4.1933     -0.00000
     48       4.8310     -0.00000
     49       5.0624     -0.00000
     50       5.5839     -0.00000
     51       6.8999      0.00000
     52       7.0032      0.00000
     53       7.4958      0.00000
     54       7.7763      0.00000
     55       8.3830      0.00000
     56       8.4135      0.00000
     57       8.7872      0.00000
     58       9.7492      0.00000
     59       9.8270      0.00000
     60       9.9345      0.00000

 k-point     4 :       0.3333    0.3333    0.0000
  band No.  band energies     occupation 
      1      -6.9422      1.00000
      2      -4.3838      1.00000
      3      -3.6666      1.00000
      4      -3.1137      1.00000
      5      -3.0438      1.00000
      6      -2.7810      1.00000
      7      -2.6992      1.00000
      8      -2.5932      1.00000
      9      -2.5426      1.00000
     10      -2.4111      1.00000
     11      -2.3689      1.00000
     12      -2.1540      1.00000
     13      -2.1254      1.00000
     14      -2.0977      1.00000
     15      -1.9163      1.00000
     16      -1.8865      1.00000
     17      -1.8085      1.00000
     18      -1.7448      1.00000
     19      -1.6741      1.00000
     20      -1.6341      1.00000
     21      -1.5751      1.00000
     22      -1.5147      1.00000
     23      -1.4580      1.00000
     24      -1.4387      1.00000
     25      -1.2432      1.00000
     26      -1.2270      1.00000
     27      -1.1428      1.00000
     28      -1.0933      1.00000
     29      -0.9010      1.00000
     30      -0.8046      1.00000
     31      -0.7318      1.00000
     32      -0.6437      1.00000
     33      -0.6303      1.00000
     34      -0.5808      1.00000
     35      -0.5269      1.00000
     36      -0.4926      1.00000
     37      -0.3777      1.00000
     38      -0.3308      1.00000
     39      -0.2884      1.00000
     40      -0.1958      1.00000
     41      -0.1697      1.00000
     42      -0.0794      1.00000
     43       0.2204      1.00000
     44       1.0924      0.96459
     45       2.1163     -0.00000
     46       2.5937     -0.00000
     47       3.0365     -0.00000
     48       4.3739     -0.00000
     49       4.4173     -0.00000
     50       5.1735     -0.00000
     51       5.9415     -0.00000
     52       6.4172     -0.00000
     53       6.5348     -0.00000
     54       7.2640      0.00000
     55       7.5055      0.00000
     56       8.3085      0.00000
     57       8.3739      0.00000
     58       8.7962      0.00000
     59       9.2343      0.00000
     60       9.7075      0.00000


--------------------------------------------------------------------------------------------------------


 soft charge-density along one line, spin component           1
         0         1         2         3         4         5         6         7         8         9
 total charge-density along one line
 
 soft charge-density along one line, spin component           2
         0         1         2         3         4         5         6         7         8         9
 total charge-density along one line
 
 pseudopotential strength for first ion, spin component:           1
 -6.929  -0.000  -0.000   0.000   0.000  -1.685   0.000   0.000
 -0.000  -6.919  -0.000   0.000   0.000   0.000  -1.695   0.000
 -0.000  -0.000  -6.942  -0.000   0.003   0.000   0.000  -1.680
  0.000   0.000  -0.000  -6.933  -0.000  -0.000  -0.000   0.000
  0.000   0.000   0.003  -0.000  -6.925  -0.000  -0.000  -0.002
 -1.685   0.000   0.000  -0.000  -0.000   8.175  -0.000  -0.000
  0.000  -1.695   0.000  -0.000  -0.000  -0.000   8.184  -0.000
  0.000   0.000  -1.680   0.000  -0.002  -0.000  -0.000   8.176
 -0.000  -0.000   0.000  -1.686   0.000   0.000   0.000  -0.000
 -0.000  -0.000  -0.002   0.000  -1.688   0.000   0.000  -0.000
 -0.000   0.000  -0.003   0.000  -0.001  -0.000   0.000   0.004
 -0.000   0.000  -0.006   0.000  -0.001  -0.000   0.000   0.008
  0.000  -0.017  -0.000  -0.000  -0.000  -0.000   0.014   0.000
 -0.000   0.000  -0.018   0.000   0.001  -0.000  -0.000   0.013
  0.000  -0.000  -0.000  -0.015   0.000  -0.000  -0.000   0.000
  0.000  -0.019  -0.000   0.000  -0.000   0.000   0.015   0.000
  0.000   0.000  -0.019   0.000   0.001  -0.000  -0.000   0.013
  0.000   0.000  -0.000  -0.017   0.000  -0.000  -0.000  -0.000
 pseudopotential strength for first ion, spin component:           2
 -6.929  -0.000  -0.000   0.000   0.000  -1.685   0.000   0.000
 -0.000  -6.919  -0.000   0.000   0.000   0.000  -1.695   0.000
 -0.000  -0.000  -6.942  -0.000   0.003   0.000   0.000  -1.680
  0.000   0.000  -0.000  -6.933  -0.000  -0.000  -0.000   0.000
  0.000   0.000   0.003  -0.000  -6.925  -0.000  -0.000  -0.002
 -1.685   0.000   0.000  -0.000  -0.000   8.175  -0.000  -0.000
  0.000  -1.695   0.000  -0.000  -0.000  -0.000   8.184  -0.000
  0.000   0.000  -1.680   0.000  -0.002  -0.000  -0.000   8.176
 -0.000  -0.000   0.000  -1.686   0.000   0.000   0.000  -0.000
 -0.000  -0.000  -0.002   0.000  -1.688   0.000   0.000  -0.000
 -0.000   0.000  -0.003   0.000  -0.001  -0.000   0.000   0.004
 -0.000   0.000  -0.006   0.000  -0.001  -0.000   0.000   0.008
  0.000  -0.017  -0.000  -0.000  -0.000  -0.000   0.014   0.000
 -0.000   0.000  -0.018   0.000   0.001  -0.000  -0.000   0.013
  0.000  -0.000  -0.000  -0.015   0.000  -0.000  -0.000   0.000
  0.000  -0.019  -0.000   0.000  -0.000   0.000   0.015   0.000
  0.000   0.000  -0.019   0.000   0.001  -0.000  -0.000   0.013
  0.000   0.000  -0.000  -0.017   0.000  -0.000  -0.000  -0.000
 total augmentation occupancy for first ion, spin component:           1
  1.923   0.000   0.000   0.000   0.000  -0.013   0.000   0.000  -0.000   0.000   0.000   0.000   0.000   0.000   0.000   0.000
  0.000   1.946  -0.000   0.000  -0.000   0.000  -0.028   0.000   0.000  -0.000  -0.000  -0.000   0.024   0.001   0.000  -0.023
  0.000  -0.000   1.929   0.000   0.001   0.000   0.000  -0.013   0.000   0.005  -0.018   0.016  -0.000   0.072   0.000   0.000
  0.000   0.000   0.000   1.940   0.000  -0.000   0.000   0.000  -0.025   0.000   0.000   0.000   0.000   0.000   0.068   0.000
  0.000  -0.000   0.001   0.000   1.925   0.000  -0.000   0.005   0.000  -0.017  -0.053   0.010  -0.001   0.024   0.000   0.001
 -0.013   0.000   0.000  -0.000   0.000   0.011   0.000   0.000   0.000   0.000   0.000   0.000   0.000   0.000  -0.000   0.000
  0.000  -0.028   0.000   0.000  -0.000   0.000   0.010   0.000   0.000   0.000   0.000  -0.000   0.021   0.000   0.000  -0.001
  0.000   0.000  -0.013   0.000   0.005   0.000   0.000   0.011   0.000   0.001  -0.014  -0.000   0.000   0.020   0.000  -0.000
 -0.000   0.000   0.000  -0.025   0.000   0.000   0.000   0.000   0.012   0.000   0.000   0.000   0.000   0.000   0.031   0.000
  0.000  -0.000   0.005   0.000  -0.017   0.000   0.000   0.001   0.000   0.010  -0.005   0.001   0.000   0.002   0.000  -0.000
  0.000  -0.000  -0.018   0.000  -0.053   0.000   0.000  -0.014   0.000  -0.005   1.703  -0.129   0.000   0.230   0.000  -0.000
  0.000  -0.000   0.016   0.000   0.010   0.000  -0.000  -0.000   0.000   0.001  -0.129   0.016  -0.000  -0.028   0.000   0.000
  0.000   0.024  -0.000   0.000  -0.001   0.000   0.021   0.000   0.000   0.000   0.000  -0.000   0.217   0.000   0.000  -0.013
  0.000   0.001   0.072   0.000   0.024   0.000   0.000   0.020   0.000   0.002   0.230  -0.028   0.000   0.107   0.000  -0.000
  0.000   0.000   0.000   0.068   0.000  -0.000   0.000   0.000   0.031   0.000   0.000   0.000   0.000   0.000   0.151   0.000
  0.000  -0.023   0.000   0.000   0.001   0.000  -0.001  -0.000   0.000  -0.000  -0.000   0.000  -0.013  -0.000   0.000   0.001
  0.000  -0.001  -0.029   0.000  -0.001   0.000  -0.000  -0.001   0.000  -0.000  -0.029   0.003  -0.000  -0.010   0.000   0.000
 -0.001   0.000   0.000  -0.027   0.000   0.000   0.000   0.000  -0.002   0.000   0.000   0.000   0.000   0.000  -0.010   0.000
 total augmentation occupancy for first ion, spin component:           2
  0.000   0.000   0.000  -0.000   0.000   0.000   0.000   0.000  -0.000   0.000   0.000   0.000   0.000   0.000   0.000   0.000
  0.000  -0.000   0.000   0.000   0.000   0.000  -0.000   0.000   0.000   0.000   0.000   0.000  -0.000   0.000   0.000   0.000
  0.000   0.000   0.000   0.000   0.000   0.000  -0.000   0.000   0.000  -0.000   0.000   0.000   0.000   0.000   0.000  -0.000
 -0.000   0.000   0.000  -0.000   0.000  -0.000   0.000   0.000  -0.000   0.000   0.000   0.000   0.000   0.000  -0.000   0.000
  0.000   0.000   0.000   0.000  -0.000   0.000  -0.000  -0.000   0.000   0.000   0.000   0.000  -0.000  -0.000   0.000   0.000
  0.000   0.000   0.000  -0.000   0.000  -0.000   0.000   0.000  -0.000   0.000   0.000   0.000   0.000   0.000  -0.000   0.000
  0.000  -0.000  -0.000   0.000  -0.000   0.000   0.000  -0.000   0.000   0.000   0.000   0.000  -0.000   0.000   0.000   0.000
  0.000   0.000   0.000   0.000  -0.000   0.000  -0.000  -0.000   0.000   0.000  -0.000   0.000  -0.000   0.000   0.000   0.000
 -0.000   0.000   0.000  -0.000   0.000  -0.000   0.000   0.000  -0.000   0.000   0.000   0.000   0.000   0.000  -0.000   0.000
  0.000   0.000  -0.000   0.000   0.000   0.000   0.000   0.000   0.000  -0.000  -0.000   0.000  -0.000   0.000   0.000   0.000
  0.000   0.000   0.000   0.000   0.000   0.000   0.000  -0.000   0.000  -0.000   0.000   0.000   0.000  -0.000   0.000  -0.000
  0.000   0.000   0.000   0.000   0.000   0.000   0.000   0.000   0.000   0.000   0.000  -0.000  -0.000   0.000   0.000   0.000
  0.000  -0.000   0.000   0.000  -0.000   0.000  -0.000  -0.000   0.000  -0.000   0.000  -0.000   0.000   0.000   0.000   0.000
  0.000   0.000   0.000   0.000  -0.000   0.000   0.000   0.000   0.000   0.000  -0.000   0.000   0.000   0.000   0.000   0.000
  0.000   0.000   0.000  -0.000   0.000  -0.000   0.000   0.000  -0.000   0.000   0.000   0.000   0.000   0.000  -0.000   0.000
  0.000   0.000  -0.000   0.000   0.000   0.000   0.000   0.000   0.000   0.000  -0.000   0.000   0.000   0.000   0.000  -0.000
  0.000  -0.000  -0.000   0.000  -0.000   0.000  -0.000  -0.000   0.000  -0.000  -0.000  -0.000  -0.000  -0.000   0.000  -0.000
 -0.000   0.000   0.000   0.000   0.000  -0.000   0.000   0.000  -0.000   0.000   0.000   0.000   0.000   0.000   0.000   0.000


------------------------ aborting loop because EDIFF is reached ----------------------------------------


    CHARGE:  cpu time      0.0498: real time      0.0501
    FORLOC:  cpu time      0.0011: real time      0.0011
    FORNL :  cpu time      0.1411: real time      0.1416
    STRESS:  cpu time      0.1623: real time      0.1632
    FORCOR:  cpu time      0.0160: real time      0.0161
    FORHAR:  cpu time      0.0028: real time      0.0028
    MIXING:  cpu time      0.0005: real time      0.0005
    OFIELD:  cpu time      0.0000: real time      0.0000

 ---------------------------------------------------------------------------------------------

         DFTD3 V3.0 Rev 1        
 Edisp (eV)   -3.20138

 E6    (eV) :    -1.3186
 E8    (eV) :    -1.8828
 % E8        : 58.81
    FORVDW:  cpu time      0.0495: real time      0.0497

  FORCE on cell =-STRESS in cart. coord.  units (eV):
  Direction    XX          YY          ZZ          XY          YZ          ZX
  --------------------------------------------------------------------------------------
  Alpha Z   216.17040   216.17040   216.17040
  Ewald   48123.30784 48321.30495-53982.33632     0.00000    -1.67382     0.00000
  Hartree 51245.92415 51378.86924-49404.96717     0.00000    -1.44524    -0.00000
  E(xc)    -520.55544  -520.07187  -520.67942    -0.00000     0.02073    -0.00000
  Local  ************************102376.53074    -0.00000     3.89588    -0.00000
  n-local  -178.83141  -175.29568  -179.38858     7.26844    -0.21001     0.02271
  augment   756.30054   758.96548   757.06246     0.00000     0.10734    -0.00000
  Kinetic   739.79123   734.15160   739.56156     6.97985    -0.81447     0.03847
  Fock        0.00000     0.00000     0.00000     0.00000     0.00000     0.00000
  vdW        -3.93818    -3.89619    -2.88112    -0.00000    -0.00856    -0.00000
  -------------------------------------------------------------------------------------
  Total      -4.79260    -3.94751    -0.92745     0.00000    -0.12816     0.00000
  in kB     -34.36101   -28.30205    -6.64941     0.00000    -0.91886     0.00000
  external pressure =      -23.10 kB  Pullay stress =        0.00 kB


 VOLUME and BASIS-vectors are now :
 -----------------------------------------------------------------------------
  energy-cutoff  :      400.00
  volume of cell :      223.47
      direct lattice vectors                 reciprocal lattice vectors
     3.630000114  0.000000000  0.000000000     0.275482085  0.000000000  0.000000000
     0.000000000  2.566797733  0.000000000     0.000000000  0.389590495  0.000000000
     0.000000000  0.000000000 23.983791351     0.000000000  0.000000000  0.041694826

  length of vectors
     3.630000114  2.566797733 23.983791351     0.275482085  0.389590495  0.041694826


 FORCES acting on ions
    electron-ion (+dipol)            ewald-force                    non-local-force                 convergence-correction
 -----------------------------------------------------------------------------------------------
   -.293E-13 -.604E-01 0.460E+04   -.744E-07 0.897E-01 -.459E+04   0.000E+00 0.561E-02 -.638E+01   0.273E-10 -.253E-01 -.597E-01
   0.736E-06 -.111E+00 0.352E+04   0.134E-06 0.127E+00 -.352E+04   0.000E+00 0.477E-01 0.184E+01   -.432E-10 -.488E-01 -.413E-01
   -.569E-13 -.198E+00 0.209E+04   -.124E-06 0.242E+00 -.209E+04   0.000E+00 0.401E-01 -.111E+01   0.639E-10 -.617E-01 -.422E-01
   0.751E-06 0.260E+00 0.769E+03   0.130E-06 -.264E+00 -.769E+03   0.000E+00 0.132E-01 0.439E+00   0.202E-10 -.598E-02 -.702E-01
   -.634E-13 -.809E-01 -.568E+03   -.128E-06 0.586E-01 0.568E+03   0.000E+00 -.443E-01 -.167E+00   -.148E-09 0.493E-01 0.557E-01
   0.760E-06 0.263E+00 -.189E+04   0.124E-06 -.294E+00 0.189E+04   0.000E+00 -.768E-01 0.999E+00   0.203E-10 0.796E-01 0.205E+00
   -.706E-13 0.186E+00 -.331E+04   -.136E-06 -.219E+00 0.331E+04   0.000E+00 -.625E-01 -.195E+01   0.850E-10 0.703E-01 0.897E-01
   0.807E-06 -.201E+01 -.438E+04   0.846E-07 0.208E+01 0.437E+04   0.000E+00 -.923E-01 0.956E+01   0.102E-09 0.172E-01 0.130E-01
   0.569E-07 0.188E+02 -.419E+03   -.577E-08 -.233E+02 0.419E+03   0.000E+00 0.452E+01 0.416E+00   -.414E-11 -.225E-02 -.110E-01
   0.553E-07 -.171E+02 -.417E+03   -.468E-08 0.215E+02 0.418E+03   0.000E+00 -.443E+01 -.105E+01   -.534E-11 0.396E-02 -.943E-02
 -----------------------------------------------------------------------------------------------
   0.317E-05 -.949E-02 -.265E+01   0.318E-13 0.675E-13 0.853E-12   0.000E+00 -.856E-01 0.259E+01   0.118E-09 0.763E-01 0.130E+00
 
 
 POSITION                                       TOTAL-FORCE (eV/Angst)
 -----------------------------------------------------------------------------------
      0.00000      0.01437      0.05857         0.000000      0.012998      0.013350
      1.81500      1.30509      1.19247         0.000000      0.020172      0.008207
      0.00000      0.04220      2.49123         0.000000      0.025377      0.018061
      1.81500      1.35045      3.75409         0.000000      0.004077      0.039005
      0.00000      0.08602      4.99143         0.000000     -0.017337      0.006403
      1.81500      1.38361      6.28053         0.000000     -0.028868     -0.036895
      0.00000      0.10287      7.55499         0.000000     -0.024922      0.000965
      1.81500      1.38373      8.71516         0.000000     -0.007267      0.008450
      1.81500      0.89701     10.56295         0.000000     -0.012121     -0.043467
      1.81500      1.66254     10.69631         0.000000      0.027890     -0.014080
 -----------------------------------------------------------------------------------
    total drift:                                0.000003     -0.018797      0.068974


--------------------------------------------------------------------------------------------------------



  FREE ENERGIE OF THE ION-ELECTRON SYSTEM (eV)
  ---------------------------------------------------
  free  energy   TOTEN  =       -38.54877639 eV

  energy  without entropy=      -38.55769608  energy(sigma->0) =      -38.55174962
 
 d Force =-0.3197720E-03[-0.471E-03,-0.168E-03]  d Energy =-0.2384451E-03-0.813E-04
 d Force = 0.7841563E+01[ 0.784E+01, 0.784E+01]  d Ewald  = 0.7841562E+01 0.383E-06


--------------------------------------------------------------------------------------------------------


    POTLOK:  cpu time      0.0253: real time      0.0254


--------------------------------------------------------------------------------------------------------


 stress matrix after NEB project (eV)
     -4.79260      0.00000      0.00000
      0.00000     -3.94751     -0.12816
      0.00000     -0.12816     -0.92745
  FORCES: max atom, RMS     0.046846    0.031023
  FORCE total and by dimension    0.098105    0.043467
  Stress total and by dimension    6.280517    4.792603
 -----------------------------------------------------------------------------
|                                                                             |
|     EEEEEEE  RRRRRR   RRRRRR   OOOOOOO  RRRRRR      ###     ###     ###     |
|     E        R     R  R     R  O     O  R     R     ###     ###     ###     |
|     E        R     R  R     R  O     O  R     R     ###     ###     ###     |
|     EEEEE    RRRRRR   RRRRRR   O     O  RRRRRR       #       #       #      |
|     E        R   R    R   R    O     O  R   R                               |
|     E        R    R   R    R   O     O  R    R      ###     ###     ###     |
|     EEEEEEE  R     R  R     R  OOOOOOO  R     R     ###     ###     ###     |
|                                                                             |
|     ZBRENT: fatal error in bracketing                                       |
|      please rerun with smaller EDIFF, or copy CONTCAR                       |
|      to POSCAR and continue                                                 |
|                                                                             |
|       ---->  I REFUSE TO CONTINUE WITH THIS SICK JOB ... BYE!!! <----       |
|                                                                             |
 -----------------------------------------------------------------------------

