<?xml version="1.0" encoding="ISO-8859-1"?>
<modeling>
 <generator>
  <i name="program" type="string">vasp </i>
  <i name="version" type="string">6.3.2  </i>
  <i name="subversion" type="string">27Jun22 (build Aug 17 2022 15:43:34) complex                          parallel </i>
  <i name="platform" type="string">tv2STDVTST </i>
  <i name="date" type="string">2025 02 04 </i>
  <i name="time" type="string">13:56:27 </i>
 </generator>
 <incar>
  <i type="int" name="ISTART">     0</i>
  <i type="string" name="PREC">Normal</i>
  <i type="int" name="ISPIN">     2</i>
  <i type="int" name="ICHARG">     2</i>
  <i type="int" name="IBRION">     2</i>
  <i name="EDIFF">      0.00020000</i>
  <i name="EDIFFG">     -0.03000000</i>
  <i type="int" name="NSW">   800</i>
  <i type="int" name="ISIF">     2</i>
  <i type="int" name="ISYM">     1</i>
  <i name="ENCUT">    400.00000000</i>
  <i name="POTIM">      0.50000000</i>
  <i type="logical" name="LREAL"> F  </i>
  <i type="int" name="ISMEAR">     1</i>
  <i name="SIGMA">      0.20000000</i>
  <i type="logical" name="LWAVE"> F  </i>
  <i type="logical" name="LCHARG"> F  </i>
  <i type="string" name="GGA">PE</i>
  <i type="int" name="IVDW">    11</i>
 </incar>
 <primitive_cell>
  <structure name="primitive_cell" >
   <crystal>
    <varray name="basis" >
     <v>       3.63000011       0.00000000       0.00000000 </v>
     <v>       0.00000000       2.56679773       0.00000000 </v>
     <v>       0.00000000       0.00000000      23.98379135 </v>
    </varray>
    <i name="volume">    223.46840188 </i>
    <varray name="rec_basis" >
     <v>       0.27548208       0.00000000       0.00000000 </v>
     <v>       0.00000000       0.38959050       0.00000000 </v>
     <v>       0.00000000       0.00000000       0.04169483 </v>
    </varray>
   </crystal>
   <varray name="positions" >
    <v>       0.00000000       0.00000000       0.00000000 </v>
    <v>       0.50000000       0.50000000       0.05351109 </v>
    <v>       0.00000000       0.00000000       0.10468148 </v>
    <v>       0.50000000       0.50000000       0.15792996 </v>
    <v>       0.00000000       0.00000000       0.21070899 </v>
    <v>       0.50000000       0.50000000       0.26289048 </v>
    <v>       0.00000000       0.00000000       0.31711592 </v>
    <v>       0.50000000       0.50000000       0.36467590 </v>
    <v>       0.50000000       0.50000000       0.42690792 </v>
    <v>       0.50000000       0.70550963       0.44890201 </v>
   </varray>
  </structure>
  <varray name="primitive_index" >
   <v type="int" >        1 </v>
   <v type="int" >        2 </v>
   <v type="int" >        3 </v>
   <v type="int" >        4 </v>
   <v type="int" >        5 </v>
   <v type="int" >        6 </v>
   <v type="int" >        7 </v>
   <v type="int" >        8 </v>
   <v type="int" >        9 </v>
   <v type="int" >       10 </v>
  </varray>
 </primitive_cell>
 <kpoints>
  <generation param="Monkhorst-Pack">
   <v type="int" name="divisions">       3        3        1 </v>
   <v name="usershift">      0.00000000       0.00000000       0.00000000 </v>
   <v name="genvec1">      0.33333333       0.00000000       0.00000000 </v>
   <v name="genvec2">      0.00000000       0.33333333       0.00000000 </v>
   <v name="genvec3">      0.00000000       0.00000000       1.00000000 </v>
   <v name="shift">      0.00000000       0.00000000       0.00000000 </v>
  </generation>
  <varray name="kpointlist" >
   <v>       0.00000000       0.00000000       0.00000000 </v>
   <v>       0.33333333       0.00000000       0.00000000 </v>
   <v>       0.00000000       0.33333333       0.00000000 </v>
   <v>       0.33333333       0.33333333       0.00000000 </v>
  </varray>
  <varray name="weights" >
   <v>       0.11111111 </v>
   <v>       0.22222222 </v>
   <v>       0.22222222 </v>
   <v>       0.44444444 </v>
  </varray>
 </kpoints>
 <parameters>
  <separator name="general" >
   <i type="string" name="SYSTEM">unknown system</i>
   <i type="logical" name="LCOMPAT"> F  </i>
  </separator>
  <separator name="electronic" >
   <i type="string" name="PREC">normal</i>
   <i name="ENMAX">    400.00000000</i>
   <i name="ENAUG">    586.98000000</i>
   <i name="EDIFF">      0.00020000</i>
   <i type="int" name="IALGO">    38</i>
   <i type="int" name="IWAVPR">    11</i>
   <i type="int" name="NBANDS">    60</i>
   <i type="int" name="NBANDSLOW">    -1</i>
   <i type="int" name="NBANDSHIGH">    -1</i>
   <i name="NELECT">     90.00000000</i>
   <i type="int" name="TURBO">     0</i>
   <i type="int" name="IRESTART">     0</i>
   <i type="int" name="NREBOOT">     0</i>
   <i type="int" name="NMIN">     0</i>
   <i name="EREF">      0.00000000</i>
   <separator name="electronic smearing" >
    <i type="int" name="ISMEAR">     1</i>
    <i name="SIGMA">      0.20000000</i>
    <i name="KSPACING">      0.50000000</i>
    <i type="logical" name="KGAMMA"> T  </i>
    <i type="logical" name="KBLOWUP"> T  </i>
   </separator>
   <separator name="electronic projectors" >
    <i type="logical" name="LREAL"> F  </i>
    <v name="ROPT">      0.00000000      0.00000000</v>
    <i type="int" name="LMAXPAW">  -100</i>
    <i type="int" name="LMAXMIX">     2</i>
    <i type="logical" name="NLSPLINE"> F  </i>
   </separator>
   <separator name="electronic startup" >
    <i type="int" name="ISTART">     0</i>
    <i type="int" name="ICHARG">     2</i>
    <i type="int" name="INIWAV">     1</i>
   </separator>
   <separator name="electronic spin" >
    <i type="int" name="ISPIN">     2</i>
    <i type="logical" name="LNONCOLLINEAR"> F  </i>
    <v name="MAGMOM">      1.00000000      1.00000000      1.00000000      1.00000000      1.00000000      1.00000000      1.00000000      1.00000000      1.00000000      1.00000000</v>
    <i name="NUPDOWN">     -1.00000000</i>
    <i type="logical" name="LSORBIT"> F  </i>
    <v name="SAXIS">      0.00000000      0.00000000      1.00000000</v>
    <i type="logical" name="LSPIRAL"> F  </i>
    <v name="QSPIRAL">      0.00000000      0.00000000      0.00000000</v>
    <i type="logical" name="LZEROZ"> F  </i>
   </separator>
   <separator name="electronic exchange-correlation" >
    <i type="logical" name="LASPH"> F  </i>
    <i type="logical" name="LMETAGGA"> F  </i>
   </separator>
   <separator name="electronic convergence" >
    <i type="int" name="NELM">    60</i>
    <i type="int" name="NELMDL">    -5</i>
    <i type="int" name="NELMIN">     2</i>
    <i name="ENINI">    400.00000000</i>
    <separator name="electronic convergence detail" >
     <i type="logical" name="LDIAG"> T  </i>
     <i type="logical" name="LSUBROT"> F  </i>
     <i name="WEIMIN">      0.00100000</i>
     <i name="EBREAK">      0.00000083</i>
     <i name="DEPER">      0.30000000</i>
     <i type="int" name="NRMM">     4</i>
     <i name="TIME">      0.40000000</i>
    </separator>
   </separator>
   <separator name="electronic mixer" >
    <i name="AMIX">      0.40000000</i>
    <i name="BMIX">      1.00000000</i>
    <i name="AMIN">      0.10000000</i>
    <i name="AMIX_MAG">      1.60000000</i>
    <i name="BMIX_MAG">      1.00000000</i>
    <separator name="electronic mixer details" >
     <i type="int" name="IMIX">     4</i>
     <i type="logical" name="MIXFIRST"> F  </i>
     <i type="int" name="MAXMIX">   -45</i>
     <i name="WC">    100.00000000</i>
     <i type="int" name="INIMIX">     1</i>
     <i type="int" name="MIXPRE">     1</i>
     <i type="int" name="MREMOVE">     5</i>
    </separator>
   </separator>
   <separator name="electronic dipolcorrection" >
    <i type="logical" name="LDIPOL"> F  </i>
    <i type="logical" name="LMONO"> F  </i>
    <i type="int" name="IDIPOL">     0</i>
    <i name="EPSILON">      1.00000000</i>
    <v name="DIPOL">   -100.00000000   -100.00000000   -100.00000000</v>
    <i name="EFIELD">      0.00000000</i>
   </separator>
  </separator>
  <separator name="grids" >
   <i type="int" name="NGX">    18</i>
   <i type="int" name="NGY">    14</i>
   <i type="int" name="NGZ">   120</i>
   <i type="int" name="NGXF">    36</i>
   <i type="int" name="NGYF">    28</i>
   <i type="int" name="NGZF">   240</i>
   <i type="logical" name="ADDGRID"> F  </i>
  </separator>
  <separator name="ionic" >
   <i type="int" name="NSW">   800</i>
   <i type="int" name="IBRION">     2</i>
   <i type="int" name="MDALGO">     0</i>
   <i type="int" name="ISIF">     2</i>
   <i name="PSTRESS">      0.00000000</i>
   <i name="EDIFFG">     -0.03000000</i>
   <i type="int" name="NFREE">     1</i>
   <i name="POTIM">      0.50000000</i>
   <i name="SMASS">     -3.00000000</i>
   <i name="SCALEE">      1.00000000</i>
  </separator>
  <separator name="ionic md" >
   <i name="TEBEG">      0.00010000</i>
   <i name="TEEND">      0.00010000</i>
   <i type="int" name="NBLOCK">     1</i>
   <i type="int" name="KBLOCK">   800</i>
   <i type="int" name="NPACO">   256</i>
   <i name="APACO">     10.00000000</i>
  </separator>
  <separator name="symmetry" >
   <i type="int" name="ISYM">     1</i>
   <i name="SYMPREC">      0.00001000</i>
  </separator>
  <separator name="dos" >
   <i type="int" name="LORBIT">     0</i>
   <v name="RWIGS">     -1.00000000     -1.00000000</v>
   <i type="int" name="NEDOS">   301</i>
   <i name="EMIN">     10.00000000</i>
   <i name="EMAX">    -10.00000000</i>
   <i name="EFERMI">      0.00000000</i>
  </separator>
  <separator name="writing" >
   <i type="int" name="NWRITE">     2</i>
   <i type="logical" name="LWAVE"> F  </i>
   <i type="logical" name="LDOWNSAMPLE"> F  </i>
   <i type="logical" name="LCHARG"> F  </i>
   <i type="logical" name="LPARD"> F  </i>
   <i type="logical" name="LVTOT"> F  </i>
   <i type="logical" name="LVHAR"> F  </i>
   <i type="logical" name="LELF"> F  </i>
   <i type="logical" name="LOPTICS"> F  </i>
   <v name="STM">      0.00000000      0.00000000      0.00000000      0.00000000      0.00000000      0.00000000      0.00000000</v>
  </separator>
  <separator name="performance" >
   <i type="int" name="NPAR">     4</i>
   <i type="int" name="NSIM">     4</i>
   <i type="int" name="NBLK">    -1</i>
   <i type="logical" name="LPLANE"> T  </i>
   <i type="logical" name="LSCALAPACK"> T  </i>
   <i type="logical" name="LSCAAWARE"> F  </i>
   <i type="logical" name="LSCALU"> F  </i>
   <i type="logical" name="LASYNC"> F  </i>
   <i type="logical" name="LORBITALREAL"> F  </i>
  </separator>
  <separator name="miscellaneous" >
   <i type="int" name="IDIOT">     3</i>
   <i type="int" name="PHON_NSTRUCT">    -1</i>
   <i type="logical" name="LMUSIC"> F  </i>
   <v name="POMASS">     63.54600000      1.00000000</v>
   <v name="DARWINR">      0.00000000      0.00000000</v>
   <v name="DARWINV">      1.00000000      1.00000000</v>
   <i type="logical" name="LCORR"> T  </i>
  </separator>
  <i type="logical" name="GGA_COMPAT"> T  </i>
  <i type="logical" name="LBERRY"> F  </i>
  <i type="int" name="ICORELEVEL">     0</i>
  <i type="logical" name="LDAU"> F  </i>
  <i type="int" name="I_CONSTRAINED_M">     0</i>
  <separator name="electronic exchange-correlation" >
   <i type="string" name="GGA">PE</i>
   <i type="int" name="VOSKOWN">     0</i>
   <i type="logical" name="LHFCALC"> F  </i>
   <i type="string" name="PRECFOCK"></i>
   <i type="logical" name="LSYMGRAD"> F  </i>
   <i type="logical" name="LHFONE"> F  </i>
   <i type="logical" name="LRHFCALC"> F  </i>
   <i type="logical" name="LTHOMAS"> F  </i>
   <i type="logical" name="LMODELHF"> F  </i>
   <i type="logical" name="LFOCKACE"> F  </i>
   <i name="ENCUT4O">     -1.00000000</i>
   <i type="int" name="EXXOEP">     0</i>
   <i type="int" name="FOURORBIT">     0</i>
   <i name="AEXX">      0.00000000</i>
   <i name="HFALPHA">      0.00000000</i>
   <i name="MCALPHA">      0.00000000</i>
   <i name="ALDAX">      1.00000000</i>
   <i name="AGGAX">      1.00000000</i>
   <i name="ALDAC">      1.00000000</i>
   <i name="AGGAC">      1.00000000</i>
   <i type="int" name="NKREDX">     1</i>
   <i type="int" name="NKREDY">     1</i>
   <i type="int" name="NKREDZ">     1</i>
   <i type="logical" name="SHIFTRED"> F  </i>
   <i type="logical" name="ODDONLY"> F  </i>
   <i type="logical" name="EVENONLY"> F  </i>
   <i type="int" name="LMAXFOCK">     0</i>
   <i type="int" name="NMAXFOCKAE">     0</i>
   <i type="logical" name="LFOCKAEDFT"> F  </i>
   <i name="HFSCREEN">      0.00000000</i>
   <i name="HFSCREENC">      0.00000000</i>
   <i type="int" name="NBANDSGWLOW">     0</i>
  </separator>
  <separator name="vdW DFT" >
   <i type="logical" name="LUSE_VDW"> F  </i>
   <i name="Zab_VDW">     -0.84910000</i>
   <i name="PARAM1">      0.12340000</i>
   <i name="PARAM2">      1.00000000</i>
   <i name="PARAM3">      0.00000000</i>
  </separator>
  <separator name="model GW" >
   <i type="int" name="MODEL_GW">     0</i>
   <i name="MODEL_EPS0">     13.40810411</i>
   <i name="MODEL_ALPHA">      1.00000000</i>
  </separator>
  <separator name="linear response parameters" >
   <i type="logical" name="LEPSILON"> F  </i>
   <i type="logical" name="LRPA"> F  </i>
   <i type="logical" name="LNABLA"> F  </i>
   <i type="logical" name="LVEL"> F  </i>
   <i name="CSHIFT">      0.10000000</i>
   <i name="OMEGAMAX">     -1.00000000</i>
   <i name="DEG_THRESHOLD">      0.00200000</i>
   <i name="RTIME">     -0.10000000</i>
   <i name="WPLASMAI">      0.00000000</i>
   <v name="DFIELD">      0.00000000      0.00000000      0.00000000</v>
   <v name="WPLASMA">      0.00000000      0.00000000      0.00000000      0.00000000      0.00000000      0.00000000      0.00000000      0.00000000      0.00000000</v>
  </separator>
  <separator name="orbital magnetization" >
   <i type="logical" name="NUCIND"> F  </i>
   <v name="MAGPOS">      0.00000000      0.00000000      0.00000000</v>
   <i type="logical" name="LNICSALL"> T  </i>
   <i type="logical" name="ORBITALMAG"> F  </i>
   <i type="logical" name="LMAGBLOCH"> F  </i>
   <i type="logical" name="LCHIMAG"> F  </i>
   <i type="logical" name="LGAUGE"> T  </i>
   <i type="int" name="MAGATOM">     0</i>
   <v name="MAGDIPOL">      0.00000000      0.00000000      0.00000000</v>
   <v name="AVECCONST">      0.00000000      0.00000000      0.00000000</v>
  </separator>
  <separator name="response functions" >
   <i type="logical" name="LFINITE_TEMPERATURE"> F  </i>
   <i type="logical" name="LADDER"> F  </i>
   <i type="logical" name="LRPAFORCE"> F  </i>
   <i type="logical" name="LFXC"> F  </i>
   <i type="logical" name="LHARTREE"> T  </i>
   <i type="int" name="IBSE">     0</i>
   <v type="int" name="KPOINT">    -1     0     0     0</v>
   <i type="logical" name="LTCTC"> F  </i>
   <i type="logical" name="LTCTE"> F  </i>
   <i type="logical" name="LTETE"> F  </i>
   <i type="logical" name="LTRIPLET"> F  </i>
   <i type="logical" name="LFXCEPS"> F  </i>
   <i type="logical" name="LFXHEG"> F  </i>
   <i type="int" name="NATURALO">     2</i>
   <i type="logical" name="LHOLEGF"> F  </i>
   <i type="logical" name="L2ORDER"> F  </i>
   <i type="logical" name="LDMP1"> F  </i>
   <i type="logical" name="LMP2LT"> F  </i>
   <i type="logical" name="LSMP2LT"> F  </i>
   <i type="logical" name="LGWLF"> F  </i>
   <i name="ENCUTGW">     -2.00000000</i>
   <i name="ENCUTGWSOFT">     -2.00000000</i>
   <i name="ENCUTLF">     -1.00000000</i>
   <i type="logical" name="LESF_SPLINES"> F  </i>
   <i type="int" name="LMAXMP2">    -1</i>
   <i name="SCISSOR">      0.00000000</i>
   <i type="int" name="NOMEGA">     0</i>
   <i type="int" name="NOMEGAR">     0</i>
   <i type="int" name="NBANDSGW">    -1</i>
   <i type="int" name="NBANDSO">    -1</i>
   <i type="int" name="NBANDSV">    -1</i>
   <i type="int" name="NELMGW">     1</i>
   <i type="int" name="NELMHF">     1</i>
   <i type="int" name="DIM">     3</i>
   <i type="int" name="IESPILON">     4</i>
   <i type="int" name="ANTIRES">     0</i>
   <i name="OMEGAMAX">    -30.00000000</i>
   <i name="OMEGAMIN">    -30.00000000</i>
   <i name="OMEGATL">   -200.00000000</i>
   <i type="int" name="OMEGAGRID">     0</i>
   <i name="CSHIFT">     -0.10000000</i>
   <i type="logical" name="LSELFENERGY"> F  </i>
   <i type="logical" name="LSPECTRAL"> F  </i>
   <i type="logical" name="LSPECTRALGW"> F  </i>
   <i type="logical" name="LSINGLES"> F  </i>
   <i type="logical" name="LFERMIGW"> F  </i>
   <i type="logical" name="ODDONLYGW"> F  </i>
   <i type="logical" name="EVENONLYGW"> F  </i>
   <i type="int" name="NKREDLFX">     1</i>
   <i type="int" name="NKREDLFY">     1</i>
   <i type="int" name="NKREDLFZ">     1</i>
   <i type="int" name="MAXMEM">  2800</i>
   <i type="int" name="TELESCOPE">     0</i>
   <i type="int" name="NTAUPAR">    -1</i>
   <i type="int" name="NOMEGAPAR">    -1</i>
   <i name="DAMP_NEWTON">      0.80000001</i>
   <i name="LAMBDA">      1.00000000</i>
  </separator>
  <separator name="External order field" >
   <i name="OFIELD_KAPPA">      0.00000000</i>
   <v name="OFIELD_K">      0.00000000      0.00000000      0.00000000</v>
   <i name="OFIELD_Q6_NEAR">      0.00000000</i>
   <i name="OFIELD_Q6_FAR">      0.00000000</i>
   <i name="OFIELD_A">      0.00000000</i>
  </separator>
  <separator name="optional k-points parameters" >
   <i type="int" name="KPOINTS_OPT_MODE">     1</i>
   <i type="logical" name="LKPOINTS_OPT"> F  </i>
  </separator>
 </parameters>
 <atominfo>
  <atoms>      10 </atoms>
  <types>       2 </types>
  <array name="atoms" >
   <dimension dim="1">ion</dimension>
   <field type="string">element</field>
   <field type="int">atomtype</field>
   <set>
    <rc><c>Cu</c><c>   1</c></rc>
    <rc><c>Cu</c><c>   1</c></rc>
    <rc><c>Cu</c><c>   1</c></rc>
    <rc><c>Cu</c><c>   1</c></rc>
    <rc><c>Cu</c><c>   1</c></rc>
    <rc><c>Cu</c><c>   1</c></rc>
    <rc><c>Cu</c><c>   1</c></rc>
    <rc><c>Cu</c><c>   1</c></rc>
    <rc><c>H </c><c>   2</c></rc>
    <rc><c>H </c><c>   2</c></rc>
   </set>
  </array>
  <array name="atomtypes" >
   <dimension dim="1">type</dimension>
   <field type="int">atomspertype</field>
   <field type="string">element</field>
   <field>mass</field>
   <field>valence</field>
   <field type="string">pseudopotential</field>
   <set>
    <rc><c>   8</c><c>Cu</c><c>     63.54600000</c><c>     11.00000000</c><c>  PAW_PBE Cu 22Jun2005                  </c></rc>
    <rc><c>   2</c><c>H </c><c>      1.00000000</c><c>      1.00000000</c><c>  PAW_PBE H 15Jun2001                   </c></rc>
   </set>
  </array>
 </atominfo>
 <structure name="initialpos" >
  <crystal>
   <varray name="basis" >
    <v>       3.63000011       0.00000000       0.00000000 </v>
    <v>       0.00000000       2.56679773       0.00000000 </v>
    <v>       0.00000000       0.00000000      23.98379135 </v>
   </varray>
   <i name="volume">    223.46840188 </i>
   <varray name="rec_basis" >
    <v>       0.27548208       0.00000000       0.00000000 </v>
    <v>       0.00000000       0.38959050       0.00000000 </v>
    <v>       0.00000000       0.00000000       0.04169483 </v>
   </varray>
  </crystal>
  <varray name="positions" >
   <v>       0.00000000       0.00000000       0.00000000 </v>
   <v>       0.50000000       0.50000000       0.05351109 </v>
   <v>       0.00000000       0.00000000       0.10468148 </v>
   <v>       0.50000000       0.50000000       0.15792996 </v>
   <v>       0.00000000       0.00000000       0.21070899 </v>
   <v>       0.50000000       0.50000000       0.26289048 </v>
   <v>       0.00000000       0.00000000       0.31711592 </v>
   <v>       0.50000000       0.50000000       0.36467590 </v>
   <v>       0.50000000       0.50000000       0.42690792 </v>
   <v>       0.50000000       0.70550963       0.44890201 </v>
  </varray>
 </structure>
 <calculation>
  <scstep>
   <time name="dav">    0.32    0.32</time>
   <time name="total">    0.34    0.35</time>
   <energy>
    <i name="alphaZ">    216.17040255 </i>
    <i name="ewald">  42309.77845866 </i>
    <i name="hartreedc"> -53127.70593157 </i>
    <i name="XCdc">    371.64367186 </i>
    <i name="pawpsdc">   9828.36862813 </i>
    <i name="pawaedc"> -10674.97285505 </i>
    <i name="eentropy">      0.00677897 </i>
    <i name="bandstr">    697.52922607 </i>
    <i name="atom">  11152.61838693 </i>
    <i name="e_fr_energy">    773.43676654 </i>
    <i name="e_wo_entrp">    773.42998758 </i>
    <i name="e_0_energy">    773.43450689 </i>
   </energy>
  </scstep>
  <scstep>
   <time name="dav">    0.31    0.31</time>
   <time name="total">    0.31    0.31</time>
   <energy>
    <i name="e_fr_energy">     58.36974589 </i>
    <i name="e_wo_entrp">     58.35652590 </i>
    <i name="e_0_energy">     58.36533922 </i>
   </energy>
  </scstep>
  <scstep>
   <time name="dav">    0.31    0.31</time>
   <time name="total">    0.31    0.32</time>
   <energy>
    <i name="e_fr_energy">    -31.76029866 </i>
    <i name="e_wo_entrp">    -31.77589810 </i>
    <i name="e_0_energy">    -31.76549848 </i>
   </energy>
  </scstep>
  <scstep>
   <time name="dav">    0.35    0.36</time>
   <time name="total">    0.35    0.36</time>
   <energy>
    <i name="e_fr_energy">    -35.56811269 </i>
    <i name="e_wo_entrp">    -35.58254082 </i>
    <i name="e_0_energy">    -35.57292207 </i>
   </energy>
  </scstep>
  <scstep>
   <time name="dav">    0.35    0.35</time>
   <time name="total">    0.41    0.41</time>
   <energy>
    <i name="e_fr_energy">    -35.65910264 </i>
    <i name="e_wo_entrp">    -35.67356192 </i>
    <i name="e_0_energy">    -35.66392240 </i>
   </energy>
  </scstep>
  <scstep>
   <time name="dav">    0.33    0.34</time>
   <time name="total">    0.41    0.42</time>
   <energy>
    <i name="e_fr_energy">    -27.89934305 </i>
    <i name="e_wo_entrp">    -27.90035247 </i>
    <i name="e_0_energy">    -27.89967952 </i>
   </energy>
  </scstep>
  <scstep>
   <time name="dav">    0.35    0.35</time>
   <time name="total">    0.42    0.43</time>
   <energy>
    <i name="e_fr_energy">    -25.78788899 </i>
    <i name="e_wo_entrp">    -25.78710096 </i>
    <i name="e_0_energy">    -25.78762632 </i>
   </energy>
  </scstep>
  <scstep>
   <time name="dav">    0.37    0.37</time>
   <time name="total">    0.44    0.45</time>
   <energy>
    <i name="e_fr_energy">    -25.43306210 </i>
    <i name="e_wo_entrp">    -25.42360603 </i>
    <i name="e_0_energy">    -25.42991008 </i>
   </energy>
  </scstep>
  <scstep>
   <time name="dav">    0.41    0.41</time>
   <time name="total">    0.49    0.49</time>
   <energy>
    <i name="e_fr_energy">    -25.50927298 </i>
    <i name="e_wo_entrp">    -25.50920679 </i>
    <i name="e_0_energy">    -25.50925092 </i>
   </energy>
  </scstep>
  <scstep>
   <time name="dav">    0.44    0.45</time>
   <time name="total">    0.52    0.53</time>
   <energy>
    <i name="e_fr_energy">    -26.18084030 </i>
    <i name="e_wo_entrp">    -26.17847122 </i>
    <i name="e_0_energy">    -26.18005061 </i>
   </energy>
  </scstep>
  <scstep>
   <time name="dav">    0.38    0.39</time>
   <time name="total">    0.46    0.46</time>
   <energy>
    <i name="e_fr_energy">    -27.90837032 </i>
    <i name="e_wo_entrp">    -27.89992986 </i>
    <i name="e_0_energy">    -27.90555683 </i>
   </energy>
  </scstep>
  <scstep>
   <time name="dav">    0.37    0.37</time>
   <time name="total">    0.44    0.45</time>
   <energy>
    <i name="e_fr_energy">    -29.51759373 </i>
    <i name="e_wo_entrp">    -29.50297213 </i>
    <i name="e_0_energy">    -29.51271986 </i>
   </energy>
  </scstep>
  <scstep>
   <time name="dav">    0.36    0.37</time>
   <time name="total">    0.44    0.44</time>
   <energy>
    <i name="e_fr_energy">    -32.31617685 </i>
    <i name="e_wo_entrp">    -32.30778462 </i>
    <i name="e_0_energy">    -32.31337944 </i>
   </energy>
  </scstep>
  <scstep>
   <time name="dav">    0.34    0.35</time>
   <time name="total">    0.42    0.42</time>
   <energy>
    <i name="e_fr_energy">    -33.52275221 </i>
    <i name="e_wo_entrp">    -33.50913835 </i>
    <i name="e_0_energy">    -33.51821426 </i>
   </energy>
  </scstep>
  <scstep>
   <time name="dav">    0.33    0.34</time>
   <time name="total">    0.41    0.41</time>
   <energy>
    <i name="e_fr_energy">    -34.11573236 </i>
    <i name="e_wo_entrp">    -34.10955309 </i>
    <i name="e_0_energy">    -34.11367260 </i>
   </energy>
  </scstep>
  <scstep>
   <time name="dav">    0.34    0.35</time>
   <time name="total">    0.42    0.43</time>
   <energy>
    <i name="e_fr_energy">    -34.37954390 </i>
    <i name="e_wo_entrp">    -34.38013076 </i>
    <i name="e_0_energy">    -34.37973952 </i>
   </energy>
  </scstep>
  <scstep>
   <time name="dav">    0.37    0.37</time>
   <time name="total">    0.45    0.45</time>
   <energy>
    <i name="e_fr_energy">    -34.55658131 </i>
    <i name="e_wo_entrp">    -34.56223665 </i>
    <i name="e_0_energy">    -34.55846643 </i>
   </energy>
  </scstep>
  <scstep>
   <time name="dav">    0.35    0.35</time>
   <time name="total">    0.43    0.43</time>
   <energy>
    <i name="e_fr_energy">    -34.63575678 </i>
    <i name="e_wo_entrp">    -34.64172201 </i>
    <i name="e_0_energy">    -34.63774519 </i>
   </energy>
  </scstep>
  <scstep>
   <time name="dav">    0.34    0.34</time>
   <time name="total">    0.41    0.42</time>
   <energy>
    <i name="e_fr_energy">    -34.70267721 </i>
    <i name="e_wo_entrp">    -34.70912703 </i>
    <i name="e_0_energy">    -34.70482715 </i>
   </energy>
  </scstep>
  <scstep>
   <time name="dav">    0.35    0.36</time>
   <time name="total">    0.43    0.43</time>
   <energy>
    <i name="e_fr_energy">    -34.73051158 </i>
    <i name="e_wo_entrp">    -34.73633909 </i>
    <i name="e_0_energy">    -34.73245409 </i>
   </energy>
  </scstep>
  <scstep>
   <time name="dav">    0.33    0.33</time>
   <time name="total">    0.40    0.41</time>
   <energy>
    <i name="e_fr_energy">    -34.77962170 </i>
    <i name="e_wo_entrp">    -34.78496349 </i>
    <i name="e_0_energy">    -34.78140229 </i>
   </energy>
  </scstep>
  <scstep>
   <time name="dav">    0.34    0.34</time>
   <time name="total">    0.41    0.42</time>
   <energy>
    <i name="e_fr_energy">    -34.81891125 </i>
    <i name="e_wo_entrp">    -34.82425799 </i>
    <i name="e_0_energy">    -34.82069350 </i>
   </energy>
  </scstep>
  <scstep>
   <time name="dav">    0.30    0.30</time>
   <time name="total">    0.38    0.38</time>
   <energy>
    <i name="e_fr_energy">    -34.84988529 </i>
    <i name="e_wo_entrp">    -34.85486215 </i>
    <i name="e_0_energy">    -34.85154425 </i>
   </energy>
  </scstep>
  <scstep>
   <time name="dav">    0.29    0.30</time>
   <time name="total">    0.37    0.37</time>
   <energy>
    <i name="e_fr_energy">    -34.88675359 </i>
    <i name="e_wo_entrp">    -34.89122921 </i>
    <i name="e_0_energy">    -34.88824546 </i>
   </energy>
  </scstep>
  <scstep>
   <time name="dav">    0.31    0.31</time>
   <time name="total">    0.38    0.39</time>
   <energy>
    <i name="e_fr_energy">    -34.91039524 </i>
    <i name="e_wo_entrp">    -34.91490049 </i>
    <i name="e_0_energy">    -34.91189699 </i>
   </energy>
  </scstep>
  <scstep>
   <time name="dav">    0.27    0.27</time>
   <time name="total">    0.35    0.35</time>
   <energy>
    <i name="e_fr_energy">    -34.91845310 </i>
    <i name="e_wo_entrp">    -34.92272194 </i>
    <i name="e_0_energy">    -34.91987605 </i>
   </energy>
  </scstep>
  <scstep>
   <time name="dav">    0.26    0.26</time>
   <time name="total">    0.33    0.34</time>
   <energy>
    <i name="e_fr_energy">    -34.91946807 </i>
    <i name="e_wo_entrp">    -34.92365334 </i>
    <i name="e_0_energy">    -34.92086316 </i>
   </energy>
  </scstep>
  <scstep>
   <time name="dav">    0.25    0.25</time>
   <time name="total">    0.27    0.27</time>
   <energy>
    <i name="alphaZ">    216.17040255 </i>
    <i name="ewald">  42309.77845866 </i>
    <i name="hartreedc"> -53059.85051123 </i>
    <i name="XCdc">    362.40431831 </i>
    <i name="pawpsdc">  10543.37235812 </i>
    <i name="pawaedc"> -11405.50665051 </i>
    <i name="eentropy">      0.00418776 </i>
    <i name="bandstr">   -153.91057963 </i>
    <i name="atom">  11152.61838693 </i>
    <i name="e_fr_energy">    -34.91962904 </i>
    <i name="e_wo_entrp">    -34.92381680 </i>
    <i name="e_0_energy">    -34.92102496 </i>
   </energy>
  </scstep>
  <structure>
   <crystal>
    <varray name="basis" >
     <v>       3.63000011       0.00000000       0.00000000 </v>
     <v>       0.00000000       2.56679773       0.00000000 </v>
     <v>       0.00000000       0.00000000      23.98379135 </v>
    </varray>
    <i name="volume">    223.46840188 </i>
    <varray name="rec_basis" >
     <v>       0.27548208       0.00000000       0.00000000 </v>
     <v>       0.00000000       0.38959050       0.00000000 </v>
     <v>       0.00000000       0.00000000       0.04169483 </v>
    </varray>
   </crystal>
   <varray name="positions" >
    <v>       0.00000000       0.00000000       0.00000000 </v>
    <v>       0.50000000       0.50000000       0.05351109 </v>
    <v>       0.00000000       0.00000000       0.10468148 </v>
    <v>       0.50000000       0.50000000       0.15792996 </v>
    <v>       0.00000000       0.00000000       0.21070899 </v>
    <v>       0.50000000       0.50000000       0.26289048 </v>
    <v>       0.00000000       0.00000000       0.31711592 </v>
    <v>       0.50000000       0.50000000       0.36467590 </v>
    <v>       0.50000000       0.50000000       0.42690792 </v>
    <v>       0.50000000       0.70550963       0.44890201 </v>
   </varray>
  </structure>
  <varray name="forces" >
   <v>       0.00000000       0.00017636       0.53396576 </v>
   <v>       0.00000000       0.00014800      -0.50626361 </v>
   <v>       0.00000000      -0.00100102       0.01915225 </v>
   <v>       0.00000000       0.00212814       0.10711134 </v>
   <v>       0.00000000       0.00059791      -0.23581554 </v>
   <v>       0.00000000      -0.01252535       0.09914573 </v>
   <v>       0.00000000       0.03199290      -0.11669348 </v>
   <v>       0.00000000       0.28310867      -1.90614899 </v>
   <v>       0.00000000      -1.13038606       1.15864561 </v>
   <v>       0.00000000       0.82576045       0.84690094 </v>
  </varray>
  <varray name="stress" >
   <v>     -39.60696879       0.00000000       0.00000000 </v>
   <v>       0.00000000     -28.21291125      -0.34278867 </v>
   <v>       0.00000000      -0.34278864      14.06748075 </v>
  </varray>
  <energy>
   <i name="e_fr_energy">    -38.13523427 </i>
   <i name="e_wo_entrp">    -38.13942203 </i>
   <i name="e_0_energy">    -38.13663019 </i>
  </energy>
  <time name="totalsc">   11.72   11.85</time>
 </calculation>
 <calculation>
  <scstep>
   <time name="dav">    0.32    0.32</time>
   <time name="total">    0.40    0.40</time>
   <energy>
    <i name="alphaZ">    216.17040255 </i>
    <i name="ewald">  42722.30242696 </i>
    <i name="hartreedc"> -53474.03007412 </i>
    <i name="XCdc">    362.42011376 </i>
    <i name="pawpsdc">  10543.32479902 </i>
    <i name="pawaedc"> -11405.45156543 </i>
    <i name="eentropy">      0.00365903 </i>
    <i name="bandstr">   -152.36040504 </i>
    <i name="atom">  11152.61838693 </i>
    <i name="e_fr_energy">    -35.00225633 </i>
    <i name="e_wo_entrp">    -35.00591536 </i>
    <i name="e_0_energy">    -35.00347601 </i>
   </energy>
  </scstep>
  <scstep>
   <time name="dav">    0.41    0.41</time>
   <time name="total">    0.48    0.49</time>
   <energy>
    <i name="e_fr_energy">    -35.14460432 </i>
    <i name="e_wo_entrp">    -35.14594978 </i>
    <i name="e_0_energy">    -35.14505281 </i>
   </energy>
  </scstep>
  <scstep>
   <time name="dav">    0.35    0.35</time>
   <time name="total">    0.42    0.43</time>
   <energy>
    <i name="e_fr_energy">    -35.13211015 </i>
    <i name="e_wo_entrp">    -35.13579482 </i>
    <i name="e_0_energy">    -35.13333838 </i>
   </energy>
  </scstep>
  <scstep>
   <time name="dav">    0.36    0.36</time>
   <time name="total">    0.44    0.44</time>
   <energy>
    <i name="e_fr_energy">    -35.13080551 </i>
    <i name="e_wo_entrp">    -35.13406834 </i>
    <i name="e_0_energy">    -35.13189312 </i>
   </energy>
  </scstep>
  <scstep>
   <time name="dav">    0.35    0.35</time>
   <time name="total">    0.42    0.43</time>
   <energy>
    <i name="e_fr_energy">    -35.13026515 </i>
    <i name="e_wo_entrp">    -35.13470085 </i>
    <i name="e_0_energy">    -35.13174372 </i>
   </energy>
  </scstep>
  <scstep>
   <time name="dav">    0.37    0.38</time>
   <time name="total">    0.45    0.45</time>
   <energy>
    <i name="e_fr_energy">    -35.12967200 </i>
    <i name="e_wo_entrp">    -35.13396347 </i>
    <i name="e_0_energy">    -35.13110249 </i>
   </energy>
  </scstep>
  <scstep>
   <time name="dav">    0.38    0.39</time>
   <time name="total">    0.46    0.46</time>
   <energy>
    <i name="e_fr_energy">    -35.12966187 </i>
    <i name="e_wo_entrp">    -35.13382933 </i>
    <i name="e_0_energy">    -35.13105103 </i>
   </energy>
  </scstep>
  <scstep>
   <time name="dav">    0.25    0.31</time>
   <time name="total">    0.27    0.33</time>
   <energy>
    <i name="alphaZ">    216.17040255 </i>
    <i name="ewald">  42722.30242696 </i>
    <i name="hartreedc"> -53469.40294638 </i>
    <i name="XCdc">    362.31363224 </i>
    <i name="pawpsdc">  10549.76898823 </i>
    <i name="pawaedc"> -11412.17289867 </i>
    <i name="eentropy">      0.00415022 </i>
    <i name="bandstr">   -156.73178120 </i>
    <i name="atom">  11152.61838693 </i>
    <i name="e_fr_energy">    -35.12963912 </i>
    <i name="e_wo_entrp">    -35.13378934 </i>
    <i name="e_0_energy">    -35.13102253 </i>
   </energy>
  </scstep>
  <structure>
   <crystal>
    <varray name="basis" >
     <v>       3.63000011       0.00000000       0.00000000 </v>
     <v>       0.00000000       2.56679773       0.00000000 </v>
     <v>       0.00000000       0.00000000      23.98379135 </v>
    </varray>
    <i name="volume">    223.46840188 </i>
    <varray name="rec_basis" >
     <v>       0.27548208       0.00000000       0.00000000 </v>
     <v>       0.00000000       0.38959050       0.00000000 </v>
     <v>       0.00000000       0.00000000       0.04169483 </v>
    </varray>
   </crystal>
   <varray name="positions" >
    <v>       0.00000000       0.00000331       0.00107406 </v>
    <v>       0.50000000       0.50000278       0.05249276 </v>
    <v>       0.00000000      -0.00001881       0.10472000 </v>
    <v>       0.50000000       0.50004000       0.15814541 </v>
    <v>       0.00000000       0.00001124       0.21023465 </v>
    <v>       0.50000000       0.49976459       0.26308991 </v>
    <v>       0.00000000       0.00060130       0.31688119 </v>
    <v>       0.50000000       0.50532099       0.36084174 </v>
    <v>       0.50000000       0.47875453       0.42923850 </v>
    <v>       0.50000000       0.72102970       0.45060553 </v>
   </varray>
  </structure>
  <varray name="forces" >
   <v>       0.00000000       0.00104365       0.36040116 </v>
   <v>       0.00000000       0.00086551      -0.29375674 </v>
   <v>       0.00000000       0.00054630       0.01747819 </v>
   <v>       0.00000000       0.00234865       0.00400731 </v>
   <v>       0.00000000       0.00017372      -0.16099529 </v>
   <v>       0.00000000      -0.01047736      -0.35733584 </v>
   <v>       0.00000000       0.05989819      -0.23563482 </v>
   <v>       0.00000000       0.21413142      -0.12809415 </v>
   <v>       0.00000000       0.18568874       1.13518205 </v>
   <v>       0.00000000      -0.45421883      -0.34125186 </v>
  </varray>
  <varray name="stress" >
   <v>     -32.87316654       0.00000000       0.00000000 </v>
   <v>       0.00000000     -30.17875001      -5.20600893 </v>
   <v>       0.00000000      -5.20600902       7.89618786 </v>
  </varray>
  <energy>
   <i name="e_fr_energy">    -38.35516193 </i>
   <i name="e_wo_entrp">    -38.35931216 </i>
   <i name="e_0_energy">    -38.35654534 </i>
  </energy>
  <time name="totalsc">    3.83    3.95</time>
 </calculation>
 <calculation>
  <scstep>
   <time name="dav">    0.31    0.31</time>
   <time name="total">    0.39    0.39</time>
   <energy>
    <i name="alphaZ">    216.17040255 </i>
    <i name="ewald">  42800.75749700 </i>
    <i name="hartreedc"> -53548.04991698 </i>
    <i name="XCdc">    362.32116750 </i>
    <i name="pawpsdc">  10549.91688296 </i>
    <i name="pawaedc"> -11412.32827220 </i>
    <i name="eentropy">      0.00378166 </i>
    <i name="bandstr">   -156.53828187 </i>
    <i name="atom">  11152.61838693 </i>
    <i name="e_fr_energy">    -35.12835245 </i>
    <i name="e_wo_entrp">    -35.13213411 </i>
    <i name="e_0_energy">    -35.12961300 </i>
   </energy>
  </scstep>
  <scstep>
   <time name="dav">    0.39    0.40</time>
   <time name="total">    0.47    0.47</time>
   <energy>
    <i name="e_fr_energy">    -35.13204495 </i>
    <i name="e_wo_entrp">    -35.13558697 </i>
    <i name="e_0_energy">    -35.13322563 </i>
   </energy>
  </scstep>
  <scstep>
   <time name="dav">    0.32    0.33</time>
   <time name="total">    0.40    0.40</time>
   <energy>
    <i name="e_fr_energy">    -35.13193131 </i>
    <i name="e_wo_entrp">    -35.13576635 </i>
    <i name="e_0_energy">    -35.13320966 </i>
   </energy>
  </scstep>
  <scstep>
   <time name="dav">    0.25    0.26</time>
   <time name="total">    0.28    0.28</time>
   <energy>
    <i name="alphaZ">    216.17040255 </i>
    <i name="ewald">  42800.75749700 </i>
    <i name="hartreedc"> -53547.47606672 </i>
    <i name="XCdc">    362.30617361 </i>
    <i name="pawpsdc">  10551.78091035 </i>
    <i name="pawaedc"> -11414.21983160 </i>
    <i name="eentropy">      0.00372322 </i>
    <i name="bandstr">   -157.07306422 </i>
    <i name="atom">  11152.61838693 </i>
    <i name="e_fr_energy">    -35.13186889 </i>
    <i name="e_wo_entrp">    -35.13559211 </i>
    <i name="e_0_energy">    -35.13310996 </i>
   </energy>
  </scstep>
  <structure>
   <crystal>
    <varray name="basis" >
     <v>       3.63000011       0.00000000       0.00000000 </v>
     <v>       0.00000000       2.56679773       0.00000000 </v>
     <v>       0.00000000       0.00000000      23.98379135 </v>
    </varray>
    <i name="volume">    223.46840188 </i>
    <varray name="rec_basis" >
     <v>       0.27548208       0.00000000       0.00000000 </v>
     <v>       0.00000000       0.38959050       0.00000000 </v>
     <v>       0.00000000       0.00000000       0.04169483 </v>
    </varray>
   </crystal>
   <varray name="positions" >
    <v>       0.00000000       0.00000394       0.00127691 </v>
    <v>       0.50000000       0.50000331       0.05230042 </v>
    <v>       0.00000000      -0.00002237       0.10472728 </v>
    <v>       0.50000000       0.50004755       0.15818610 </v>
    <v>       0.00000000       0.00001336       0.21014507 </v>
    <v>       0.50000000       0.49972013       0.26312757 </v>
    <v>       0.00000000       0.00071487       0.31683686 </v>
    <v>       0.50000000       0.50632598       0.36011758 </v>
    <v>       0.50000000       0.47474187       0.42967868 </v>
    <v>       0.50000000       0.72396100       0.45092727 </v>
   </varray>
  </structure>
  <varray name="forces" >
   <v>       0.00000000       0.00071028       0.31301373 </v>
   <v>       0.00000000       0.00032972      -0.25321000 </v>
   <v>       0.00000000       0.00013293       0.02512286 </v>
   <v>       0.00000000       0.00183483      -0.01341897 </v>
   <v>       0.00000000      -0.00071248      -0.15079245 </v>
   <v>       0.00000000      -0.01205420      -0.47743287 </v>
   <v>       0.00000000       0.06630839      -0.25869462 </v>
   <v>       0.00000000       0.19259407       0.15675037 </v>
   <v>       0.00000000       0.38789030       1.12505318 </v>
   <v>       0.00000000      -0.63703385      -0.46639123 </v>
  </varray>
  <varray name="stress" >
   <v>     -33.00752007       0.00000000       0.00000000 </v>
   <v>       0.00000000     -32.15596314      -5.75069988 </v>
   <v>       0.00000000      -5.75069984       6.29326645 </v>
  </varray>
  <energy>
   <i name="e_fr_energy">    -38.36080782 </i>
   <i name="e_wo_entrp">    -38.36453104 </i>
   <i name="e_0_energy">    -38.36204890 </i>
  </energy>
  <time name="totalsc">    2.02    2.10</time>
 </calculation>
 <calculation>
  <scstep>
   <time name="dav">    0.31    0.31</time>
   <time name="total">    0.39    0.39</time>
   <energy>
    <i name="alphaZ">    216.17040255 </i>
    <i name="ewald">  43007.32196157 </i>
    <i name="hartreedc"> -53752.79540263 </i>
    <i name="XCdc">    362.36963534 </i>
    <i name="pawpsdc">  10552.26099510 </i>
    <i name="pawaedc"> -11414.70812029 </i>
    <i name="eentropy">      0.00635429 </i>
    <i name="bandstr">   -158.41367651 </i>
    <i name="atom">  11152.61838693 </i>
    <i name="e_fr_energy">    -35.16946366 </i>
    <i name="e_wo_entrp">    -35.17581795 </i>
    <i name="e_0_energy">    -35.17158175 </i>
   </energy>
  </scstep>
  <scstep>
   <time name="dav">    0.38    0.38</time>
   <time name="total">    0.46    0.46</time>
   <energy>
    <i name="e_fr_energy">    -35.20735047 </i>
    <i name="e_wo_entrp">    -35.21295932 </i>
    <i name="e_0_energy">    -35.20922008 </i>
   </energy>
  </scstep>
  <scstep>
   <time name="dav">    0.34    0.34</time>
   <time name="total">    0.42    0.42</time>
   <energy>
    <i name="e_fr_energy">    -35.20515788 </i>
    <i name="e_wo_entrp">    -35.21149060 </i>
    <i name="e_0_energy">    -35.20726879 </i>
   </energy>
  </scstep>
  <scstep>
   <time name="dav">    0.34    0.35</time>
   <time name="total">    0.42    0.42</time>
   <energy>
    <i name="e_fr_energy">    -35.20391359 </i>
    <i name="e_wo_entrp">    -35.20972099 </i>
    <i name="e_0_energy">    -35.20584939 </i>
   </energy>
  </scstep>
  <scstep>
   <time name="dav">    0.41    0.41</time>
   <time name="total">    0.49    0.49</time>
   <energy>
    <i name="e_fr_energy">    -35.20332374 </i>
    <i name="e_wo_entrp">    -35.20967936 </i>
    <i name="e_0_energy">    -35.20544228 </i>
   </energy>
  </scstep>
  <scstep>
   <time name="dav">    0.31    0.31</time>
   <time name="total">    0.33    0.33</time>
   <energy>
    <i name="alphaZ">    216.17040255 </i>
    <i name="ewald">  43007.32196157 </i>
    <i name="hartreedc"> -53754.99692924 </i>
    <i name="XCdc">    362.44893345 </i>
    <i name="pawpsdc">  10560.25874119 </i>
    <i name="pawaedc"> -11422.83796252 </i>
    <i name="eentropy">      0.00615700 </i>
    <i name="bandstr">   -156.19301215 </i>
    <i name="atom">  11152.61838693 </i>
    <i name="e_fr_energy">    -35.20332122 </i>
    <i name="e_wo_entrp">    -35.20947822 </i>
    <i name="e_0_energy">    -35.20537355 </i>
   </energy>
  </scstep>
  <structure>
   <crystal>
    <varray name="basis" >
     <v>       3.63000011       0.00000000       0.00000000 </v>
     <v>       0.00000000       2.56679773       0.00000000 </v>
     <v>       0.00000000       0.00000000      23.98379135 </v>
    </varray>
    <i name="volume">    223.46840188 </i>
    <varray name="rec_basis" >
     <v>       0.27548208       0.00000000       0.00000000 </v>
     <v>       0.00000000       0.38959050       0.00000000 </v>
     <v>       0.00000000       0.00000000       0.04169483 </v>
    </varray>
   </crystal>
   <varray name="positions" >
    <v>       0.00000000       0.00001885       0.00227289 </v>
    <v>       0.50000000       0.50001063       0.05144705 </v>
    <v>       0.00000000      -0.00002578       0.10479201 </v>
    <v>       0.50000000       0.50009610       0.15822681 </v>
    <v>       0.00000000       0.00000305       0.20967900 </v>
    <v>       0.50000000       0.49940992       0.26219457 </v>
    <v>       0.00000000       0.00220000       0.31622198 </v>
    <v>       0.50000000       0.51177967       0.35922185 </v>
    <v>       0.50000000       0.47553118       0.43277053 </v>
    <v>       0.50000000       0.71648602       0.45049705 </v>
   </varray>
  </structure>
  <varray name="forces" >
   <v>       0.00000000       0.00134135       0.17408436 </v>
   <v>       0.00000000       0.00146662      -0.10473486 </v>
   <v>       0.00000000       0.00153971       0.01609175 </v>
   <v>       0.00000000       0.00154522      -0.11812665 </v>
   <v>       0.00000000      -0.00098962      -0.13270921 </v>
   <v>       0.00000000      -0.00440099      -0.34434421 </v>
   <v>       0.00000000       0.08450239      -0.22370363 </v>
   <v>       0.00000000       0.11047405       0.33851157 </v>
   <v>       0.00000000      -0.73520401      -0.00971985 </v>
   <v>       0.00000000       0.53972529       0.40465072 </v>
  </varray>
  <varray name="stress" >
   <v>     -31.60068168       0.00000000       0.00000000 </v>
   <v>       0.00000000     -26.62585603      -1.40298588 </v>
   <v>       0.00000000      -1.40298586       8.69170925 </v>
  </varray>
  <energy>
   <i name="e_fr_energy">    -38.42970403 </i>
   <i name="e_wo_entrp">    -38.43586103 </i>
   <i name="e_0_energy">    -38.43175636 </i>
  </energy>
  <time name="totalsc">    2.98    3.06</time>
 </calculation>
 <calculation>
  <scstep>
   <time name="dav">    0.39    0.39</time>
   <time name="total">    0.46    0.47</time>
   <energy>
    <i name="alphaZ">    216.17040255 </i>
    <i name="ewald">  43003.05203845 </i>
    <i name="hartreedc"> -53750.89316086 </i>
    <i name="XCdc">    362.44662075 </i>
    <i name="pawpsdc">  10560.33747525 </i>
    <i name="pawaedc"> -11422.91166399 </i>
    <i name="eentropy">      0.00604213 </i>
    <i name="bandstr">   -156.02948596 </i>
    <i name="atom">  11152.61838693 </i>
    <i name="e_fr_energy">    -35.20334476 </i>
    <i name="e_wo_entrp">    -35.20938689 </i>
    <i name="e_0_energy">    -35.20535880 </i>
   </energy>
  </scstep>
  <scstep>
   <time name="dav">    0.26    0.26</time>
   <time name="total">    0.28    0.28</time>
   <energy>
    <i name="alphaZ">    216.17040255 </i>
    <i name="ewald">  43003.05203845 </i>
    <i name="hartreedc"> -53750.95668316 </i>
    <i name="XCdc">    362.44292625 </i>
    <i name="pawpsdc">  10560.26647783 </i>
    <i name="pawaedc"> -11422.82019522 </i>
    <i name="eentropy">      0.00596470 </i>
    <i name="bandstr">   -155.98267542 </i>
    <i name="atom">  11152.61838693 </i>
    <i name="e_fr_energy">    -35.20335709 </i>
    <i name="e_wo_entrp">    -35.20932179 </i>
    <i name="e_0_energy">    -35.20534533 </i>
   </energy>
  </scstep>
  <structure>
   <crystal>
    <varray name="basis" >
     <v>       3.63000011       0.00000000       0.00000000 </v>
     <v>       0.00000000       2.56679773       0.00000000 </v>
     <v>       0.00000000       0.00000000      23.98379135 </v>
    </varray>
    <i name="volume">    223.46840188 </i>
    <varray name="rec_basis" >
     <v>       0.27548208       0.00000000       0.00000000 </v>
     <v>       0.00000000       0.38959050       0.00000000 </v>
     <v>       0.00000000       0.00000000       0.04169483 </v>
    </varray>
   </crystal>
   <varray name="positions" >
    <v>       0.00000000       0.00001854       0.00225237 </v>
    <v>       0.50000000       0.50001047       0.05146464 </v>
    <v>       0.00000000      -0.00002571       0.10479067 </v>
    <v>       0.50000000       0.50009510       0.15822597 </v>
    <v>       0.00000000       0.00000326       0.20968860 </v>
    <v>       0.50000000       0.49941631       0.26221379 </v>
    <v>       0.00000000       0.00216939       0.31623465 </v>
    <v>       0.50000000       0.51166729       0.35924031 </v>
    <v>       0.50000000       0.47551491       0.43270682 </v>
    <v>       0.50000000       0.71664005       0.45050592 </v>
   </varray>
  </structure>
  <varray name="forces" >
   <v>       0.00000000      -0.00004468       0.20748439 </v>
   <v>       0.00000000       0.00004584      -0.12547610 </v>
   <v>       0.00000000      -0.00012434       0.02102828 </v>
   <v>       0.00000000       0.00038737      -0.11082804 </v>
   <v>       0.00000000      -0.00260811      -0.14427266 </v>
   <v>       0.00000000      -0.00774032      -0.36393038 </v>
   <v>       0.00000000       0.08598469      -0.23334478 </v>
   <v>       0.00000000       0.12357720       0.33252324 </v>
   <v>       0.00000000      -0.70122203       0.02696177 </v>
   <v>       0.00000000       0.50174438       0.38985428 </v>
  </varray>
  <varray name="stress" >
   <v>     -29.77861586       0.00000000       0.00000000 </v>
   <v>       0.00000000     -24.97485527      -1.51328378 </v>
   <v>       0.00000000      -1.51328381      10.24944337 </v>
  </varray>
  <energy>
   <i name="e_fr_energy">    -38.42970853 </i>
   <i name="e_wo_entrp">    -38.43567323 </i>
   <i name="e_0_energy">    -38.43169676 </i>
  </energy>
  <time name="totalsc">    1.24    1.30</time>
 </calculation>
 <calculation>
  <scstep>
   <time name="dav">    0.31    0.31</time>
   <time name="total">    0.39    0.40</time>
   <energy>
    <i name="alphaZ">    216.17040255 </i>
    <i name="ewald">  43149.84804998 </i>
    <i name="hartreedc"> -53898.42177855 </i>
    <i name="XCdc">    362.43390235 </i>
    <i name="pawpsdc">  10560.24990925 </i>
    <i name="pawaedc"> -11422.80504630 </i>
    <i name="eentropy">      0.00644956 </i>
    <i name="bandstr">   -155.31616541 </i>
    <i name="atom">  11152.61838693 </i>
    <i name="e_fr_energy">    -35.21588965 </i>
    <i name="e_wo_entrp">    -35.22233920 </i>
    <i name="e_0_energy">    -35.21803950 </i>
   </energy>
  </scstep>
  <scstep>
   <time name="dav">    0.38    0.39</time>
   <time name="total">    0.46    0.46</time>
   <energy>
    <i name="e_fr_energy">    -35.24963189 </i>
    <i name="e_wo_entrp">    -35.25568366 </i>
    <i name="e_0_energy">    -35.25164915 </i>
   </energy>
  </scstep>
  <scstep>
   <time name="dav">    0.33    0.33</time>
   <time name="total">    0.40    0.41</time>
   <energy>
    <i name="e_fr_energy">    -35.24795945 </i>
    <i name="e_wo_entrp">    -35.25420422 </i>
    <i name="e_0_energy">    -35.25004104 </i>
   </energy>
  </scstep>
  <scstep>
   <time name="dav">    0.35    0.36</time>
   <time name="total">    0.43    0.43</time>
   <energy>
    <i name="e_fr_energy">    -35.24741177 </i>
    <i name="e_wo_entrp">    -35.25357279 </i>
    <i name="e_0_energy">    -35.24946544 </i>
   </energy>
  </scstep>
  <scstep>
   <time name="dav">    0.45    0.46</time>
   <time name="total">    0.53    0.53</time>
   <energy>
    <i name="e_fr_energy">    -35.24717179 </i>
    <i name="e_wo_entrp">    -35.25360296 </i>
    <i name="e_0_energy">    -35.24931551 </i>
   </energy>
  </scstep>
  <scstep>
   <time name="dav">    0.32    0.33</time>
   <time name="total">    0.40    0.40</time>
   <energy>
    <i name="e_fr_energy">    -35.24704923 </i>
    <i name="e_wo_entrp">    -35.25343694 </i>
    <i name="e_0_energy">    -35.24917847 </i>
   </energy>
  </scstep>
  <scstep>
   <time name="dav">    0.23    0.23</time>
   <time name="total">    0.25    0.26</time>
   <energy>
    <i name="alphaZ">    216.17040255 </i>
    <i name="ewald">  43149.84804998 </i>
    <i name="hartreedc"> -53897.76428595 </i>
    <i name="XCdc">    362.40463206 </i>
    <i name="pawpsdc">  10559.96161869 </i>
    <i name="pawaedc"> -11422.56468290 </i>
    <i name="eentropy">      0.00633403 </i>
    <i name="bandstr">   -155.92734940 </i>
    <i name="atom">  11152.61838693 </i>
    <i name="e_fr_energy">    -35.24689402 </i>
    <i name="e_wo_entrp">    -35.25322805 </i>
    <i name="e_0_energy">    -35.24900536 </i>
   </energy>
  </scstep>
  <structure>
   <crystal>
    <varray name="basis" >
     <v>       3.63000011       0.00000000       0.00000000 </v>
     <v>       0.00000000       2.56679773       0.00000000 </v>
     <v>       0.00000000       0.00000000      23.98379135 </v>
    </varray>
    <i name="volume">    223.46840188 </i>
    <varray name="rec_basis" >
     <v>       0.27548208       0.00000000       0.00000000 </v>
     <v>       0.00000000       0.38959050       0.00000000 </v>
     <v>       0.00000000       0.00000000       0.04169483 </v>
    </varray>
   </crystal>
   <varray name="positions" >
    <v>       0.00000000       0.00002695       0.00330327 </v>
    <v>       0.50000000       0.50001592       0.05067293 </v>
    <v>       0.00000000      -0.00003024       0.10487465 </v>
    <v>       0.50000000       0.50013282       0.15802090 </v>
    <v>       0.00000000      -0.00005382       0.20909876 </v>
    <v>       0.50000000       0.49907300       0.26087684 </v>
    <v>       0.00000000       0.00476346       0.31536706 </v>
    <v>       0.50000000       0.51746031       0.35937436 </v>
    <v>       0.50000000       0.46238506       0.43468623 </v>
    <v>       0.50000000       0.72173618       0.45104874 </v>
   </varray>
  </structure>
  <varray name="forces" >
   <v>       0.00000000       0.00168254       0.02021096 </v>
   <v>       0.00000000       0.00191662       0.03095743 </v>
   <v>       0.00000000       0.00206139      -0.00559928 </v>
   <v>       0.00000000       0.00079263      -0.21036453 </v>
   <v>       0.00000000      -0.00220961      -0.10868877 </v>
   <v>       0.00000000       0.00846669      -0.04043318 </v>
   <v>       0.00000000       0.08824782      -0.16619663 </v>
   <v>       0.00000000       0.08016865       0.23153142 </v>
   <v>       0.00000000      -0.15832825       0.23472754 </v>
   <v>       0.00000000      -0.02279847       0.01385505 </v>
  </varray>
  <varray name="stress" >
   <v>     -30.53833501       0.00000000       0.00000000 </v>
   <v>       0.00000000     -28.77581753      -3.21388383 </v>
   <v>       0.00000000      -3.21388388       5.94095536 </v>
  </varray>
  <energy>
   <i name="e_fr_energy">    -38.47646518 </i>
   <i name="e_wo_entrp">    -38.48279921 </i>
   <i name="e_0_energy">    -38.47857652 </i>
  </energy>
  <time name="totalsc">    3.35    3.43</time>
 </calculation>
 <calculation>
  <scstep>
   <time name="dav">    0.31    0.31</time>
   <time name="total">    0.39    0.39</time>
   <energy>
    <i name="alphaZ">    216.17040255 </i>
    <i name="ewald">  43244.45364489 </i>
    <i name="hartreedc"> -53992.60306502 </i>
    <i name="XCdc">    362.39942597 </i>
    <i name="pawpsdc">  10559.98696968 </i>
    <i name="pawaedc"> -11422.58027276 </i>
    <i name="eentropy">      0.00646708 </i>
    <i name="bandstr">   -155.69320841 </i>
    <i name="atom">  11152.61838693 </i>
    <i name="e_fr_energy">    -35.24124910 </i>
    <i name="e_wo_entrp">    -35.24771618 </i>
    <i name="e_0_energy">    -35.24340480 </i>
   </energy>
  </scstep>
  <scstep>
   <time name="dav">    0.38    0.38</time>
   <time name="total">    0.46    0.46</time>
   <energy>
    <i name="e_fr_energy">    -35.25447891 </i>
    <i name="e_wo_entrp">    -35.26073023 </i>
    <i name="e_0_energy">    -35.25656268 </i>
   </energy>
  </scstep>
  <scstep>
   <time name="dav">    0.33    0.33</time>
   <time name="total">    0.40    0.41</time>
   <energy>
    <i name="e_fr_energy">    -35.25403578 </i>
    <i name="e_wo_entrp">    -35.26038447 </i>
    <i name="e_0_energy">    -35.25615201 </i>
   </energy>
  </scstep>
  <scstep>
   <time name="dav">    0.32    0.32</time>
   <time name="total">    0.40    0.40</time>
   <energy>
    <i name="e_fr_energy">    -35.25382072 </i>
    <i name="e_wo_entrp">    -35.26017099 </i>
    <i name="e_0_energy">    -35.25593748 </i>
   </energy>
  </scstep>
  <scstep>
   <time name="dav">    0.29    0.29</time>
   <time name="total">    0.36    0.36</time>
   <energy>
    <i name="e_fr_energy">    -35.25373777 </i>
    <i name="e_wo_entrp">    -35.26024497 </i>
    <i name="e_0_energy">    -35.25590683 </i>
   </energy>
  </scstep>
  <scstep>
   <time name="dav">    0.25    0.25</time>
   <time name="total">    0.33    0.33</time>
   <energy>
    <i name="e_fr_energy">    -35.25368303 </i>
    <i name="e_wo_entrp">    -35.26015852 </i>
    <i name="e_0_energy">    -35.25584153 </i>
   </energy>
  </scstep>
  <scstep>
   <time name="dav">    0.23    0.23</time>
   <time name="total">    0.25    0.26</time>
   <energy>
    <i name="alphaZ">    216.17040255 </i>
    <i name="ewald">  43244.45364489 </i>
    <i name="hartreedc"> -53991.97546979 </i>
    <i name="XCdc">    362.38021204 </i>
    <i name="pawpsdc">  10560.84367536 </i>
    <i name="pawaedc"> -11423.48730944 </i>
    <i name="eentropy">      0.00644940 </i>
    <i name="bandstr">   -156.26362932 </i>
    <i name="atom">  11152.61838693 </i>
    <i name="e_fr_energy">    -35.25363738 </i>
    <i name="e_wo_entrp">    -35.26008679 </i>
    <i name="e_0_energy">    -35.25578718 </i>
   </energy>
  </scstep>
  <structure>
   <crystal>
    <varray name="basis" >
     <v>       3.63000011       0.00000000       0.00000000 </v>
     <v>       0.00000000       2.56679773       0.00000000 </v>
     <v>       0.00000000       0.00000000      23.98379135 </v>
    </varray>
    <i name="volume">    223.46840188 </i>
    <varray name="rec_basis" >
     <v>       0.27548208       0.00000000       0.00000000 </v>
     <v>       0.00000000       0.38959050       0.00000000 </v>
     <v>       0.00000000       0.00000000       0.04169483 </v>
    </varray>
   </crystal>
   <varray name="positions" >
    <v>       0.00000000       0.00003235       0.00397781 </v>
    <v>       0.50000000       0.50001941       0.05016476 </v>
    <v>       0.00000000      -0.00003315       0.10492856 </v>
    <v>       0.50000000       0.50015704       0.15788927 </v>
    <v>       0.00000000      -0.00009045       0.20872015 </v>
    <v>       0.50000000       0.49885263       0.26001869 </v>
    <v>       0.00000000       0.00642850       0.31481018 </v>
    <v>       0.50000000       0.52117866       0.35946041 </v>
    <v>       0.50000000       0.45395742       0.43595675 </v>
    <v>       0.50000000       0.72500723       0.45139716 </v>
   </varray>
  </structure>
  <varray name="forces" >
   <v>       0.00000000       0.00117029      -0.09751981 </v>
   <v>       0.00000000       0.00138239       0.12542676 </v>
   <v>       0.00000000       0.00175427      -0.01281647 </v>
   <v>       0.00000000      -0.00042310      -0.27630528 </v>
   <v>       0.00000000      -0.00389840      -0.08337878 </v>
   <v>       0.00000000       0.01631715       0.14113378 </v>
   <v>       0.00000000       0.09117798      -0.14004424 </v>
   <v>       0.00000000       0.06151108       0.17538362 </v>
   <v>       0.00000000       0.19910851       0.34311814 </v>
   <v>       0.00000000      -0.36810018      -0.17499774 </v>
  </varray>
  <varray name="stress" >
   <v>     -29.03630048       0.00000000       0.00000000 </v>
   <v>       0.00000000     -29.55865168      -4.13547274 </v>
   <v>       0.00000000      -4.13547290       5.99381684 </v>
  </varray>
  <energy>
   <i name="e_fr_energy">    -38.48604048 </i>
   <i name="e_wo_entrp">    -38.49248989 </i>
   <i name="e_0_energy">    -38.48819028 </i>
  </energy>
  <time name="totalsc">    3.07    3.11</time>
 </calculation>
 <calculation>
  <scstep>
   <time name="dav">    0.30    0.31</time>
   <time name="total">    0.38    0.38</time>
   <energy>
    <i name="alphaZ">    216.17040255 </i>
    <i name="ewald">  43304.30202264 </i>
    <i name="hartreedc"> -54051.65721115 </i>
    <i name="XCdc">    362.38402369 </i>
    <i name="pawpsdc">  10560.85487082 </i>
    <i name="pawaedc"> -11423.49191590 </i>
    <i name="eentropy">      0.00654131 </i>
    <i name="bandstr">   -156.43867984 </i>
    <i name="atom">  11152.61838693 </i>
    <i name="e_fr_energy">    -35.25155896 </i>
    <i name="e_wo_entrp">    -35.25810028 </i>
    <i name="e_0_energy">    -35.25373940 </i>
   </energy>
  </scstep>
  <scstep>
   <time name="dav">    0.38    0.38</time>
   <time name="total">    0.45    0.46</time>
   <energy>
    <i name="e_fr_energy">    -35.27501703 </i>
    <i name="e_wo_entrp">    -35.28160166 </i>
    <i name="e_0_energy">    -35.27721191 </i>
   </energy>
  </scstep>
  <scstep>
   <time name="dav">    0.34    0.35</time>
   <time name="total">    0.42    0.42</time>
   <energy>
    <i name="e_fr_energy">    -35.27422508 </i>
    <i name="e_wo_entrp">    -35.28063068 </i>
    <i name="e_0_energy">    -35.27636028 </i>
   </energy>
  </scstep>
  <scstep>
   <time name="dav">    0.33    0.33</time>
   <time name="total">    0.40    0.41</time>
   <energy>
    <i name="e_fr_energy">    -35.27373553 </i>
    <i name="e_wo_entrp">    -35.28033141 </i>
    <i name="e_0_energy">    -35.27593416 </i>
   </energy>
  </scstep>
  <scstep>
   <time name="dav">    0.41    0.41</time>
   <time name="total">    0.48    0.49</time>
   <energy>
    <i name="e_fr_energy">    -35.27351809 </i>
    <i name="e_wo_entrp">    -35.28014951 </i>
    <i name="e_0_energy">    -35.27572856 </i>
   </energy>
  </scstep>
  <scstep>
   <time name="dav">    0.29    0.29</time>
   <time name="total">    0.37    0.37</time>
   <energy>
    <i name="e_fr_energy">    -35.27342931 </i>
    <i name="e_wo_entrp">    -35.27991801 </i>
    <i name="e_0_energy">    -35.27559221 </i>
   </energy>
  </scstep>
  <scstep>
   <time name="dav">    0.23    0.23</time>
   <time name="total">    0.26    0.26</time>
   <energy>
    <i name="alphaZ">    216.17040255 </i>
    <i name="ewald">  43304.30202264 </i>
    <i name="hartreedc"> -54052.42107100 </i>
    <i name="XCdc">    362.41917360 </i>
    <i name="pawpsdc">  10560.85821270 </i>
    <i name="pawaedc"> -11423.50030682 </i>
    <i name="eentropy">      0.00649173 </i>
    <i name="bandstr">   -155.72665366 </i>
    <i name="atom">  11152.61838693 </i>
    <i name="e_fr_energy">    -35.27334134 </i>
    <i name="e_wo_entrp">    -35.27983307 </i>
    <i name="e_0_energy">    -35.27550525 </i>
   </energy>
  </scstep>
  <structure>
   <crystal>
    <varray name="basis" >
     <v>       3.63000011       0.00000000       0.00000000 </v>
     <v>       0.00000000       2.56679773       0.00000000 </v>
     <v>       0.00000000       0.00000000      23.98379135 </v>
    </varray>
    <i name="volume">    223.46840188 </i>
    <varray name="rec_basis" >
     <v>       0.27548208       0.00000000       0.00000000 </v>
     <v>       0.00000000       0.38959050       0.00000000 </v>
     <v>       0.00000000       0.00000000       0.04169483 </v>
    </varray>
   </crystal>
   <varray name="positions" >
    <v>       0.00000000       0.00006407       0.00450727 </v>
    <v>       0.50000000       0.50005364       0.04988778 </v>
    <v>       0.00000000       0.00000203       0.10495909 </v>
    <v>       0.50000000       0.50017498       0.15709318 </v>
    <v>       0.00000000      -0.00021708       0.20809900 </v>
    <v>       0.50000000       0.49896257       0.25938515 </v>
    <v>       0.00000000       0.01029852       0.31385573 </v>
    <v>       0.50000000       0.52670644       0.35996853 </v>
    <v>       0.50000000       0.44884850       0.43818972 </v>
    <v>       0.50000000       0.72061597       0.45137830 </v>
   </varray>
  </structure>
  <varray name="forces" >
   <v>       0.00000000       0.00034157      -0.18142915 </v>
   <v>       0.00000000       0.00017795       0.14989481 </v>
   <v>       0.00000000       0.00120265      -0.05837639 </v>
   <v>       0.00000000      -0.00270191      -0.19092225 </v>
   <v>       0.00000000      -0.00386145      -0.03795578 </v>
   <v>       0.00000000       0.03140900       0.22083804 </v>
   <v>       0.00000000       0.07533158      -0.05974691 </v>
   <v>       0.00000000       0.04236430       0.04905985 </v>
   <v>       0.00000000      -0.25589843       0.04466067 </v>
   <v>       0.00000000       0.11163473       0.06397711 </v>
  </varray>
  <varray name="stress" >
   <v>     -29.40114036       0.00000000       0.00000000 </v>
   <v>       0.00000000     -27.30574820      -2.76487562 </v>
   <v>       0.00000000      -2.76487558       5.94391921 </v>
  </varray>
  <energy>
   <i name="e_fr_energy">    -38.50403320 </i>
   <i name="e_wo_entrp">    -38.51052493 </i>
   <i name="e_0_energy">    -38.50619711 </i>
  </energy>
  <time name="totalsc">    3.25    3.33</time>
 </calculation>
 <calculation>
  <scstep>
   <time name="dav">    0.31    0.31</time>
   <time name="total">    0.38    0.39</time>
   <energy>
    <i name="alphaZ">    216.17040255 </i>
    <i name="ewald">  43317.51229726 </i>
    <i name="hartreedc"> -54065.61118122 </i>
    <i name="XCdc">    362.41830563 </i>
    <i name="pawpsdc">  10560.83657899 </i>
    <i name="pawaedc"> -11423.46570081 </i>
    <i name="eentropy">      0.00643516 </i>
    <i name="bandstr">   -155.75883532 </i>
    <i name="atom">  11152.61838693 </i>
    <i name="e_fr_energy">    -35.27331084 </i>
    <i name="e_wo_entrp">    -35.27974600 </i>
    <i name="e_0_energy">    -35.27545589 </i>
   </energy>
  </scstep>
  <scstep>
   <time name="dav">    0.38    0.38</time>
   <time name="total">    0.45    0.46</time>
   <energy>
    <i name="e_fr_energy">    -35.27436925 </i>
    <i name="e_wo_entrp">    -35.28083388 </i>
    <i name="e_0_energy">    -35.27652413 </i>
   </energy>
  </scstep>
  <scstep>
   <time name="dav">    0.30    0.30</time>
   <time name="total">    0.32    0.33</time>
   <energy>
    <i name="alphaZ">    216.17040255 </i>
    <i name="ewald">  43317.51229726 </i>
    <i name="hartreedc"> -54065.73180933 </i>
    <i name="XCdc">    362.42145045 </i>
    <i name="pawpsdc">  10560.73430319 </i>
    <i name="pawaedc"> -11423.34831505 </i>
    <i name="eentropy">      0.00640969 </i>
    <i name="bandstr">   -155.65749003 </i>
    <i name="atom">  11152.61838693 </i>
    <i name="e_fr_energy">    -35.27436435 </i>
    <i name="e_wo_entrp">    -35.28077404 </i>
    <i name="e_0_energy">    -35.27650092 </i>
   </energy>
  </scstep>
  <structure>
   <crystal>
    <varray name="basis" >
     <v>       3.63000011       0.00000000       0.00000000 </v>
     <v>       0.00000000       2.56679773       0.00000000 </v>
     <v>       0.00000000       0.00000000      23.98379135 </v>
    </varray>
    <i name="volume">    223.46840188 </i>
    <varray name="rec_basis" >
     <v>       0.27548208       0.00000000       0.00000000 </v>
     <v>       0.00000000       0.38959050       0.00000000 </v>
     <v>       0.00000000       0.00000000       0.04169483 </v>
    </varray>
   </crystal>
   <varray name="positions" >
    <v>       0.00000000       0.00007103       0.00462359 </v>
    <v>       0.50000000       0.50006116       0.04982692 </v>
    <v>       0.00000000       0.00000976       0.10496579 </v>
    <v>       0.50000000       0.50017892       0.15691827 </v>
    <v>       0.00000000      -0.00024490       0.20796253 </v>
    <v>       0.50000000       0.49898672       0.25924596 </v>
    <v>       0.00000000       0.01114882       0.31364602 </v>
    <v>       0.50000000       0.52792096       0.36008017 </v>
    <v>       0.50000000       0.44772601       0.43868033 </v>
    <v>       0.50000000       0.71965115       0.45137416 </v>
   </varray>
  </structure>
  <varray name="forces" >
   <v>       0.00000000       0.00108181      -0.20528696 </v>
   <v>       0.00000000       0.00078909       0.14830337 </v>
   <v>       0.00000000       0.00196785      -0.06919319 </v>
   <v>       0.00000000      -0.00234066      -0.16893291 </v>
   <v>       0.00000000      -0.00316681      -0.02138838 </v>
   <v>       0.00000000       0.03540724       0.24519005 </v>
   <v>       0.00000000       0.07087150      -0.03378939 </v>
   <v>       0.00000000       0.03217656       0.00930524 </v>
   <v>       0.00000000      -0.35703954      -0.01146426 </v>
   <v>       0.00000000       0.22025296       0.10725642 </v>
  </varray>
  <varray name="stress" >
   <v>     -27.83571447       0.00000000       0.00000000 </v>
   <v>       0.00000000     -25.20748668      -2.52485616 </v>
   <v>       0.00000000      -2.52485618       7.68125239 </v>
  </varray>
  <energy>
   <i name="e_fr_energy">    -38.50484168 </i>
   <i name="e_wo_entrp">    -38.51125136 </i>
   <i name="e_0_energy">    -38.50697824 </i>
  </energy>
  <time name="totalsc">    1.65    1.71</time>
 </calculation>
 <calculation>
  <scstep>
   <time name="dav">    0.30    0.31</time>
   <time name="total">    0.38    0.38</time>
   <energy>
    <i name="alphaZ">    216.17040255 </i>
    <i name="ewald">  43298.72612413 </i>
    <i name="hartreedc"> -54047.52292558 </i>
    <i name="XCdc">    362.37662619 </i>
    <i name="pawpsdc">  10560.77234187 </i>
    <i name="pawaedc"> -11423.39110011 </i>
    <i name="eentropy">      0.00587705 </i>
    <i name="bandstr">   -155.02637853 </i>
    <i name="atom">  11152.61838693 </i>
    <i name="e_fr_energy">    -35.27064551 </i>
    <i name="e_wo_entrp">    -35.27652256 </i>
    <i name="e_0_energy">    -35.27260453 </i>
   </energy>
  </scstep>
  <scstep>
   <time name="dav">    0.38    0.38</time>
   <time name="total">    0.45    0.46</time>
   <energy>
    <i name="e_fr_energy">    -35.28878755 </i>
    <i name="e_wo_entrp">    -35.29434631 </i>
    <i name="e_0_energy">    -35.29064047 </i>
   </energy>
  </scstep>
  <scstep>
   <time name="dav">    0.34    0.34</time>
   <time name="total">    0.41    0.42</time>
   <energy>
    <i name="e_fr_energy">    -35.28814781 </i>
    <i name="e_wo_entrp">    -35.29370402 </i>
    <i name="e_0_energy">    -35.28999988 </i>
   </energy>
  </scstep>
  <scstep>
   <time name="dav">    0.32    0.33</time>
   <time name="total">    0.40    0.40</time>
   <energy>
    <i name="e_fr_energy">    -35.28778301 </i>
    <i name="e_wo_entrp">    -35.29318934 </i>
    <i name="e_0_energy">    -35.28958512 </i>
   </energy>
  </scstep>
  <scstep>
   <time name="dav">    0.44    0.44</time>
   <time name="total">    0.51    0.51</time>
   <energy>
    <i name="e_fr_energy">    -35.28771295 </i>
    <i name="e_wo_entrp">    -35.29328634 </i>
    <i name="e_0_energy">    -35.28957075 </i>
   </energy>
  </scstep>
  <scstep>
   <time name="dav">    0.30    0.30</time>
   <time name="total">    0.37    0.37</time>
   <energy>
    <i name="e_fr_energy">    -35.28736516 </i>
    <i name="e_wo_entrp">    -35.29280020 </i>
    <i name="e_0_energy">    -35.28917684 </i>
   </energy>
  </scstep>
  <scstep>
   <time name="dav">    0.24    0.24</time>
   <time name="total">    0.26    0.26</time>
   <energy>
    <i name="alphaZ">    216.17040255 </i>
    <i name="ewald">  43298.72612413 </i>
    <i name="hartreedc"> -54047.85038378 </i>
    <i name="XCdc">    362.36577730 </i>
    <i name="pawpsdc">  10555.68012290 </i>
    <i name="pawaedc"> -11418.24652220 </i>
    <i name="eentropy">      0.00544979 </i>
    <i name="bandstr">   -154.75676177 </i>
    <i name="atom">  11152.61838693 </i>
    <i name="e_fr_energy">    -35.28740415 </i>
    <i name="e_wo_entrp">    -35.29285394 </i>
    <i name="e_0_energy">    -35.28922075 </i>
   </energy>
  </scstep>
  <structure>
   <crystal>
    <varray name="basis" >
     <v>       3.63000011       0.00000000       0.00000000 </v>
     <v>       0.00000000       2.56679773       0.00000000 </v>
     <v>       0.00000000       0.00000000      23.98379135 </v>
    </varray>
    <i name="volume">    223.46840188 </i>
    <varray name="rec_basis" >
     <v>       0.27548208       0.00000000       0.00000000 </v>
     <v>       0.00000000       0.38959050       0.00000000 </v>
     <v>       0.00000000       0.00000000       0.04169483 </v>
    </varray>
   </crystal>
   <varray name="positions" >
    <v>       0.00000000       0.00012094       0.00454076 </v>
    <v>       0.50000000       0.50010635       0.04997043 </v>
    <v>       0.00000000       0.00008268       0.10482056 </v>
    <v>       0.50000000       0.50013959       0.15587327 </v>
    <v>       0.00000000      -0.00041777       0.20741757 </v>
    <v>       0.50000000       0.49988407       0.25934398 </v>
    <v>       0.00000000       0.01583943       0.31280638 </v>
    <v>       0.50000000       0.53304081       0.36050590 </v>
    <v>       0.50000000       0.43550507       0.44042303 </v>
    <v>       0.50000000       0.72120847       0.45162185 </v>
   </varray>
  </structure>
  <varray name="forces" >
   <v>       0.00000000       0.00132242      -0.20150768 </v>
   <v>       0.00000000       0.00115359       0.05934842 </v>
   <v>       0.00000000       0.00164767      -0.11067732 </v>
   <v>       0.00000000      -0.00268225       0.01819315 </v>
   <v>       0.00000000       0.00219179       0.01941356 </v>
   <v>       0.00000000       0.04821043       0.12243324 </v>
   <v>       0.00000000       0.05031357       0.07264368 </v>
   <v>       0.00000000       0.01430489      -0.00492106 </v>
   <v>       0.00000000       0.14171058       0.12067843 </v>
   <v>       0.00000000      -0.25817269      -0.09560442 </v>
  </varray>
  <varray name="stress" >
   <v>     -31.20794267       0.00000000       0.00000000 </v>
   <v>       0.00000000     -30.44479263      -3.37523004 </v>
   <v>       0.00000000      -3.37523006       3.64863174 </v>
  </varray>
  <energy>
   <i name="e_fr_energy">    -38.51585596 </i>
   <i name="e_wo_entrp">    -38.52130575 </i>
   <i name="e_0_energy">    -38.51767256 </i>
  </energy>
  <time name="totalsc">    3.26    3.35</time>
 </calculation>
 <calculation>
  <scstep>
   <time name="dav">    0.31    0.32</time>
   <time name="total">    0.38    0.39</time>
   <energy>
    <i name="alphaZ">    216.17040255 </i>
    <i name="ewald">  43299.40438456 </i>
    <i name="hartreedc"> -54048.48894684 </i>
    <i name="XCdc">    362.36645138 </i>
    <i name="pawpsdc">  10555.70354743 </i>
    <i name="pawaedc"> -11418.25905429 </i>
    <i name="eentropy">      0.00548121 </i>
    <i name="bandstr">   -154.80799087 </i>
    <i name="atom">  11152.61838693 </i>
    <i name="e_fr_energy">    -35.28733795 </i>
    <i name="e_wo_entrp">    -35.29281916 </i>
    <i name="e_0_energy">    -35.28916502 </i>
   </energy>
  </scstep>
  <scstep>
   <time name="dav">    0.24    0.24</time>
   <time name="total">    0.26    0.27</time>
   <energy>
    <i name="alphaZ">    216.17040255 </i>
    <i name="ewald">  43299.40438456 </i>
    <i name="hartreedc"> -54048.38682223 </i>
    <i name="XCdc">    362.36458149 </i>
    <i name="pawpsdc">  10555.76512514 </i>
    <i name="pawaedc"> -11418.30312180 </i>
    <i name="eentropy">      0.00550859 </i>
    <i name="bandstr">   -154.92578804 </i>
    <i name="atom">  11152.61838693 </i>
    <i name="e_fr_energy">    -35.28734281 </i>
    <i name="e_wo_entrp">    -35.29285140 </i>
    <i name="e_0_energy">    -35.28917901 </i>
   </energy>
  </scstep>
  <structure>
   <crystal>
    <varray name="basis" >
     <v>       3.63000011       0.00000000       0.00000000 </v>
     <v>       0.00000000       2.56679773       0.00000000 </v>
     <v>       0.00000000       0.00000000      23.98379135 </v>
    </varray>
    <i name="volume">    223.46840188 </i>
    <varray name="rec_basis" >
     <v>       0.27548208       0.00000000       0.00000000 </v>
     <v>       0.00000000       0.38959050       0.00000000 </v>
     <v>       0.00000000       0.00000000       0.04169483 </v>
    </varray>
   </crystal>
   <varray name="positions" >
    <v>       0.00000000       0.00011913       0.00454376 </v>
    <v>       0.50000000       0.50010472       0.04996523 </v>
    <v>       0.00000000       0.00008004       0.10482583 </v>
    <v>       0.50000000       0.50014102       0.15591114 </v>
    <v>       0.00000000      -0.00041151       0.20743732 </v>
    <v>       0.50000000       0.49985155       0.25934043 </v>
    <v>       0.00000000       0.01566945       0.31283680 </v>
    <v>       0.50000000       0.53285528       0.36049047 </v>
    <v>       0.50000000       0.43594791       0.44035988 </v>
    <v>       0.50000000       0.72115204       0.45161288 </v>
   </varray>
  </structure>
  <varray name="forces" >
   <v>       0.00000000      -0.00144763      -0.19820826 </v>
   <v>       0.00000000      -0.00171427       0.07440246 </v>
   <v>       0.00000000      -0.00089584      -0.11056376 </v>
   <v>       0.00000000      -0.00606586      -0.01287990 </v>
   <v>       0.00000000      -0.00202495       0.00596074 </v>
   <v>       0.00000000       0.04735474       0.13744776 </v>
   <v>       0.00000000       0.05980903       0.05060800 </v>
   <v>       0.00000000       0.02734533       0.01768472 </v>
   <v>       0.00000000       0.12214846       0.12269756 </v>
   <v>       0.00000000      -0.24450901      -0.08714932 </v>
  </varray>
  <varray name="stress" >
   <v>     -28.18600845       0.00000000       0.00000000 </v>
   <v>       0.00000000     -27.34050168      -3.35412214 </v>
   <v>       0.00000000      -3.35412211       6.76523550 </v>
  </varray>
  <energy>
   <i name="e_fr_energy">    -38.51584567 </i>
   <i name="e_wo_entrp">    -38.52135426 </i>
   <i name="e_0_energy">    -38.51768187 </i>
  </energy>
  <time name="totalsc">    1.13    1.22</time>
 </calculation>
 <calculation>
  <scstep>
   <time name="dav">    0.31    0.31</time>
   <time name="total">    0.38    0.38</time>
   <energy>
    <i name="alphaZ">    216.17040255 </i>
    <i name="ewald">  43206.87997117 </i>
    <i name="hartreedc"> -53955.95651133 </i>
    <i name="XCdc">    362.33527291 </i>
    <i name="pawpsdc">  10555.82513553 </i>
    <i name="pawaedc"> -11418.37078778 </i>
    <i name="eentropy">      0.00493069 </i>
    <i name="bandstr">   -154.79680769 </i>
    <i name="atom">  11152.61838693 </i>
    <i name="e_fr_energy">    -35.29000702 </i>
    <i name="e_wo_entrp">    -35.29493771 </i>
    <i name="e_0_energy">    -35.29165058 </i>
   </energy>
  </scstep>
  <scstep>
   <time name="dav">    0.37    0.38</time>
   <time name="total">    0.45    0.45</time>
   <energy>
    <i name="e_fr_energy">    -35.29977253 </i>
    <i name="e_wo_entrp">    -35.30482890 </i>
    <i name="e_0_energy">    -35.30145799 </i>
   </energy>
  </scstep>
  <scstep>
   <time name="dav">    0.34    0.35</time>
   <time name="total">    0.42    0.42</time>
   <energy>
    <i name="e_fr_energy">    -35.29946756 </i>
    <i name="e_wo_entrp">    -35.30432377 </i>
    <i name="e_0_energy">    -35.30108630 </i>
   </energy>
  </scstep>
  <scstep>
   <time name="dav">    0.32    0.32</time>
   <time name="total">    0.34    0.34</time>
   <energy>
    <i name="alphaZ">    216.17040255 </i>
    <i name="ewald">  43206.87997117 </i>
    <i name="hartreedc"> -53956.60527157 </i>
    <i name="XCdc">    362.35978939 </i>
    <i name="pawpsdc">  10553.22423642 </i>
    <i name="pawaedc"> -11415.71250008 </i>
    <i name="eentropy">      0.00489222 </i>
    <i name="bandstr">   -154.23920559 </i>
    <i name="atom">  11152.61838693 </i>
    <i name="e_fr_energy">    -35.29929857 </i>
    <i name="e_wo_entrp">    -35.30419079 </i>
    <i name="e_0_energy">    -35.30092931 </i>
   </energy>
  </scstep>
  <structure>
   <crystal>
    <varray name="basis" >
     <v>       3.63000011       0.00000000       0.00000000 </v>
     <v>       0.00000000       2.56679773       0.00000000 </v>
     <v>       0.00000000       0.00000000      23.98379135 </v>
    </varray>
    <i name="volume">    223.46840188 </i>
    <varray name="rec_basis" >
     <v>       0.27548208       0.00000000       0.00000000 </v>
     <v>       0.00000000       0.38959050       0.00000000 </v>
     <v>       0.00000000       0.00000000       0.04169483 </v>
    </varray>
   </crystal>
   <varray name="positions" >
    <v>       0.00000000       0.00011294       0.00401760 </v>
    <v>       0.50000000       0.50008995       0.05022285 </v>
    <v>       0.00000000       0.00009868       0.10447937 </v>
[...]
    <v>       0.50000000       0.53895644       0.36340617 </v>
    <v>       0.50000000       0.34940390       0.44028599 </v>
    <v>       0.50000000       0.64822219       0.44594281 </v>
   </varray>
  </structure>
  <varray name="forces" >
   <v>       0.00000000       0.00680693       0.01295331 </v>
   <v>       0.00000000       0.00935615       0.01039197 </v>
   <v>       0.00000000       0.01069359       0.00763721 </v>
   <v>       0.00000000       0.00134361       0.00515403 </v>
   <v>       0.00000000      -0.00855315       0.00311058 </v>
   <v>       0.00000000      -0.01473726       0.00618531 </v>
   <v>       0.00000000      -0.01187984       0.00013788 </v>
   <v>       0.00000000      -0.00395734      -0.00195174 </v>
   <v>       0.00000000       0.02490650      -0.02727466 </v>
   <v>       0.00000000      -0.01397921      -0.01634388 </v>
  </varray>
  <varray name="stress" >
   <v>     -34.80331895       0.00000000       0.00000000 </v>
   <v>       0.00000000     -28.94129613      -0.97383132 </v>
   <v>       0.00000000      -0.97383133      -7.18176185 </v>
  </varray>
  <energy>
   <i name="e_fr_energy">    -38.54901481 </i>
   <i name="e_wo_entrp">    -38.55810054 </i>
   <i name="e_0_energy">    -38.55204339 </i>
  </energy>
  <time name="totalsc">    0.98    1.00</time>
 </calculation>
 <calculation>
  <scstep>
   <time name="dav">    0.20    0.20</time>
   <time name="total">    0.27    0.28</time>
   <energy>
    <i name="alphaZ">    216.17040255 </i>
    <i name="ewald">  42470.12297675 </i>
    <i name="hartreedc"> -53227.27981579 </i>
    <i name="XCdc">    362.24749958 </i>
    <i name="pawpsdc">  10527.81842059 </i>
    <i name="pawaedc"> -11389.85127552 </i>
    <i name="eentropy">      0.00908557 </i>
    <i name="bandstr">   -147.20272985 </i>
    <i name="atom">  11152.61838693 </i>
    <i name="e_fr_energy">    -35.34704919 </i>
    <i name="e_wo_entrp">    -35.35613476 </i>
    <i name="e_0_energy">    -35.35007772 </i>
   </energy>
  </scstep>
  <scstep>
   <time name="dav">    0.20    0.20</time>
   <time name="total">    0.22    0.23</time>
   <energy>
    <i name="alphaZ">    216.17040255 </i>
    <i name="ewald">  42470.12297675 </i>
    <i name="hartreedc"> -53227.27945188 </i>
    <i name="XCdc">    362.24749963 </i>
    <i name="pawpsdc">  10527.81851942 </i>
    <i name="pawaedc"> -11389.85138419 </i>
    <i name="eentropy">      0.00908574 </i>
    <i name="bandstr">   -147.20308415 </i>
    <i name="atom">  11152.61838693 </i>
    <i name="e_fr_energy">    -35.34704920 </i>
    <i name="e_wo_entrp">    -35.35613494 </i>
    <i name="e_0_energy">    -35.35007778 </i>
   </energy>
  </scstep>
  <structure>
   <crystal>
    <varray name="basis" >
     <v>       3.63000011       0.00000000       0.00000000 </v>
     <v>       0.00000000       2.56679773       0.00000000 </v>
     <v>       0.00000000       0.00000000      23.98379135 </v>
    </varray>
    <i name="volume">    223.46840188 </i>
    <varray name="rec_basis" >
     <v>       0.27548208       0.00000000       0.00000000 </v>
     <v>       0.00000000       0.38959050       0.00000000 </v>
     <v>       0.00000000       0.00000000       0.04169483 </v>
    </varray>
   </crystal>
   <varray name="positions" >
    <v>       0.00000000       0.00575992       0.00246713 </v>
    <v>       0.50000000       0.50872567       0.04974031 </v>
    <v>       0.00000000       0.01679354       0.10391097 </v>
    <v>       0.50000000       0.52615335       0.15660594 </v>
    <v>       0.00000000       0.03323501       0.20813797 </v>
    <v>       0.50000000       0.53858439       0.26181002 </v>
    <v>       0.00000000       0.03967523       0.31501643 </v>
    <v>       0.50000000       0.53895643       0.36340618 </v>
    <v>       0.50000000       0.34940389       0.44028599 </v>
    <v>       0.50000000       0.64822221       0.44594281 </v>
   </varray>
  </structure>
  <varray name="forces" >
   <v>       0.00000000       0.00696205       0.01303610 </v>
   <v>       0.00000000       0.00962331       0.01043984 </v>
   <v>       0.00000000       0.01100872       0.00781552 </v>
   <v>       0.00000000       0.00139202       0.00558923 </v>
   <v>       0.00000000      -0.00875045       0.00313155 </v>
   <v>       0.00000000      -0.01506010       0.00566658 </v>
   <v>       0.00000000      -0.01213140       0.00009994 </v>
   <v>       0.00000000      -0.00402240      -0.00187872 </v>
   <v>       0.00000000       0.02492801      -0.02741931 </v>
   <v>       0.00000000      -0.01394976      -0.01648072 </v>
  </varray>
  <varray name="stress" >
   <v>     -34.80430162       0.00000000       0.00000000 </v>
   <v>       0.00000000     -28.94236975      -0.97383866 </v>
   <v>       0.00000000      -0.97383864      -7.18287937 </v>
  </varray>
  <energy>
   <i name="e_fr_energy">    -38.54901482 </i>
   <i name="e_wo_entrp">    -38.55810056 </i>
   <i name="e_0_energy">    -38.55204340 </i>
  </energy>
  <time name="totalsc">    0.98    1.00</time>
 </calculation>
 <calculation>
  <scstep>
   <time name="dav">    0.20    0.20</time>
   <time name="total">    0.28    0.28</time>
   <energy>
    <i name="alphaZ">    216.17040255 </i>
    <i name="ewald">  42470.12311956 </i>
    <i name="hartreedc"> -53227.27945956 </i>
    <i name="XCdc">    362.24749976 </i>
    <i name="pawpsdc">  10527.81854022 </i>
    <i name="pawaedc"> -11389.85140811 </i>
    <i name="eentropy">      0.00908560 </i>
    <i name="bandstr">   -147.20321614 </i>
    <i name="atom">  11152.61838693 </i>
    <i name="e_fr_energy">    -35.34704919 </i>
    <i name="e_wo_entrp">    -35.35613479 </i>
    <i name="e_0_energy">    -35.35007772 </i>
   </energy>
  </scstep>
  <scstep>
   <time name="dav">    0.20    0.20</time>
   <time name="total">    0.22    0.23</time>
   <energy>
    <i name="alphaZ">    216.17040255 </i>
    <i name="ewald">  42470.12311956 </i>
    <i name="hartreedc"> -53227.27911334 </i>
    <i name="XCdc">    362.24749830 </i>
    <i name="pawpsdc">  10527.81859201 </i>
    <i name="pawaedc"> -11389.85145657 </i>
    <i name="eentropy">      0.00908567 </i>
    <i name="bandstr">   -147.20356428 </i>
    <i name="atom">  11152.61838693 </i>
    <i name="e_fr_energy">    -35.34704919 </i>
    <i name="e_wo_entrp">    -35.35613486 </i>
    <i name="e_0_energy">    -35.35007775 </i>
   </energy>
  </scstep>
  <structure>
   <crystal>
    <varray name="basis" >
     <v>       3.63000011       0.00000000       0.00000000 </v>
     <v>       0.00000000       2.56679773       0.00000000 </v>
     <v>       0.00000000       0.00000000      23.98379135 </v>
    </varray>
    <i name="volume">    223.46840188 </i>
    <varray name="rec_basis" >
     <v>       0.27548208       0.00000000       0.00000000 </v>
     <v>       0.00000000       0.38959050       0.00000000 </v>
     <v>       0.00000000       0.00000000       0.04169483 </v>
    </varray>
   </crystal>
   <varray name="positions" >
    <v>       0.00000000       0.00575992       0.00246713 </v>
    <v>       0.50000000       0.50872568       0.04974031 </v>
    <v>       0.00000000       0.01679355       0.10391097 </v>
    <v>       0.50000000       0.52615335       0.15660594 </v>
    <v>       0.00000000       0.03323500       0.20813797 </v>
    <v>       0.50000000       0.53858438       0.26181002 </v>
    <v>       0.00000000       0.03967522       0.31501643 </v>
    <v>       0.50000000       0.53895643       0.36340618 </v>
    <v>       0.50000000       0.34940389       0.44028598 </v>
    <v>       0.50000000       0.64822222       0.44594281 </v>
   </varray>
  </structure>
  <varray name="forces" >
   <v>       0.00000000       0.00705706       0.01308335 </v>
   <v>       0.00000000       0.00979316       0.01047339 </v>
   <v>       0.00000000       0.01121055       0.00793195 </v>
   <v>       0.00000000       0.00142141       0.00585631 </v>
   <v>       0.00000000      -0.00887436       0.00314513 </v>
   <v>       0.00000000      -0.01526933       0.00533602 </v>
   <v>       0.00000000      -0.01228562       0.00007609 </v>
   <v>       0.00000000      -0.00406167      -0.00183725 </v>
   <v>       0.00000000       0.02494267      -0.02750393 </v>
   <v>       0.00000000      -0.01393385      -0.01656106 </v>
  </varray>
  <varray name="stress" >
   <v>     -34.80361525       0.00000000       0.00000000 </v>
   <v>       0.00000000     -28.94172392      -0.97384062 </v>
   <v>       0.00000000      -0.97384062      -7.18222090 </v>
  </varray>
  <energy>
   <i name="e_fr_energy">    -38.54901483 </i>
   <i name="e_wo_entrp">    -38.55810050 </i>
   <i name="e_0_energy">    -38.55204338 </i>
  </energy>
  <time name="totalsc">    0.99    1.03</time>
 </calculation>
 <calculation>
  <scstep>
   <time name="dav">    0.20    0.20</time>
   <time name="total">    0.27    0.28</time>
   <energy>
    <i name="alphaZ">    216.17040255 </i>
    <i name="ewald">  42470.12319095 </i>
    <i name="hartreedc"> -53227.27909113 </i>
    <i name="XCdc">    362.24749873 </i>
    <i name="pawpsdc">  10527.81861175 </i>
    <i name="pawaedc"> -11389.85148130 </i>
    <i name="eentropy">      0.00908560 </i>
    <i name="bandstr">   -147.20365326 </i>
    <i name="atom">  11152.61838693 </i>
    <i name="e_fr_energy">    -35.34704919 </i>
    <i name="e_wo_entrp">    -35.35613478 </i>
    <i name="e_0_energy">    -35.35007772 </i>
   </energy>
  </scstep>
  <scstep>
   <time name="dav">    0.20    0.20</time>
   <time name="total">    0.22    0.23</time>
   <energy>
    <i name="alphaZ">    216.17040255 </i>
    <i name="ewald">  42470.12319095 </i>
    <i name="hartreedc"> -53227.27878651 </i>
    <i name="XCdc">    362.24749754 </i>
    <i name="pawpsdc">  10527.81865935 </i>
    <i name="pawaedc"> -11389.85152535 </i>
    <i name="eentropy">      0.00908566 </i>
    <i name="bandstr">   -147.20396030 </i>
    <i name="atom">  11152.61838693 </i>
    <i name="e_fr_energy">    -35.34704919 </i>
    <i name="e_wo_entrp">    -35.35613485 </i>
    <i name="e_0_energy">    -35.35007774 </i>
   </energy>
  </scstep>
  <structure>
   <crystal>
    <varray name="basis" >
     <v>       3.63000011       0.00000000       0.00000000 </v>
     <v>       0.00000000       2.56679773       0.00000000 </v>
     <v>       0.00000000       0.00000000      23.98379135 </v>
    </varray>
    <i name="volume">    223.46840188 </i>
    <varray name="rec_basis" >
     <v>       0.27548208       0.00000000       0.00000000 </v>
     <v>       0.00000000       0.38959050       0.00000000 </v>
     <v>       0.00000000       0.00000000       0.04169483 </v>
    </varray>
   </crystal>
   <varray name="positions" >
    <v>       0.00000000       0.00575992       0.00246713 </v>
    <v>       0.50000000       0.50872568       0.04974031 </v>
    <v>       0.00000000       0.01679355       0.10391097 </v>
    <v>       0.50000000       0.52615335       0.15660594 </v>
    <v>       0.00000000       0.03323500       0.20813797 </v>
    <v>       0.50000000       0.53858437       0.26181002 </v>
    <v>       0.00000000       0.03967521       0.31501643 </v>
    <v>       0.50000000       0.53895643       0.36340618 </v>
    <v>       0.50000000       0.34940389       0.44028598 </v>
    <v>       0.50000000       0.64822222       0.44594281 </v>
   </varray>
  </structure>
  <varray name="forces" >
   <v>       0.00000000       0.00713464       0.01312302 </v>
   <v>       0.00000000       0.00993198       0.01049930 </v>
   <v>       0.00000000       0.01137344       0.00802390 </v>
   <v>       0.00000000       0.00144535       0.00606097 </v>
   <v>       0.00000000      -0.00897279       0.00315550 </v>
   <v>       0.00000000      -0.01543535       0.00507002 </v>
   <v>       0.00000000      -0.01241589       0.00005679 </v>
   <v>       0.00000000      -0.00409621      -0.00179626 </v>
   <v>       0.00000000       0.02495576      -0.02756958 </v>
   <v>       0.00000000      -0.01392094      -0.01662368 </v>
  </varray>
  <varray name="stress" >
   <v>     -34.80401924       0.00000000       0.00000000 </v>
   <v>       0.00000000     -28.94217426      -0.97384272 </v>
   <v>       0.00000000      -0.97384272      -7.18256216 </v>
  </varray>
  <energy>
   <i name="e_fr_energy">    -38.54901483 </i>
   <i name="e_wo_entrp">    -38.55810049 </i>
   <i name="e_0_energy">    -38.55204338 </i>
  </energy>
  <time name="totalsc">    0.98    1.03</time>
 </calculation>
 <calculation>
  <scstep>
   <time name="dav">    0.20    0.20</time>
   <time name="total">    0.28    0.28</time>
   <energy>
    <i name="alphaZ">    216.17040255 </i>
    <i name="ewald">  42470.12322633 </i>
    <i name="hartreedc"> -53227.27874275 </i>
    <i name="XCdc">    362.24749789 </i>
    <i name="pawpsdc">  10527.81867731 </i>
    <i name="pawaedc"> -11389.85154715 </i>
    <i name="eentropy">      0.00908560 </i>
    <i name="bandstr">   -147.20403590 </i>
    <i name="atom">  11152.61838693 </i>
    <i name="e_fr_energy">    -35.34704919 </i>
    <i name="e_wo_entrp">    -35.35613479 </i>
    <i name="e_0_energy">    -35.35007772 </i>
   </energy>
  </scstep>
  <scstep>
   <time name="dav">    0.20    0.20</time>
   <time name="total">    0.22    0.23</time>
   <energy>
    <i name="alphaZ">    216.17040255 </i>
    <i name="ewald">  42470.12322633 </i>
    <i name="hartreedc"> -53227.27849026 </i>
    <i name="XCdc">    362.24749731 </i>
    <i name="pawpsdc">  10527.81872028 </i>
    <i name="pawaedc"> -11389.85158991 </i>
    <i name="eentropy">      0.00908565 </i>
    <i name="bandstr">   -147.20428806 </i>
    <i name="atom">  11152.61838693 </i>
    <i name="e_fr_energy">    -35.34704919 </i>
    <i name="e_wo_entrp">    -35.35613484 </i>
    <i name="e_0_energy">    -35.35007774 </i>
   </energy>
  </scstep>
  <structure>
   <crystal>
    <varray name="basis" >
     <v>       3.63000011       0.00000000       0.00000000 </v>
     <v>       0.00000000       2.56679773       0.00000000 </v>
     <v>       0.00000000       0.00000000      23.98379135 </v>
    </varray>
    <i name="volume">    223.46840188 </i>
    <varray name="rec_basis" >
     <v>       0.27548208       0.00000000       0.00000000 </v>
     <v>       0.00000000       0.38959050       0.00000000 </v>
     <v>       0.00000000       0.00000000       0.04169483 </v>
    </varray>
   </crystal>
   <varray name="positions" >
    <v>       0.00000000       0.00575992       0.00246713 </v>
    <v>       0.50000000       0.50872568       0.04974031 </v>
    <v>       0.00000000       0.01679355       0.10391097 </v>
    <v>       0.50000000       0.52615335       0.15660594 </v>
    <v>       0.00000000       0.03323500       0.20813797 </v>
    <v>       0.50000000       0.53858437       0.26181002 </v>
    <v>       0.00000000       0.03967521       0.31501643 </v>
    <v>       0.50000000       0.53895643       0.36340618 </v>
    <v>       0.50000000       0.34940389       0.44028598 </v>
    <v>       0.50000000       0.64822222       0.44594281 </v>
   </varray>
  </structure>
  <varray name="forces" >
   <v>       0.00000000       0.00718372       0.01314734 </v>
   <v>       0.00000000       0.01001901       0.01051523 </v>
   <v>       0.00000000       0.01147488       0.00808126 </v>
   <v>       0.00000000       0.00146042       0.00618489 </v>
   <v>       0.00000000      -0.00903343       0.00316337 </v>
   <v>       0.00000000      -0.01553765       0.00490647 </v>
   <v>       0.00000000      -0.01249969       0.00004546 </v>
   <v>       0.00000000      -0.00411896      -0.00176809 </v>
   <v>       0.00000000       0.02496368      -0.02761181 </v>
   <v>       0.00000000      -0.01391196      -0.01666413 </v>
  </varray>
  <varray name="stress" >
   <v>     -34.80450516       0.00000000       0.00000000 </v>
   <v>       0.00000000     -28.94269238      -0.97384183 </v>
   <v>       0.00000000      -0.97384185      -7.18303616 </v>
  </varray>
  <energy>
   <i name="e_fr_energy">    -38.54901484 </i>
   <i name="e_wo_entrp">    -38.55810048 </i>
   <i name="e_0_energy">    -38.55204338 </i>
  </energy>
  <time name="totalsc">    0.98    1.00</time>
 </calculation>
 <calculation>
  <scstep>
   <time name="dav">    0.31    0.31</time>
   <time name="total">    0.38    0.39</time>
   <energy>
    <i name="alphaZ">    216.17040255 </i>
    <i name="ewald">  42462.28166416 </i>
    <i name="hartreedc"> -53219.42948806 </i>
    <i name="XCdc">    362.24617913 </i>
    <i name="pawpsdc">  10527.81873355 </i>
    <i name="pawaedc"> -11389.85160536 </i>
    <i name="eentropy">      0.00885869 </i>
    <i name="bandstr">   -147.21039614 </i>
    <i name="atom">  11152.61838693 </i>
    <i name="e_fr_energy">    -35.34726456 </i>
    <i name="e_wo_entrp">    -35.35612325 </i>
    <i name="e_0_energy">    -35.35021745 </i>
   </energy>
  </scstep>
  <scstep>
   <time name="dav">    0.33    0.34</time>
   <time name="total">    0.36    0.36</time>
   <energy>
    <i name="alphaZ">    216.17040255 </i>
    <i name="ewald">  42462.28166416 </i>
    <i name="hartreedc"> -53219.39486872 </i>
    <i name="XCdc">    362.24767337 </i>
    <i name="pawpsdc">  10527.78355157 </i>
    <i name="pawaedc"> -11389.81549105 </i>
    <i name="eentropy">      0.00891969 </i>
    <i name="bandstr">   -147.24763304 </i>
    <i name="atom">  11152.61838693 </i>
    <i name="e_fr_energy">    -35.34739455 </i>
    <i name="e_wo_entrp">    -35.35631424 </i>
    <i name="e_0_energy">    -35.35036778 </i>
   </energy>
  </scstep>
  <structure>
   <crystal>
    <varray name="basis" >
     <v>       3.63000011       0.00000000       0.00000000 </v>
     <v>       0.00000000       2.56679773       0.00000000 </v>
     <v>       0.00000000       0.00000000      23.98379135 </v>
    </varray>
    <i name="volume">    223.46840188 </i>
    <varray name="rec_basis" >
     <v>       0.27548208       0.00000000       0.00000000 </v>
     <v>       0.00000000       0.38959050       0.00000000 </v>
     <v>       0.00000000       0.00000000       0.04169483 </v>
    </varray>
   </crystal>
   <varray name="positions" >
    <v>       0.00000000       0.00559694       0.00244216 </v>
    <v>       0.50000000       0.50845017       0.04971977 </v>
    <v>       0.00000000       0.01644246       0.10387124 </v>
    <v>       0.50000000       0.52612171       0.15652602 </v>
    <v>       0.00000000       0.03351446       0.20811692 </v>
    <v>       0.50000000       0.53904228       0.26186543 </v>
    <v>       0.00000000       0.04007783       0.31500387 </v>
    <v>       0.50000000       0.53908716       0.36337712 </v>
    <v>       0.50000000       0.34946576       0.44042049 </v>
    <v>       0.50000000       0.64771085       0.44598071 </v>
   </varray>
  </structure>
  <varray name="forces" >
   <v>       0.00000000       0.01299828       0.01335034 </v>
   <v>       0.00000000       0.02017160       0.00820728 </v>
   <v>       0.00000000       0.02537694       0.01806115 </v>
   <v>       0.00000000       0.00407713       0.03900501 </v>
   <v>       0.00000000      -0.01733702       0.00640265 </v>
   <v>       0.00000000      -0.02886756      -0.03689523 </v>
   <v>       0.00000000      -0.02492187       0.00096539 </v>
   <v>       0.00000000      -0.00726734       0.00845043 </v>
   <v>       0.00000000      -0.01212059      -0.04346743 </v>
   <v>       0.00000000       0.02789043      -0.01407959 </v>
  </varray>
  <varray name="stress" >
   <v>     -34.36100727       0.00000000       0.00000000 </v>
   <v>       0.00000000     -28.30205084      -0.91886330 </v>
   <v>       0.00000000      -0.91886335      -6.64941287 </v>
  </varray>
  <energy>
   <i name="e_fr_energy">    -38.54877639 </i>
   <i name="e_wo_entrp">    -38.55769608 </i>
   <i name="e_0_energy">    -38.55174962 </i>
  </energy>
