unknown system                          
           1
     3.630000    0.000000    0.000000
     0.000000    2.566798    0.000000
     0.000000    0.000000   23.983791
   Cu   H 
     8     2
Direct configuration=     1
   0.00000000  0.00000000  0.00000000
   0.50000000  0.50000000  0.05351109
   0.00000000  0.00000000  0.10468148
   0.50000000  0.50000000  0.15792996
   0.00000000  0.00000000  0.21070899
   0.50000000  0.50000000  0.26289048
   0.00000000  0.00000000  0.31711592
   0.50000000  0.50000000  0.36467590
   0.50000000  0.50000000  0.42690792
   0.50000000  0.70550963  0.44890201
Direct configuration=     2
   0.00000000  0.00000331  0.00107406
   0.50000000  0.50000278  0.05249276
   0.00000000 -0.00001881  0.10472000
   0.50000000  0.50004000  0.15814541
   0.00000000  0.00001124  0.21023465
   0.50000000  0.49976459  0.26308991
   0.00000000  0.00060130  0.31688119
   0.50000000  0.50532099  0.36084174
   0.50000000  0.47875453  0.42923850
   0.50000000  0.72102970  0.45060553
Direct configuration=     3
   0.00000000  0.00000394  0.00127691
   0.50000000  0.50000331  0.05230042
   0.00000000 -0.00002237  0.10472728
   0.50000000  0.50004755  0.15818610
   0.00000000  0.00001336  0.21014507
   0.50000000  0.49972013  0.26312757
   0.00000000  0.00071487  0.31683686
   0.50000000  0.50632598  0.36011758
   0.50000000  0.47474187  0.42967868
   0.50000000  0.72396100  0.45092727
Direct configuration=     4
   0.00000000  0.00001885  0.00227289
   0.50000000  0.50001063  0.05144705
   0.00000000 -0.00002578  0.10479201
   0.50000000  0.50009610  0.15822681
   0.00000000  0.00000305  0.20967900
   0.50000000  0.49940992  0.26219457
   0.00000000  0.00220000  0.31622198
   0.50000000  0.51177967  0.35922185
   0.50000000  0.47553118  0.43277053
   0.50000000  0.71648602  0.45049705
Direct configuration=     5
   0.00000000  0.00001854  0.00225237
   0.50000000  0.50001047  0.05146464
   0.00000000 -0.00002571  0.10479067
   0.50000000  0.50009510  0.15822597
   0.00000000  0.00000326  0.20968860
   0.50000000  0.49941631  0.26221379
   0.00000000  0.00216939  0.31623465
   0.50000000  0.51166729  0.35924031
   0.50000000  0.47551491  0.43270682
   0.50000000  0.71664005  0.45050592
Direct configuration=     6
   0.00000000  0.00002695  0.00330327
   0.50000000  0.50001592  0.05067293
   0.00000000 -0.00003024  0.10487465
   0.50000000  0.50013282  0.15802090
   0.00000000 -0.00005382  0.20909876
   0.50000000  0.49907300  0.26087684
   0.00000000  0.00476346  0.31536706
   0.50000000  0.51746031  0.35937436
   0.50000000  0.46238506  0.43468623
   0.50000000  0.72173618  0.45104874
Direct configuration=     7
   0.00000000  0.00003235  0.00397781
   0.50000000  0.50001941  0.05016476
   0.00000000 -0.00003315  0.10492856
   0.50000000  0.50015704  0.15788927
   0.00000000 -0.00009045  0.20872015
   0.50000000  0.49885263  0.26001869
   0.00000000  0.00642850  0.31481018
   0.50000000  0.52117866  0.35946041
   0.50000000  0.45395742  0.43595675
   0.50000000  0.72500723  0.45139716
Direct configuration=     8
   0.00000000  0.00006407  0.00450727
   0.50000000  0.50005364  0.04988778
   0.00000000  0.00000203  0.10495909
   0.50000000  0.50017498  0.15709318
   0.00000000 -0.00021708  0.20809900
   0.50000000  0.49896257  0.25938515
   0.00000000  0.01029852  0.31385573
   0.50000000  0.52670644  0.35996853
   0.50000000  0.44884850  0.43818972
   0.50000000  0.72061597  0.45137830
Direct configuration=     9
   0.00000000  0.00007103  0.00462359
   0.50000000  0.50006116  0.04982692
   0.00000000  0.00000976  0.10496579
   0.50000000  0.50017892  0.15691827
   0.00000000 -0.00024490  0.20796253
   0.50000000  0.49898672  0.25924596
   0.00000000  0.01114882  0.31364602
   0.50000000  0.52792096  0.36008017
   0.50000000  0.44772601  0.43868033
   0.50000000  0.71965115  0.45137416
Direct configuration=    10
   0.00000000  0.00012094  0.00454076
   0.50000000  0.50010635  0.04997043
   0.00000000  0.00008268  0.10482056
   0.50000000  0.50013959  0.15587327
   0.00000000 -0.00041777  0.20741757
   0.50000000  0.49988407  0.25934398
   0.00000000  0.01583943  0.31280638
   0.50000000  0.53304081  0.36050590
   0.50000000  0.43550507  0.44042303
   0.50000000  0.72120847  0.45162185
Direct configuration=    11
   0.00000000  0.00011913  0.00454376
   0.50000000  0.50010472  0.04996523
   0.00000000  0.00008004  0.10482583
   0.50000000  0.50014102  0.15591114
   0.00000000 -0.00041151  0.20743732
   0.50000000  0.49985155  0.25934043
   0.00000000  0.01566945  0.31283680
   0.50000000  0.53285528  0.36049047
   0.50000000  0.43594791  0.44035988
   0.50000000  0.72115204  0.45161288
Direct configuration=    12
   0.00000000  0.00011294  0.00401760
   0.50000000  0.50008995  0.05022285
   0.00000000  0.00009868  0.10447937
   0.50000000  0.49998220  0.15532099
   0.00000000 -0.00054996  0.20716038
   0.50000000  0.50140711  0.25972699
   0.00000000  0.01953646  0.31251081
   0.50000000  0.53621442  0.36076114
   0.50000000  0.43218709  0.44159013
   0.50000000  0.71643074  0.45153347
Direct configuration=    13
   0.00000000  0.00011263  0.00399190
   0.50000000  0.50008923  0.05023544
   0.00000000  0.00009960  0.10446245
   0.50000000  0.49997444  0.15529216
   0.00000000 -0.00055672  0.20714685
   0.50000000  0.50148311  0.25974587
   0.00000000  0.01972540  0.31249489
   0.50000000  0.53637854  0.36077436
   0.50000000  0.43200335  0.44165023
   0.50000000  0.71620007  0.45152959
Direct configuration=    14
   0.00000000  0.00018175  0.00335874
   0.50000000  0.50014932  0.05026646
   0.00000000  0.00017097  0.10402359
   0.50000000  0.49988054  0.15527407
   0.00000000 -0.00040061  0.20706240
   0.50000000  0.50352826  0.25994338
   0.00000000  0.02251894  0.31262001
   0.50000000  0.53843333  0.36090503
   0.50000000  0.42586888  0.44233963
   0.50000000  0.71517827  0.45153044
Direct configuration=    15
   0.00000000  0.00022597  0.00295364
   0.50000000  0.50018776  0.05028631
   0.00000000  0.00021663  0.10374280
   0.50000000  0.49982046  0.15526249
   0.00000000 -0.00030074  0.20700837
   0.50000000  0.50483675  0.26006975
   0.00000000  0.02430626  0.31270006
   0.50000000  0.53974800  0.36098863
   0.50000000  0.42194402  0.44278071
   0.50000000  0.71452452  0.45153097
Direct configuration=    16
   0.00000000  0.00031122  0.00247527
   0.50000000  0.50026650  0.05015384
   0.00000000  0.00027517  0.10343818
   0.50000000  0.49979864  0.15538701
   0.00000000  0.00003610  0.20699360
   0.50000000  0.50660008  0.26012599
   0.00000000  0.02636467  0.31289791
   0.50000000  0.54107944  0.36110964
   0.50000000  0.41962843  0.44330270
   0.50000000  0.71114939  0.45143961
Direct configuration=    17
   0.00000000  0.00038587  0.00205635
   0.50000000  0.50033544  0.05003783
   0.00000000  0.00032643  0.10317141
   0.50000000  0.49977952  0.15549605
   0.00000000  0.00033108  0.20698065
   0.50000000  0.50814424  0.26017524
   0.00000000  0.02816724  0.31307117
   0.50000000  0.54224541  0.36121560
   0.50000000  0.41760064  0.44375982
   0.50000000  0.70819374  0.45135961
Direct configuration=    18
   0.00000000  0.00046332  0.00191119
   0.50000000  0.50041755  0.04981076
   0.00000000  0.00036566  0.10312784
   0.50000000  0.49987831  0.15557166
   0.00000000  0.00082952  0.20702116
   0.50000000  0.50912085  0.26014847
   0.00000000  0.02905769  0.31321281
   0.50000000  0.54258158  0.36128503
   0.50000000  0.41527123  0.44390912
   0.50000000  0.70752392  0.45132570
Direct configuration=    19
   0.00000000  0.00059010  0.00167355
   0.50000000  0.50055195  0.04943903
   0.00000000  0.00042988  0.10305651
   0.50000000  0.50004004  0.15569543
   0.00000000  0.00164551  0.20708748
   0.50000000  0.51071962  0.26010464
   0.00000000  0.03051541  0.31344468
   0.50000000  0.54313192  0.36139869
   0.50000000  0.41145782  0.44415354
   0.50000000  0.70642738  0.45127019
Direct configuration=    20
   0.00000000  0.00068233  0.00158460
   0.50000000  0.50064637  0.04919947
   0.00000000  0.00047717  0.10304248
   0.50000000  0.50021786  0.15571000
   0.00000000  0.00230949  0.20714326
   0.50000000  0.51174383  0.26011464
   0.00000000  0.03133519  0.31357493
   0.50000000  0.54334552  0.36148123
   0.50000000  0.41025687  0.44428164
   0.50000000  0.70449499  0.45119149
Direct configuration=    21
   0.00000000  0.00082486  0.00144716
   0.50000000  0.50079228  0.04882927
   0.00000000  0.00055024  0.10302081
   0.50000000  0.50049264  0.15573251
   0.00000000  0.00333554  0.20722945
   0.50000000  0.51332653  0.26013009
   0.00000000  0.03260200  0.31377621
   0.50000000  0.54367560  0.36160878
   0.50000000  0.40840106  0.44447959
   0.50000000  0.70150888  0.45106986
Direct configuration=    22
   0.00000000  0.00091325  0.00142659
   0.50000000  0.50087928  0.04868719
   0.00000000  0.00061005  0.10301350
   0.50000000  0.50077371  0.15564508
   0.00000000  0.00408904  0.20728154
   0.50000000  0.51426053  0.26020944
   0.00000000  0.03321564  0.31385399
   0.50000000  0.54374754  0.36167916
   0.50000000  0.40658855  0.44452495
   0.50000000  0.70043206  0.45100230
Direct configuration=    23
   0.00000000  0.00116159  0.00136881
   0.50000000  0.50112371  0.04828798
   0.00000000  0.00077808  0.10299295
   0.50000000  0.50156337  0.15539946
   0.00000000  0.00620603  0.20742787
   0.50000000  0.51688466  0.26043236
   0.00000000  0.03493969  0.31407254
   0.50000000  0.54394966  0.36187692
   0.50000000  0.40149619  0.44465238
   0.50000000  0.69740667  0.45081246
Direct configuration=    24
   0.00000000  0.00132644  0.00134762
   0.50000000  0.50125176  0.04825366
   0.00000000  0.00097779  0.10295899
   0.50000000  0.50222910  0.15528193
   0.00000000  0.00744147  0.20745924
   0.50000000  0.51828676  0.26054686
   0.00000000  0.03551901  0.31413650
   0.50000000  0.54403131  0.36201043
   0.50000000  0.39985903  0.44466566
   0.50000000  0.69458696  0.45066284
Direct configuration=    25
   0.00000000  0.00142491  0.00133496
   0.50000000  0.50132825  0.04823316
   0.00000000  0.00109707  0.10293870
   0.50000000  0.50262675  0.15521173
   0.00000000  0.00817942  0.20747797
   0.50000000  0.51912425  0.26061525
   0.00000000  0.03586505  0.31417470
   0.50000000  0.54408008  0.36209018
   0.50000000  0.39888113  0.44467360
   0.50000000  0.69290272  0.45057348
Direct configuration=    26
   0.00000000  0.00138486  0.00134011
   0.50000000  0.50129713  0.04824150
   0.00000000  0.00104855  0.10294695
   0.50000000  0.50246500  0.15524029
   0.00000000  0.00787924  0.20747035
   0.50000000  0.51878359  0.26058743
   0.00000000  0.03572430  0.31415916
   0.50000000  0.54406025  0.36205774
   0.50000000  0.39927891  0.44467037
   0.50000000  0.69358781  0.45060983
Direct configuration=    27
   0.00000000  0.00141143  0.00133670
   0.50000000  0.50131777  0.04823596
   0.00000000  0.00108074  0.10294148
   0.50000000  0.50257231  0.15522134
   0.00000000  0.00807838  0.20747541
   0.50000000  0.51900959  0.26060589
   0.00000000  0.03581768  0.31416947
   0.50000000  0.54407341  0.36207926
   0.50000000  0.39901501  0.44467251
   0.50000000  0.69313331  0.45058571
Direct configuration=    28
   0.00000000  0.00151513  0.00132003
   0.50000000  0.50139473  0.04825750
   0.00000000  0.00125324  0.10291305
   0.50000000  0.50310206  0.15516643
   0.00000000  0.00894204  0.20748127
   0.50000000  0.51996925  0.26067218
   0.00000000  0.03610216  0.31420453
   0.50000000  0.54410911  0.36217326
   0.50000000  0.39722646  0.44464567
   0.50000000  0.69189545  0.45048983
Direct configuration=    29
   0.00000000  0.00174998  0.00128227
   0.50000000  0.50156900  0.04830626
   0.00000000  0.00164388  0.10284866
   0.50000000  0.50430176  0.15504208
   0.00000000  0.01089792  0.20749456
   0.50000000  0.52214255  0.26082231
   0.00000000  0.03674642  0.31428391
   0.50000000  0.54418997  0.36238613
   0.50000000  0.39317602  0.44458486
   0.50000000  0.68909213  0.45027270
Direct configuration=    30
   0.00000000  0.00184893  0.00126637
   0.50000000  0.50164243  0.04832681
   0.00000000  0.00180847  0.10282152
   0.50000000  0.50480724  0.15498969
   0.00000000  0.01172200  0.20750016
   0.50000000  0.52305824  0.26088556
   0.00000000  0.03701786  0.31431735
   0.50000000  0.54422404  0.36247582
   0.50000000  0.39146942  0.44455924
   0.50000000  0.68791099  0.45018122
Direct configuration=    31
   0.00000000  0.00194828  0.00125533
   0.50000000  0.50174356  0.04836625
   0.00000000  0.00206397  0.10282526
   0.50000000  0.50532320  0.15507159
   0.00000000  0.01240411  0.20748757
   0.50000000  0.52378636  0.26088708
   0.00000000  0.03711821  0.31433380
   0.50000000  0.54425547  0.36252577
   0.50000000  0.39013421  0.44449435
   0.50000000  0.68673226  0.45007673
Direct configuration=    32
   0.00000000  0.00224634  0.00122224
   0.50000000  0.50204697  0.04848458
   0.00000000  0.00283047  0.10283647
   0.50000000  0.50687111  0.15531729
   0.00000000  0.01445044  0.20744982
   0.50000000  0.52597071  0.26089162
   0.00000000  0.03741923  0.31438314
   0.50000000  0.54434976  0.36267561
   0.50000000  0.38612856  0.44429967
   0.50000000  0.68319604  0.44976329
Direct configuration=    33
   0.00000000  0.00284245  0.00115604
   0.50000000  0.50265378  0.04872124
   0.00000000  0.00436347  0.10285888
   0.50000000  0.50996693  0.15580871
   0.00000000  0.01854311  0.20737432
   0.50000000  0.53033940  0.26090072
   0.00000000  0.03802127  0.31448182
   0.50000000  0.54453835  0.36297530
   0.50000000  0.37811727  0.44391030
   0.50000000  0.67612361  0.44913641
Direct configuration=    34
   0.00000000  0.00296451  0.00117995
   0.50000000  0.50285226  0.04877147
   0.00000000  0.00479711  0.10288476
   0.50000000  0.51074442  0.15586699
   0.00000000  0.01951123  0.20740595
   0.50000000  0.53113964  0.26096436
   0.00000000  0.03826319  0.31450211
   0.50000000  0.54443023  0.36298931
   0.50000000  0.37660506  0.44378966
   0.50000000  0.67420199  0.44896918
Direct configuration=    35
   0.00000000  0.00320248  0.00122657
   0.50000000  0.50323921  0.04886938
   0.00000000  0.00564250  0.10293519
   0.50000000  0.51226018  0.15598061
   0.00000000  0.02139864  0.20746762
   0.50000000  0.53269977  0.26108842
   0.00000000  0.03873484  0.31454167
   0.50000000  0.54421946  0.36301663
   0.50000000  0.37365691  0.44355447
   0.50000000  0.67045566  0.44864317
Direct configuration=    36
   0.00000000  0.00367841  0.00131979
   0.50000000  0.50401311  0.04906520
   0.00000000  0.00733329  0.10303607
   0.50000000  0.51529170  0.15620786
   0.00000000  0.02517345  0.20759097
   0.50000000  0.53582002  0.26133655
   0.00000000  0.03967814  0.31462079
   0.50000000  0.54379791  0.36307128
   0.50000000  0.36776060  0.44308409
   0.50000000  0.66296301  0.44799113
Direct configuration=    37
   0.00000000  0.00342429  0.00127002
   0.50000000  0.50359990  0.04896064
   0.00000000  0.00643052  0.10298221
   0.50000000  0.51367307  0.15608652
   0.00000000  0.02315796  0.20752511
   0.50000000  0.53415402  0.26120407
   0.00000000  0.03917449  0.31457855
   0.50000000  0.54402299  0.36304210
   0.50000000  0.37090882  0.44333524
   0.50000000  0.66696357  0.44833927
Direct configuration=    38
   0.00000000  0.00355135  0.00129490
   0.50000000  0.50380651  0.04901292
   0.00000000  0.00688190  0.10300914
   0.50000000  0.51448238  0.15614719
   0.00000000  0.02416571  0.20755804
   0.50000000  0.53498702  0.26127031
   0.00000000  0.03942632  0.31459967
   0.50000000  0.54391045  0.36305669
   0.50000000  0.36933471  0.44320966
   0.50000000  0.66496329  0.44816520
Direct configuration=    39
   0.00000000  0.00347991  0.00128091
   0.50000000  0.50369034  0.04898353
   0.00000000  0.00662811  0.10299400
   0.50000000  0.51402735  0.15611308
   0.00000000  0.02359910  0.20753953
   0.50000000  0.53451866  0.26123306
   0.00000000  0.03928473  0.31458779
   0.50000000  0.54397372  0.36304849
   0.50000000  0.37021975  0.44328027
   0.50000000  0.66608794  0.44826308
Direct configuration=    40
   0.00000000  0.00352602  0.00128994
   0.50000000  0.50376532  0.04900250
   0.00000000  0.00679192  0.10300377
   0.50000000  0.51432104  0.15613510
   0.00000000  0.02396481  0.20755148
   0.50000000  0.53482095  0.26125710
   0.00000000  0.03937611  0.31459546
   0.50000000  0.54393288  0.36305378
   0.50000000  0.36964852  0.44323470
   0.50000000  0.66536205  0.44819991
Direct configuration=    41
   0.00000000  0.00350297  0.00128543
   0.50000000  0.50372783  0.04899302
   0.00000000  0.00671002  0.10299889
   0.50000000  0.51417420  0.15612409
   0.00000000  0.02378195  0.20754550
   0.50000000  0.53466981  0.26124508
   0.00000000  0.03933042  0.31459163
   0.50000000  0.54395330  0.36305114
   0.50000000  0.36993414  0.44325748
   0.50000000  0.66572500  0.44823149
Direct configuration=    42
   0.00000000  0.00358436  0.00131592
   0.50000000  0.50388844  0.04902948
   0.00000000  0.00706030  0.10302642
   0.50000000  0.51476167  0.15615240
   0.00000000  0.02448488  0.20757624
   0.50000000  0.53518958  0.26129649
   0.00000000  0.03952153  0.31460733
   0.50000000  0.54382149  0.36305306
   0.50000000  0.36848261  0.44315328
   0.50000000  0.66471477  0.44811313
Direct configuration=    43
   0.00000000  0.00373110  0.00137089
   0.50000000  0.50417796  0.04909523
   0.00000000  0.00769178  0.10307606
   0.50000000  0.51582073  0.15620343
   0.00000000  0.02575205  0.20763165
   0.50000000  0.53612660  0.26138916
   0.00000000  0.03986604  0.31463563
   0.50000000  0.54358386  0.36305651
   0.50000000  0.36586590  0.44296543
   0.50000000  0.66289360  0.44789975
Direct configuration=    44
   0.00000000  0.00402457  0.00148084
   0.50000000  0.50475702  0.04922671
   0.00000000  0.00895473  0.10317534
   0.50000000  0.51793886  0.15630549
   0.00000000  0.02828641  0.20774248
   0.50000000  0.53800062  0.26157450
   0.00000000  0.04055507  0.31469223
   0.50000000  0.54310860  0.36306343
   0.50000000  0.36063248  0.44258973
   0.50000000  0.65925127  0.44747299
Direct configuration=    45
   0.00000000  0.00461151  0.00170073
   0.50000000  0.50591512  0.04948968
   0.00000000  0.01148064  0.10337389
   0.50000000  0.52217510  0.15650961
   0.00000000  0.03335513  0.20796413
   0.50000000  0.54174867  0.26194519
   0.00000000  0.04193313  0.31480543
   0.50000000  0.54215809  0.36307727
   0.50000000  0.35016564  0.44183832
   0.50000000  0.65196659  0.44661948
Direct configuration=    46
   0.00000000  0.00426792  0.00157201
   0.50000000  0.50523719  0.04933574
   0.00000000  0.01000203  0.10325766
   0.50000000  0.51969529  0.15639012
   0.00000000  0.03038800  0.20783438
   0.50000000  0.53955464  0.26172820
   0.00000000  0.04112644  0.31473916
   0.50000000  0.54271450  0.36306917
   0.50000000  0.35629272  0.44227818
   0.50000000  0.65623089  0.44711911
Direct configuration=    47
   0.00000000  0.00441743  0.00162802
   0.50000000  0.50553218  0.04940272
   0.00000000  0.01064542  0.10330824
   0.50000000  0.52077434  0.15644211
   0.00000000  0.03167910  0.20789084
   0.50000000  0.54050933  0.26182262
   0.00000000  0.04147746  0.31476800
   0.50000000  0.54247239  0.36307269
   0.50000000  0.35362663  0.44208678
   0.50000000  0.65437536  0.44690171
Direct configuration=    48
   0.00000000  0.00463815  0.00174131
   0.50000000  0.50602167  0.04949152
   0.00000000  0.01167111  0.10340520
   0.50000000  0.52242200  0.15649988
   0.00000000  0.03346026  0.20797318
   0.50000000  0.54170696  0.26192159
   0.00000000  0.04196244  0.31481839
   0.50000000  0.54202419  0.36310853
   0.50000000  0.35048198  0.44179037
   0.50000000  0.65112087  0.44657376
Direct configuration=    49
   0.00000000  0.00519730  0.00202830
   0.50000000  0.50726166  0.04971646
   0.00000000  0.01426946  0.10365084
   0.50000000  0.52659594  0.15664624
   0.00000000  0.03797241  0.20818178
   0.50000000  0.54474088  0.26217232
   0.00000000  0.04319102  0.31494604
   0.50000000  0.54088878  0.36319930
   0.50000000  0.34251577  0.44103949
   0.50000000  0.64287640  0.44574297
Direct configuration=    50
   0.00000000  0.00505242  0.00195393
   0.50000000  0.50694036  0.04965817
   0.00000000  0.01359618  0.10358719
   0.50000000  0.52551440  0.15660832
   0.00000000  0.03680323  0.20812773
   0.50000000  0.54395474  0.26210736
   0.00000000  0.04287267  0.31491296
   0.50000000  0.54118299  0.36317578
   0.50000000  0.34457995  0.44123406
   0.50000000  0.64501269  0.44595824
Direct configuration=    51
   0.00000000  0.00515509  0.00200663
   0.50000000  0.50716804  0.04969947
   0.00000000  0.01407328  0.10363230
   0.50000000  0.52628081  0.15663519
   0.00000000  0.03763174  0.20816603
   0.50000000  0.54451182  0.26215339
   0.00000000  0.04309826  0.31493640
   0.50000000  0.54097451  0.36319244
   0.50000000  0.34311722  0.44109618
   0.50000000  0.64349887  0.44580570
Direct configuration=    52
   0.00000000  0.00510375  0.00198028
   0.50000000  0.50705420  0.04967882
   0.00000000  0.01383473  0.10360975
   0.50000000  0.52589761  0.15662175
   0.00000000  0.03721749  0.20814688
   0.50000000  0.54423328  0.26213037
   0.00000000  0.04298547  0.31492468
   0.50000000  0.54107875  0.36318411
   0.50000000  0.34384859  0.44116512
   0.50000000  0.64425578  0.44588197
Direct configuration=    53
   0.00000000  0.00514435  0.00200112
   0.50000000  0.50714424  0.04969516
   0.00000000  0.01402340  0.10362758
   0.50000000  0.52620068  0.15663238
   0.00000000  0.03754512  0.20816202
   0.50000000  0.54445357  0.26214858
   0.00000000  0.04307467  0.31493395
   0.50000000  0.54099631  0.36319070
   0.50000000  0.34327016  0.44111060
   0.50000000  0.64365714  0.44582164
Direct configuration=    54
   0.00000000  0.00512405  0.00199070
   0.50000000  0.50709922  0.04968699
   0.00000000  0.01392906  0.10361866
   0.50000000  0.52604914  0.15662707
   0.00000000  0.03738130  0.20815445
   0.50000000  0.54434343  0.26213948
   0.00000000  0.04303007  0.31492932
   0.50000000  0.54103753  0.36318741
   0.50000000  0.34355937  0.44113786
   0.50000000  0.64395646  0.44585181
Direct configuration=    55
   0.00000000  0.00513289  0.00199524
   0.50000000  0.50711881  0.04969054
   0.00000000  0.01397011  0.10362254
   0.50000000  0.52611508  0.15662938
   0.00000000  0.03745259  0.20815775
   0.50000000  0.54439136  0.26214344
   0.00000000  0.04304948  0.31493133
   0.50000000  0.54101959  0.36318884
   0.50000000  0.34343352  0.44112600
   0.50000000  0.64382621  0.44583868
Direct configuration=    56
   0.00000000  0.00512522  0.00199130
   0.50000000  0.50710180  0.04968746
   0.00000000  0.01393447  0.10361918
   0.50000000  0.52605783  0.15662737
   0.00000000  0.03739069  0.20815488
   0.50000000  0.54434974  0.26214000
   0.00000000  0.04303263  0.31492958
   0.50000000  0.54103516  0.36318760
   0.50000000  0.34354279  0.44113630
   0.50000000  0.64393930  0.44585008
Direct configuration=    57
   0.00000000  0.00512905  0.00199327
   0.50000000  0.50711031  0.04968900
   0.00000000  0.01395229  0.10362086
   0.50000000  0.52608645  0.15662837
   0.00000000  0.03742164  0.20815632
   0.50000000  0.54437055  0.26214172
   0.00000000  0.04304105  0.31493046
   0.50000000  0.54102738  0.36318822
   0.50000000  0.34348816  0.44113115
   0.50000000  0.64388276  0.44584438
Direct configuration=    58
   0.00000000  0.00512777  0.00199261
   0.50000000  0.50710745  0.04968848
   0.00000000  0.01394632  0.10362030
   0.50000000  0.52607686  0.15662804
   0.00000000  0.03741127  0.20815584
   0.50000000  0.54436358  0.26214114
   0.00000000  0.04303823  0.31493017
   0.50000000  0.54102999  0.36318801
   0.50000000  0.34350647  0.44113287
   0.50000000  0.64390171  0.44584629
Direct configuration=    59
   0.00000000  0.00512796  0.00199271
   0.50000000  0.50710789  0.04968856
   0.00000000  0.01394724  0.10362038
   0.50000000  0.52607834  0.15662809
   0.00000000  0.03741287  0.20815591
   0.50000000  0.54436465  0.26214123
   0.00000000  0.04303866  0.31493021
   0.50000000  0.54102958  0.36318804
   0.50000000  0.34350364  0.44113261
   0.50000000  0.64389879  0.44584599
Direct configuration=    60
   0.00000000  0.00513918  0.00202282
   0.50000000  0.50716992  0.04967066
   0.00000000  0.01404583  0.10364515
   0.50000000  0.52602557  0.15662598
   0.00000000  0.03705547  0.20814088
   0.50000000  0.54400274  0.26205615
   0.00000000  0.04288222  0.31494055
   0.50000000  0.54093995  0.36323671
   0.50000000  0.34436466  0.44111813
   0.50000000  0.64388410  0.44586671
Direct configuration=    61
   0.00000000  0.00514715  0.00204419
   0.50000000  0.50721394  0.04965796
   0.00000000  0.01411581  0.10366273
   0.50000000  0.52598812  0.15662448
   0.00000000  0.03680179  0.20813021
   0.50000000  0.54374586  0.26199576
   0.00000000  0.04277118  0.31494789
   0.50000000  0.54087632  0.36327125
   0.50000000  0.34497579  0.44110785
   0.50000000  0.64387367  0.44588141
Direct configuration=    62
   0.00000000  0.00516308  0.00208693
   0.50000000  0.50730198  0.04963255
   0.00000000  0.01425576  0.10369789
   0.50000000  0.52591321  0.15662148
   0.00000000  0.03629445  0.20810888
   0.50000000  0.54323211  0.26187499
   0.00000000  0.04254911  0.31496258
   0.50000000  0.54074907  0.36334033
   0.50000000  0.34619805  0.44108730
   0.50000000  0.64385282  0.44591081
Direct configuration=    63
   0.00000000  0.00518099  0.00212921
   0.50000000  0.50739050  0.04962323
   0.00000000  0.01441850  0.10372399
   0.50000000  0.52591509  0.15661311
   0.00000000  0.03594776  0.20809560
   0.50000000  0.54282370  0.26180355
   0.00000000  0.04236487  0.31497406
   0.50000000  0.54060687  0.36337759
   0.50000000  0.34641740  0.44104601
   0.50000000  0.64444395  0.44593739
Direct configuration=    64
   0.00000000  0.00519902  0.00217176
   0.50000000  0.50747960  0.04961384
   0.00000000  0.01458232  0.10375026
   0.50000000  0.52591699  0.15660469
   0.00000000  0.03559879  0.20808224
   0.50000000  0.54241260  0.26173164
   0.00000000  0.04217941  0.31498562
   0.50000000  0.54046373  0.36341510
   0.50000000  0.34663819  0.44100444
   0.50000000  0.64503898  0.44596415
Direct configuration=    65
   0.00000000  0.00523509  0.00225687
   0.50000000  0.50765780  0.04959508
   0.00000000  0.01490995  0.10380279
   0.50000000  0.52592079  0.15658784
   0.00000000  0.03490085  0.20805550
   0.50000000  0.54159038  0.26158782
   0.00000000  0.04180850  0.31500874
   0.50000000  0.54017745  0.36349012
   0.50000000  0.34707978  0.44092132
   0.50000000  0.64622904  0.44601766
Direct configuration=    66
   0.00000000  0.00526758  0.00227766
   0.50000000  0.50773403  0.04960836
   0.00000000  0.01506515  0.10380505
   0.50000000  0.52594402  0.15657002
   0.00000000  0.03477044  0.20805914
   0.50000000  0.54134995  0.26162746
   0.00000000  0.04164887  0.31500653
   0.50000000  0.54007312  0.36347056
   0.50000000  0.34717210  0.44087944
   0.50000000  0.64648437  0.44601950
Direct configuration=    67
   0.00000000  0.00533028  0.00231779
   0.50000000  0.50788112  0.04963399
   0.00000000  0.01536462  0.10380942
   0.50000000  0.52598884  0.15653563
   0.00000000  0.03451880  0.20806616
   0.50000000  0.54088603  0.26170396
   0.00000000  0.04134085  0.31500225
   0.50000000  0.53987181  0.36343283
   0.50000000  0.34735025  0.44079865
   0.50000000  0.64697704  0.44602304
Direct configuration=    68
   0.00000000  0.00545568  0.00239805
   0.50000000  0.50817529  0.04968524
   0.00000000  0.01596356  0.10381815
   0.50000000  0.52607848  0.15646686
   0.00000000  0.03401552  0.20808020
   0.50000000  0.53995818  0.26185696
   0.00000000  0.04072480  0.31499371
   0.50000000  0.53946919  0.36335738
   0.50000000  0.34770653  0.44063706
   0.50000000  0.64796240  0.44603013
Direct configuration=    69
   0.00000000  0.00549113  0.00241374
   0.50000000  0.50824866  0.04969450
   0.00000000  0.01609933  0.10382377
   0.50000000  0.52609893  0.15646276
   0.00000000  0.03390017  0.20808541
   0.50000000  0.53973940  0.26187917
   0.00000000  0.04057631  0.31499307
   0.50000000  0.53938271  0.36334919
   0.50000000  0.34801045  0.44059844
   0.50000000  0.64796255  0.44602369
Direct configuration=    70
   0.00000000  0.00559745  0.00246080
   0.50000000  0.50846878  0.04972228
   0.00000000  0.01650665  0.10384065
   0.50000000  0.52616028  0.15645046
   0.00000000  0.03355412  0.20810103
   0.50000000  0.53908307  0.26194580
   0.00000000  0.04013085  0.31499114
   0.50000000  0.53912325  0.36332462
   0.50000000  0.34892220  0.44048258
   0.50000000  0.64796299  0.44600438
Direct configuration=    71
   0.00000000  0.00561035  0.00246651
   0.50000000  0.50849549  0.04972566
   0.00000000  0.01655607  0.10384269
   0.50000000  0.52616772  0.15644896
   0.00000000  0.03351213  0.20810293
   0.50000000  0.53900344  0.26195388
   0.00000000  0.04007681  0.31499091
   0.50000000  0.53909177  0.36332164
   0.50000000  0.34903282  0.44046852
   0.50000000  0.64796304  0.44600204
Direct configuration=    72
   0.00000000  0.00560663  0.00245975
   0.50000000  0.50848291  0.04972402
   0.00000000  0.01652453  0.10385062
   0.50000000  0.52615495  0.15647035
   0.00000000  0.03351278  0.20810681
   0.50000000  0.53901422  0.26192933
   0.00000000  0.04007709  0.31499450
   0.50000000  0.53909049  0.36333704
   0.50000000  0.34915300  0.44045519
   0.50000000  0.64789304  0.44599612
Direct configuration=    73
   0.00000000  0.00560340  0.00245389
   0.50000000  0.50847200  0.04972260
   0.00000000  0.01649718  0.10385749
   0.50000000  0.52614387  0.15648891
   0.00000000  0.03351334  0.20811018
   0.50000000  0.53902358  0.26190803
   0.00000000  0.04007734  0.31499763
   0.50000000  0.53908938  0.36335040
   0.50000000  0.34925725  0.44044362
   0.50000000  0.64783231  0.44599098