   6   6   0   0
  0.2422945E+02  0.2566798E-09  0.2566798E-09  0.2547891E-08  0.5000000E-15
  1.000000000000000E-004
  CAR 
 unknown system                          
     13.49383842    -10.00877002  301      0.77686255      1.00000000
    -10.009  0.0000E+00  0.0000E+00  0.0000E+00  0.0000E+00
     -9.930  0.0000E+00  0.0000E+00  0.0000E+00  0.0000E+00
     -9.852  0.0000E+00  0.0000E+00  0.0000E+00  0.0000E+00
     -9.774  0.0000E+00  0.0000E+00  0.0000E+00  0.0000E+00
     -9.695  0.0000E+00  0.0000E+00  0.0000E+00  0.0000E+00
     -9.617 -0.3315E-30 -0.3317E-30 -0.2597E-31 -0.2599E-31
     -9.539 -0.1470E-27 -0.1471E-27 -0.1154E-28 -0.1155E-28
     -9.460 -0.4787E-25 -0.4790E-25 -0.3762E-26 -0.3764E-26
     -9.382 -0.1144E-22 -0.1144E-22 -0.8998E-24 -0.9003E-24
     -9.304 -0.2003E-20 -0.2004E-20 -0.1578E-21 -0.1579E-21
     -9.225 -0.2570E-18 -0.2571E-18 -0.2029E-19 -0.2030E-19
     -9.147 -0.2336E-16 -0.2337E-16 -0.1850E-17 -0.1851E-17
     -9.069 -0.1601E-14 -0.1602E-14 -0.1273E-15 -0.1273E-15
     -8.990 -0.7989E-13 -0.7992E-13 -0.6386E-14 -0.6389E-14
     -8.912 -0.2904E-11 -0.2905E-11 -0.2339E-12 -0.2340E-12
     -8.834 -0.7667E-10 -0.7670E-10 -0.6241E-11 -0.6243E-11
     -8.755 -0.1465E-08 -0.1466E-08 -0.1210E-09 -0.1211E-09
     -8.677 -0.2014E-07 -0.2015E-07 -0.1699E-08 -0.1700E-08
     -8.599 -0.1976E-06 -0.1976E-06 -0.1718E-07 -0.1718E-07
     -8.520 -0.1362E-05 -0.1362E-05 -0.1239E-06 -0.1239E-06
     -8.442 -0.6418E-05 -0.6419E-05 -0.6267E-06 -0.6268E-06
     -8.364 -0.1938E-04 -0.1938E-04 -0.2145E-05 -0.2145E-05
     -8.285 -0.3005E-04 -0.3005E-04 -0.4499E-05 -0.4500E-05
     -8.207  0.1464E-04  0.1465E-04 -0.3352E-05 -0.3352E-05
     -8.129  0.1854E-03  0.1854E-03  0.1117E-04  0.1117E-04
     -8.050  0.4401E-03  0.4401E-03  0.4565E-04  0.4566E-04
     -7.972  0.5753E-03  0.5753E-03  0.9072E-04  0.9072E-04
     -7.894  0.4536E-03  0.4536E-03  0.1263E-03  0.1263E-03
     -7.815  0.1993E-03  0.1992E-03  0.1419E-03  0.1419E-03
     -7.737  0.2007E-04  0.2005E-04  0.1434E-03  0.1434E-03
     -7.659 -0.3331E-04 -0.3331E-04  0.1408E-03  0.1408E-03
     -7.580 -0.3345E-04 -0.3345E-04  0.1382E-03  0.1382E-03
     -7.502 -0.3511E-04 -0.3511E-04  0.1355E-03  0.1355E-03
     -7.423 -0.1711E-04 -0.1710E-04  0.1341E-03  0.1341E-03
     -7.345  0.9854E-04  0.9857E-04  0.1418E-03  0.1418E-03
     -7.267  0.3368E-03  0.3368E-03  0.1682E-03  0.1682E-03
     -7.188  0.5486E-03  0.5486E-03  0.2112E-03  0.2112E-03
     -7.110  0.5318E-03  0.5318E-03  0.2529E-03  0.2529E-03
     -7.032  0.3039E-03  0.3039E-03  0.2767E-03  0.2767E-03
     -6.953  0.7684E-04  0.7682E-04  0.2827E-03  0.2827E-03
     -6.875 -0.2107E-04 -0.2107E-04  0.2810E-03  0.2810E-03
     -6.797 -0.2664E-04 -0.2664E-04  0.2790E-03  0.2790E-03
     -6.718 -0.1148E-04 -0.1148E-04  0.2781E-03  0.2781E-03
     -6.640 -0.3307E-05 -0.3307E-05  0.2778E-03  0.2778E-03
     -6.562 -0.2709E-05 -0.2709E-05  0.2776E-03  0.2776E-03
     -6.483 -0.9285E-05 -0.9286E-05  0.2769E-03  0.2769E-03
     -6.405 -0.2395E-04 -0.2396E-04  0.2750E-03  0.2750E-03
     -6.327 -0.2653E-04 -0.2653E-04  0.2729E-03  0.2729E-03
     -6.248  0.4858E-04  0.4860E-04  0.2767E-03  0.2767E-03
     -6.170  0.2557E-03  0.2558E-03  0.2967E-03  0.2967E-03
     -6.092  0.5005E-03  0.5006E-03  0.3360E-03  0.3360E-03
     -6.013  0.5662E-03  0.5662E-03  0.3803E-03  0.3803E-03
     -5.935  0.3847E-03  0.3847E-03  0.4105E-03  0.4105E-03
     -5.857  0.1351E-03  0.1351E-03  0.4210E-03  0.4210E-03
     -5.778 -0.4505E-05 -0.4514E-05  0.4207E-03  0.4207E-03
     -5.700 -0.2977E-04 -0.2977E-04  0.4184E-03  0.4184E-03
     -5.622 -0.1592E-04 -0.1592E-04  0.4171E-03  0.4171E-03
     -5.543 -0.5768E-05 -0.5768E-05  0.4167E-03  0.4167E-03
     -5.465 -0.8540E-05 -0.8541E-05  0.4160E-03  0.4160E-03
     -5.387 -0.3735E-04 -0.3736E-04  0.4131E-03  0.4131E-03
     -5.308 -0.1180E-03 -0.1180E-03  0.4038E-03  0.4038E-03
     -5.230 -0.2021E-03 -0.2022E-03  0.3880E-03  0.3880E-03
     -5.152  0.2526E-04  0.2532E-04  0.3900E-03  0.3900E-03
     -5.073  0.1057E-02  0.1057E-02  0.4728E-03  0.4728E-03
     -4.995  0.2767E-02  0.2767E-02  0.6895E-03  0.6895E-03
     -4.917  0.3901E-02  0.3901E-02  0.9951E-03  0.9952E-03
     -4.838  0.3337E-02  0.3337E-02  0.1257E-02  0.1257E-02
     -4.760  0.1600E-02  0.1599E-02  0.1382E-02  0.1382E-02
     -4.682  0.1577E-03  0.1576E-03  0.1394E-02  0.1394E-02
     -4.603 -0.1058E-03 -0.1058E-03  0.1386E-02  0.1386E-02
     -4.525  0.8841E-03  0.8842E-03  0.1455E-02  0.1455E-02
     -4.446  0.2503E-02  0.2503E-02  0.1651E-02  0.1651E-02
     -4.368  0.3418E-02  0.3418E-02  0.1919E-02  0.1919E-02
     -4.290  0.2744E-02  0.2744E-02  0.2134E-02  0.2134E-02
     -4.211  0.1174E-02  0.1174E-02  0.2226E-02  0.2226E-02
     -4.133  0.4060E-04  0.4053E-04  0.2229E-02  0.2229E-02
     -4.055 -0.7943E-04 -0.7939E-04  0.2223E-02  0.2223E-02
     -3.976  0.7876E-03  0.7877E-03  0.2285E-02  0.2285E-02
     -3.898  0.2418E-02  0.2418E-02  0.2474E-02  0.2474E-02
     -3.820  0.3931E-02  0.3931E-02  0.2782E-02  0.2782E-02
     -3.741  0.4003E-02  0.4003E-02  0.3096E-02  0.3096E-02
     -3.663  0.2442E-02  0.2442E-02  0.3287E-02  0.3287E-02
     -3.585  0.6523E-03  0.6522E-03  0.3338E-02  0.3338E-02
     -3.506  0.9216E-04  0.9218E-04  0.3345E-02  0.3345E-02
     -3.428  0.1046E-02  0.1046E-02  0.3427E-02  0.3427E-02
     -3.350  0.2531E-02  0.2531E-02  0.3626E-02  0.3626E-02
     -3.271  0.3049E-02  0.3049E-02  0.3864E-02  0.3865E-02
     -3.193  0.2340E-02  0.2340E-02  0.4048E-02  0.4048E-02
     -3.115  0.2118E-02  0.2118E-02  0.4214E-02  0.4214E-02
     -3.036  0.4070E-02  0.4070E-02  0.4533E-02  0.4533E-02
     -2.958  0.7813E-02  0.7814E-02  0.5145E-02  0.5145E-02
     -2.880  0.1133E-01  0.1133E-01  0.6033E-02  0.6033E-02
     -2.801  0.1256E-01  0.1256E-01  0.7017E-02  0.7017E-02
     -2.723  0.1072E-01  0.1072E-01  0.7857E-02  0.7857E-02
     -2.645  0.7243E-02  0.7243E-02  0.8424E-02  0.8424E-02
     -2.566  0.4886E-02  0.4886E-02  0.8807E-02  0.8807E-02
     -2.488  0.4830E-02  0.4830E-02  0.9185E-02  0.9185E-02
     -2.410  0.5831E-02  0.5831E-02  0.9642E-02  0.9642E-02
     -2.331  0.6507E-02  0.6508E-02  0.1015E-01  0.1015E-01
     -2.253  0.6598E-02  0.6598E-02  0.1067E-01  0.1067E-01
     -2.175  0.6396E-02  0.6396E-02  0.1117E-01  0.1117E-01
     -2.096  0.6699E-02  0.6699E-02  0.1169E-01  0.1169E-01
     -2.018  0.8387E-02  0.8387E-02  0.1235E-01  0.1235E-01
     -1.940  0.1132E-01  0.1132E-01  0.1324E-01  0.1324E-01
     -1.861  0.1410E-01  0.1410E-01  0.1434E-01  0.1434E-01
     -1.783  0.1507E-01  0.1507E-01  0.1552E-01  0.1552E-01
     -1.705  0.1396E-01  0.1396E-01  0.1662E-01  0.1662E-01
     -1.626  0.1225E-01  0.1225E-01  0.1758E-01  0.1758E-01
     -1.548  0.1104E-01  0.1104E-01  0.1844E-01  0.1844E-01
     -1.469  0.9778E-02  0.9778E-02  0.1921E-01  0.1921E-01
     -1.391  0.7872E-02  0.7872E-02  0.1982E-01  0.1982E-01
     -1.313  0.6283E-02  0.6282E-02  0.2032E-01  0.2032E-01
     -1.234  0.6912E-02  0.6912E-02  0.2086E-01  0.2086E-01
     -1.156  0.1042E-01  0.1042E-01  0.2167E-01  0.2167E-01
     -1.078  0.1458E-01  0.1458E-01  0.2282E-01  0.2282E-01
     -0.999  0.1635E-01  0.1635E-01  0.2410E-01  0.2410E-01
     -0.921  0.1607E-01  0.1607E-01  0.2536E-01  0.2536E-01
     -0.843  0.1663E-01  0.1663E-01  0.2666E-01  0.2666E-01
     -0.764  0.1851E-01  0.1851E-01  0.2811E-01  0.2811E-01
     -0.686  0.1951E-01  0.1951E-01  0.2964E-01  0.2964E-01
     -0.608  0.1878E-01  0.1878E-01  0.3111E-01  0.3111E-01
     -0.529  0.1729E-01  0.1729E-01  0.3246E-01  0.3246E-01
     -0.451  0.1524E-01  0.1524E-01  0.3366E-01  0.3366E-01
     -0.373  0.1269E-01  0.1269E-01  0.3465E-01  0.3465E-01
     -0.294  0.1137E-01  0.1137E-01  0.3554E-01  0.3554E-01
     -0.216  0.1246E-01  0.1246E-01  0.3652E-01  0.3652E-01
     -0.138  0.1400E-01  0.1400E-01  0.3762E-01  0.3762E-01
     -0.059  0.1347E-01  0.1347E-01  0.3867E-01  0.3867E-01
      0.019  0.1094E-01  0.1094E-01  0.3953E-01  0.3953E-01
      0.097  0.7878E-02  0.7878E-02  0.4014E-01  0.4014E-01
      0.176  0.4924E-02  0.4924E-02  0.4053E-01  0.4053E-01
      0.254  0.2265E-02  0.2265E-02  0.4071E-01  0.4071E-01
      0.332  0.4121E-03  0.4120E-03  0.4074E-01  0.4074E-01
      0.411 -0.3592E-03 -0.3592E-03  0.4071E-01  0.4071E-01
      0.489 -0.3334E-03 -0.3334E-03  0.4069E-01  0.4069E-01
      0.567  0.2558E-03  0.2560E-03  0.4071E-01  0.4071E-01
      0.646  0.1468E-02  0.1469E-02  0.4082E-01  0.4082E-01
      0.724  0.2976E-02  0.2976E-02  0.4105E-01  0.4105E-01
      0.802  0.3698E-02  0.3698E-02  0.4134E-01  0.4134E-01
      0.881  0.2914E-02  0.2914E-02  0.4157E-01  0.4157E-01
      0.959  0.1377E-02  0.1377E-02  0.4168E-01  0.4168E-01
      1.037  0.3975E-03  0.3975E-03  0.4171E-01  0.4171E-01
      1.116  0.2872E-03  0.2873E-03  0.4173E-01  0.4173E-01
      1.194  0.4378E-03  0.4378E-03  0.4177E-01  0.4177E-01
      1.272  0.3750E-03  0.3749E-03  0.4180E-01  0.4180E-01
      1.351  0.1585E-03  0.1585E-03  0.4181E-01  0.4181E-01
      1.429  0.6467E-05  0.6441E-05  0.4181E-01  0.4181E-01
      1.508 -0.3039E-04 -0.3039E-04  0.4181E-01  0.4181E-01
      1.586 -0.1833E-04 -0.1832E-04  0.4181E-01  0.4181E-01
      1.664 -0.6169E-05 -0.6167E-05  0.4181E-01  0.4181E-01
      1.743 -0.3893E-05 -0.3893E-05  0.4181E-01  0.4181E-01
      1.821 -0.1613E-04 -0.1613E-04  0.4180E-01  0.4180E-01
      1.899 -0.6366E-04 -0.6367E-04  0.4180E-01  0.4180E-01
      1.978 -0.1543E-03 -0.1543E-03  0.4179E-01  0.4179E-01
      2.056 -0.1402E-03 -0.1402E-03  0.4178E-01  0.4178E-01
      2.134  0.3965E-03  0.3966E-03  0.4181E-01  0.4181E-01
      2.213  0.1719E-02  0.1719E-02  0.4194E-01  0.4194E-01
      2.291  0.3128E-02  0.3128E-02  0.4219E-01  0.4219E-01
      2.369  0.3336E-02  0.3336E-02  0.4245E-01  0.4245E-01
      2.448  0.2125E-02  0.2125E-02  0.4261E-01  0.4261E-01
      2.526  0.6680E-03  0.6678E-03  0.4267E-01  0.4267E-01
      2.604 -0.7226E-04 -0.7231E-04  0.4266E-01  0.4266E-01
      2.683 -0.1731E-03 -0.1731E-03  0.4265E-01  0.4265E-01
      2.761 -0.8437E-04 -0.8435E-04  0.4264E-01  0.4264E-01
      2.839 -0.2371E-04 -0.2370E-04  0.4264E-01  0.4264E-01
      2.918 -0.4397E-05 -0.4395E-05  0.4264E-01  0.4264E-01
      2.996 -0.5640E-06 -0.5638E-06  0.4264E-01  0.4264E-01
      3.074 -0.5116E-07 -0.5114E-07  0.4264E-01  0.4264E-01
      3.153 -0.3321E-08 -0.3320E-08  0.4264E-01  0.4264E-01
      3.231 -0.1559E-09 -0.1558E-09  0.4264E-01  0.4264E-01
      3.309 -0.1913E-10 -0.1913E-10  0.4264E-01  0.4264E-01
      3.388 -0.3737E-09 -0.3739E-09  0.4264E-01  0.4264E-01
      3.466 -0.7295E-08 -0.7299E-08  0.4264E-01  0.4264E-01
      3.544 -0.1026E-06 -0.1026E-06  0.4264E-01  0.4264E-01
      3.623 -0.1030E-05 -0.1030E-05  0.4264E-01  0.4264E-01
      3.701 -0.7278E-05 -0.7281E-05  0.4264E-01  0.4264E-01
      3.779 -0.3530E-04 -0.3531E-04  0.4264E-01  0.4264E-01
      3.858 -0.1110E-03 -0.1110E-03  0.4263E-01  0.4263E-01
      3.936 -0.1886E-03 -0.1886E-03  0.4261E-01  0.4261E-01
      4.014  0.1678E-04  0.1689E-04  0.4261E-01  0.4261E-01
      4.093  0.9234E-03  0.9237E-03  0.4269E-01  0.4269E-01
      4.171  0.2397E-02  0.2397E-02  0.4287E-01  0.4287E-01
      4.249  0.3497E-02  0.3497E-02  0.4315E-01  0.4315E-01
      4.328  0.3676E-02  0.3676E-02  0.4344E-01  0.4344E-01
      4.406  0.3501E-02  0.3501E-02  0.4371E-01  0.4371E-01
      4.485  0.3342E-02  0.3342E-02  0.4397E-01  0.4397E-01
      4.563  0.2693E-02  0.2693E-02  0.4418E-01  0.4418E-01
      4.641  0.1423E-02  0.1423E-02  0.4429E-01  0.4429E-01
      4.720  0.2846E-03  0.2846E-03  0.4432E-01  0.4432E-01
      4.798 -0.4289E-04 -0.4288E-04  0.4431E-01  0.4431E-01
      4.876  0.4977E-03  0.4978E-03  0.4435E-01  0.4435E-01
      4.955  0.1465E-02  0.1465E-02  0.4447E-01  0.4447E-01
      5.033  0.2100E-02  0.2100E-02  0.4463E-01  0.4463E-01
      5.111  0.1861E-02  0.1861E-02  0.4478E-01  0.4478E-01
      5.190  0.9934E-03  0.9930E-03  0.4485E-01  0.4485E-01
      5.268  0.1892E-03  0.1889E-03  0.4487E-01  0.4487E-01
      5.346 -0.1584E-03 -0.1575E-03  0.4486E-01  0.4486E-01
      5.425 -0.2527E-04 -0.2189E-04  0.4486E-01  0.4486E-01
      5.503  0.5407E-03  0.5456E-03  0.4490E-01  0.4490E-01
      5.581  0.1322E-02  0.1324E-02  0.4500E-01  0.4500E-01
      5.660  0.1892E-02  0.1890E-02  0.4515E-01  0.4515E-01
      5.738  0.2240E-02  0.2236E-02  0.4532E-01  0.4533E-01
      5.816  0.2946E-02  0.2943E-02  0.4556E-01  0.4556E-01
      5.895  0.4003E-02  0.4003E-02  0.4587E-01  0.4587E-01
      5.973  0.4272E-02  0.4272E-02  0.4620E-01  0.4620E-01
      6.051  0.3063E-02  0.3063E-02  0.4644E-01  0.4644E-01
      6.130  0.1246E-02  0.1246E-02  0.4654E-01  0.4654E-01
      6.208  0.3186E-04  0.3172E-04  0.4654E-01  0.4654E-01
      6.286 -0.2212E-03 -0.2212E-03  0.4653E-01  0.4653E-01
      6.365  0.3047E-03  0.3047E-03  0.4655E-01  0.4655E-01
      6.443  0.1279E-02  0.1279E-02  0.4665E-01  0.4665E-01
      6.521  0.2075E-02  0.2075E-02  0.4681E-01  0.4681E-01
      6.600  0.2180E-02  0.2181E-02  0.4698E-01  0.4698E-01
      6.678  0.1872E-02  0.1875E-02  0.4713E-01  0.4713E-01
      6.756  0.1718E-02  0.1722E-02  0.4727E-01  0.4727E-01
      6.835  0.1679E-02  0.1681E-02  0.4740E-01  0.4740E-01
      6.913  0.1430E-02  0.1428E-02  0.4751E-01  0.4751E-01
      6.991  0.9861E-03  0.9825E-03  0.4759E-01  0.4759E-01
      7.070  0.5423E-03  0.5393E-03  0.4763E-01  0.4763E-01
      7.148  0.2027E-03  0.2012E-03  0.4764E-01  0.4764E-01
      7.226  0.7666E-05  0.7296E-05  0.4765E-01  0.4765E-01
      7.305 -0.7046E-04 -0.7041E-04  0.4764E-01  0.4764E-01
      7.383 -0.1420E-03 -0.1419E-03  0.4763E-01  0.4763E-01
      7.462 -0.2741E-03 -0.2741E-03  0.4761E-01  0.4761E-01
      7.540 -0.2152E-03 -0.2150E-03  0.4759E-01  0.4759E-01
      7.618  0.7445E-03  0.7453E-03  0.4765E-01  0.4765E-01
      7.697  0.2988E-02  0.2990E-02  0.4788E-01  0.4788E-01
      7.775  0.5269E-02  0.5270E-02  0.4830E-01  0.4830E-01
      7.853  0.5462E-02  0.5462E-02  0.4872E-01  0.4872E-01
      7.932  0.3316E-02  0.3314E-02  0.4898E-01  0.4898E-01
      8.010  0.8516E-03  0.8508E-03  0.4905E-01  0.4905E-01
      8.088 -0.1354E-03 -0.1350E-03  0.4904E-01  0.4904E-01
      8.167  0.6169E-03  0.6186E-03  0.4909E-01  0.4909E-01
      8.245  0.2277E-02  0.2279E-02  0.4927E-01  0.4927E-01
      8.323  0.3374E-02  0.3374E-02  0.4953E-01  0.4953E-01
      8.402  0.2871E-02  0.2869E-02  0.4976E-01  0.4976E-01
      8.480  0.1316E-02  0.1313E-02  0.4986E-01  0.4986E-01
      8.558  0.9276E-04  0.9238E-04  0.4987E-01  0.4987E-01
      8.637 -0.2962E-04 -0.2493E-04  0.4986E-01  0.4986E-01
      8.715  0.9643E-03  0.9753E-03  0.4994E-01  0.4994E-01
      8.793  0.2548E-02  0.2559E-02  0.5014E-01  0.5014E-01
      8.872  0.3527E-02  0.3529E-02  0.5041E-01  0.5042E-01
      8.950  0.3004E-02  0.2995E-02  0.5065E-01  0.5065E-01
      9.028  0.1937E-02  0.1930E-02  0.5080E-01  0.5080E-01
      9.107  0.2378E-02  0.2382E-02  0.5099E-01  0.5099E-01
      9.185  0.4552E-02  0.4561E-02  0.5134E-01  0.5135E-01
      9.263  0.6055E-02  0.6055E-02  0.5182E-01  0.5182E-01
      9.342  0.4951E-02  0.4941E-02  0.5221E-01  0.5221E-01
      9.420  0.2283E-02  0.2271E-02  0.5239E-01  0.5239E-01
      9.498  0.2571E-03  0.2516E-03  0.5241E-01  0.5241E-01
      9.577 -0.4499E-03 -0.4511E-03  0.5237E-01  0.5237E-01
      9.655 -0.4048E-03 -0.4029E-03  0.5234E-01  0.5234E-01
      9.733  0.1372E-03  0.1461E-03  0.5235E-01  0.5235E-01
      9.812  0.1342E-02  0.1358E-02  0.5245E-01  0.5246E-01
      9.890  0.2818E-02  0.2831E-02  0.5268E-01  0.5268E-01
      9.968  0.3685E-02  0.3686E-02  0.5296E-01  0.5297E-01
     10.047  0.3805E-02  0.3798E-02  0.5326E-01  0.5326E-01
     10.125  0.3681E-02  0.3674E-02  0.5355E-01  0.5355E-01
     10.203  0.3363E-02  0.3356E-02  0.5381E-01  0.5382E-01
     10.282  0.2968E-02  0.2962E-02  0.5405E-01  0.5405E-01
     10.360  0.3069E-02  0.3066E-02  0.5429E-01  0.5429E-01
     10.438  0.3351E-02  0.3350E-02  0.5455E-01  0.5455E-01
     10.517  0.2764E-02  0.2761E-02  0.5477E-01  0.5477E-01
     10.595  0.1366E-02  0.1362E-02  0.5487E-01  0.5487E-01
     10.674  0.2243E-03  0.2224E-03  0.5489E-01  0.5489E-01
     10.752 -0.1703E-03 -0.1706E-03  0.5488E-01  0.5488E-01
     10.830 -0.1398E-03 -0.1396E-03  0.5487E-01  0.5487E-01
     10.909 -0.5243E-04 -0.5226E-04  0.5486E-01  0.5486E-01
     10.987 -0.1370E-04 -0.1367E-04  0.5486E-01  0.5486E-01
     11.065 -0.8862E-05 -0.8942E-05  0.5486E-01  0.5486E-01
     11.144 -0.2055E-04 -0.2071E-04  0.5486E-01  0.5486E-01
     11.222 -0.2975E-04 -0.2967E-04  0.5486E-01  0.5486E-01
     11.300  0.2070E-04  0.2177E-04  0.5486E-01  0.5486E-01
     11.379  0.1993E-03  0.2017E-03  0.5487E-01  0.5487E-01
     11.457  0.4536E-03  0.4558E-03  0.5491E-01  0.5491E-01
     11.535  0.5753E-03  0.5752E-03  0.5495E-01  0.5495E-01
     11.614  0.4401E-03  0.4378E-03  0.5499E-01  0.5499E-01
     11.692  0.1854E-03  0.1831E-03  0.5500E-01  0.5500E-01
     11.770  0.1465E-04  0.1367E-04  0.5500E-01  0.5500E-01
     11.849 -0.3005E-04 -0.3009E-04  0.5500E-01  0.5500E-01
     11.927 -0.1938E-04 -0.1922E-04  0.5500E-01  0.5500E-01
     12.005 -0.6419E-05 -0.6334E-05  0.5500E-01  0.5500E-01
     12.084 -0.1362E-05 -0.1339E-05  0.5500E-01  0.5500E-01
     12.162 -0.1976E-06 -0.1935E-06  0.5500E-01  0.5500E-01
     12.240 -0.2015E-07 -0.1967E-07  0.5500E-01  0.5500E-01
     12.319 -0.1466E-08 -0.1426E-08  0.5500E-01  0.5500E-01
     12.397 -0.7670E-10 -0.7438E-10  0.5500E-01  0.5500E-01
     12.475 -0.2905E-11 -0.2808E-11  0.5500E-01  0.5500E-01
     12.554 -0.7992E-13 -0.7701E-13  0.5500E-01  0.5500E-01
     12.632 -0.1601E-14 -0.1538E-14  0.5500E-01  0.5500E-01
     12.710 -0.2323E-16 -0.2204E-16  0.5500E-01  0.5500E-01
     12.789 -0.3937E-18 -0.3937E-18  0.5500E-01  0.5500E-01
     12.867  0.0000E+00  0.0000E+00  0.5500E-01  0.5500E-01
     12.945  0.0000E+00  0.0000E+00  0.5500E-01  0.5500E-01
     13.024  0.0000E+00  0.0000E+00  0.5500E-01  0.5500E-01
     13.102  0.0000E+00  0.0000E+00  0.5500E-01  0.5500E-01
     13.180  0.0000E+00  0.0000E+00  0.5500E-01  0.5500E-01
     13.259  0.0000E+00  0.0000E+00  0.5500E-01  0.5500E-01
     13.337  0.0000E+00  0.0000E+00  0.5500E-01  0.5500E-01
     13.415  0.0000E+00  0.0000E+00  0.5500E-01  0.5500E-01
     13.494  0.0000E+00  0.0000E+00  0.5500E-01  0.5500E-01
