       N       E                     dE             d eps       ncg     rms          rms(c)
DAV:   1     0.547058781587E+03    0.54706E+03   -0.25312E+04   528   0.180E+03
DAV:   2     0.318515839177E+02   -0.51521E+03   -0.49280E+03   528   0.371E+02
DAV:   3    -0.246411592541E+02   -0.56493E+02   -0.52963E+02   544   0.173E+02
DAV:   4    -0.266313438227E+02   -0.19902E+01   -0.19785E+01   616   0.437E+01
DAV:   5    -0.266721783341E+02   -0.40835E-01   -0.40825E-01   640   0.515E+00    0.229E+01
DAV:   6    -0.223047555586E+02    0.43674E+01   -0.56135E+01   580   0.128E+02    0.119E+01
DAV:   7    -0.193990920901E+02    0.29057E+01   -0.14886E+01   596   0.806E+01    0.577E+00
DAV:   8    -0.190011398165E+02    0.39795E+00   -0.35164E+00   652   0.634E+01    0.514E+00
DAV:   9    -0.188489897084E+02    0.15215E+00   -0.11424E+00   776   0.257E+01    0.439E+00
DAV:  10    -0.184538528976E+02    0.39514E+00   -0.15412E+00   636   0.108E+01    0.333E+00
DAV:  11    -0.188284118331E+02   -0.37456E+00   -0.36718E-01   700   0.766E+00    0.245E+00
DAV:  12    -0.204883968711E+02   -0.16600E+01   -0.13606E+00   732   0.184E+01    0.108E+00
DAV:  13    -0.213011306914E+02   -0.81273E+00   -0.59006E-01   812   0.221E+01    0.108E+00
DAV:  14    -0.217389868538E+02   -0.43786E+00   -0.40539E-01   716   0.117E+01    0.569E-01
DAV:  15    -0.219048583111E+02   -0.16587E+00   -0.16635E-01   588   0.408E+00    0.385E-01
DAV:  16    -0.220112767128E+02   -0.10642E+00   -0.83820E-02   648   0.309E+00    0.352E-01
DAV:  17    -0.220499307405E+02   -0.38654E-01   -0.33756E-02   596   0.247E+00    0.278E-01
DAV:  18    -0.220955514659E+02   -0.45621E-01   -0.21368E-02   616   0.141E+00    0.267E-01
DAV:  19    -0.221171404114E+02   -0.21589E-01   -0.65582E-03   716   0.122E+00    0.255E-01
DAV:  20    -0.221566800043E+02   -0.39540E-01   -0.87279E-03   668   0.114E+00    0.231E-01
DAV:  21    -0.221990087305E+02   -0.42329E-01   -0.86891E-03   752   0.154E+00    0.180E-01
DAV:  22    -0.222948315370E+02   -0.95823E-01   -0.13693E-02   748   0.162E+00    0.145E-01
DAV:  23    -0.224161342687E+02   -0.12130E+00   -0.48015E-03   668   0.127E+00    0.137E-01
DAV:  24    -0.224613943736E+02   -0.45260E-01   -0.39278E-03   596   0.859E-01    0.905E-02
DAV:  25    -0.225199821531E+02   -0.58588E-01   -0.35764E-03   612   0.946E-01    0.803E-02
DAV:  26    -0.225291953657E+02   -0.92132E-02   -0.13903E-03   516   0.582E-01    0.323E-02
DAV:  27    -0.225328197004E+02   -0.36243E-02   -0.31963E-04   372   0.276E-01    0.229E-02
DAV:  28    -0.225334268268E+02   -0.60713E-03   -0.93403E-05   372   0.236E-01    0.111E-02
DAV:  29    -0.225335022797E+02   -0.75453E-04   -0.56527E-05   324   0.114E-01
   1 F= -.24891648E+02 E0= -.24880355E+02  d E =-.248916E+02  mag=    -0.0005
       N       E                     dE             d eps       ncg     rms          rms(c)
DAV:   1    -0.225359841351E+02   -0.25573E-02   -0.28539E+00   556   0.733E+00    0.151E-01
DAV:   2    -0.225427620967E+02   -0.67780E-02   -0.71706E-02   852   0.567E+00    0.244E-01
DAV:   3    -0.225409528659E+02    0.18092E-02   -0.33852E-02   904   0.453E+00    0.138E-01
DAV:   4    -0.225404186578E+02    0.53421E-03   -0.28264E-03   540   0.156E+00    0.880E-02
DAV:   5    -0.225404238565E+02   -0.51987E-05   -0.75277E-04   464   0.389E-01
   2 F= -.24900715E+02 E0= -.24889442E+02  d E =-.906632E-02  mag=    -0.0005
       N       E                     dE             d eps       ncg     rms          rms(c)
DAV:   1    -0.225069172832E+02    0.33501E-01   -0.20990E+01   552   0.202E+01    0.419E-01
DAV:   2    -0.225615959994E+02   -0.54679E-01   -0.58105E-01   896   0.144E+01    0.653E-01
DAV:   3    -0.225459352842E+02    0.15661E-01   -0.22954E-01   904   0.130E+01    0.392E-01
DAV:   4    -0.225425891521E+02    0.33461E-02   -0.20127E-02   904   0.399E+00    0.246E-01
DAV:   5    -0.225423482624E+02    0.24089E-03   -0.28683E-03   616   0.778E-01    0.193E-01
DAV:   6    -0.225417910803E+02    0.55718E-03   -0.24693E-03   720   0.129E+00    0.632E-02
DAV:   7    -0.225417292073E+02    0.61873E-04   -0.39229E-04   392   0.877E-01
   3 F= -.24907776E+02 E0= -.24896345E+02  d E =-.161281E-01  mag=    -0.0004
       N       E                     dE             d eps       ncg     rms          rms(c)
DAV:   1    -0.225422473860E+02   -0.45631E-03   -0.11712E+00   552   0.450E+00    0.667E-02
DAV:   2    -0.225447598093E+02   -0.25124E-02   -0.26446E-02   848   0.222E+00    0.120E-01
DAV:   3    -0.225440301819E+02    0.72963E-03   -0.80249E-03   628   0.243E+00    0.766E-02
DAV:   4    -0.225440368543E+02   -0.66724E-05   -0.69658E-04   488   0.427E-01
   4 F= -.24908714E+02 E0= -.24897296E+02  d E =-.170652E-01  mag=    -0.0003
       N       E                     dE             d eps       ncg     rms          rms(c)
DAV:   1    -0.225396100473E+02    0.44201E-02   -0.34959E+00   552   0.829E+00    0.124E-01
DAV:   2    -0.225460084047E+02   -0.63984E-02   -0.65517E-02   800   0.311E+00    0.166E-01
DAV:   3    -0.225456482598E+02    0.36014E-03   -0.11489E-02   712   0.282E+00    0.105E-01
DAV:   4    -0.225453397792E+02    0.30848E-03   -0.22599E-03   504   0.121E+00    0.824E-02
DAV:   5    -0.225452981499E+02    0.41629E-04   -0.46888E-04   408   0.557E-01
   5 F= -.24914386E+02 E0= -.24902945E+02  d E =-.567223E-02  mag=    -0.0003
       N       E                     dE             d eps       ncg     rms          rms(c)
DAV:   1    -0.224855190234E+02    0.59821E-01   -0.32231E+01   552   0.265E+01    0.424E-01
DAV:   2    -0.225502374487E+02   -0.64718E-01   -0.66846E-01   812   0.117E+01    0.596E-01
DAV:   3    -0.225444476803E+02    0.57898E-02   -0.14046E-01   824   0.991E+00    0.375E-01
DAV:   4    -0.225410953689E+02    0.33523E-02   -0.21691E-02   872   0.382E+00    0.290E-01
DAV:   5    -0.225405836984E+02    0.51167E-03   -0.36043E-03   616   0.129E+00    0.237E-01
DAV:   6    -0.225395069665E+02    0.10767E-02   -0.41142E-03   796   0.192E+00    0.739E-02
DAV:   7    -0.225393916880E+02    0.11528E-03   -0.67440E-04   420   0.642E-01
   6 F= -.24921946E+02 E0= -.24910097E+02  d E =-.132325E-01  mag=    -0.0002
       N       E                     dE             d eps       ncg     rms          rms(c)
DAV:   1    -0.225336069490E+02    0.59000E-02   -0.44189E+00   568   0.966E+00    0.150E-01
DAV:   2    -0.225411428163E+02   -0.75359E-02   -0.78035E-02   808   0.305E+00    0.174E-01
DAV:   3    -0.225410249010E+02    0.11792E-03   -0.10409E-02   672   0.277E+00    0.122E-01
DAV:   4    -0.225405951093E+02    0.42979E-03   -0.32591E-03   536   0.146E+00    0.959E-02
DAV:   5    -0.225404873885E+02    0.10772E-03   -0.66817E-04   464   0.570E-01
   7 F= -.24927607E+02 E0= -.24915848E+02  d E =-.566081E-02  mag=    -0.0002
       N       E                     dE             d eps       ncg     rms          rms(c)
DAV:   1    -0.224667587382E+02    0.73836E-01   -0.40655E+01   568   0.309E+01    0.455E-01
DAV:   2    -0.225432533587E+02   -0.76495E-01   -0.79324E-01   808   0.106E+01    0.581E-01
DAV:   3    -0.225400294008E+02    0.32240E-02   -0.11582E-01   856   0.887E+00    0.406E-01
DAV:   4    -0.225364035003E+02    0.36259E-02   -0.25174E-02   808   0.437E+00    0.328E-01
DAV:   5    -0.225351917577E+02    0.12117E-02   -0.44585E-03   712   0.143E+00    0.240E-01
DAV:   6    -0.225339432990E+02    0.12485E-02   -0.47240E-03   856   0.209E+00    0.699E-02
DAV:   7    -0.225338618005E+02    0.81498E-04   -0.87742E-04   520   0.106E+00
   8 F= -.24934908E+02 E0= -.24923146E+02  d E =-.129620E-01  mag=    -0.0001
       N       E                     dE             d eps       ncg     rms          rms(c)
DAV:   1    -0.225213171575E+02    0.12626E-01   -0.87358E+00   568   0.141E+01    0.204E-01
DAV:   2    -0.225363109671E+02   -0.14994E-01   -0.15549E-01   796   0.364E+00    0.229E-01
DAV:   3    -0.225360042161E+02    0.30675E-03   -0.90986E-03   672   0.263E+00    0.165E-01
DAV:   4    -0.225355715457E+02    0.43267E-03   -0.48665E-03   536   0.189E+00    0.143E-01
DAV:   5    -0.225352182241E+02    0.35332E-03   -0.99772E-04   488   0.792E-01    0.100E-01
DAV:   6    -0.225350584848E+02    0.15974E-03   -0.14137E-03   636   0.880E-01
   9 F= -.24940826E+02 E0= -.24928924E+02  d E =-.591764E-02  mag=    -0.0001
       N       E                     dE             d eps       ncg     rms          rms(c)
DAV:   1    -0.224484207301E+02    0.86797E-01   -0.81721E+01   616   0.467E+01    0.546E-01
DAV:   2    -0.225371837589E+02   -0.88763E-01   -0.94822E-01   760   0.103E+01    0.648E-01
DAV:   3    -0.225341603473E+02    0.30234E-02   -0.51004E-02   680   0.684E+00    0.426E-01
DAV:   4    -0.225326202181E+02    0.15401E-02   -0.32403E-02   768   0.515E+00    0.389E-01
DAV:   5    -0.225293213688E+02    0.32988E-02   -0.14295E-02   952   0.299E+00    0.230E-01
DAV:   6    -0.225281072316E+02    0.12141E-02   -0.65154E-03   920   0.206E+00    0.679E-02
DAV:   7    -0.225280617851E+02    0.45447E-04   -0.68891E-04   516   0.760E-01
  10 F= -.24948309E+02 E0= -.24936144E+02  d E =-.134007E-01  mag=    -0.0001
       N       E                     dE             d eps       ncg     rms          rms(c)
DAV:   1    -0.225264434305E+02    0.16638E-02   -0.33514E+00   560   0.870E+00    0.114E-01
DAV:   2    -0.225319178356E+02   -0.54744E-02   -0.57190E-02   784   0.209E+00    0.146E-01
DAV:   3    -0.225316913279E+02    0.22651E-03   -0.85475E-04   496   0.728E-01    0.109E-01
DAV:   4    -0.225315936758E+02    0.97652E-04   -0.14534E-04   328   0.400E-01
  11 F= -.24948807E+02 E0= -.24936659E+02  d E =-.138994E-01  mag=    -0.0001
       N       E                     dE             d eps       ncg     rms          rms(c)
DAV:   1    -0.225299998589E+02    0.16915E-02   -0.30236E-01   568   0.271E+00    0.418E-02
DAV:   2    -0.225314674167E+02   -0.14676E-02   -0.15132E-02   936   0.261E+00    0.107E-01
DAV:   3    -0.225304266759E+02    0.10407E-02   -0.73301E-03   440   0.220E+00    0.279E-02
DAV:   4    -0.225304895022E+02   -0.62826E-04   -0.76530E-04   440   0.327E-01
  12 F= -.24948618E+02 E0= -.24936511E+02  d E =-.137097E-01  mag=    -0.0001
       N       E                     dE             d eps       ncg     rms          rms(c)
DAV:   1    -0.225258194055E+02    0.46073E-02   -0.14159E+00   560   0.543E+00    0.715E-02
DAV:   2    -0.225281136310E+02   -0.22942E-02   -0.23792E-02   752   0.131E+00    0.849E-02
DAV:   3    -0.225280471784E+02    0.66453E-04   -0.36920E-04   352   0.561E-01
  13 F= -.24949039E+02 E0= -.24936903E+02  d E =-.421671E-03  mag=    -0.0001
       N       E                     dE             d eps       ncg     rms          rms(c)
DAV:   1    -0.225286060040E+02   -0.49237E-03   -0.16363E-01   576   0.195E+00    0.638E-02
DAV:   2    -0.225292508165E+02   -0.64481E-03   -0.67888E-03   800   0.170E+00    0.685E-02
DAV:   3    -0.225288788552E+02    0.37196E-03   -0.44992E-03   480   0.188E+00    0.317E-02
DAV:   4    -0.225288643177E+02    0.14537E-04   -0.36411E-04   352   0.535E-01
  14 F= -.24948867E+02 E0= -.24936756E+02  d E =-.249656E-03  mag=    -0.0001
       N       E                     dE             d eps       ncg     rms          rms(c)
DAV:   1    -0.225282433999E+02    0.63546E-03   -0.57512E-02   568   0.111E+00    0.203E-02
DAV:   2    -0.225283402725E+02   -0.96873E-04   -0.10318E-03   552   0.378E-01
  15 F= -.24948926E+02 E0= -.24936786E+02  d E =-.308629E-03  mag=    -0.0001
