 vasp.6.3.2 27Jun22 (build Aug 17 2022 15:43:34) complex                        
  
 executed on           tv2STDVTST date 2025.01.17  13:52:40
 running   20 mpi-ranks, with    1 threads/rank
 distrk:  each k-point on   20 cores,    1 groups
 distr:  one band on NCORE=   5 cores,    4 groups


--------------------------------------------------------------------------------------------------------


 -----------------------------------------------------------------------------
|                                                                             |
|           W    W    AA    RRRRR   N    N  II  N    N   GGGG   !!!           |
|           W    W   A  A   R    R  NN   N  II  NN   N  G    G  !!!           |
|           W    W  A    A  R    R  N N  N  II  N N  N  G       !!!           |
|           W WW W  AAAAAA  RRRRR   N  N N  II  N  N N  G  GGG   !            |
|           WW  WW  A    A  R   R   N   NN  II  N   NN  G    G                |
|           W    W  A    A  R    R  N    N  II  N    N   GGGG   !!!           |
|                                                                             |
|     Found issues when parsing the INCAR file                                |
|     In line 64: Tagname --- R W I G S contains invalid characters.          |
|     Please check if the interpretation in the OUTCAR file is correct.       |
|                                                                             |
 -----------------------------------------------------------------------------

 INCAR:
    = \=\=\=\=\=\=\=\=\=\=\=\=\=\=\=\=\=\=\=\=\=\=\=\=\=\=\=\=\=\=\=\=\=\=\=\=\=\=\=\=\=\=\=\=\=\=\=\=\=\=\=\=\=\=\=\=\=\=\=\=\=\=\=\=\=\=\=\=\=\=\=\=
    = \=\=\=\=\=\=\=\=\=\=\=\=\=\=\=\=\=\=\=\=\=\=\=\=\=\=\=\=\=\=\=\=\=\=\=\=\=\=\=\=\=\=\=\=\=\=\=\=\=\=\=\=\=\=\=\=\=\=\=\=\=\=\=\=\=\=\=\=\=\=\=\=
   ISTART = 0
   ICHARG = 2
   IPIPOL = 3
   IVDW = 11
   IDIPOL = 3
   IVDW = 11
    = \=\=\=\=\=\=\=\=\=\=\=\=\=\=\=\=\=\=\=\=\=\=\=\=\=\=\=\=\=\=\=\=\=\=\=\=\=\=\=\=\=\=\=\=\=\=\=\=\=\=\=\=\=\=\=\=\=\=\=\=\=\=\=\=\=\=\=\=\=\=\=\=
    = \=\=\=\=\=\=\=\=\=\=\=\=\=\=\=\=\=\=\=\=\=\=\=\=\=\=\=\=\=\=\=\=\=\=\=\=\=\=\=\=\=\=\=\=\=\=\=\=\=\=\=\=\=\=\=\=\=\=\=\=\=\=\=\=\=\=\=\=\=\=\=\=
   ISPIN = 2
    = \=\=\=\=\=\=\=\=\=\=\=\=\=\=\=\=\=\=\=\=\=\=\=\=\=\=\=\=\=\=\=\=\=\=\=\=\=\=\=\=\=\=\=\=\=\=\=\=\=\=\=\=\=\=\=\=\=\=\=\=\=\=\=\=\=\=\=\=\=\=\=\=
    = \=\=\=\=\=\=\=\=\=\=\=\=\=\=\=\=\=\=\=\=\=\=\=\=\=\=\=\=\=\=\=\=\=\=\=\=\=\=\=\=\=\=\=\=\=\=\=\=\=\=\=\=\=\=\=\=\=\=\=\=\=\=\=\=\=\=\=\=\=\=\=\=
   ENCUT = 400
   PREC = Normal
   EDIFF = 2E-04
   GGA = PE
   ISMEAR = 1
   SIGMA = 0.2
   LREAL = .FALSE.
    = \=\=\=\=\=\=\=\=\=\=\=\=\=\=\=\=\=\=\=\=\=\=\=\=\=\=\=\=\=\=\=\=\=\=\=\=\=\=\=\=\=\=\=\=\=\=\=\=\=\=\=\=\=\=\=\=\=\=\=\=\=\=\=\=\=\=\=\=\=\=\=\=
    = \=\=\=\=\=\=\=\=\=\=\=\=\=\=\=\=\=\=\=\=\=\=\=\=\=\=\=\=\=\=\=\=\=\=\=\=\=\=\=\=\=\=\=\=\=\=\=\=\=\=\=\=\=\=\=\=\=\=\=\=\=\=\=\=\=\=\=\=\=\=\=\=
   ISYM = 1
   NSW = 800
   IBRION = 2
   POTIM = 0.5
   ISIF = 2
   EDIFFG = -.03
    = \=\=\=\=\=\=\=\=\=\=\=\=\=\=\=\=\=\=\=\=\=\=\=\=\=\=\=\=\=\=\=\=\=\=\=\=\=\=\=\=\=\=\=\=\=\=\=\=\=\=\=\=\=\=\=\=\=\=\=\=\=\=\=\=\=\=\=\=\=\=\=\=
    = \=\=\=\=\=\=\=\=\=\=\=\=\=\=\=\=\=\=\=\=\=\=\=\=\=\=\=\=\=\=\=\=\=\=\=\=\=\=\=\=\=\=\=\=\=\=\=\=\=\=\=\=\=\=\=\=\=\=\=\=\=\=\=\=\=\=\=\=\=\=\=\=
   NPAR = 4
   LWAVE = .FALSE.
   LCHARG = .FALSE.

 POTCAR:    PAW_PBE Cu 22Jun2005                  
 -----------------------------------------------------------------------------
|                                                                             |
|           W    W    AA    RRRRR   N    N  II  N    N   GGGG   !!!           |
|           W    W   A  A   R    R  NN   N  II  NN   N  G    G  !!!           |
|           W    W  A    A  R    R  N N  N  II  N N  N  G       !!!           |
|           W WW W  AAAAAA  RRRRR   N  N N  II  N  N N  G  GGG   !            |
|           WW  WW  A    A  R   R   N   NN  II  N   NN  G    G                |
|           W    W  A    A  R    R  N    N  II  N    N   GGGG   !!!           |
|                                                                             |
|     You use a magnetic or noncollinear calculation, but did not specify     |
|     the initial magnetic moment with the MAGMOM tag. Note that a            |
|     default of 1 will be used for all atoms. This ferromagnetic setup       |
|     may break the symmetry of the crystal, in particular it may rule        |
|     out finding an antiferromagnetic solution. Thence, we recommend         |
|     setting the initial magnetic moment manually or verifying carefully     |
|     that this magnetic setup is desired.                                    |
|                                                                             |
 -----------------------------------------------------------------------------

 POTCAR:    PAW_PBE Cu 22Jun2005                  
   SHA256 =  0e71e558f37a4e8407882b4609ceaae59938afaad9ced71dfe8490308a0ab630 Cu/POTCAR             
   COPYR  = (c) Copyright 22Jun2005 Georg Kresse                                                    
   COPYR  = This file is part of the software VASP. Any use, copying, and all other rights are regul
   COPYR  = If you do not have a valid VASP license, you may not use, copy or distribute this file. 
   VRHFIN =Cu: d10 p1                                                                               
   LEXCH  = PE                                                                                      
   EATOM  =  1390.9808 eV,  102.2342 Ry                                                             
                                                                                                    
   TITEL  = PAW_PBE Cu 22Jun2005                                                                    
   LULTRA =        F    use ultrasoft PP ?                                                          
   IUNSCR =        1    unscreen: 0-lin 1-nonlin 2-no                                               
   RPACOR =    2.000    partial core radius                                                         
   POMASS =   63.546; ZVAL   =   11.000    mass and valenz                                          
   RCORE  =    2.300    outmost cutoff radius                                                       
   RWIGS  =    2.200; RWIGS  =    1.164    wigner-seitz radius (au A)                               
   ENMAX  =  295.446; ENMIN  =  221.585 eV                                                          
   ICORE  =        3    local potential                                                             
   LCOR   =        T    correct aug charges                                                         
   LPAW   =        T    paw PP                                                                      
   EAUG   =  586.980                                                                                
   DEXC   =    0.000                                                                                
   RMAX   =    2.344    core radius for proj-oper                                                   
   RAUG   =    1.300    factor for augmentation sphere                                              
   RDEP   =    2.302    radius for radial grids                                                     
   RDEPT  =    1.771    core radius for aug-charge                                                  
                                                                                                    
   Atomic configuration                                                                             
    9 entries                                                                                       
     n  l   j            E        occ.                                                              
     1  0  0.50     -8850.2468   2.0000                                                             
     2  0  0.50     -1062.3498   2.0000                                                             
     2  1  1.50      -916.8226   6.0000                                                             
     3  0  0.50      -114.6929   2.0000                                                             
     3  1  1.50       -72.1325   6.0000                                                             
     3  2  2.50        -5.0394  10.0000                                                             
     4  0  0.50        -4.6097   1.0000                                                             
     4  1  0.50        -4.0817   0.0000                                                             
     4  3  2.50        -1.3606   0.0000                                                             
   Description                                                                                      
     l       E           TYP  RCUT    TYP  RCUT                                                     
     2     -5.0393973     23  2.200                                                                 
     2     10.8846608     23  2.200                                                                 
     0     -4.6097109     23  2.200                                                                 
     0      8.2520465     23  2.200                                                                 
     1     -2.7211652     23  2.200                                                                 
     1     21.7055443     23  2.200                                                                 
     3      2.7211652     23  2.300                                                                 
  local pseudopotential read in
  partial core-charges read in
  partial kinetic energy density read in
  atomic valenz-charges read in
  non local Contribution for L=           2  read in
    real space projection operators read in
  non local Contribution for L=           2  read in
    real space projection operators read in
  non local Contribution for L=           0  read in
    real space projection operators read in
  non local Contribution for L=           0  read in
    real space projection operators read in
  non local Contribution for L=           1  read in
    real space projection operators read in
  non local Contribution for L=           1  read in
    real space projection operators read in
    PAW grid and wavefunctions read in
 
   number of l-projection  operators is LMAX  =           6
   number of lm-projection operators is LMMAX =          18
 
  PAW_PBE Cu 22Jun2005                  :
 energy of atom  1       EATOM=-1390.9808
 kinetic energy error for atom=    0.0232 (will be added to EATOM!!)
 
 
 POSCAR: FCC Cu
  positions in cartesian coordinates
  velocities in cartesian coordinates
  No initial velocities read in
 exchange correlation table for  LEXCH =        8
   RHO(1)=    0.500       N(1)  =     2000
   RHO(2)=  100.500       N(2)  =     4000

 VTST: version 4.2, (08/11/21)

 CHAIN: initializing optimizer
 
 OPT: Using VASP Conjugate-Gradient optimizer
 CHAIN: Read ICHAIN            0
 
 POSCAR: FCC Cu
  positions in cartesian coordinates
  velocities in cartesian coordinates
  No initial velocities read in
 


--------------------------------------------------------------------------------------------------------


 ion  position               nearest neighbor table
   1  0.000  0.000  0.000-   2 2.57   2 2.57   2 2.57
   2  0.333  0.333  0.082-   3 2.57   1 2.57   1 2.57   3 2.57   1 2.57   3 2.57
   3  0.667  0.667  0.165-   2 2.57   2 2.57   2 2.57   4 2.57   4 2.57   4 2.57
   4  0.000  0.000  0.247-   5 2.57   5 2.57   5 2.57   3 2.57   3 2.57   3 2.57
   5  0.333  0.333  0.329-   6 2.57   6 2.57   6 2.57   4 2.57   4 2.57   4 2.57
   6  0.667  0.667  0.411-   5 2.57   5 2.57   5 2.57
 
  LATTYP: Found a hexagonal cell.
 ALAT       =     2.5667977333
 C/A-ratio  =     9.9263402641
  
  Lattice vectors:
  
 A1 = (  -1.2833988667,  -2.2229120434,   0.0000000000)
 A2 = (   2.5667977333,   0.0000000000,   0.0000000000)
 A3 = (   0.0000000000,   0.0000000000,  25.4789076900)


Analysis of symmetry for initial positions (statically):
=====================================================================
 Subroutine PRICEL returns:
 Original cell was already a primitive cell.
 

 Routine SETGRP: Setting up the symmetry group for a 
 hexagonal supercell.


 Subroutine GETGRP returns: Found 12 space group operations
 (whereof  6 operations were pure point group operations)
 out of a pool of 24 trial point group operations.


The static configuration has the point symmetry C_3v.
 The point group associated with its full space group is D_3d.


Analysis of symmetry for dynamics (positions and initial velocities):
=====================================================================
 Subroutine PRICEL returns:
 Original cell was already a primitive cell.
 

 Routine SETGRP: Setting up the symmetry group for a 
 hexagonal supercell.


 Subroutine GETGRP returns: Found 12 space group operations
 (whereof  6 operations were pure point group operations)
 out of a pool of 24 trial point group operations.


The dynamic configuration has the point symmetry C_3v.
 The point group associated with its full space group is D_3d.


Analysis of constrained symmetry for selective dynamics:
=====================================================================
 Subroutine PRICEL returns:
 Original cell was already a primitive cell.
 

 Routine SETGRP: Setting up the symmetry group for a 
 hexagonal supercell.


 Subroutine GETGRP returns: Found  6 space group operations
 (whereof  6 operations were pure point group operations)
 out of a pool of 24 trial point group operations.


The constrained configuration has the point symmetry C_3v.


Analysis of structural, dynamic, and magnetic symmetry:
=====================================================================
 Subroutine PRICEL returns:
 Original cell was already a primitive cell.
 

 Routine SETGRP: Setting up the symmetry group for a 
 hexagonal supercell.


 Subroutine GETGRP returns: Found  6 space group operations
 (whereof  6 operations were pure point group operations)
 out of a pool of 24 trial point group operations.


The overall configuration has the point symmetry C_3v.


 Subroutine INISYM returns: Found  6 space group operations
 (whereof  6 operations are pure point group operations),
 and found     1 'primitive' translations


----------------------------------------------------------------------------------------

                                     Primitive cell                                     

  volume of cell :     145.3767

  direct lattice vectors                    reciprocal lattice vectors
     2.566797733  0.000000000  0.000000000     0.389590495 -0.224930177  0.000000000
     1.283398867  2.222912043  0.000000000     0.000000000  0.449860355  0.000000000
     0.000000000  0.000000000 25.478907690     0.000000000  0.000000000  0.039248150

  length of vectors
     2.566797733  2.566797733 25.478907690     0.449860355  0.449860355  0.039248150

  position of ions in fractional coordinates (direct lattice)
     0.000000000  0.000000000  0.000000000
     0.333333333  0.333333333  0.082255549
     0.666666667  0.666666667  0.164511098
     0.000000000  0.000000000  0.246766647
     0.333333333  0.333333333  0.329022196
     0.666666667  0.666666667  0.411277745

  ion indices of the primitive-cell ions
   primitive index   ion index
                 1           1
                 2           2
                 3           3
                 4           4
                 5           5
                 6           6

----------------------------------------------------------------------------------------

 
 
 KPOINTS: Auto-mesh                               

Automatic generation of k-mesh.
 Grid dimensions read from file:
 generate k-points for:    3    3    1

 Generating k-lattice:

  Cartesian coordinates                     Fractional coordinates (reciprocal lattice)
     0.129863498 -0.074976726  0.000000000     0.333333333  0.000000000  0.000000000
     0.000000000  0.149953452  0.000000000     0.000000000  0.333333333  0.000000000
     0.000000000  0.000000000  0.039248150     0.000000000  0.000000000  1.000000000

  Length of vectors
     0.149953452  0.149953452  0.039248150

  Shift w.r.t. Gamma in fractional coordinates (k-lattice)
     0.000000000  0.000000000  0.000000000

 
 Subroutine IBZKPT returns following result:
 ===========================================
 
 Found      3 irreducible k-points:
 
 Following reciprocal coordinates:
            Coordinates               Weight
  0.000000  0.000000  0.000000      1.000000
  0.333333  0.000000  0.000000      6.000000
 -0.333333  0.333333  0.000000      2.000000
 
 Following cartesian coordinates:
            Coordinates               Weight
  0.000000  0.000000  0.000000      1.000000
  0.129863 -0.074977  0.000000      6.000000
 -0.129863  0.224930  0.000000      2.000000
 


--------------------------------------------------------------------------------------------------------




 Dimension of arrays:
   k-points           NKPTS =      3   k-points in BZ     NKDIM =      3   number of bands    NBANDS=     44
   number of dos      NEDOS =    301   number of ions     NIONS =      6
   non local maximal  LDIM  =      6   non local SUM 2l+1 LMDIM =     18
   total plane-waves  NPLWV =  24696
   max r-space proj   IRMAX =      1   max aug-charges    IRDMAX=   5119
   dimension x,y,z NGX =    14 NGY =   14 NGZ =  126
   dimension x,y,z NGXF=    28 NGYF=   28 NGZF=  252
   support grid    NGXF=    28 NGYF=   28 NGZF=  252
   ions per type =               6
   NGX,Y,Z   is equivalent  to a cutoff of   9.07,  9.07,  8.22 a.u.
   NGXF,Y,Z  is equivalent  to a cutoff of  18.13, 18.13, 16.44 a.u.

 SYSTEM =  unknown system                          
 POSCAR =  FCC Cu                                  

 Startparameter for this run:
   NWRITE =      2    write-flag & timer
   PREC   = normal    normal or accurate (medium, high low for compatibility)
   ISTART =      0    job   : 0-new  1-cont  2-samecut
   ICHARG =      2    charge: 1-file 2-atom 10-const
   ISPIN  =      2    spin polarized calculation?
   LNONCOLLINEAR =      F non collinear calculations
   LSORBIT =      F    spin-orbit coupling
   INIWAV =      1    electr: 0-lowe 1-rand  2-diag
   LASPH  =      F    aspherical Exc in radial PAW
 Electronic Relaxation 1
   ENCUT  =  400.0 eV  29.40 Ry    5.42 a.u.   4.19  4.19 41.55*2*pi/ulx,y,z
   ENINI  =  400.0     initial cutoff
   ENAUG  =  587.0 eV  augmentation charge cutoff
   NELM   =     60;   NELMIN=  2; NELMDL= -5     # of ELM steps 
   EDIFF  = 0.2E-03   stopping-criterion for ELM
   LREAL  =      F    real-space projection
   NLSPLINE    = F    spline interpolate recip. space projectors
   LCOMPAT=      F    compatible to vasp.4.4
   GGA_COMPAT  = T    GGA compatible to vasp.4.4-vasp.4.6
   LMAXPAW     = -100 max onsite density
   LMAXMIX     =    2 max onsite mixed and CHGCAR
   VOSKOWN=      0    Vosko Wilk Nusair interpolation
   ROPT   =    0.00000
 Ionic relaxation
   EDIFFG = -.3E-01   stopping-criterion for IOM
   NSW    =    800    number of steps for IOM
   NBLOCK =      1;   KBLOCK =    800    inner block; outer block 
   IBRION =      2    ionic relax: 0-MD 1-quasi-New 2-CG
   NFREE  =      1    steps in history (QN), initial steepest desc. (CG)
   ISIF   =      2    stress and relaxation
   IWAVPR =     11    prediction:  0-non 1-charg 2-wave 3-comb
   ISYM   =      1    0-nonsym 1-usesym 2-fastsym
   LCORR  =      T    Harris-Foulkes like correction to forces

   POTIM  = 0.5000    time-step for ionic-motion
   TEIN   =    0.0    initial temperature
   TEBEG  =    0.0;   TEEND  =   0.0 temperature during run
   SMASS  =  -3.00    Nose mass-parameter (am)
   estimated Nose-frequenzy (Omega)   =  0.10E-29 period in steps = 0.13E+47 mass=  -0.151E-27a.u.
   SCALEE = 1.0000    scale energy and forces
   NPACO  =    256;   APACO  = 10.0  distance and # of slots for P.C.
   PSTRESS=    0.0 pullay stress

  Mass of Ions in am
   POMASS =  63.55
  Ionic Valenz
   ZVAL   =  11.00
  Atomic Wigner-Seitz radii
   RWIGS  =  -1.00
  virtual crystal weights 
   VCA    =   1.00
   NELECT =      66.0000    total number of electrons
   NUPDOWN=      -1.0000    fix difference up-down

 DOS related values:
   EMIN   =  10.00;   EMAX   =-10.00  energy-range for DOS
   EFERMI =   0.00
   ISMEAR =     1;   SIGMA  =   0.20  broadening in eV -4-tet -1-fermi 0-gaus

 Electronic relaxation 2 (details)
   IALGO  =     38    algorithm
   LDIAG  =      T    sub-space diagonalisation (order eigenvalues)
   LSUBROT=      F    optimize rotation matrix (better conditioning)
   TURBO    =      0    0=normal 1=particle mesh
   IRESTART =      0    0=no restart 2=restart with 2 vectors
   NREBOOT  =      0    no. of reboots
   NMIN     =      0    reboot dimension
   EREF     =   0.00    reference energy to select bands
   IMIX   =      4    mixing-type and parameters
     AMIX     =   0.40;   BMIX     =  1.00
     AMIX_MAG =   1.60;   BMIX_MAG =  1.00
     AMIN     =   0.10
     WC   =   100.;   INIMIX=   1;  MIXPRE=   1;  MAXMIX= -45

 Intra band minimization:
   WEIMIN = 0.0010     energy-eigenvalue tresh-hold
   EBREAK =  0.11E-05  absolut break condition
   DEPER  =   0.30     relativ break condition  

   TIME   =   0.40     timestep for ELM

  volume/ion in A,a.u.               =      24.23       163.51
  Fermi-wavevector in a.u.,A,eV,Ry     =   1.258224  2.377698 21.539753  1.583127
  Thomas-Fermi vector in A             =   2.391844
 
 Write flags
   LWAVE        =      F    write WAVECAR
   LDOWNSAMPLE  =      F    k-point downsampling of WAVECAR
   LCHARG       =      F    write CHGCAR
   LVTOT        =      F    write LOCPOT, total local potential
   LVHAR        =      F    write LOCPOT, Hartree potential only
   LELF         =      F    write electronic localiz. function (ELF)
   LORBIT       =      0    0 simple, 1 ext, 2 COOP (PROOUT), +10 PAW based schemes


 Dipole corrections
   LMONO  =      F    monopole corrections only (constant potential shift)
   LDIPOL =      F    correct potential (dipole corrections)
   IDIPOL =      3    1-x, 2-y, 3-z, 4-all directions 
   EPSILON=  1.0000000 bulk dielectric constant

 Exchange correlation treatment:
   GGA     =    PE    GGA type
   LEXCH   =     8    internal setting for exchange type
   LIBXC   =     F    Libxc                    
   VOSKOWN =     0    Vosko Wilk Nusair interpolation
   LHFCALC =     F    Hartree Fock is set to
   LHFONE  =     F    Hartree Fock one center treatment
   AEXX    =    0.0000 exact exchange contribution

 Linear response parameters
   LEPSILON=     F    determine dielectric tensor
   LRPA    =     F    only Hartree local field effects (RPA)
   LNABLA  =     F    use nabla operator in PAW spheres
   LVEL    =     F    velocity operator in full k-point grid
   CSHIFT  =0.1000    complex shift for real part using Kramers Kronig
   OMEGAMAX=  -1.0    maximum frequency
   DEG_THRESHOLD= 0.2000000E-02 threshold for treating states as degnerate
   RTIME   =   -0.100 relaxation time in fs
  (WPLASMAI=    0.000 imaginary part of plasma frequency in eV, 0.658/RTIME)
   DFIELD  = 0.0000000 0.0000000 0.0000000 field for delta impulse in time
 
  Optional k-point grid parameters
   LKPOINTS_OPT  =     F    use optional k-point grid
   KPOINTS_OPT_MODE=     1    mode for optional k-point grid
 
 Orbital magnetization related:
   ORBITALMAG=     F  switch on orbital magnetization
   LCHIMAG   =     F  perturbation theory with respect to B field
   DQ        =  0.001000  dq finite difference perturbation B field
   LLRAUG    =     F  two centre corrections for induced B field



--------------------------------------------------------------------------------------------------------


 conjugate gradient relaxation of ions
   using selective dynamics as specified on POSCAR
   WARNING: If single coordinates had been selected the selection of coordinates
            is made according to the corresponding   d i r e c t   coordinates!
            Don't support selection of single cartesian coordinates -- sorry ...
  !
 charge density and potential will be updated during run
 spin polarized calculation
 Variant of blocked Davidson
 Davidson routine will perform the subspace rotation
 perform sub-space diagonalisation
    after iterative eigenvector-optimisation
 modified Broyden-mixing scheme, WC =      100.0
 initial mixing is a Kerker type mixing with AMIX =  0.4000 and BMIX =      1.0000
 Hartree-type preconditioning will be used
 using additional bands           11
 reciprocal scheme for non local part
 use partial core corrections
 calculate Harris-corrections to forces 
   (improved forces if not selfconsistent)
 use gradient corrections 
 use of overlap-Matrix (Vanderbilt PP)
 Methfessel and Paxton  Order N= 1 SIGMA  =   0.20


--------------------------------------------------------------------------------------------------------


  energy-cutoff  :      400.00
  volume of cell :      145.38
      direct lattice vectors                 reciprocal lattice vectors
     2.566797733  0.000000000  0.000000000     0.389590495 -0.224930177  0.000000000
     1.283398867  2.222912043  0.000000000     0.000000000  0.449860355  0.000000000
     0.000000000  0.000000000 25.478907690     0.000000000  0.000000000  0.039248150

  length of vectors
     2.566797733  2.566797733 25.478907690     0.449860355  0.449860355  0.039248150


 
 k-points in units of 2pi/SCALE and weight: Auto-mesh                               
   0.00000000  0.00000000  0.00000000       0.111
   0.12986350 -0.07497673  0.00000000       0.667
  -0.12986350  0.22493018  0.00000000       0.222
 
 k-points in reciprocal lattice and weights: Auto-mesh                               
   0.00000000  0.00000000  0.00000000       0.111
   0.33333333  0.00000000  0.00000000       0.667
  -0.33333333  0.33333333  0.00000000       0.222
 
 position of ions in fractional coordinates (direct lattice) 
   0.00000000  0.00000000  0.00000000
   0.33333333  0.33333333  0.08225555
   0.66666667  0.66666667  0.16451110
   0.00000000  0.00000000  0.24676665
   0.33333333  0.33333333  0.32902220
   0.66666667  0.66666667  0.41127774
 
 position of ions in cartesian coordinates  (Angst):
   0.00000000  0.00000000  0.00000000
   1.28339887  0.74097068  2.09578154
   2.56679773  1.48194136  4.19156308
   0.00000000  0.00000000  6.28734461
   1.28339887  0.74097068  8.38312615
   2.56679773  1.48194136 10.47890769
 


--------------------------------------------------------------------------------------------------------


 k-point   1 :   0.0000 0.0000 0.0000  plane waves:    2633
 k-point   2 :   0.3333 0.0000 0.0000  plane waves:    2639
 k-point   3 :  -0.3333 0.3333 0.0000  plane waves:    2682

 maximum and minimum number of plane-waves per node :       538      522

 maximum number of plane-waves:      2682
 maximum index in each direction: 
   IXMAX=    4   IYMAX=    4   IZMAX=   41
   IXMIN=   -4   IYMIN=   -4   IZMIN=  -41


 parallel 3D FFT for wavefunctions:
    minimum data exchange during FFTs selected (reduces bandwidth)
 parallel 3D FFT for charge:
    minimum data exchange during FFTs selected (reduces bandwidth)


 total amount of memory used by VASP MPI-rank0    33003. kBytes
=======================================================================

   base      :      30000. kBytes
   nonl-proj :        285. kBytes
   fftplans  :        601. kBytes
   grid      :       1447. kBytes
   one-center:         62. kBytes
   wavefun   :        608. kBytes
 
     INWAV:  cpu time      0.0000: real time      0.0004
 Broyden mixing: mesh for mixing (old mesh)
   NGX =  9   NGY =  9   NGZ = 83
  (NGX  = 28   NGY  = 28   NGZ  =252)
  gives a total of   6723 points

 initial charge density was supplied:
 charge density of overlapping atoms calculated
 number of electron      66.0000000 magnetization       6.0000000
 keeping initial charge density in first step


--------------------------------------------------------------------------------------------------------


 Maximum index for augmentation-charges          473 (set IRDMAX)


--------------------------------------------------------------------------------------------------------


 First call to EWALD:  gamma=   0.337
 Maximum number of real-space cells 6x 6x 1
 Maximum number of reciprocal cells 2x 2x11

    FEWALD:  cpu time      0.0019: real time      0.0019


--------------------------------------- Iteration      1(   1)  ---------------------------------------


    POTLOK:  cpu time      0.0196: real time      0.0198
    SETDIJ:  cpu time      0.0064: real time      0.0065
     EDDAV:  cpu time      0.1384: real time      0.1403
       DOS:  cpu time      0.0010: real time      0.0010
    --------------------------------------------
      LOOP:  cpu time      0.1654: real time      0.1676

 eigenvalue-minimisations  :   528
 total energy-change (2. order) : 0.5470588E+03  (-0.2531225E+04)
 number of electron      66.0000000 magnetization       6.0000000
 augmentation part       66.0000000 magnetization       6.0000000

 Free energy of the ion-electron system (eV)
  ---------------------------------------------------
  alpha Z        PSCENC =       181.10064324
  Ewald energy   TEWEN  =     32040.94092289
  -Hartree energ DENC   =    -40204.79140316
  -exchange      EXHF   =         0.00000000
  -V(xc)+E(xc)   XCENC  =       274.21785564
  PAW double counting   =      7368.58497629    -8003.52558915
  entropy T*S    EENTRO =        -0.01929922
  eigenvalues    EBANDS =       544.80483386
  atomic energy  EATOM  =      8345.74584120
  Solvation  Ediel_sol  =         0.00000000
  ---------------------------------------------------
  free energy    TOTEN  =       547.05878159 eV

  energy without entropy =      547.07808081  energy(sigma->0) =      547.06521466


--------------------------------------------------------------------------------------------------------




--------------------------------------- Iteration      1(   2)  ---------------------------------------


     EDDAV:  cpu time      0.1302: real time      0.1319
       DOS:  cpu time      0.0007: real time      0.0007
    --------------------------------------------
      LOOP:  cpu time      0.1309: real time      0.1326

 eigenvalue-minimisations  :   528
 total energy-change (2. order) :-0.5152072E+03  (-0.4928025E+03)
 number of electron      66.0000000 magnetization       6.0000000
 augmentation part       66.0000000 magnetization       6.0000000

 Free energy of the ion-electron system (eV)
  ---------------------------------------------------
  alpha Z        PSCENC =       181.10064324
  Ewald energy   TEWEN  =     32040.94092289
  -Hartree energ DENC   =    -40204.79140316
  -exchange      EXHF   =         0.00000000
  -V(xc)+E(xc)   XCENC  =       274.21785564
  PAW double counting   =      7368.58497629    -8003.52558915
  entropy T*S    EENTRO =        -0.00430383
  eigenvalues    EBANDS =        29.58264080
  atomic energy  EATOM  =      8345.74584120
  Solvation  Ediel_sol  =         0.00000000
  ---------------------------------------------------
  free energy    TOTEN  =        31.85158392 eV

  energy without entropy =       31.85588775  energy(sigma->0) =       31.85301853


--------------------------------------------------------------------------------------------------------




--------------------------------------- Iteration      1(   3)  ---------------------------------------


     EDDAV:  cpu time      0.1312: real time      0.1324
       DOS:  cpu time      0.0007: real time      0.0007
    --------------------------------------------
      LOOP:  cpu time      0.1319: real time      0.1331

 eigenvalue-minimisations  :   544
 total energy-change (2. order) :-0.5649274E+02  (-0.5296320E+02)
 number of electron      66.0000000 magnetization       6.0000000
 augmentation part       66.0000000 magnetization       6.0000000

 Free energy of the ion-electron system (eV)
  ---------------------------------------------------
  alpha Z        PSCENC =       181.10064324
  Ewald energy   TEWEN  =     32040.94092289
  -Hartree energ DENC   =    -40204.79140316
  -exchange      EXHF   =         0.00000000
  -V(xc)+E(xc)   XCENC  =       274.21785564
  PAW double counting   =      7368.58497629    -8003.52558915
  entropy T*S    EENTRO =         0.02282953
  eigenvalues    EBANDS =       -26.93723573
  atomic energy  EATOM  =      8345.74584120
  Solvation  Ediel_sol  =         0.00000000
  ---------------------------------------------------
  free energy    TOTEN  =       -24.64115925 eV

  energy without entropy =      -24.66398878  energy(sigma->0) =      -24.64876910


--------------------------------------------------------------------------------------------------------




--------------------------------------- Iteration      1(   4)  ---------------------------------------


     EDDAV:  cpu time      0.1437: real time      0.1449
       DOS:  cpu time      0.0007: real time      0.0008
    --------------------------------------------
      LOOP:  cpu time      0.1444: real time      0.1457

 eigenvalue-minimisations  :   616
 total energy-change (2. order) :-0.1990185E+01  (-0.1978542E+01)
 number of electron      66.0000000 magnetization       6.0000000
 augmentation part       66.0000000 magnetization       6.0000000

 Free energy of the ion-electron system (eV)
  ---------------------------------------------------
  alpha Z        PSCENC =       181.10064324
  Ewald energy   TEWEN  =     32040.94092289
  -Hartree energ DENC   =    -40204.79140316
  -exchange      EXHF   =         0.00000000
  -V(xc)+E(xc)   XCENC  =       274.21785564
  PAW double counting   =      7368.58497629    -8003.52558915
  entropy T*S    EENTRO =         0.02558262
  eigenvalues    EBANDS =       -28.93017339
  atomic energy  EATOM  =      8345.74584120
  Solvation  Ediel_sol  =         0.00000000
  ---------------------------------------------------
  free energy    TOTEN  =       -26.63134382 eV

  energy without entropy =      -26.65692644  energy(sigma->0) =      -26.63987136


--------------------------------------------------------------------------------------------------------




--------------------------------------- Iteration      1(   5)  ---------------------------------------


     EDDAV:  cpu time      0.1473: real time      0.1486
       DOS:  cpu time      0.0007: real time      0.0007
    CHARGE:  cpu time      0.0443: real time      0.0445
    MIXING:  cpu time      0.0010: real time      0.0010
    --------------------------------------------
      LOOP:  cpu time      0.1934: real time      0.1948

 eigenvalue-minimisations  :   640
 total energy-change (2. order) :-0.4083451E-01  (-0.4082489E-01)
 number of electron      66.0000063 magnetization       5.5312329
 augmentation part       38.9981887 magnetization       5.5737444

 Broyden mixing:
  rms(total) = 0.22883E+01    rms(broyden)= 0.22883E+01
  rms(prec ) = 0.23574E+01
  weight for this iteration     100.00

 Free energy of the ion-electron system (eV)
  ---------------------------------------------------
  alpha Z        PSCENC =       181.10064324
  Ewald energy   TEWEN  =     32040.94092289
  -Hartree energ DENC   =    -40204.79140316
  -exchange      EXHF   =         0.00000000
  -V(xc)+E(xc)   XCENC  =       274.21785564
  PAW double counting   =      7368.58497629    -8003.52558915
  entropy T*S    EENTRO =         0.02561233
  eigenvalues    EBANDS =       -28.97103761
  atomic energy  EATOM  =      8345.74584120
  Solvation  Ediel_sol  =         0.00000000
  ---------------------------------------------------
  free energy    TOTEN  =       -26.67217833 eV

  energy without entropy =      -26.69779067  energy(sigma->0) =      -26.68071578


--------------------------------------------------------------------------------------------------------




--------------------------------------- Iteration      1(   6)  ---------------------------------------


    POTLOK:  cpu time      0.0171: real time      0.0173
    SETDIJ:  cpu time      0.0061: real time      0.0061
     EDDAV:  cpu time      0.1366: real time      0.1377
       DOS:  cpu time      0.0007: real time      0.0007
    CHARGE:  cpu time      0.0404: real time      0.0406
    MIXING:  cpu time      0.0007: real time      0.0007
    --------------------------------------------
      LOOP:  cpu time      0.2015: real time      0.2030

 eigenvalue-minimisations  :   580
 total energy-change (2. order) : 0.4367423E+01  (-0.5613462E+01)
 number of electron      66.0000071 magnetization       5.2242753
 augmentation part       44.0403371 magnetization       4.0576810

 Broyden mixing:
  rms(total) = 0.11852E+01    rms(broyden)= 0.11851E+01
  rms(prec ) = 0.12428E+01
  weight for this iteration     100.00

 eigenvalues of (default mixing * dielectric matrix)
  average eigenvalue GAMMA=   0.7912
  0.7912

 Free energy of the ion-electron system (eV)
  ---------------------------------------------------
  alpha Z        PSCENC =       181.10064324
  Ewald energy   TEWEN  =     32040.94092289
  -Hartree energ DENC   =    -40016.24852193
  -exchange      EXHF   =         0.00000000
  -V(xc)+E(xc)   XCENC  =       267.21259537
  PAW double counting   =      7448.13408614    -8049.60237292
  entropy T*S    EENTRO =        -0.00885648
  eigenvalues    EBANDS =      -239.57909305
  atomic energy  EATOM  =      8345.74584120
  Solvation  Ediel_sol  =         0.00000000
  ---------------------------------------------------
  free energy    TOTEN  =       -22.30475556 eV

  energy without entropy =      -22.29589907  energy(sigma->0) =      -22.30180340


--------------------------------------------------------------------------------------------------------




--------------------------------------- Iteration      1(   7)  ---------------------------------------


    POTLOK:  cpu time      0.0165: real time      0.0168
    SETDIJ:  cpu time      0.0055: real time      0.0056
     EDDAV:  cpu time      0.1399: real time      0.1414
       DOS:  cpu time      0.0007: real time      0.0007
    CHARGE:  cpu time      0.0402: real time      0.0406
    MIXING:  cpu time      0.0006: real time      0.0006
    --------------------------------------------
      LOOP:  cpu time      0.2034: real time      0.2056

 eigenvalue-minimisations  :   596
 total energy-change (2. order) : 0.2905663E+01  (-0.1488626E+01)
 number of electron      66.0000070 magnetization       4.8986008
 augmentation part       42.3228180 magnetization       3.5049112

 Broyden mixing:
  rms(total) = 0.57744E+00    rms(broyden)= 0.57741E+00
  rms(prec ) = 0.58880E+00
  weight for this iteration     100.00

 eigenvalues of (default mixing * dielectric matrix)
  average eigenvalue GAMMA=   0.8026
  0.9676  0.6376

 Free energy of the ion-electron system (eV)
  ---------------------------------------------------
  alpha Z        PSCENC =       181.10064324
  Ewald energy   TEWEN  =     32040.94092289
  -Hartree energ DENC   =    -40116.49676755
  -exchange      EXHF   =         0.00000000
  -V(xc)+E(xc)   XCENC  =       270.46765300
  PAW double counting   =      7607.51707435    -8238.85647254
  entropy T*S    EENTRO =         0.00516570
  eigenvalues    EBANDS =      -109.82315238
  atomic energy  EATOM  =      8345.74584120
  Solvation  Ediel_sol  =         0.00000000
  ---------------------------------------------------
  free energy    TOTEN  =       -19.39909209 eV

  energy without entropy =      -19.40425779  energy(sigma->0) =      -19.40081399


--------------------------------------------------------------------------------------------------------




--------------------------------------- Iteration      1(   8)  ---------------------------------------


    POTLOK:  cpu time      0.0165: real time      0.0167
    SETDIJ:  cpu time      0.0056: real time      0.0056
     EDDAV:  cpu time      0.1501: real time      0.1519
       DOS:  cpu time      0.0007: real time      0.0007
    CHARGE:  cpu time      0.0454: real time      0.0456
    MIXING:  cpu time      0.0018: real time      0.0018
    --------------------------------------------
      LOOP:  cpu time      0.2200: real time      0.2223

 eigenvalue-minimisations  :   652
 total energy-change (2. order) : 0.3979523E+00  (-0.3516369E+00)
 number of electron      66.0000068 magnetization       4.5086009
 augmentation part       42.0887267 magnetization       3.0982699

 Broyden mixing:
  rms(total) = 0.51357E+00    rms(broyden)= 0.51348E+00
  rms(prec ) = 0.52704E+00
  weight for this iteration     100.00

 eigenvalues of (default mixing * dielectric matrix)
  average eigenvalue GAMMA=   0.7311
  1.0589  0.6306  0.5039

 Free energy of the ion-electron system (eV)
  ---------------------------------------------------
  alpha Z        PSCENC =       181.10064324
  Ewald energy   TEWEN  =     32040.94092289
  -Hartree energ DENC   =    -40114.89759480
  -exchange      EXHF   =         0.00000000
  -V(xc)+E(xc)   XCENC  =       270.86192928
  PAW double counting   =      7699.20630524    -8337.94657769
  entropy T*S    EENTRO =         0.04249358
  eigenvalues    EBANDS =      -104.05510275
  atomic energy  EATOM  =      8345.74584120
  Solvation  Ediel_sol  =         0.00000000
  ---------------------------------------------------
  free energy    TOTEN  =       -19.00113982 eV

  energy without entropy =      -19.04363340  energy(sigma->0) =      -19.01530434


--------------------------------------------------------------------------------------------------------




--------------------------------------- Iteration      1(   9)  ---------------------------------------


    POTLOK:  cpu time      0.0197: real time      0.0199
    SETDIJ:  cpu time      0.0058: real time      0.0058
     EDDAV:  cpu time      0.1758: real time      0.1771
       DOS:  cpu time      0.0006: real time      0.0006
    CHARGE:  cpu time      0.0398: real time      0.0400
    MIXING:  cpu time      0.0010: real time      0.0010
    --------------------------------------------
      LOOP:  cpu time      0.2426: real time      0.2444

 eigenvalue-minimisations  :   776
 total energy-change (2. order) : 0.1521501E+00  (-0.1142437E+00)
 number of electron      66.0000069 magnetization       3.3547637
 augmentation part       42.0227178 magnetization       1.9581224

 Broyden mixing:
  rms(total) = 0.43861E+00    rms(broyden)= 0.43859E+00
  rms(prec ) = 0.44035E+00
  weight for this iteration     100.00

 eigenvalues of (default mixing * dielectric matrix)
  average eigenvalue GAMMA=   0.7910
  1.1968  0.7740  0.7740  0.4192

 Free energy of the ion-electron system (eV)
  ---------------------------------------------------
  alpha Z        PSCENC =       181.10064324
  Ewald energy   TEWEN  =     32040.94092289
  -Hartree energ DENC   =    -40128.67953161
  -exchange      EXHF   =         0.00000000
  -V(xc)+E(xc)   XCENC  =       270.70465887
  PAW double counting   =      7781.13731002    -8424.51805733
  entropy T*S    EENTRO =         0.00582052
  eigenvalues    EBANDS =       -85.28659750
  atomic energy  EATOM  =      8345.74584120
  Solvation  Ediel_sol  =         0.00000000
  ---------------------------------------------------
  free energy    TOTEN  =       -18.84898971 eV

  energy without entropy =      -18.85481023  energy(sigma->0) =      -18.85092988


--------------------------------------------------------------------------------------------------------




--------------------------------------- Iteration      1(  10)  ---------------------------------------


    POTLOK:  cpu time      0.0165: real time      0.0168
    SETDIJ:  cpu time      0.0055: real time      0.0055
     EDDAV:  cpu time      0.1468: real time      0.1480
       DOS:  cpu time      0.0007: real time      0.0007
    CHARGE:  cpu time      0.0388: real time      0.0390
    MIXING:  cpu time      0.0008: real time      0.0008
    --------------------------------------------
      LOOP:  cpu time      0.2091: real time      0.2107

 eigenvalue-minimisations  :   636
 total energy-change (2. order) : 0.3951368E+00  (-0.1541230E+00)
 number of electron      66.0000069 magnetization       1.9306819
 augmentation part       42.3363360 magnetization       0.6029244

 Broyden mixing:
  rms(total) = 0.33283E+00    rms(broyden)= 0.33282E+00
  rms(prec ) = 0.33494E+00
  weight for this iteration     100.00

 eigenvalues of (default mixing * dielectric matrix)
  average eigenvalue GAMMA=   1.4796
  4.5698  1.1105  0.6378  0.6378  0.4421

 Free energy of the ion-electron system (eV)
  ---------------------------------------------------
  alpha Z        PSCENC =       181.10064324
  Ewald energy   TEWEN  =     32040.94092289
  -Hartree energ DENC   =    -40131.85716463
  -exchange      EXHF   =         0.00000000
  -V(xc)+E(xc)   XCENC  =       270.12172431
  PAW double counting   =      7925.13628083    -8573.39376271
  entropy T*S    EENTRO =         0.00575924
  eigenvalues    EBANDS =       -76.25409725
  atomic energy  EATOM  =      8345.74584120
  Solvation  Ediel_sol  =         0.00000000
  ---------------------------------------------------
  free energy    TOTEN  =       -18.45385290 eV

  energy without entropy =      -18.45961214  energy(sigma->0) =      -18.45577264


--------------------------------------------------------------------------------------------------------




--------------------------------------- Iteration      1(  11)  ---------------------------------------


    POTLOK:  cpu time      0.0163: real time      0.0165
    SETDIJ:  cpu time      0.0054: real time      0.0055
     EDDAV:  cpu time      0.1578: real time      0.1590
       DOS:  cpu time      0.0007: real time      0.0007
    CHARGE:  cpu time      0.0387: real time      0.0389
    MIXING:  cpu time      0.0008: real time      0.0008
    --------------------------------------------
      LOOP:  cpu time      0.2199: real time      0.2215

 eigenvalue-minimisations  :   700
 total energy-change (2. order) :-0.3745589E+00  (-0.3671756E-01)
 number of electron      66.0000070 magnetization       1.4671137
 augmentation part       42.4180959 magnetization       0.3312976

 Broyden mixing:
  rms(total) = 0.24529E+00    rms(broyden)= 0.24528E+00
  rms(prec ) = 0.25496E+00
  weight for this iteration     100.00

 eigenvalues of (default mixing * dielectric matrix)
  average eigenvalue GAMMA=   1.6362
  5.8195  1.3273  0.7794  0.7794  0.6604  0.4514

 Free energy of the ion-electron system (eV)
  ---------------------------------------------------
  alpha Z        PSCENC =       181.10064324
  Ewald energy   TEWEN  =     32040.94092289
  -Hartree energ DENC   =    -40147.58900830
  -exchange      EXHF   =         0.00000000
  -V(xc)+E(xc)   XCENC  =       269.53181218
  PAW double counting   =      8028.17405601    -8681.21301104
  entropy T*S    EENTRO =         0.00482029
  eigenvalues    EBANDS =       -55.52448830
  atomic energy  EATOM  =      8345.74584120
  Solvation  Ediel_sol  =         0.00000000
  ---------------------------------------------------
  free energy    TOTEN  =       -18.82841183 eV

  energy without entropy =      -18.83323212  energy(sigma->0) =      -18.83001860


--------------------------------------------------------------------------------------------------------




--------------------------------------- Iteration      1(  12)  ---------------------------------------


    POTLOK:  cpu time      0.0162: real time      0.0167
    SETDIJ:  cpu time      0.0054: real time      0.0055
     EDDAV:  cpu time      0.1640: real time      0.1653
       DOS:  cpu time      0.0007: real time      0.0007
    CHARGE:  cpu time      0.0388: real time      0.0390
    MIXING:  cpu time      0.0009: real time      0.0009
    --------------------------------------------
      LOOP:  cpu time      0.2260: real time      0.2280

 eigenvalue-minimisations  :   732
 total energy-change (2. order) :-0.1659985E+01  (-0.1360565E+00)
 number of electron      66.0000068 magnetization       1.2361895
 augmentation part       42.1022789 magnetization       0.2988625

 Broyden mixing:
  rms(total) = 0.10773E+00    rms(broyden)= 0.10768E+00
  rms(prec ) = 0.12756E+00
  weight for this iteration     100.00

 eigenvalues of (default mixing * dielectric matrix)
  average eigenvalue GAMMA=   1.9047
  8.0062  1.8460  0.9984  0.4476  0.6910  0.6910  0.6529

 Free energy of the ion-electron system (eV)
  ---------------------------------------------------
  alpha Z        PSCENC =       181.10064324
  Ewald energy   TEWEN  =     32040.94092289
  -Hartree energ DENC   =    -40153.82239496
  -exchange      EXHF   =         0.00000000
  -V(xc)+E(xc)   XCENC  =       269.01629459
  PAW double counting   =      7924.44653595    -8574.93399933
  entropy T*S    EENTRO =         0.01024527
  eigenvalues    EBANDS =       -52.99248571
  atomic energy  EATOM  =      8345.74584120
  Solvation  Ediel_sol  =         0.00000000
  ---------------------------------------------------
  free energy    TOTEN  =       -20.48839687 eV

  energy without entropy =      -20.49864214  energy(sigma->0) =      -20.49181196


--------------------------------------------------------------------------------------------------------




--------------------------------------- Iteration      1(  13)  ---------------------------------------


    POTLOK:  cpu time      0.0163: real time      0.0166
    SETDIJ:  cpu time      0.0054: real time      0.0054
     EDDAV:  cpu time      0.1804: real time      0.1817
       DOS:  cpu time      0.0007: real time      0.0007
    CHARGE:  cpu time      0.0388: real time      0.0389
    MIXING:  cpu time      0.0009: real time      0.0009
    --------------------------------------------
      LOOP:  cpu time      0.2424: real time      0.2443

 eigenvalue-minimisations  :   812
 total energy-change (2. order) :-0.8127338E+00  (-0.5900634E-01)
 number of electron      66.0000069 magnetization       1.1121667
 augmentation part       42.0138634 magnetization       0.2424344

 Broyden mixing:
  rms(total) = 0.10840E+00    rms(broyden)= 0.10829E+00
  rms(prec ) = 0.12888E+00
  weight for this iteration     100.00

 eigenvalues of (default mixing * dielectric matrix)
  average eigenvalue GAMMA=   1.9133
  9.2143  2.1830  1.0223  0.7338  0.7338  0.6617  0.4477  0.3097

 Free energy of the ion-electron system (eV)
  ---------------------------------------------------
  alpha Z        PSCENC =       181.10064324
  Ewald energy   TEWEN  =     32040.94092289
  -Hartree energ DENC   =    -40151.30187462
  -exchange      EXHF   =         0.00000000
  -V(xc)+E(xc)   XCENC  =       268.57488703
  PAW double counting   =      7875.16423653    -8523.53468544
  entropy T*S    EENTRO =         0.01711082
  eigenvalues    EBANDS =       -58.00821233
  atomic energy  EATOM  =      8345.74584120
  Solvation  Ediel_sol  =         0.00000000
  ---------------------------------------------------
  free energy    TOTEN  =       -21.30113069 eV

  energy without entropy =      -21.31824151  energy(sigma->0) =      -21.30683430


--------------------------------------------------------------------------------------------------------




--------------------------------------- Iteration      1(  14)  ---------------------------------------


    POTLOK:  cpu time      0.0164: real time      0.0166
    SETDIJ:  cpu time      0.0057: real time      0.0057
     EDDAV:  cpu time      0.1612: real time      0.1625
       DOS:  cpu time      0.0007: real time      0.0007
    CHARGE:  cpu time      0.0414: real time      0.0416
    MIXING:  cpu time      0.0009: real time      0.0009
    --------------------------------------------
      LOOP:  cpu time      0.2264: real time      0.2281

 eigenvalue-minimisations  :   716
 total energy-change (2. order) :-0.4378562E+00  (-0.4053884E-01)
 number of electron      66.0000069 magnetization       1.0941763
 augmentation part       42.0635716 magnetization       0.2956841

 Broyden mixing:
  rms(total) = 0.56925E-01    rms(broyden)= 0.56859E-01
  rms(prec ) = 0.61161E-01
  weight for this iteration     100.00

 eigenvalues of (default mixing * dielectric matrix)
  average eigenvalue GAMMA=   1.8460
  9.4578  2.5345  0.9627  0.8224  0.8224  0.6267  0.6267  0.4477  0.3130

 Free energy of the ion-electron system (eV)
  ---------------------------------------------------
  alpha Z        PSCENC =       181.10064324
  Ewald energy   TEWEN  =     32040.94092289
  -Hartree energ DENC   =    -40144.56389590
  -exchange      EXHF   =         0.00000000
  -V(xc)+E(xc)   XCENC  =       268.19254986
  PAW double counting   =      7842.07732740    -8488.06492186
  entropy T*S    EENTRO =         0.01331165
  eigenvalues    EBANDS =       -67.18076532
  atomic energy  EATOM  =      8345.74584120
  Solvation  Ediel_sol  =         0.00000000
  ---------------------------------------------------
  free energy    TOTEN  =       -21.73898685 eV

  energy without entropy =      -21.75229850  energy(sigma->0) =      -21.74342407


--------------------------------------------------------------------------------------------------------




--------------------------------------- Iteration      1(  15)  ---------------------------------------


    POTLOK:  cpu time      0.0164: real time      0.0167
    SETDIJ:  cpu time      0.0055: real time      0.0055
     EDDAV:  cpu time      0.1379: real time      0.1389
       DOS:  cpu time      0.0007: real time      0.0007
    CHARGE:  cpu time      0.0402: real time      0.0404
    MIXING:  cpu time      0.0011: real time      0.0011
    --------------------------------------------
      LOOP:  cpu time      0.2018: real time      0.2033

 eigenvalue-minimisations  :   588
 total energy-change (2. order) :-0.1658715E+00  (-0.1663543E-01)
 number of electron      66.0000069 magnetization       1.0254115
 augmentation part       42.1470371 magnetization       0.3041369

 Broyden mixing:
  rms(total) = 0.38469E-01    rms(broyden)= 0.38433E-01
  rms(prec ) = 0.39891E-01
  weight for this iteration     100.00

 eigenvalues of (default mixing * dielectric matrix)
  average eigenvalue GAMMA=   1.8148
  9.6828  2.7764  1.1811  0.8130  0.8130  0.7371  0.7371  0.6544  0.4487  0.3039

 Free energy of the ion-electron system (eV)
  ---------------------------------------------------
  alpha Z        PSCENC =       181.10064324
  Ewald energy   TEWEN  =     32040.94092289
  -Hartree energ DENC   =    -40137.35619983
  -exchange      EXHF   =         0.00000000
  -V(xc)+E(xc)   XCENC  =       267.98814302
  PAW double counting   =      7825.57239567    -8470.03563583
  entropy T*S    EENTRO =         0.00472926
  eigenvalues    EBANDS =       -75.86569793
  atomic energy  EATOM  =      8345.74584120
  Solvation  Ediel_sol  =         0.00000000
  ---------------------------------------------------
  free energy    TOTEN  =       -21.90485831 eV

  energy without entropy =      -21.90958757  energy(sigma->0) =      -21.90643473


--------------------------------------------------------------------------------------------------------




--------------------------------------- Iteration      1(  16)  ---------------------------------------


    POTLOK:  cpu time      0.0162: real time      0.0165
    SETDIJ:  cpu time      0.0055: real time      0.0055
     EDDAV:  cpu time      0.1487: real time      0.1504
       DOS:  cpu time      0.0007: real time      0.0007
    CHARGE:  cpu time      0.0413: real time      0.0415
    MIXING:  cpu time      0.0011: real time      0.0011
    --------------------------------------------
      LOOP:  cpu time      0.2134: real time      0.2157

 eigenvalue-minimisations  :   648
 total energy-change (2. order) :-0.1064184E+00  (-0.8381961E-02)
 number of electron      66.0000069 magnetization       0.9348799
 augmentation part       42.1497341 magnetization       0.3048894

 Broyden mixing:
  rms(total) = 0.35163E-01    rms(broyden)= 0.35132E-01
  rms(prec ) = 0.36064E-01
  weight for this iteration     100.00

 eigenvalues of (default mixing * dielectric matrix)
  average eigenvalue GAMMA=   1.8162
 10.0991  2.9824  1.5760  0.9654  0.9654  0.7351  0.7351  0.6705  0.4498  0.4950
  0.3051

 Free energy of the ion-electron system (eV)
  ---------------------------------------------------
  alpha Z        PSCENC =       181.10064324
  Ewald energy   TEWEN  =     32040.94092289
  -Hartree energ DENC   =    -40133.79567520
  -exchange      EXHF   =         0.00000000
  -V(xc)+E(xc)   XCENC  =       267.93103965
  PAW double counting   =      7824.55902019    -8469.18164558
  entropy T*S    EENTRO =        -0.00495711
  eigenvalues    EBANDS =       -79.30646598
  atomic energy  EATOM  =      8345.74584120
  Solvation  Ediel_sol  =         0.00000000
  ---------------------------------------------------
  free energy    TOTEN  =       -22.01127671 eV

  energy without entropy =      -22.00631960  energy(sigma->0) =      -22.00962434


--------------------------------------------------------------------------------------------------------




--------------------------------------- Iteration      1(  17)  ---------------------------------------


    POTLOK:  cpu time      0.0164: real time      0.0166
    SETDIJ:  cpu time      0.0055: real time      0.0055
     EDDAV:  cpu time      0.1395: real time      0.1407
       DOS:  cpu time      0.0007: real time      0.0007
    CHARGE:  cpu time      0.0414: real time      0.0416
    MIXING:  cpu time      0.0013: real time      0.0013
    --------------------------------------------
      LOOP:  cpu time      0.2047: real time      0.2064

 eigenvalue-minimisations  :   596
 total energy-change (2. order) :-0.3865403E-01  (-0.3375559E-02)
 number of electron      66.0000068 magnetization       0.7823082
 augmentation part       42.1314579 magnetization       0.2361119

 Broyden mixing:
  rms(total) = 0.27833E-01    rms(broyden)= 0.27804E-01
  rms(prec ) = 0.28449E-01
  weight for this iteration     100.00

 eigenvalues of (default mixing * dielectric matrix)
  average eigenvalue GAMMA=   1.8921
 11.0193  3.1323  2.4870  0.9978  0.9978  0.7799  0.7799  0.6572  0.6572  0.4526
  0.4389  0.3059

 Free energy of the ion-electron system (eV)
  ---------------------------------------------------
  alpha Z        PSCENC =       181.10064324
  Ewald energy   TEWEN  =     32040.94092289
  -Hartree energ DENC   =    -40131.55222970
  -exchange      EXHF   =         0.00000000
  -V(xc)+E(xc)   XCENC  =       267.93618324
  PAW double counting   =      7826.83764687    -8471.92643730
  entropy T*S    EENTRO =        -0.01259627
  eigenvalues    EBANDS =       -81.11990490
  atomic energy  EATOM  =      8345.74584120
  Solvation  Ediel_sol  =         0.00000000
  ---------------------------------------------------
  free energy    TOTEN  =       -22.04993074 eV

  energy without entropy =      -22.03733447  energy(sigma->0) =      -22.04573198


--------------------------------------------------------------------------------------------------------




--------------------------------------- Iteration      1(  18)  ---------------------------------------


    POTLOK:  cpu time      0.0162: real time      0.0164
    SETDIJ:  cpu time      0.0054: real time      0.0054
     EDDAV:  cpu time      0.1432: real time      0.1444
       DOS:  cpu time      0.0007: real time      0.0007
    CHARGE:  cpu time      0.0400: real time      0.0402
    MIXING:  cpu time      0.0012: real time      0.0012
    --------------------------------------------
      LOOP:  cpu time      0.2067: real time      0.2084

 eigenvalue-minimisations  :   616
 total energy-change (2. order) :-0.4562073E-01  (-0.2136808E-02)
 number of electron      66.0000069 magnetization       0.6789267
 augmentation part       42.1178897 magnetization       0.2499446

 Broyden mixing:
  rms(total) = 0.26670E-01    rms(broyden)= 0.26631E-01
  rms(prec ) = 0.27562E-01
  weight for this iteration     100.00

 eigenvalues of (default mixing * dielectric matrix)
  average eigenvalue GAMMA=   1.9216
 11.8507  3.3940  2.8024  1.1640  1.1640  0.7670  0.7670  0.6399  0.6399  0.5979
  0.3058  0.4499  0.4377

 Free energy of the ion-electron system (eV)
  ---------------------------------------------------
  alpha Z        PSCENC =       181.10064324
  Ewald energy   TEWEN  =     32040.94092289
  -Hartree energ DENC   =    -40129.65888830
  -exchange      EXHF   =         0.00000000
  -V(xc)+E(xc)   XCENC  =       267.89051807
  PAW double counting   =      7835.55598778    -8481.25721013
  entropy T*S    EENTRO =        -0.02353328
  eigenvalues    EBANDS =       -82.38983292
  atomic energy  EATOM  =      8345.74584120
  Solvation  Ediel_sol  =         0.00000000
  ---------------------------------------------------
  free energy    TOTEN  =       -22.09555147 eV

  energy without entropy =      -22.07201818  energy(sigma->0) =      -22.08770704


--------------------------------------------------------------------------------------------------------




--------------------------------------- Iteration      1(  19)  ---------------------------------------


    POTLOK:  cpu time      0.0163: real time      0.0165
    SETDIJ:  cpu time      0.0054: real time      0.0055
     EDDAV:  cpu time      0.1705: real time      0.1718
       DOS:  cpu time      0.0007: real time      0.0007
    CHARGE:  cpu time      0.0414: real time      0.0416
    MIXING:  cpu time      0.0015: real time      0.0015
    --------------------------------------------
      LOOP:  cpu time      0.2359: real time      0.2376

 eigenvalue-minimisations  :   716
 total energy-change (2. order) :-0.2158895E-01  (-0.6558166E-03)
 number of electron      66.0000068 magnetization       0.5051195
 augmentation part       42.1179523 magnetization       0.1585235

 Broyden mixing:
  rms(total) = 0.25475E-01    rms(broyden)= 0.25453E-01
  rms(prec ) = 0.25872E-01
  weight for this iteration     100.00

 eigenvalues of (default mixing * dielectric matrix)
  average eigenvalue GAMMA=   1.9946
 13.0573  3.7318  3.0555  1.3170  1.3170  0.8188  0.8188  0.6800  0.6800  0.6361
  0.6361  0.3060  0.4504  0.4189

 Free energy of the ion-electron system (eV)
  ---------------------------------------------------
  alpha Z        PSCENC =       181.10064324
  Ewald energy   TEWEN  =     32040.94092289
  -Hartree energ DENC   =    -40127.39507393
  -exchange      EXHF   =         0.00000000
  -V(xc)+E(xc)   XCENC  =       267.87017125
  PAW double counting   =      7836.22213364    -8481.99272353
  entropy T*S    EENTRO =        -0.02805854
  eigenvalues    EBANDS =       -84.58099663
  atomic energy  EATOM  =      8345.74584120
  Solvation  Ediel_sol  =         0.00000000
  ---------------------------------------------------
  free energy    TOTEN  =       -22.11714041 eV

  energy without entropy =      -22.08908187  energy(sigma->0) =      -22.10778757


--------------------------------------------------------------------------------------------------------




--------------------------------------- Iteration      1(  20)  ---------------------------------------


    POTLOK:  cpu time      0.0172: real time      0.0174
    SETDIJ:  cpu time      0.0057: real time      0.0058
     EDDAV:  cpu time      0.1526: real time      0.1537
       DOS:  cpu time      0.0007: real time      0.0007
    CHARGE:  cpu time      0.0399: real time      0.0401
    MIXING:  cpu time      0.0014: real time      0.0014
    --------------------------------------------
      LOOP:  cpu time      0.2175: real time      0.2191

 eigenvalue-minimisations  :   668
 total energy-change (2. order) :-0.3953959E-01  (-0.8727892E-03)
 number of electron      66.0000069 magnetization       0.3539370
 augmentation part       42.1147916 magnetization       0.1191606

 Broyden mixing:
  rms(total) = 0.23131E-01    rms(broyden)= 0.23089E-01
  rms(prec ) = 0.25074E-01
  weight for this iteration     100.00

 eigenvalues of (default mixing * dielectric matrix)
  average eigenvalue GAMMA=   2.0701
 14.4378  4.1887  3.1946  1.4643  1.4643  0.9124  0.9124  0.7397  0.7397  0.6428
  0.6428  0.3061  0.5298  0.4518  0.4249

 Free energy of the ion-electron system (eV)
  ---------------------------------------------------
  alpha Z        PSCENC =       181.10064324
  Ewald energy   TEWEN  =     32040.94092289
  -Hartree energ DENC   =    -40125.48401561
  -exchange      EXHF   =         0.00000000
  -V(xc)+E(xc)   XCENC  =       267.82190313
  PAW double counting   =      7839.85060488    -8485.78737857
  entropy T*S    EENTRO =        -0.03208157
  eigenvalues    EBANDS =       -86.31311960
  atomic energy  EATOM  =      8345.74584120
  Solvation  Ediel_sol  =         0.00000000
  ---------------------------------------------------
  free energy    TOTEN  =       -22.15668000 eV

  energy without entropy =      -22.12459844  energy(sigma->0) =      -22.14598615


--------------------------------------------------------------------------------------------------------




--------------------------------------- Iteration      1(  21)  ---------------------------------------


    POTLOK:  cpu time      0.0162: real time      0.0165
    SETDIJ:  cpu time      0.0055: real time      0.0058
     EDDAV:  cpu time      0.1677: real time      0.1692
       DOS:  cpu time      0.0007: real time      0.0007
    CHARGE:  cpu time      0.0400: real time      0.0403
    MIXING:  cpu time      0.0014: real time      0.0015
    --------------------------------------------
      LOOP:  cpu time      0.2316: real time      0.2339

 eigenvalue-minimisations  :   752
 total energy-change (2. order) :-0.4232873E-01  (-0.8689142E-03)
 number of electron      66.0000069 magnetization       0.1751851
 augmentation part       42.1228365 magnetization       0.0249084

 Broyden mixing:
  rms(total) = 0.17983E-01    rms(broyden)= 0.17930E-01
  rms(prec ) = 0.20317E-01
  weight for this iteration     100.00

 eigenvalues of (default mixing * dielectric matrix)
  average eigenvalue GAMMA=   2.0405
 14.8535  3.7791  3.7791  1.5555  1.5555  0.9156  0.9156  0.8619  0.8619  0.6862
  0.6862  0.5935  0.3063  0.4480  0.4530  0.3976

 Free energy of the ion-electron system (eV)
  ---------------------------------------------------
  alpha Z        PSCENC =       181.10064324
  Ewald energy   TEWEN  =     32040.94092289
  -Hartree energ DENC   =    -40123.21520625
  -exchange      EXHF   =         0.00000000
  -V(xc)+E(xc)   XCENC  =       267.76195601
  PAW double counting   =      7840.05130957    -8485.87982007
  entropy T*S    EENTRO =        -0.03357210
  eigenvalues    EBANDS =       -88.67108320
  atomic energy  EATOM  =      8345.74584120
  Solvation  Ediel_sol  =         0.00000000
  ---------------------------------------------------
  free energy    TOTEN  =       -22.19900873 eV

  energy without entropy =      -22.16543663  energy(sigma->0) =      -22.18781803


--------------------------------------------------------------------------------------------------------




--------------------------------------- Iteration      1(  22)  ---------------------------------------


    POTLOK:  cpu time      0.0162: real time      0.0164
    SETDIJ:  cpu time      0.0054: real time      0.0054
     EDDAV:  cpu time      0.1670: real time      0.1683
       DOS:  cpu time      0.0007: real time      0.0007
    CHARGE:  cpu time      0.0398: real time      0.0400
    MIXING:  cpu time      0.0017: real time      0.0017
    --------------------------------------------
      LOOP:  cpu time      0.2308: real time      0.2326

 eigenvalue-minimisations  :   748
 total energy-change (2. order) :-0.9582281E-01  (-0.1369312E-02)
 number of electron      66.0000069 magnetization       0.1427278
 augmentation part       42.1438861 magnetization       0.0823141

 Broyden mixing:
  rms(total) = 0.14497E-01    rms(broyden)= 0.14415E-01
  rms(prec ) = 0.16504E-01
  weight for this iteration     100.00

 eigenvalues of (default mixing * dielectric matrix)
  average eigenvalue GAMMA=   2.0893
 15.5273  4.2858  4.2858  2.1605  1.4585  1.0327  0.9233  0.9233  0.7500  0.7500
  0.6677  0.6677  0.5923  0.4508  0.4258  0.3086  0.3086

 Free energy of the ion-electron system (eV)
  ---------------------------------------------------
  alpha Z        PSCENC =       181.10064324
  Ewald energy   TEWEN  =     32040.94092289
  -Hartree energ DENC   =    -40119.29884100
  -exchange      EXHF   =         0.00000000
  -V(xc)+E(xc)   XCENC  =       267.64427988
  PAW double counting   =      7834.69179507    -8480.02043709
  entropy T*S    EENTRO =        -0.03476138
  eigenvalues    EBANDS =       -93.06427434
  atomic energy  EATOM  =      8345.74584120
  Solvation  Ediel_sol  =         0.00000000
  ---------------------------------------------------
  free energy    TOTEN  =       -22.29483154 eV

  energy without entropy =      -22.26007016  energy(sigma->0) =      -22.28324441


--------------------------------------------------------------------------------------------------------




--------------------------------------- Iteration      1(  23)  ---------------------------------------


    POTLOK:  cpu time      0.0162: real time      0.0164
    SETDIJ:  cpu time      0.0055: real time      0.0055
     EDDAV:  cpu time      0.1519: real time      0.1531
       DOS:  cpu time      0.0007: real time      0.0007
    CHARGE:  cpu time      0.0398: real time      0.0399
    MIXING:  cpu time      0.0016: real time      0.0017
    --------------------------------------------
      LOOP:  cpu time      0.2156: real time      0.2172

 eigenvalue-minimisations  :   668
 total energy-change (2. order) :-0.1213027E+00  (-0.4801457E-03)
 number of electron      66.0000069 magnetization       0.0345773
 augmentation part       42.1384126 magnetization      -0.0280993

 Broyden mixing:
  rms(total) = 0.13733E-01    rms(broyden)= 0.13729E-01
  rms(prec ) = 0.15030E-01
  weight for this iteration     100.00

 eigenvalues of (default mixing * dielectric matrix)
  average eigenvalue GAMMA=   2.1354
 17.0148  5.2303  3.6586  2.5523  1.3666  1.3666  0.8986  0.8986  0.7460  0.7460
  0.6461  0.6461  0.5836  0.5836  0.4511  0.4247  0.3082  0.3151

 Free energy of the ion-electron system (eV)
  ---------------------------------------------------
  alpha Z        PSCENC =       181.10064324
  Ewald energy   TEWEN  =     32040.94092289
  -Hartree energ DENC   =    -40119.82433107
  -exchange      EXHF   =         0.00000000
  -V(xc)+E(xc)   XCENC  =       267.53557237
  PAW double counting   =      7834.27575254    -8479.57921761
  entropy T*S    EENTRO =        -0.03385243
  eigenvalues    EBANDS =       -92.57746540
  atomic energy  EATOM  =      8345.74584120
  Solvation  Ediel_sol  =         0.00000000
  ---------------------------------------------------
  free energy    TOTEN  =       -22.41613427 eV

  energy without entropy =      -22.38228184  energy(sigma->0) =      -22.40485013


--------------------------------------------------------------------------------------------------------




--------------------------------------- Iteration      1(  24)  ---------------------------------------


    POTLOK:  cpu time      0.0164: real time      0.0166
    SETDIJ:  cpu time      0.0054: real time      0.0055
     EDDAV:  cpu time      0.1402: real time      0.1413
       DOS:  cpu time      0.0007: real time      0.0007
    CHARGE:  cpu time      0.0399: real time      0.0401
    MIXING:  cpu time      0.0017: real time      0.0017
    --------------------------------------------
      LOOP:  cpu time      0.2043: real time      0.2058

 eigenvalue-minimisations  :   596
 total energy-change (2. order) :-0.4526010E-01  (-0.3927802E-03)
 number of electron      66.0000069 magnetization       0.0539101
 augmentation part       42.1430172 magnetization       0.0536801

 Broyden mixing:
  rms(total) = 0.90549E-02    rms(broyden)= 0.90098E-02
  rms(prec ) = 0.95972E-02
  weight for this iteration     100.00

 eigenvalues of (default mixing * dielectric matrix)
  average eigenvalue GAMMA=   2.1768
 17.2560  5.1146  5.1146  2.3964  1.6362  1.6362  1.0507  0.8754  0.8754  0.7114
  0.7114  0.7192  0.6315  0.6315  0.4968  0.4523  0.4256  0.3080  0.3161

 Free energy of the ion-electron system (eV)
  ---------------------------------------------------
  alpha Z        PSCENC =       181.10064324
  Ewald energy   TEWEN  =     32040.94092289
  -Hartree energ DENC   =    -40116.82585664
  -exchange      EXHF   =         0.00000000
  -V(xc)+E(xc)   XCENC  =       267.49012704
  PAW double counting   =      7831.47244648    -8476.64046663
  entropy T*S    EENTRO =        -0.03444054
  eigenvalues    EBANDS =       -95.71061141
  atomic energy  EATOM  =      8345.74584120
  Solvation  Ediel_sol  =         0.00000000
  ---------------------------------------------------
  free energy    TOTEN  =       -22.46139437 eV

  energy without entropy =      -22.42695383  energy(sigma->0) =      -22.44991419


--------------------------------------------------------------------------------------------------------




--------------------------------------- Iteration      1(  25)  ---------------------------------------


    POTLOK:  cpu time      0.0162: real time      0.0164
    SETDIJ:  cpu time      0.0056: real time      0.0056
     EDDAV:  cpu time      0.1441: real time      0.1456
       DOS:  cpu time      0.0007: real time      0.0007
    CHARGE:  cpu time      0.0397: real time      0.0398
    MIXING:  cpu time      0.0019: real time      0.0020
    --------------------------------------------
      LOOP:  cpu time      0.2082: real time      0.2101

 eigenvalue-minimisations  :   612
 total energy-change (2. order) :-0.5858778E-01  (-0.3576447E-03)
 number of electron      66.0000069 magnetization       0.0141934
 augmentation part       42.1252069 magnetization      -0.0104950

 Broyden mixing:
  rms(total) = 0.80257E-02    rms(broyden)= 0.80232E-02
  rms(prec ) = 0.10213E-01
  weight for this iteration     100.00

 eigenvalues of (default mixing * dielectric matrix)
  average eigenvalue GAMMA=   2.2531
 18.7010  7.0075  3.7344  2.9101  2.0192  1.6996  1.1064  0.9123  0.9123  0.7965
  0.7965  0.6649  0.6649  0.6014  0.6014  0.4462  0.4462  0.4167  0.3079  0.3169

 Free energy of the ion-electron system (eV)
  ---------------------------------------------------
  alpha Z        PSCENC =       181.10064324
  Ewald energy   TEWEN  =     32040.94092289
  -Hartree energ DENC   =    -40117.75027114
  -exchange      EXHF   =         0.00000000
  -V(xc)+E(xc)   XCENC  =       267.45090605
  PAW double counting   =      7834.15038229    -8479.62222925
  entropy T*S    EENTRO =        -0.03312989
  eigenvalues    EBANDS =       -94.50304754
  atomic energy  EATOM  =      8345.74584120
  Solvation  Ediel_sol  =         0.00000000
  ---------------------------------------------------
  free energy    TOTEN  =       -22.51998215 eV

  energy without entropy =      -22.48685226  energy(sigma->0) =      -22.50893886


--------------------------------------------------------------------------------------------------------




--------------------------------------- Iteration      1(  26)  ---------------------------------------


    POTLOK:  cpu time      0.0169: real time      0.0171
    SETDIJ:  cpu time      0.0056: real time      0.0057
     EDDAV:  cpu time      0.1272: real time      0.1282
       DOS:  cpu time      0.0007: real time      0.0007
    CHARGE:  cpu time      0.0402: real time      0.0404
    MIXING:  cpu time      0.0020: real time      0.0020
    --------------------------------------------
      LOOP:  cpu time      0.1927: real time      0.1941

 eigenvalue-minimisations  :   516
 total energy-change (2. order) :-0.9213213E-02  (-0.1390278E-03)
 number of electron      66.0000069 magnetization       0.0176879
 augmentation part       42.1298707 magnetization       0.0129612

 Broyden mixing:
  rms(total) = 0.32342E-02    rms(broyden)= 0.32229E-02
  rms(prec ) = 0.35730E-02
  weight for this iteration     100.00

 eigenvalues of (default mixing * dielectric matrix)
  average eigenvalue GAMMA=   2.3140
 19.3729  8.1678  4.4985  2.6108  2.4675  1.5507  1.2953  0.8681  0.8681  0.8803
  0.8803  0.6809  0.6809  0.6972  0.6159  0.5438  0.4492  0.4338  0.4073  0.3078
  0.3171

 Free energy of the ion-electron system (eV)
  ---------------------------------------------------
  alpha Z        PSCENC =       181.10064324
  Ewald energy   TEWEN  =     32040.94092289
  -Hartree energ DENC   =    -40115.46065242
  -exchange      EXHF   =         0.00000000
  -V(xc)+E(xc)   XCENC  =       267.43321892
  PAW double counting   =      7832.45962807    -8477.84684300
  entropy T*S    EENTRO =        -0.03364988
  eigenvalues    EBANDS =       -96.86830437
  atomic energy  EATOM  =      8345.74584120
  Solvation  Ediel_sol  =         0.00000000
  ---------------------------------------------------
  free energy    TOTEN  =       -22.52919537 eV

  energy without entropy =      -22.49554548  energy(sigma->0) =      -22.51797874


--------------------------------------------------------------------------------------------------------




--------------------------------------- Iteration      1(  27)  ---------------------------------------


    POTLOK:  cpu time      0.0161: real time      0.0165
    SETDIJ:  cpu time      0.0054: real time      0.0055
     EDDAV:  cpu time      0.1039: real time      0.1047
       DOS:  cpu time      0.0008: real time      0.0007
    CHARGE:  cpu time      0.0398: real time      0.0400
    MIXING:  cpu time      0.0020: real time      0.0020
    --------------------------------------------
      LOOP:  cpu time      0.1681: real time      0.1694

 eigenvalue-minimisations  :   372
 total energy-change (2. order) :-0.3624335E-02  (-0.3196266E-04)
 number of electron      66.0000069 magnetization       0.0041094
 augmentation part       42.1334614 magnetization      -0.0064997

 Broyden mixing:
  rms(total) = 0.22897E-02    rms(broyden)= 0.22894E-02
  rms(prec ) = 0.26979E-02
  weight for this iteration     100.00

 eigenvalues of (default mixing * dielectric matrix)
  average eigenvalue GAMMA=   2.3071
 20.0804  8.6100  4.4411  2.6065  2.5044  1.6285  1.4083  1.1113  0.8851  0.8851
  0.7923  0.7923  0.6727  0.6727  0.6292  0.6145  0.5172  0.4497  0.4301  0.4001
  0.3078  0.3171

 Free energy of the ion-electron system (eV)
  ---------------------------------------------------
  alpha Z        PSCENC =       181.10064324
  Ewald energy   TEWEN  =     32040.94092289
  -Hartree energ DENC   =    -40114.92419997
  -exchange      EXHF   =         0.00000000
  -V(xc)+E(xc)   XCENC  =       267.42154770
  PAW double counting   =      7832.71249418    -8478.08406843
  entropy T*S    EENTRO =        -0.03366134
  eigenvalues    EBANDS =       -97.41233916
  atomic energy  EATOM  =      8345.74584120
  Solvation  Ediel_sol  =         0.00000000
  ---------------------------------------------------
  free energy    TOTEN  =       -22.53281970 eV

  energy without entropy =      -22.49915836  energy(sigma->0) =      -22.52159925


--------------------------------------------------------------------------------------------------------




--------------------------------------- Iteration      1(  28)  ---------------------------------------


    POTLOK:  cpu time      0.0161: real time      0.0163
    SETDIJ:  cpu time      0.0054: real time      0.0054
     EDDAV:  cpu time      0.1043: real time      0.1051
       DOS:  cpu time      0.0007: real time      0.0007
[...]
      4      -4.8829      1.00000
      5      -3.9618      1.00000
      6      -3.7987      1.00000
      7      -1.9457      1.00000
      8      -1.9114      1.00000
      9      -1.8564      1.00000
     10      -1.8564      1.00000
     11      -1.8493      1.00000
     12      -1.8493      1.00000
     13      -1.7060      1.00000
     14      -1.7060      1.00000
     15      -1.6248      1.00000
     16      -1.6248      1.00000
     17      -1.5922      1.00000
     18      -1.3344      1.00000
     19      -1.1891      1.00000
     20      -1.1891      1.00000
     21      -1.0695      1.00000
     22      -1.0695      1.00000
     23      -0.9784      1.00000
     24      -0.9784      1.00000
     25      -0.8910      1.00000
     26      -0.7880      1.00000
     27      -0.7880      1.00000
     28      -0.6544      1.00000
     29      -0.6544      1.00000
     30      -0.5315      1.00000
     31      -0.5315      1.00000
     32      -0.1263      1.00000
     33      -0.1263      1.00000
     34      -0.0315      1.00000
     35      -0.0315      1.00000
     36       0.6359      0.96159
     37       1.1474     -0.01250
     38       5.5766     -0.00000
     39       5.6036     -0.00000
     40       6.8264      0.00000
     41       6.9800      0.00000
     42       8.7450      0.00000
     43       9.1708      0.00000
     44      11.4931      0.00000

 k-point     2 :       0.3333    0.0000    0.0000
  band No.  band energies     occupation 
      1      -4.9489      1.00000
      2      -4.4011      1.00000
      3      -3.8064      1.00000
      4      -3.3193      1.00000
      5      -3.0133      1.00000
      6      -2.8844      1.00000
      7      -2.7759      1.00000
      8      -2.4687      1.00000
      9      -2.2523      1.00000
     10      -2.0483      1.00000
     11      -1.9074      1.00000
     12      -1.8340      1.00000
     13      -1.7970      1.00000
     14      -1.6670      1.00000
     15      -1.5143      1.00000
     16      -1.4741      1.00000
     17      -1.3137      1.00000
     18      -1.1179      1.00000
     19      -1.0516      1.00000
     20      -0.8695      1.00000
     21      -0.8355      1.00000
     22      -0.7633      1.00000
     23      -0.7533      1.00000
     24      -0.7065      1.00000
     25      -0.6150      1.00000
     26      -0.5173      1.00000
     27      -0.5046      1.00000
     28      -0.4041      1.00000
     29      -0.2210      1.00000
     30      -0.1851      1.00000
     31      -0.1092      1.00000
     32       0.0065      1.00000
     33       0.1216      1.00002
     34       0.7749      0.50849
     35       2.3010     -0.00000
     36       4.2178     -0.00000
     37       5.9008     -0.00000
     38       7.7754      0.00000
     39       8.2985      0.00000
     40       8.8624      0.00000
     41       9.2281      0.00000
     42       9.9099      0.00000
     43      10.1422      0.00000
     44      10.4152      0.00000

 k-point     3 :      -0.3333    0.3333    0.0000
  band No.  band energies     occupation 
      1      -2.9251      1.00000
      2      -2.9128      1.00000
      3      -2.8604      1.00000
      4      -2.7799      1.00000
      5      -2.7570      1.00000
      6      -2.7493      1.00000
      7      -2.6636      1.00000
      8      -2.5078      1.00000
      9      -2.4008      1.00000
     10      -2.2880      1.00000
     11      -2.2328      1.00000
     12      -2.0490      1.00000
     13      -2.0302      1.00000
     14      -1.7413      1.00000
     15      -1.5779      1.00000
     16      -1.1116      1.00000
     17      -1.1022      1.00000
     18      -1.0872      1.00000
     19      -1.0701      1.00000
     20      -1.0174      1.00000
     21      -0.9843      1.00000
     22      -0.9616      1.00000
     23      -0.6862      1.00000
     24      -0.6532      1.00000
     25      -0.4864      1.00000
     26      -0.4692      1.00000
     27      -0.3721      1.00000
     28      -0.2999      1.00000
     29      -0.2274      1.00000
     30      -0.1537      1.00000
     31       4.4162     -0.00000
     32       4.4734     -0.00000
     33       4.5134     -0.00000
     34       4.9688     -0.00000
     35       5.0531     -0.00000
     36       5.6849     -0.00000
     37       5.9869     -0.00000
     38       6.4847      0.00000
     39       6.5393      0.00000
     40       6.7570      0.00000
     41       7.7823      0.00000
     42       7.7976      0.00000
     43       9.2311      0.00000
     44       9.2557      0.00000


--------------------------------------------------------------------------------------------------------


 soft charge-density along one line, spin component           1
         0         1         2         3         4         5         6         7         8         9
 total charge-density along one line
 
 soft charge-density along one line, spin component           2
         0         1         2         3         4         5         6         7         8         9
 total charge-density along one line
 
 pseudopotential strength for first ion, spin component:           1
 -6.910  -0.000   0.000  -0.004   0.000  -1.694   0.000  -0.000
 -0.000  -6.951   0.000   0.000  -0.004   0.000  -1.666  -0.000
  0.000   0.000  -6.980   0.000   0.000  -0.000  -0.000  -1.646
 -0.004   0.000   0.000  -6.951  -0.000   0.003  -0.000  -0.000
  0.000  -0.004   0.000  -0.000  -6.910  -0.000   0.003  -0.000
 -1.694   0.000  -0.000   0.003  -0.000   8.175  -0.000   0.000
  0.000  -1.666  -0.000  -0.000   0.003  -0.000   8.157   0.000
 -0.000  -0.000  -1.646  -0.000  -0.000   0.000   0.000   8.143
  0.003  -0.000  -0.000  -1.666   0.000  -0.002  -0.000   0.000
 -0.000   0.003  -0.000   0.000  -1.694   0.000  -0.002   0.000
  0.000   0.000   0.003   0.000   0.000   0.000   0.000   0.001
  0.000   0.000   0.004   0.000   0.000   0.000   0.000   0.003
  0.000  -0.012  -0.000  -0.000   0.000   0.000   0.011  -0.000
 -0.000   0.000  -0.011   0.000  -0.000  -0.000  -0.000   0.009
  0.000  -0.000  -0.000  -0.012   0.000   0.000  -0.000  -0.000
  0.000  -0.014  -0.000   0.000   0.000   0.000   0.013  -0.000
  0.000   0.000  -0.012   0.000   0.000  -0.000  -0.000   0.010
  0.000   0.000  -0.000  -0.014   0.000   0.000  -0.000  -0.000
 pseudopotential strength for first ion, spin component:           2
 -6.910  -0.000   0.000  -0.004   0.000  -1.694   0.000  -0.000
 -0.000  -6.951   0.000   0.000  -0.004   0.000  -1.666  -0.000
  0.000   0.000  -6.980   0.000   0.000  -0.000  -0.000  -1.646
 -0.004   0.000   0.000  -6.951  -0.000   0.003  -0.000  -0.000
  0.000  -0.004   0.000  -0.000  -6.910  -0.000   0.003  -0.000
 -1.694   0.000  -0.000   0.003  -0.000   8.175  -0.000   0.000
  0.000  -1.666  -0.000  -0.000   0.003  -0.000   8.157   0.000
 -0.000  -0.000  -1.646  -0.000  -0.000   0.000   0.000   8.143
  0.003  -0.000  -0.000  -1.666   0.000  -0.002  -0.000   0.000
 -0.000   0.003  -0.000   0.000  -1.694   0.000  -0.002   0.000
  0.000   0.000   0.003   0.000   0.000   0.000   0.000   0.001
  0.000   0.000   0.004   0.000   0.000   0.000   0.000   0.003
  0.000  -0.012  -0.000  -0.000   0.000   0.000   0.011  -0.000
 -0.000   0.000  -0.011   0.000  -0.000  -0.000  -0.000   0.009
  0.000  -0.000  -0.000  -0.012   0.000   0.000  -0.000  -0.000
  0.000  -0.014  -0.000   0.000   0.000   0.000   0.013  -0.000
  0.000   0.000  -0.012   0.000   0.000  -0.000  -0.000   0.010
  0.000   0.000  -0.000  -0.014   0.000   0.000  -0.000  -0.000
 total augmentation occupancy for first ion, spin component:           1
  1.930   0.000  -0.000  -0.005   0.000  -0.018  -0.000   0.000   0.004   0.000   0.000  -0.000  -0.000  -0.000   0.006   0.000
  0.000   1.928   0.000   0.000  -0.005  -0.000  -0.029  -0.000  -0.000   0.004   0.000   0.000   0.002   0.000   0.000  -0.012
 -0.000   0.000   1.902   0.000  -0.000   0.000  -0.000  -0.020  -0.000   0.000  -0.091   0.028  -0.000   0.070  -0.000   0.000
 -0.005   0.000   0.000   1.928  -0.000   0.004  -0.000  -0.000  -0.029   0.000   0.000  -0.000   0.000   0.000   0.002  -0.000
  0.000  -0.005  -0.000  -0.000   1.930   0.000   0.004   0.000   0.000  -0.018   0.000  -0.000   0.006  -0.000   0.000  -0.001
 -0.018  -0.000   0.000   0.004  -0.000   0.013  -0.000  -0.000   0.000   0.000   0.000  -0.000  -0.000  -0.000   0.003   0.000
 -0.000  -0.029  -0.000  -0.000   0.004  -0.000   0.009  -0.000   0.000   0.000   0.000   0.000   0.016   0.000   0.000  -0.001
  0.000  -0.000  -0.020  -0.000   0.000  -0.000  -0.000   0.010  -0.000  -0.000  -0.026   0.001  -0.000   0.018  -0.000   0.000
  0.004  -0.000  -0.000  -0.029   0.000   0.000   0.000  -0.000   0.009   0.000  -0.000   0.000   0.000   0.000   0.016  -0.000
  0.000   0.004   0.000   0.000  -0.018   0.000   0.000  -0.000   0.000   0.013   0.000  -0.000   0.003  -0.000   0.000  -0.000
  0.000  -0.000  -0.091   0.000   0.000   0.000   0.000  -0.026   0.000   0.000   1.672  -0.138   0.000   0.148   0.000   0.000
 -0.000   0.000   0.028  -0.000  -0.000  -0.000   0.000   0.001   0.000  -0.000  -0.138   0.016   0.000  -0.022   0.000   0.000
 -0.000   0.002  -0.000   0.000   0.006  -0.000   0.016  -0.000   0.000   0.003   0.000   0.000   0.220  -0.000   0.000  -0.014
 -0.000   0.000   0.070   0.000  -0.000  -0.000   0.000   0.018   0.000  -0.000   0.148  -0.022   0.000   0.114   0.000   0.000
  0.006   0.000  -0.000   0.002   0.000   0.003   0.000  -0.000   0.016   0.000  -0.000  -0.000   0.000   0.000   0.220  -0.000
  0.000  -0.012   0.000  -0.000  -0.001   0.000  -0.001   0.000  -0.000  -0.000   0.000   0.000  -0.014   0.000  -0.000   0.001
  0.000  -0.000  -0.018   0.000   0.000   0.000   0.000  -0.001   0.000   0.000  -0.020   0.002   0.000  -0.009  -0.000   0.000
 -0.001  -0.000   0.000  -0.012  -0.000  -0.000  -0.000   0.000  -0.001  -0.000   0.000   0.000  -0.000  -0.000  -0.014   0.000
 total augmentation occupancy for first ion, spin component:           2
 -0.000   0.000   0.000  -0.000  -0.000  -0.000  -0.000   0.000   0.000  -0.000   0.000   0.000  -0.000  -0.000   0.000  -0.000
  0.000   0.000   0.000   0.000  -0.000   0.000  -0.000   0.000  -0.000  -0.000   0.000   0.000   0.000   0.000   0.000   0.000
  0.000   0.000  -0.000   0.000   0.000   0.000  -0.000  -0.000  -0.000   0.000  -0.000  -0.000  -0.000   0.000  -0.000  -0.000
 -0.000   0.000   0.000   0.000  -0.000  -0.000  -0.000   0.000  -0.000  -0.000   0.000   0.000   0.000   0.000   0.000   0.000
 -0.000  -0.000   0.000  -0.000  -0.000  -0.000   0.000   0.000   0.000  -0.000   0.000   0.000   0.000  -0.000   0.000   0.000
 -0.000   0.000   0.000  -0.000  -0.000  -0.000  -0.000   0.000   0.000  -0.000  -0.000  -0.000   0.000   0.000  -0.000  -0.000
 -0.000  -0.000  -0.000  -0.000   0.000  -0.000   0.000  -0.000   0.000   0.000   0.000   0.000   0.000   0.000   0.000  -0.000
  0.000   0.000  -0.000   0.000   0.000   0.000  -0.000  -0.000  -0.000   0.000   0.000   0.000   0.000  -0.000   0.000  -0.000
  0.000  -0.000  -0.000  -0.000   0.000   0.000   0.000  -0.000   0.000   0.000   0.000   0.000   0.000   0.000   0.000  -0.000
  0.000  -0.000   0.000  -0.000  -0.000  -0.000   0.000   0.000   0.000  -0.000  -0.000  -0.000  -0.000   0.000  -0.000   0.000
  0.000   0.000  -0.000   0.000   0.000  -0.000   0.000   0.000   0.000  -0.000  -0.000   0.000   0.000   0.000   0.000   0.000
  0.000   0.000  -0.000   0.000   0.000  -0.000   0.000   0.000   0.000  -0.000   0.000  -0.000   0.000   0.000   0.000  -0.000
 -0.000   0.000  -0.000   0.000   0.000   0.000   0.000   0.000   0.000  -0.000   0.000   0.000  -0.000   0.000  -0.000   0.000
 -0.000   0.000   0.000   0.000  -0.000   0.000   0.000  -0.000   0.000   0.000   0.000   0.000   0.000  -0.000   0.000   0.000
  0.000   0.000  -0.000   0.000   0.000  -0.000   0.000   0.000   0.000  -0.000   0.000   0.000  -0.000   0.000  -0.000   0.000
 -0.000   0.000  -0.000   0.000   0.000  -0.000  -0.000  -0.000  -0.000   0.000   0.000   0.000   0.000   0.000   0.000  -0.000
 -0.000   0.000   0.000   0.000  -0.000  -0.000   0.000   0.000  -0.000  -0.000  -0.000  -0.000   0.000   0.000   0.000   0.000
  0.000   0.000  -0.000   0.000   0.000   0.000  -0.000  -0.000  -0.000   0.000   0.000   0.000   0.000   0.000   0.000  -0.000


------------------------ aborting loop because EDIFF is reached ----------------------------------------



 DIPCOR: dipole corrections for dipol
 direction  3 min pos   173,
 dipolmoment           0.000000      0.000000     -0.005547 electrons x Angstroem
 Tr[quadrupol]       -63.615877

 energy correction for charged system         0.000000 eV
 dipol+quadrupol energy correction            0.000019 eV
 added-field ion interaction          0.000000 eV  (added to PSCEN)

 
  *************** adding dipol energy to TOTEN NOW **************** 
    CHARGE:  cpu time      0.0396: real time      0.0397
    FORLOC:  cpu time      0.0005: real time      0.0005
    FORNL :  cpu time      0.0413: real time      0.0414
    STRESS:  cpu time      0.0580: real time      0.0583
    FORCOR:  cpu time      0.0159: real time      0.0160
    FORHAR:  cpu time      0.0022: real time      0.0022
    MIXING:  cpu time      0.0004: real time      0.0004
    OFIELD:  cpu time      0.0000: real time      0.0000

 ---------------------------------------------------------------------------------------------

         DFTD3 V3.0 Rev 1        
 Edisp (eV)   -2.42061

 E6    (eV) :    -0.9879
 E8    (eV) :    -1.4327
 % E8        : 59.19
    FORVDW:  cpu time      0.0290: real time      0.0291

  FORCE on cell =-STRESS in cart. coord.  units (eV):
  Direction    XX          YY          ZZ          XY          YZ          ZX
  --------------------------------------------------------------------------------------
  Alpha Z   181.10064   181.10064   181.10064
  Ewald   38427.64928 38427.64928-42823.81547     0.00000     0.00000     0.00000
  Hartree 40730.16275 40730.16275-39362.56750     0.00000    -0.00000    -0.00000
  E(xc)    -385.80768  -385.80758  -386.25318    -0.00008     0.00000     0.00000
  Local  -79934.99140-79934.99487 81420.82683     0.00300    -0.00000    -0.00000
  n-local  -130.89371  -125.08758  -132.78061     5.02828    -0.78025     1.35596
  augment   569.59949   569.60277   565.09731    -0.00284    -0.00000    -0.00000
  Kinetic   548.08537   530.81130   539.44709   -14.95942    -1.50834     2.61261
  Fock        0.00000     0.00000     0.00000     0.00000     0.00000     0.00000
  vdW        -2.95632    -2.95632    -2.27986    -0.00000     0.00000     0.00000
  -------------------------------------------------------------------------------------
  Total      -3.78560    -3.78560    -1.22476    -0.00000    -0.00000    -0.00000
  in kB     -41.72058   -41.72058   -13.49788    -0.00000    -0.00000    -0.00000
  external pressure =      -32.31 kB  Pullay stress =        0.00 kB


 VOLUME and BASIS-vectors are now :
 -----------------------------------------------------------------------------
  energy-cutoff  :      400.00
  volume of cell :      145.38
      direct lattice vectors                 reciprocal lattice vectors
     2.566797733  0.000000000  0.000000000     0.389590495 -0.224930177  0.000000000
     1.283398867  2.222912043  0.000000000     0.000000000  0.449860355  0.000000000
     0.000000000  0.000000000 25.478907690     0.000000000  0.000000000  0.039248150

  length of vectors
     2.566797733  2.566797733 25.478907690     0.449860355  0.449860355  0.039248150


 FORCES acting on ions
    electron-ion (+dipol)            ewald-force                    non-local-force                 convergence-correction
 -----------------------------------------------------------------------------------------------
   -.367E-05 -.212E-05 0.495E+04   0.797E-08 -.252E-08 -.494E+04   -.347E-17 -.694E-17 -.288E+01   -.935E-08 -.540E-08 0.876E-02
   0.142E-05 0.205E-05 0.301E+04   -.238E-07 -.544E-09 -.301E+04   0.000E+00 0.139E-16 0.442E+00   -.525E-08 -.297E-08 -.129E+00
   -.765E-05 -.414E-05 0.101E+04   0.251E-07 0.990E-08 -.101E+04   0.520E-17 0.000E+00 0.540E+00   -.217E-06 -.125E-06 -.249E+00
   0.633E-06 0.366E-06 -.986E+03   0.199E-09 -.984E-08 0.987E+03   0.173E-17 -.347E-17 -.304E+00   -.523E-06 -.302E-06 -.328E+00
   0.982E-05 0.690E-05 -.299E+04   -.260E-07 -.208E-09 0.299E+04   0.208E-16 -.139E-16 -.629E+00   -.131E-05 -.759E-06 -.381E+00
   -.764E-05 -.413E-05 -.499E+04   0.165E-07 0.320E-08 0.499E+04   0.347E-17 0.000E+00 0.321E+01   -.394E-06 -.227E-06 -.142E+00
 -----------------------------------------------------------------------------------------------
   -.711E-05 -.109E-05 0.930E+00   0.190E-12 -.385E-13 -.909E-12   0.278E-16 -.104E-16 0.377E+00   -.246E-05 -.142E-05 -.122E+01
 
 
 POSITION                                       TOTAL-FORCE (eV/Angst)
 -----------------------------------------------------------------------------------
      0.00000      0.00000      0.00000        -0.000000      0.000000      0.420176
      1.28340      0.74097      2.09578         0.000000      0.000000     -0.435648
      2.56680      1.48194      4.11943        -0.000000     -0.000000      0.022570
     -0.00000      0.00000      6.15946        -0.000000      0.000000     -0.007813
      1.28340      0.74097      8.19150         0.000000      0.000000      0.021421
      2.56680      1.48194     10.20008        -0.000000     -0.000000     -0.020705
 -----------------------------------------------------------------------------------
    total drift:                               -0.000010     -0.000003      0.086897


--------------------------------------------------------------------------------------------------------



  FREE ENERGIE OF THE ION-ELECTRON SYSTEM (eV)
  ---------------------------------------------------
  free  energy   TOTEN  =       -24.94892638 eV

  energy  without entropy=      -24.91250655  energy(sigma->0) =      -24.93678644
 
 d Force = 0.3872943E-04[-0.220E-04, 0.994E-04]  d Energy = 0.5897278E-04-0.202E-04
 d Force =-0.1666145E+02[-0.167E+02,-0.167E+02]  d Ewald  =-0.1666145E+02 0.575E-07


--------------------------------------------------------------------------------------------------------


    POTLOK:  cpu time      0.0229: real time      0.0231


--------------------------------------------------------------------------------------------------------


 stress matrix after NEB project (eV)
     -3.78560     -0.00000     -0.00000
     -0.00000     -3.78560      0.00000
     -0.00000     -0.00000     -1.22476
  FORCES: max atom, RMS     0.022570    0.015589
  FORCE total and by dimension    0.038184    0.022570
  Stress total and by dimension    5.491952    3.785598


--------------------------------------------------------------------------------------------------------


  
 reached required accuracy - stopping structural energy minimisation
     LOOP+:  cpu time      0.5707: real time      0.6239
    4ORBIT:  cpu time      0.0000: real time      0.0000

 total amount of memory used by VASP MPI-rank0    33003. kBytes
=======================================================================

   base      :      30000. kBytes
   nonl-proj :        285. kBytes
   fftplans  :        601. kBytes
   grid      :       1447. kBytes
   one-center:         62. kBytes
   wavefun   :        608. kBytes
 
  
  
 General timing and accounting informations for this job:
 ========================================================
  
                  Total CPU time used (sec):       24.232
                            User time (sec):       23.949
                          System time (sec):        0.283
                         Elapsed time (sec):       25.754
  
                   Maximum memory used (kb):      215708.
                   Average memory used (kb):          N/A
  
                          Minor page faults:        66900
                          Major page faults:         6400
                 Voluntary context switches:         2033
