unknown system                          
           1
     2.566798    0.000000    0.000000
     1.283399    2.222912    0.000000
     0.000000    0.000000   25.478908
   Cu
     6
Direct configuration=     1
   0.00000000  0.00000000  0.00000000
   0.33333333  0.33333333  0.08225555
   0.66666667  0.66666667  0.16451110
   0.00000000  0.00000000  0.24676665
   0.33333333  0.33333333  0.32902220
   0.66666667  0.66666667  0.41127774
Direct configuration=     2
   0.00000000  0.00000000  0.00000000
   0.33333333  0.33333333  0.08225555
   0.66666667  0.66666667  0.16444286
  -0.00000000  0.00000000  0.24680396
   0.33333333  0.33333333  0.32925147
   0.66666667  0.66666667  0.41043755
Direct configuration=     3
   0.00000000  0.00000000  0.00000000
   0.33333333  0.33333333  0.08225555
   0.66666667  0.66666667  0.16426010
  -0.00000000  0.00000000  0.24690391
   0.33333333  0.33333333  0.32986551
   0.66666667  0.66666667  0.40818741
Direct configuration=     4
   0.00000000  0.00000000  0.00000000
   0.33333333  0.33333333  0.08225555
   0.66666667  0.66666667  0.16430377
  -0.00000000  0.00000000  0.24688002
   0.33333333  0.33333333  0.32971878
   0.66666667  0.66666667  0.40872511
Direct configuration=     5
   0.00000000  0.00000000  0.00000000
   0.33333333  0.33333333  0.08225555
   0.66666667  0.66666667  0.16427538
  -0.00000000  0.00000000  0.24697540
   0.33333333  0.33333333  0.32907734
   0.66666667  0.66666667  0.40799496
Direct configuration=     6
   0.00000000  0.00000000  0.00000000
   0.33333333  0.33333333  0.08225555
   0.66666667  0.66666667  0.16419023
  -0.00000000  0.00000000  0.24726152
   0.33333333  0.33333333  0.32715303
   0.66666667  0.66666667  0.40580450
Direct configuration=     7
   0.00000000  0.00000000  0.00000000
   0.33333333  0.33333333  0.08225555
   0.66666667  0.66666667  0.16429264
  -0.00000000  0.00000000  0.24666741
   0.33333333  0.33333333  0.32650087
   0.66666667  0.66666667  0.40515007
Direct configuration=     8
   0.00000000  0.00000000  0.00000000
   0.33333333  0.33333333  0.08225555
   0.66666667  0.66666667  0.16459987
  -0.00000000  0.00000000  0.24488509
   0.33333333  0.33333333  0.32454441
   0.66666667  0.66666667  0.40318677
Direct configuration=     9
   0.00000000  0.00000000  0.00000000
   0.33333333  0.33333333  0.08225555
   0.66666667  0.66666667  0.16379627
  -0.00000000  0.00000000  0.24404337
   0.33333333  0.33333333  0.32381253
   0.66666667  0.66666667  0.40246524
Direct configuration=    10
   0.00000000  0.00000000  0.00000000
   0.33333333  0.33333333  0.08225555
   0.66666667  0.66666667  0.16138545
  -0.00000000  0.00000000  0.24151818
   0.33333333  0.33333333  0.32161687
   0.66666667  0.66666667  0.40030066
Direct configuration=    11
   0.00000000  0.00000000  0.00000000
   0.33333333  0.33333333  0.08225555
   0.66666667  0.66666667  0.16188392
  -0.00000000  0.00000000  0.24204030
   0.33333333  0.33333333  0.32207085
   0.66666667  0.66666667  0.40074822
Direct configuration=    12
   0.00000000  0.00000000  0.00000000
   0.33333333  0.33333333  0.08225555
   0.66666667  0.66666667  0.16173416
  -0.00000000  0.00000000  0.24188343
   0.33333333  0.33333333  0.32193446
   0.66666667  0.66666667  0.40061375
Direct configuration=    13
   0.00000000  0.00000000  0.00000000
   0.33333333  0.33333333  0.08225555
   0.66666667  0.66666667  0.16167131
  -0.00000000  0.00000000  0.24172482
   0.33333333  0.33333333  0.32142983
   0.66666667  0.66666667  0.40028827
Direct configuration=    14
   0.00000000  0.00000000  0.00000000
   0.33333333  0.33333333  0.08225555
   0.66666667  0.66666667  0.16169294
  -0.00000000  0.00000000  0.24177940
   0.33333333  0.33333333  0.32160347
   0.66666667  0.66666667  0.40040026
Direct configuration=    15
   0.00000000  0.00000000  0.00000000
   0.33333333  0.33333333  0.08225555
   0.66666667  0.66666667  0.16168019
  -0.00000000  0.00000000  0.24174724
   0.33333333  0.33333333  0.32150115
   0.66666667  0.66666667  0.40033427
