 126 126   0   0
  0.2436785E+02  0.1089000E-08  0.1089000E-08  0.2589000E-08  0.5000000E-15
  1.000000000000000E-004
  CAR 
 unknown system                          
     12.41746046     -9.86716376  301      1.44666691      1.00000000
     -9.867  0.0000E+00  0.0000E+00  0.0000E+00  0.0000E+00
     -9.793  0.0000E+00  0.0000E+00  0.0000E+00  0.0000E+00
     -9.719  0.0000E+00  0.0000E+00  0.0000E+00  0.0000E+00
     -9.644  0.0000E+00  0.0000E+00  0.0000E+00  0.0000E+00
     -9.570  0.0000E+00  0.0000E+00  0.0000E+00  0.0000E+00
     -9.496 -0.6854E-31 -0.6854E-31 -0.5091E-32 -0.5091E-32
     -9.421 -0.2407E-28 -0.2407E-28 -0.1793E-29 -0.1793E-29
     -9.347 -0.6412E-26 -0.6412E-26 -0.4781E-27 -0.4781E-27
     -9.273 -0.1293E-23 -0.1293E-23 -0.9651E-25 -0.9651E-25
     -9.199 -0.1972E-21 -0.1972E-21 -0.1474E-22 -0.1474E-22
     -9.124 -0.2274E-19 -0.2274E-19 -0.1704E-20 -0.1704E-20
     -9.050 -0.1878E-17 -0.1878E-17 -0.1412E-18 -0.1412E-18
     -8.976 -0.1264E-15 -0.1264E-15 -0.9527E-17 -0.9527E-17
     -8.901 -0.6246E-14 -0.6246E-14 -0.4735E-15 -0.4735E-15
     -8.827 -0.2326E-12 -0.2326E-12 -0.1775E-13 -0.1775E-13
     -8.753 -0.6514E-11 -0.6514E-11 -0.5016E-12 -0.5016E-12
     -8.679 -0.1369E-09 -0.1369E-09 -0.1067E-10 -0.1067E-10
     -8.604 -0.2155E-08 -0.2155E-08 -0.1707E-09 -0.1707E-09
     -8.530 -0.2530E-07 -0.2530E-07 -0.2050E-08 -0.2050E-08
     -8.456 -0.2209E-06 -0.2209E-06 -0.1846E-07 -0.1846E-07
     -8.382 -0.1425E-05 -0.1425E-05 -0.1243E-06 -0.1243E-06
     -8.307 -0.6744E-05 -0.6744E-05 -0.6253E-06 -0.6253E-06
     -8.233 -0.2305E-04 -0.2305E-04 -0.2338E-05 -0.2338E-05
     -8.159 -0.5502E-04 -0.5502E-04 -0.6424E-05 -0.6424E-05
     -8.084 -0.8119E-04 -0.8119E-04 -0.1246E-04 -0.1246E-04
     -8.010 -0.2063E-04 -0.2063E-04 -0.1399E-04 -0.1399E-04
     -7.936  0.2727E-03  0.2727E-03  0.6268E-05  0.6268E-05
     -7.862  0.9435E-03  0.9435E-03  0.7635E-04  0.7635E-04
     -7.787  0.1977E-02  0.1977E-02  0.2232E-03  0.2232E-03
     -7.713  0.3049E-02  0.3049E-02  0.4497E-03  0.4497E-03
     -7.639  0.3619E-02  0.3619E-02  0.7185E-03  0.7185E-03
     -7.564  0.3299E-02  0.3299E-02  0.9636E-03  0.9636E-03
     -7.490  0.2288E-02  0.2288E-02  0.1134E-02  0.1134E-02
     -7.416  0.1473E-02  0.1473E-02  0.1243E-02  0.1243E-02
     -7.342  0.1840E-02  0.1840E-02  0.1380E-02  0.1380E-02
     -7.267  0.3553E-02  0.3553E-02  0.1644E-02  0.1644E-02
     -7.193  0.5691E-02  0.5691E-02  0.2066E-02  0.2066E-02
     -7.119  0.6922E-02  0.6922E-02  0.2580E-02  0.2580E-02
     -7.044  0.6604E-02  0.6604E-02  0.3071E-02  0.3071E-02
     -6.970  0.5310E-02  0.5310E-02  0.3465E-02  0.3465E-02
     -6.896  0.4101E-02  0.4101E-02  0.3770E-02  0.3770E-02
     -6.822  0.3536E-02  0.3536E-02  0.4033E-02  0.4033E-02
     -6.747  0.3731E-02  0.3731E-02  0.4310E-02  0.4310E-02
     -6.673  0.4943E-02  0.4943E-02  0.4677E-02  0.4677E-02
     -6.599  0.7400E-02  0.7400E-02  0.5227E-02  0.5227E-02
     -6.524  0.1033E-01  0.1033E-01  0.5994E-02  0.5994E-02
     -6.450  0.1161E-01  0.1161E-01  0.6856E-02  0.6856E-02
     -6.376  0.9501E-02  0.9501E-02  0.7562E-02  0.7562E-02
     -6.302  0.5143E-02  0.5143E-02  0.7944E-02  0.7944E-02
     -6.227  0.2123E-02  0.2123E-02  0.8102E-02  0.8102E-02
     -6.153  0.2949E-02  0.2949E-02  0.8321E-02  0.8321E-02
     -6.079  0.6631E-02  0.6631E-02  0.8813E-02  0.8813E-02
     -6.004  0.1007E-01  0.1007E-01  0.9561E-02  0.9561E-02
     -5.930  0.1133E-01  0.1133E-01  0.1040E-01  0.1040E-01
     -5.856  0.1079E-01  0.1079E-01  0.1120E-01  0.1120E-01
     -5.782  0.9570E-02  0.9570E-02  0.1191E-01  0.1191E-01
     -5.707  0.8696E-02  0.8696E-02  0.1256E-01  0.1256E-01
     -5.633  0.9514E-02  0.9514E-02  0.1327E-01  0.1327E-01
     -5.559  0.1255E-01  0.1255E-01  0.1420E-01  0.1420E-01
     -5.485  0.1561E-01  0.1561E-01  0.1536E-01  0.1536E-01
     -5.410  0.1534E-01  0.1534E-01  0.1650E-01  0.1650E-01
     -5.336  0.1142E-01  0.1142E-01  0.1735E-01  0.1735E-01
     -5.262  0.7303E-02  0.7303E-02  0.1789E-01  0.1789E-01
     -5.187  0.6032E-02  0.6032E-02  0.1834E-01  0.1834E-01
     -5.113  0.7418E-02  0.7418E-02  0.1889E-01  0.1889E-01
     -5.039  0.9999E-02  0.9999E-02  0.1963E-01  0.1963E-01
     -4.965  0.1268E-01  0.1268E-01  0.2057E-01  0.2057E-01
     -4.890  0.1433E-01  0.1433E-01  0.2164E-01  0.2164E-01
     -4.816  0.1499E-01  0.1499E-01  0.2275E-01  0.2275E-01
     -4.742  0.1693E-01  0.1693E-01  0.2401E-01  0.2401E-01
     -4.667  0.2070E-01  0.2070E-01  0.2555E-01  0.2555E-01
     -4.593  0.2219E-01  0.2219E-01  0.2719E-01  0.2719E-01
     -4.519  0.1812E-01  0.1812E-01  0.2854E-01  0.2854E-01
     -4.445  0.1219E-01  0.1219E-01  0.2945E-01  0.2945E-01
     -4.370  0.1109E-01  0.1109E-01  0.3027E-01  0.3027E-01
     -4.296  0.1578E-01  0.1578E-01  0.3144E-01  0.3144E-01
     -4.222  0.2119E-01  0.2119E-01  0.3302E-01  0.3302E-01
     -4.147  0.2351E-01  0.2351E-01  0.3476E-01  0.3476E-01
     -4.073  0.2397E-01  0.2397E-01  0.3654E-01  0.3654E-01
     -3.999  0.2586E-01  0.2586E-01  0.3846E-01  0.3846E-01
     -3.925  0.3055E-01  0.3055E-01  0.4073E-01  0.4073E-01
     -3.850  0.3586E-01  0.3586E-01  0.4340E-01  0.4340E-01
     -3.776  0.3806E-01  0.3806E-01  0.4622E-01  0.4622E-01
     -3.702  0.3716E-01  0.3716E-01  0.4898E-01  0.4898E-01
     -3.627  0.3909E-01  0.3909E-01  0.5189E-01  0.5189E-01
     -3.553  0.4952E-01  0.4952E-01  0.5557E-01  0.5557E-01
     -3.479  0.6586E-01  0.6586E-01  0.6046E-01  0.6046E-01
     -3.405  0.7847E-01  0.7847E-01  0.6629E-01  0.6629E-01
     -3.330  0.8146E-01  0.8146E-01  0.7234E-01  0.7234E-01
     -3.256  0.7948E-01  0.7948E-01  0.7824E-01  0.7824E-01
     -3.182  0.8162E-01  0.8162E-01  0.8431E-01  0.8431E-01
     -3.107  0.9076E-01  0.9076E-01  0.9105E-01  0.9105E-01
     -3.033  0.1031E+00  0.1031E+00  0.9871E-01  0.9871E-01
     -2.959  0.1173E+00  0.1173E+00  0.1074E+00  0.1074E+00
     -2.885  0.1374E+00  0.1374E+00  0.1176E+00  0.1176E+00
     -2.810  0.1636E+00  0.1636E+00  0.1298E+00  0.1298E+00
     -2.736  0.1843E+00  0.1843E+00  0.1435E+00  0.1435E+00
     -2.662  0.1858E+00  0.1858E+00  0.1573E+00  0.1573E+00
     -2.588  0.1697E+00  0.1697E+00  0.1699E+00  0.1699E+00
     -2.513  0.1511E+00  0.1511E+00  0.1811E+00  0.1811E+00
     -2.439  0.1419E+00  0.1419E+00  0.1916E+00  0.1916E+00
     -2.365  0.1416E+00  0.1416E+00  0.2022E+00  0.2022E+00
     -2.290  0.1451E+00  0.1451E+00  0.2129E+00  0.2129E+00
     -2.216  0.1512E+00  0.1512E+00  0.2242E+00  0.2242E+00
     -2.142  0.1638E+00  0.1638E+00  0.2363E+00  0.2363E+00
     -2.068  0.1842E+00  0.1842E+00  0.2500E+00  0.2500E+00
     -1.993  0.2057E+00  0.2057E+00  0.2653E+00  0.2653E+00
     -1.919  0.2208E+00  0.2208E+00  0.2817E+00  0.2817E+00
     -1.845  0.2303E+00  0.2303E+00  0.2988E+00  0.2988E+00
     -1.770  0.2402E+00  0.2402E+00  0.3167E+00  0.3167E+00
     -1.696  0.2537E+00  0.2537E+00  0.3355E+00  0.3355E+00
     -1.622  0.2687E+00  0.2687E+00  0.3555E+00  0.3555E+00
     -1.548  0.2798E+00  0.2798E+00  0.3762E+00  0.3762E+00
     -1.473  0.2807E+00  0.2807E+00  0.3971E+00  0.3971E+00
     -1.399  0.2682E+00  0.2682E+00  0.4170E+00  0.4170E+00
     -1.325  0.2472E+00  0.2472E+00  0.4354E+00  0.4354E+00
     -1.250  0.2293E+00  0.2293E+00  0.4524E+00  0.4524E+00
     -1.176  0.2263E+00  0.2263E+00  0.4692E+00  0.4692E+00
     -1.102  0.2418E+00  0.2418E+00  0.4872E+00  0.4872E+00
     -1.028  0.2678E+00  0.2678E+00  0.5071E+00  0.5071E+00
     -0.953  0.2917E+00  0.2917E+00  0.5287E+00  0.5287E+00
     -0.879  0.3046E+00  0.3046E+00  0.5514E+00  0.5514E+00
     -0.805  0.3037E+00  0.3037E+00  0.5739E+00  0.5739E+00
     -0.730  0.2926E+00  0.2926E+00  0.5957E+00  0.5957E+00
     -0.656  0.2826E+00  0.2826E+00  0.6166E+00  0.6166E+00
     -0.582  0.2874E+00  0.2874E+00  0.6380E+00  0.6380E+00
     -0.508  0.3121E+00  0.3121E+00  0.6612E+00  0.6612E+00
     -0.433  0.3496E+00  0.3496E+00  0.6872E+00  0.6872E+00
     -0.359  0.3856E+00  0.3856E+00  0.7158E+00  0.7158E+00
     -0.285  0.4020E+00  0.4020E+00  0.7457E+00  0.7457E+00
     -0.210  0.3815E+00  0.3815E+00  0.7740E+00  0.7740E+00
     -0.136  0.3187E+00  0.3187E+00  0.7977E+00  0.7977E+00
     -0.062  0.2294E+00  0.2294E+00  0.8147E+00  0.8147E+00
      0.012  0.1414E+00  0.1414E+00  0.8252E+00  0.8252E+00
      0.087  0.7663E-01  0.7663E-01  0.8309E+00  0.8309E+00
      0.161  0.4016E-01  0.4016E-01  0.8339E+00  0.8339E+00
      0.235  0.2360E-01  0.2360E-01  0.8356E+00  0.8356E+00
      0.309  0.1699E-01  0.1699E-01  0.8369E+00  0.8369E+00
      0.384  0.1696E-01  0.1696E-01  0.8382E+00  0.8382E+00
      0.458  0.2404E-01  0.2404E-01  0.8399E+00  0.8399E+00
      0.532  0.3482E-01  0.3482E-01  0.8425E+00  0.8425E+00
      0.607  0.4128E-01  0.4128E-01  0.8456E+00  0.8456E+00
      0.681  0.3910E-01  0.3910E-01  0.8485E+00  0.8485E+00
      0.755  0.3238E-01  0.3238E-01  0.8509E+00  0.8509E+00
      0.829  0.2730E-01  0.2730E-01  0.8529E+00  0.8529E+00
      0.904  0.2502E-01  0.2502E-01  0.8548E+00  0.8548E+00
      0.978  0.2320E-01  0.2320E-01  0.8565E+00  0.8565E+00
      1.052  0.2079E-01  0.2079E-01  0.8581E+00  0.8581E+00
      1.127  0.1824E-01  0.1824E-01  0.8594E+00  0.8594E+00
      1.201  0.1618E-01  0.1618E-01  0.8606E+00  0.8606E+00
      1.275  0.1635E-01  0.1635E-01  0.8618E+00  0.8618E+00
      1.349  0.2090E-01  0.2090E-01  0.8634E+00  0.8634E+00
      1.424  0.2842E-01  0.2842E-01  0.8655E+00  0.8655E+00
      1.498  0.3375E-01  0.3375E-01  0.8680E+00  0.8680E+00
      1.572  0.3379E-01  0.3379E-01  0.8705E+00  0.8705E+00
      1.647  0.3056E-01  0.3056E-01  0.8728E+00  0.8728E+00
      1.721  0.2764E-01  0.2764E-01  0.8748E+00  0.8748E+00
      1.795  0.2612E-01  0.2612E-01  0.8768E+00  0.8768E+00
      1.869  0.2501E-01  0.2501E-01  0.8786E+00  0.8786E+00
      1.944  0.2359E-01  0.2359E-01  0.8804E+00  0.8804E+00
      2.018  0.2184E-01  0.2184E-01  0.8820E+00  0.8820E+00
      2.092  0.1943E-01  0.1943E-01  0.8835E+00  0.8835E+00
      2.167  0.1696E-01  0.1696E-01  0.8847E+00  0.8847E+00
      2.241  0.1650E-01  0.1650E-01  0.8859E+00  0.8859E+00
      2.315  0.1830E-01  0.1830E-01  0.8873E+00  0.8873E+00
      2.389  0.1970E-01  0.1970E-01  0.8888E+00  0.8888E+00
      2.464  0.1975E-01  0.1975E-01  0.8902E+00  0.8902E+00
      2.538  0.2166E-01  0.2166E-01  0.8918E+00  0.8918E+00
      2.612  0.2774E-01  0.2774E-01  0.8939E+00  0.8939E+00
      2.687  0.3396E-01  0.3396E-01  0.8964E+00  0.8964E+00
      2.761  0.3348E-01  0.3348E-01  0.8989E+00  0.8989E+00
      2.835  0.2554E-01  0.2554E-01  0.9008E+00  0.9008E+00
      2.909  0.1725E-01  0.1725E-01  0.9021E+00  0.9021E+00
      2.984  0.1508E-01  0.1508E-01  0.9032E+00  0.9032E+00
      3.058  0.1823E-01  0.1823E-01  0.9046E+00  0.9046E+00
      3.132  0.2213E-01  0.2213E-01  0.9062E+00  0.9062E+00
      3.206  0.2453E-01  0.2453E-01  0.9080E+00  0.9080E+00
      3.281  0.2558E-01  0.2558E-01  0.9099E+00  0.9099E+00
      3.355  0.2530E-01  0.2530E-01  0.9118E+00  0.9118E+00
      3.429  0.2393E-01  0.2393E-01  0.9136E+00  0.9136E+00
      3.504  0.2269E-01  0.2269E-01  0.9153E+00  0.9153E+00
      3.578  0.2194E-01  0.2194E-01  0.9169E+00  0.9169E+00
      3.652  0.2039E-01  0.2039E-01  0.9184E+00  0.9184E+00
      3.726  0.1727E-01  0.1727E-01  0.9197E+00  0.9197E+00
      3.801  0.1380E-01  0.1380E-01  0.9207E+00  0.9207E+00
      3.875  0.1146E-01  0.1146E-01  0.9216E+00  0.9216E+00
      3.949  0.1065E-01  0.1065E-01  0.9224E+00  0.9224E+00
      4.024  0.1133E-01  0.1133E-01  0.9232E+00  0.9232E+00
      4.098  0.1369E-01  0.1369E-01  0.9242E+00  0.9242E+00
      4.172  0.1826E-01  0.1826E-01  0.9256E+00  0.9256E+00
      4.246  0.2489E-01  0.2489E-01  0.9274E+00  0.9274E+00
      4.321  0.3070E-01  0.3070E-01  0.9297E+00  0.9297E+00
      4.395  0.3092E-01  0.3092E-01  0.9320E+00  0.9320E+00
      4.469  0.2447E-01  0.2447E-01  0.9338E+00  0.9338E+00
      4.544  0.1668E-01  0.1668E-01  0.9351E+00  0.9351E+00
      4.618  0.1348E-01  0.1348E-01  0.9361E+00  0.9361E+00
      4.692  0.1532E-01  0.1532E-01  0.9372E+00  0.9372E+00
      4.766  0.1932E-01  0.1932E-01  0.9386E+00  0.9386E+00
      4.841  0.2365E-01  0.2365E-01  0.9404E+00  0.9404E+00
      4.915  0.2728E-01  0.2728E-01  0.9424E+00  0.9424E+00
      4.989  0.2860E-01  0.2860E-01  0.9445E+00  0.9445E+00
      5.064  0.2702E-01  0.2702E-01  0.9466E+00  0.9466E+00
      5.138  0.2458E-01  0.2458E-01  0.9484E+00  0.9484E+00
      5.212  0.2385E-01  0.2385E-01  0.9502E+00  0.9502E+00
      5.286  0.2421E-01  0.2421E-01  0.9520E+00  0.9520E+00
      5.361  0.2313E-01  0.2313E-01  0.9537E+00  0.9537E+00
      5.435  0.2074E-01  0.2074E-01  0.9552E+00  0.9552E+00
      5.509  0.1976E-01  0.1976E-01  0.9567E+00  0.9567E+00
      5.584  0.2136E-01  0.2136E-01  0.9583E+00  0.9583E+00
      5.658  0.2399E-01  0.2399E-01  0.9600E+00  0.9600E+00
      5.732  0.2552E-01  0.2552E-01  0.9619E+00  0.9619E+00
      5.806  0.2410E-01  0.2410E-01  0.9637E+00  0.9637E+00
      5.881  0.1966E-01  0.1966E-01  0.9652E+00  0.9652E+00
      5.955  0.1592E-01  0.1592E-01  0.9664E+00  0.9664E+00
      6.029  0.1754E-01  0.1754E-01  0.9677E+00  0.9677E+00
      6.103  0.2439E-01  0.2439E-01  0.9695E+00  0.9695E+00
      6.178  0.3167E-01  0.3167E-01  0.9718E+00  0.9718E+00
      6.252  0.3632E-01  0.3632E-01  0.9745E+00  0.9745E+00
      6.326  0.3951E-01  0.3951E-01  0.9775E+00  0.9775E+00
      6.401  0.4166E-01  0.4166E-01  0.9806E+00  0.9806E+00
      6.475  0.4005E-01  0.4005E-01  0.9835E+00  0.9835E+00
      6.549  0.3394E-01  0.3394E-01  0.9861E+00  0.9861E+00
      6.623  0.2758E-01  0.2758E-01  0.9881E+00  0.9881E+00
      6.698  0.2558E-01  0.2558E-01  0.9900E+00  0.9900E+00
      6.772  0.2878E-01  0.2878E-01  0.9922E+00  0.9922E+00
      6.846  0.3493E-01  0.3493E-01  0.9947E+00  0.9947E+00
      6.921  0.3995E-01  0.3995E-01  0.9977E+00  0.9977E+00
      6.995  0.3902E-01  0.3902E-01  0.1001E+01  0.1001E+01
      7.069  0.3092E-01  0.3092E-01  0.1003E+01  0.1003E+01
      7.143  0.2074E-01  0.2074E-01  0.1004E+01  0.1004E+01
      7.218  0.1466E-01  0.1466E-01  0.1006E+01  0.1006E+01
      7.292  0.1370E-01  0.1370E-01  0.1007E+01  0.1007E+01
      7.366  0.1558E-01  0.1559E-01  0.1008E+01  0.1008E+01
      7.441  0.1937E-01  0.1937E-01  0.1009E+01  0.1009E+01
      7.515  0.2453E-01  0.2453E-01  0.1011E+01  0.1011E+01
      7.589  0.2958E-01  0.2957E-01  0.1013E+01  0.1013E+01
      7.663  0.3457E-01  0.3456E-01  0.1016E+01  0.1016E+01
      7.738  0.4093E-01  0.4093E-01  0.1019E+01  0.1019E+01
      7.812  0.4709E-01  0.4709E-01  0.1022E+01  0.1022E+01
      7.886  0.4795E-01  0.4796E-01  0.1026E+01  0.1026E+01
      7.961  0.4100E-01  0.4100E-01  0.1029E+01  0.1029E+01
      8.035  0.3087E-01  0.3087E-01  0.1031E+01  0.1031E+01
      8.109  0.2504E-01  0.2504E-01  0.1033E+01  0.1033E+01
      8.183  0.2564E-01  0.2564E-01  0.1035E+01  0.1035E+01
      8.258  0.2968E-01  0.2968E-01  0.1037E+01  0.1037E+01
      8.332  0.3544E-01  0.3544E-01  0.1040E+01  0.1040E+01
      8.406  0.4235E-01  0.4235E-01  0.1043E+01  0.1043E+01
      8.481  0.4620E-01  0.4620E-01  0.1046E+01  0.1046E+01
      8.555  0.4251E-01  0.4251E-01  0.1050E+01  0.1050E+01
      8.629  0.3384E-01  0.3384E-01  0.1052E+01  0.1052E+01
      8.703  0.2687E-01  0.2687E-01  0.1054E+01  0.1054E+01
      8.778  0.2391E-01  0.2391E-01  0.1056E+01  0.1056E+01
      8.852  0.2291E-01  0.2291E-01  0.1058E+01  0.1058E+01
      8.926  0.2361E-01  0.2362E-01  0.1059E+01  0.1059E+01
      9.000  0.2814E-01  0.2814E-01  0.1061E+01  0.1061E+01
      9.075  0.3592E-01  0.3593E-01  0.1064E+01  0.1064E+01
      9.149  0.4205E-01  0.4205E-01  0.1067E+01  0.1067E+01
      9.223  0.4227E-01  0.4227E-01  0.1070E+01  0.1070E+01
      9.298  0.3774E-01  0.3774E-01  0.1073E+01  0.1073E+01
      9.372  0.3351E-01  0.3351E-01  0.1076E+01  0.1076E+01
      9.446  0.3397E-01  0.3397E-01  0.1078E+01  0.1078E+01
      9.520  0.4015E-01  0.4015E-01  0.1081E+01  0.1081E+01
      9.595  0.4872E-01  0.4872E-01  0.1085E+01  0.1085E+01
      9.669  0.5309E-01  0.5309E-01  0.1089E+01  0.1089E+01
      9.743  0.4907E-01  0.4907E-01  0.1092E+01  0.1092E+01
      9.818  0.4011E-01  0.4011E-01  0.1095E+01  0.1095E+01
      9.892  0.3404E-01  0.3403E-01  0.1098E+01  0.1098E+01
      9.966  0.3515E-01  0.3515E-01  0.1100E+01  0.1100E+01
     10.040  0.4202E-01  0.4202E-01  0.1104E+01  0.1104E+01
     10.115  0.5048E-01  0.5049E-01  0.1107E+01  0.1107E+01
     10.189  0.5535E-01  0.5537E-01  0.1111E+01  0.1111E+01
     10.263  0.5152E-01  0.5155E-01  0.1115E+01  0.1115E+01
     10.338  0.3815E-01  0.3817E-01  0.1118E+01  0.1118E+01
     10.412  0.2101E-01  0.2101E-01  0.1120E+01  0.1120E+01
     10.486  0.7550E-02  0.7528E-02  0.1120E+01  0.1120E+01
     10.560  0.7100E-03  0.6808E-03  0.1120E+01  0.1120E+01
     10.635 -0.1218E-02 -0.1235E-02  0.1120E+01  0.1120E+01
     10.709 -0.1045E-02 -0.1049E-02  0.1120E+01  0.1120E+01
     10.783 -0.5094E-03 -0.5079E-03  0.1120E+01  0.1120E+01
     10.858 -0.1751E-03 -0.1736E-03  0.1120E+01  0.1120E+01
     10.932 -0.4448E-04 -0.4388E-04  0.1120E+01  0.1120E+01
     11.006 -0.8444E-05 -0.8297E-05  0.1120E+01  0.1120E+01
     11.080 -0.1203E-05 -0.1178E-05  0.1120E+01  0.1120E+01
     11.155 -0.1288E-06 -0.1258E-06  0.1120E+01  0.1120E+01
     11.229 -0.1037E-07 -0.1011E-07  0.1120E+01  0.1120E+01
     11.303 -0.6283E-09 -0.6119E-09  0.1120E+01  0.1120E+01
     11.378 -0.2871E-10 -0.2793E-10  0.1120E+01  0.1120E+01
     11.452 -0.9894E-12 -0.9622E-12  0.1120E+01  0.1120E+01
     11.526 -0.2575E-13 -0.2504E-13  0.1120E+01  0.1120E+01
     11.600 -0.5048E-15 -0.4899E-15  0.1120E+01  0.1120E+01
     11.675 -0.7888E-17 -0.7888E-17  0.1120E+01  0.1120E+01
     11.749  0.0000E+00  0.0000E+00  0.1120E+01  0.1120E+01
     11.823  0.0000E+00  0.0000E+00  0.1120E+01  0.1120E+01
     11.897  0.0000E+00  0.0000E+00  0.1120E+01  0.1120E+01
     11.972  0.0000E+00  0.0000E+00  0.1120E+01  0.1120E+01
     12.046  0.0000E+00  0.0000E+00  0.1120E+01  0.1120E+01
     12.120  0.0000E+00  0.0000E+00  0.1120E+01  0.1120E+01
     12.195  0.0000E+00  0.0000E+00  0.1120E+01  0.1120E+01
     12.269  0.0000E+00  0.0000E+00  0.1120E+01  0.1120E+01
     12.343  0.0000E+00  0.0000E+00  0.1120E+01  0.1120E+01
     12.417  0.0000E+00  0.0000E+00  0.1120E+01  0.1120E+01
