  126  126  800    2
  0.2436785E+02  0.1089000E-08  0.1089000E-08  0.2589000E-08  0.5000000E-15
  1.000000000000000E-004
  CAR 
 unknown system                          
   1386      3    896
 
  0.0000000E+00  0.0000000E+00  0.0000000E+00  0.1111111E+00
      1         -7.867164       -7.867164   1.000000   1.000000
      2         -7.148688       -7.148688   1.000000   1.000000
      3         -6.579842       -6.579842   1.000000   1.000000
      4         -6.579841       -6.579842   1.000000   1.000000
      5         -6.579841       -6.579842   1.000000   1.000000
      6         -6.579841       -6.579842   1.000000   1.000000
      7         -6.103701       -6.103701   1.000000   1.000000
      8         -5.906968       -5.906969   1.000000   1.000000
      9         -5.906968       -5.906969   1.000000   1.000000
     10         -5.906968       -5.906969   1.000000   1.000000
     11         -5.906968       -5.906969   1.000000   1.000000
     12         -5.429184       -5.429184   1.000000   1.000000
     13         -5.429184       -5.429184   1.000000   1.000000
     14         -5.429184       -5.429184   1.000000   1.000000
     15         -5.429184       -5.429184   1.000000   1.000000
     16         -4.954147       -4.954147   1.000000   1.000000
     17         -4.954147       -4.954147   1.000000   1.000000
     18         -4.954147       -4.954147   1.000000   1.000000
     19         -4.954147       -4.954147   1.000000   1.000000
     20         -4.893482       -4.893483   1.000000   1.000000
     21         -4.893482       -4.893483   1.000000   1.000000
     22         -4.893482       -4.893483   1.000000   1.000000
     23         -4.893482       -4.893483   1.000000   1.000000
     24         -4.838708       -4.838707   1.000000   1.000000
     25         -4.235196       -4.235196   1.000000   1.000000
     26         -4.235196       -4.235196   1.000000   1.000000
     27         -4.235196       -4.235196   1.000000   1.000000
     28         -4.235196       -4.235196   1.000000   1.000000
     29         -3.882332       -3.882332   1.000000   1.000000
     30         -3.882332       -3.882332   1.000000   1.000000
     31         -3.882332       -3.882332   1.000000   1.000000
     32         -3.882332       -3.882332   1.000000   1.000000
     33         -3.860601       -3.860601   1.000000   1.000000
     34         -3.860601       -3.860601   1.000000   1.000000
     35         -3.860601       -3.860601   1.000000   1.000000
     36         -3.860601       -3.860601   1.000000   1.000000
     37         -3.819449       -3.819449   1.000000   1.000000
     38         -3.612857       -3.612857   1.000000   1.000000
     39         -3.612857       -3.612857   1.000000   1.000000
     40         -3.612857       -3.612857   1.000000   1.000000
     41         -3.612857       -3.612857   1.000000   1.000000
     42         -3.514668       -3.514668   1.000000   1.000000
     43         -3.474533       -3.474533   1.000000   1.000000
     44         -3.455326       -3.455326   1.000000   1.000000
     45         -3.410811       -3.410811   1.000000   1.000000
     46         -3.410811       -3.410811   1.000000   1.000000
     47         -3.410811       -3.410811   1.000000   1.000000
     48         -3.410811       -3.410811   1.000000   1.000000
     49         -3.379464       -3.379464   1.000000   1.000000
     50         -3.379464       -3.379464   1.000000   1.000000
     51         -3.379464       -3.379464   1.000000   1.000000
     52         -3.379464       -3.379464   1.000000   1.000000
     53         -3.378613       -3.378613   1.000000   1.000000
     54         -3.378020       -3.378020   1.000000   1.000000
     55         -3.378020       -3.378020   1.000000   1.000000
     56         -3.378020       -3.378020   1.000000   1.000000
     57         -3.378020       -3.378020   1.000000   1.000000
     58         -3.305219       -3.305219   1.000000   1.000000
     59         -3.305219       -3.305219   1.000000   1.000000
     60         -3.305219       -3.305219   1.000000   1.000000
     61         -3.305219       -3.305219   1.000000   1.000000
     62         -3.242162       -3.242161   1.000000   1.000000
     63         -3.242162       -3.242161   1.000000   1.000000
     64         -3.242162       -3.242161   1.000000   1.000000
     65         -3.242162       -3.242161   1.000000   1.000000
     66         -3.204575       -3.204575   1.000000   1.000000
     67         -3.150659       -3.150659   1.000000   1.000000
     68         -3.150659       -3.150659   1.000000   1.000000
     69         -3.150659       -3.150659   1.000000   1.000000
     70         -3.150659       -3.150659   1.000000   1.000000
     71         -3.134724       -3.134724   1.000000   1.000000
     72         -3.134724       -3.134724   1.000000   1.000000
     73         -3.134724       -3.134724   1.000000   1.000000
     74         -3.134724       -3.134724   1.000000   1.000000
     75         -3.114123       -3.114123   1.000000   1.000000
     76         -3.114123       -3.114123   1.000000   1.000000
     77         -3.114123       -3.114123   1.000000   1.000000
     78         -3.114123       -3.114123   1.000000   1.000000
     79         -3.113178       -3.113178   1.000000   1.000000
     80         -3.071724       -3.071724   1.000000   1.000000
     81         -3.051208       -3.051208   1.000000   1.000000
     82         -3.051208       -3.051208   1.000000   1.000000
     83         -2.996386       -2.996386   1.000000   1.000000
     84         -2.996386       -2.996386   1.000000   1.000000
     85         -2.996386       -2.996386   1.000000   1.000000
     86         -2.996386       -2.996386   1.000000   1.000000
     87         -2.923745       -2.923745   1.000000   1.000000
     88         -2.890340       -2.890340   1.000000   1.000000
     89         -2.890340       -2.890340   1.000000   1.000000
     90         -2.890340       -2.890340   1.000000   1.000000
     91         -2.890340       -2.890340   1.000000   1.000000
     92         -2.840356       -2.840356   1.000000   1.000000
     93         -2.840356       -2.840356   1.000000   1.000000
     94         -2.840356       -2.840356   1.000000   1.000000
     95         -2.840356       -2.840356   1.000000   1.000000
     96         -2.839419       -2.839419   1.000000   1.000000
     97         -2.820042       -2.820042   1.000000   1.000000
     98         -2.820042       -2.820042   1.000000   1.000000
     99         -2.820042       -2.820042   1.000000   1.000000
    100         -2.820042       -2.820042   1.000000   1.000000
    101         -2.803380       -2.803380   1.000000   1.000000
    102         -2.803380       -2.803380   1.000000   1.000000
    103         -2.758609       -2.758609   1.000000   1.000000
    104         -2.758609       -2.758609   1.000000   1.000000
    105         -2.758609       -2.758609   1.000000   1.000000
    106         -2.758609       -2.758609   1.000000   1.000000
    107         -2.754176       -2.754176   1.000000   1.000000
    108         -2.754176       -2.754176   1.000000   1.000000
    109         -2.754176       -2.754176   1.000000   1.000000
    110         -2.754176       -2.754176   1.000000   1.000000
    111         -2.741580       -2.741580   1.000000   1.000000
    112         -2.741580       -2.741580   1.000000   1.000000
    113         -2.741580       -2.741580   1.000000   1.000000
    114         -2.741580       -2.741580   1.000000   1.000000
    115         -2.738120       -2.738120   1.000000   1.000000
    116         -2.738120       -2.738120   1.000000   1.000000
    117         -2.738120       -2.738120   1.000000   1.000000
    118         -2.738120       -2.738120   1.000000   1.000000
    119         -2.705506       -2.705506   1.000000   1.000000
    120         -2.705506       -2.705506   1.000000   1.000000
    121         -2.705506       -2.705506   1.000000   1.000000
    122         -2.705506       -2.705506   1.000000   1.000000
    123         -2.701564       -2.701563   1.000000   1.000000
    124         -2.701564       -2.701563   1.000000   1.000000
    125         -2.701564       -2.701563   1.000000   1.000000
    126         -2.701564       -2.701563   1.000000   1.000000
    127         -2.677388       -2.677388   1.000000   1.000000
    128         -2.677388       -2.677388   1.000000   1.000000
    129         -2.677388       -2.677388   1.000000   1.000000
    130         -2.677388       -2.677388   1.000000   1.000000
    131         -2.645080       -2.645080   1.000000   1.000000
    132         -2.645080       -2.645080   1.000000   1.000000
    133         -2.645080       -2.645080   1.000000   1.000000
    134         -2.645080       -2.645080   1.000000   1.000000
    135         -2.626103       -2.626103   1.000000   1.000000
    136         -2.626103       -2.626103   1.000000   1.000000
    137         -2.626103       -2.626103   1.000000   1.000000
    138         -2.626103       -2.626103   1.000000   1.000000
    139         -2.590894       -2.590894   1.000000   1.000000
    140         -2.590894       -2.590894   1.000000   1.000000
    141         -2.590894       -2.590894   1.000000   1.000000
    142         -2.590894       -2.590894   1.000000   1.000000
    143         -2.552737       -2.552737   1.000000   1.000000
    144         -2.552737       -2.552737   1.000000   1.000000
    145         -2.552737       -2.552737   1.000000   1.000000
    146         -2.552737       -2.552737   1.000000   1.000000
    147         -2.540586       -2.540586   1.000000   1.000000
    148         -2.537727       -2.537727   1.000000   1.000000
    149         -2.537727       -2.537727   1.000000   1.000000
    150         -2.537727       -2.537727   1.000000   1.000000
    151         -2.537727       -2.537727   1.000000   1.000000
    152         -2.508325       -2.508325   1.000000   1.000000
    153         -2.508325       -2.508325   1.000000   1.000000
    154         -2.508325       -2.508325   1.000000   1.000000
    155         -2.508325       -2.508325   1.000000   1.000000
    156         -2.468144       -2.468144   1.000000   1.000000
    157         -2.431202       -2.431202   1.000000   1.000000
    158         -2.431202       -2.431202   1.000000   1.000000
    159         -2.348446       -2.348446   1.000000   1.000000
    160         -2.344578       -2.344578   1.000000   1.000000
    161         -2.344578       -2.344578   1.000000   1.000000
    162         -2.344578       -2.344578   1.000000   1.000000
    163         -2.344578       -2.344578   1.000000   1.000000
    164         -2.316222       -2.316222   1.000000   1.000000
    165         -2.316222       -2.316222   1.000000   1.000000
    166         -2.316222       -2.316222   1.000000   1.000000
    167         -2.316222       -2.316222   1.000000   1.000000
    168         -2.309292       -2.309292   1.000000   1.000000
    169         -2.309292       -2.309292   1.000000   1.000000
    170         -2.309292       -2.309292   1.000000   1.000000
    171         -2.309292       -2.309292   1.000000   1.000000
    172         -2.290193       -2.290193   1.000000   1.000000
    173         -2.290193       -2.290193   1.000000   1.000000
    174         -2.290193       -2.290193   1.000000   1.000000
    175         -2.290193       -2.290193   1.000000   1.000000
    176         -2.281502       -2.281502   1.000000   1.000000
    177         -2.281502       -2.281502   1.000000   1.000000
    178         -2.281502       -2.281502   1.000000   1.000000
    179         -2.281502       -2.281502   1.000000   1.000000
    180         -2.195752       -2.195752   1.000000   1.000000
    181         -2.195752       -2.195752   1.000000   1.000000
    182         -2.195752       -2.195752   1.000000   1.000000
    183         -2.195752       -2.195752   1.000000   1.000000
    184         -2.182062       -2.182063   1.000000   1.000000
    185         -2.163385       -2.163385   1.000000   1.000000
    186         -2.163385       -2.163385   1.000000   1.000000
    187         -2.163385       -2.163385   1.000000   1.000000
    188         -2.163385       -2.163385   1.000000   1.000000
    189         -2.159646       -2.159646   1.000000   1.000000
    190         -2.159646       -2.159646   1.000000   1.000000
    191         -2.159646       -2.159646   1.000000   1.000000
    192         -2.159646       -2.159646   1.000000   1.000000
    193         -2.074840       -2.074840   1.000000   1.000000
    194         -2.074840       -2.074840   1.000000   1.000000
    195         -2.074840       -2.074840   1.000000   1.000000
    196         -2.074840       -2.074840   1.000000   1.000000
    197         -2.074051       -2.074051   1.000000   1.000000
    198         -2.074051       -2.074051   1.000000   1.000000
    199         -2.074051       -2.074051   1.000000   1.000000
    200         -2.074051       -2.074051   1.000000   1.000000
    201         -2.058012       -2.058012   1.000000   1.000000
    202         -2.058012       -2.058012   1.000000   1.000000
    203         -2.058012       -2.058012   1.000000   1.000000
    204         -2.058012       -2.058012   1.000000   1.000000
    205         -2.050619       -2.050619   1.000000   1.000000
    206         -2.050619       -2.050619   1.000000   1.000000
    207         -2.050619       -2.050619   1.000000   1.000000
    208         -2.050619       -2.050619   1.000000   1.000000
    209         -2.021258       -2.021258   1.000000   1.000000
    210         -2.021258       -2.021258   1.000000   1.000000
    211         -2.021258       -2.021258   1.000000   1.000000
    212         -2.021258       -2.021258   1.000000   1.000000
    213         -1.986271       -1.986271   1.000000   1.000000
    214         -1.986271       -1.986271   1.000000   1.000000
    215         -1.986271       -1.986271   1.000000   1.000000
    216         -1.986271       -1.986271   1.000000   1.000000
    217         -1.981837       -1.981837   1.000000   1.000000
    218         -1.981837       -1.981837   1.000000   1.000000
    219         -1.981837       -1.981837   1.000000   1.000000
    220         -1.981837       -1.981837   1.000000   1.000000
    221         -1.921844       -1.921844   1.000000   1.000000
    222         -1.921844       -1.921844   1.000000   1.000000
    223         -1.907109       -1.907109   1.000000   1.000000
    224         -1.907109       -1.907109   1.000000   1.000000
    225         -1.907109       -1.907109   1.000000   1.000000
    226         -1.907109       -1.907109   1.000000   1.000000
    227         -1.865679       -1.865679   1.000000   1.000000
    228         -1.854751       -1.854751   1.000000   1.000000
    229         -1.854751       -1.854751   1.000000   1.000000
    230         -1.854751       -1.854751   1.000000   1.000000
    231         -1.854751       -1.854751   1.000000   1.000000
    232         -1.854139       -1.854139   1.000000   1.000000
    233         -1.854139       -1.854139   1.000000   1.000000
    234         -1.854139       -1.854139   1.000000   1.000000
    235         -1.854139       -1.854139   1.000000   1.000000
    236         -1.837637       -1.837637   1.000000   1.000000
    237         -1.837637       -1.837637   1.000000   1.000000
    238         -1.837637       -1.837637   1.000000   1.000000
    239         -1.837637       -1.837637   1.000000   1.000000
    240         -1.835969       -1.835969   1.000000   1.000000
    241         -1.835969       -1.835969   1.000000   1.000000
    242         -1.835969       -1.835969   1.000000   1.000000
    243         -1.835969       -1.835969   1.000000   1.000000
    244         -1.767482       -1.767482   1.000000   1.000000
    245         -1.767482       -1.767482   1.000000   1.000000
    246         -1.767482       -1.767482   1.000000   1.000000
    247         -1.767482       -1.767482   1.000000   1.000000
    248         -1.722775       -1.722775   1.000000   1.000000
    249         -1.722775       -1.722775   1.000000   1.000000
    250         -1.722775       -1.722775   1.000000   1.000000
    251         -1.722775       -1.722775   1.000000   1.000000
    252         -1.721815       -1.721815   1.000000   1.000000
    253         -1.721815       -1.721815   1.000000   1.000000
    254         -1.721815       -1.721815   1.000000   1.000000
    255         -1.721815       -1.721815   1.000000   1.000000
    256         -1.711562       -1.711562   1.000000   1.000000
    257         -1.711562       -1.711562   1.000000   1.000000
    258         -1.711562       -1.711562   1.000000   1.000000
    259         -1.711562       -1.711562   1.000000   1.000000
    260         -1.707285       -1.707285   1.000000   1.000000
    261         -1.707285       -1.707285   1.000000   1.000000
    262         -1.707285       -1.707285   1.000000   1.000000
    263         -1.707285       -1.707285   1.000000   1.000000
    264         -1.684306       -1.684306   1.000000   1.000000
    265         -1.684306       -1.684306   1.000000   1.000000
    266         -1.671016       -1.671016   1.000000   1.000000
    267         -1.671016       -1.671016   1.000000   1.000000
    268         -1.671016       -1.671016   1.000000   1.000000
    269         -1.671016       -1.671016   1.000000   1.000000
    270         -1.670214       -1.670214   1.000000   1.000000
    271         -1.670214       -1.670214   1.000000   1.000000
    272         -1.670214       -1.670214   1.000000   1.000000
    273         -1.670214       -1.670214   1.000000   1.000000
    274         -1.667677       -1.667677   1.000000   1.000000
    275         -1.667677       -1.667677   1.000000   1.000000
    276         -1.667677       -1.667677   1.000000   1.000000
    277         -1.667677       -1.667677   1.000000   1.000000
    278         -1.644099       -1.644099   1.000000   1.000000
    279         -1.640331       -1.640331   1.000000   1.000000
    280         -1.640331       -1.640331   1.000000   1.000000
    281         -1.640331       -1.640331   1.000000   1.000000
    282         -1.640331       -1.640331   1.000000   1.000000
    283         -1.630307       -1.630306   1.000000   1.000000
    284         -1.630307       -1.630306   1.000000   1.000000
    285         -1.630307       -1.630306   1.000000   1.000000
    286         -1.630307       -1.630306   1.000000   1.000000
    287         -1.607723       -1.607723   1.000000   1.000000
    288         -1.607723       -1.607723   1.000000   1.000000
    289         -1.607723       -1.607723   1.000000   1.000000
    290         -1.607723       -1.607723   1.000000   1.000000
    291         -1.581656       -1.581656   1.000000   1.000000
    292         -1.581656       -1.581656   1.000000   1.000000
    293         -1.581656       -1.581656   1.000000   1.000000
    294         -1.581656       -1.581656   1.000000   1.000000
    295         -1.574491       -1.574491   1.000000   1.000000
    296         -1.572337       -1.572337   1.000000   1.000000
    297         -1.572337       -1.572337   1.000000   1.000000
    298         -1.572337       -1.572337   1.000000   1.000000
    299         -1.572337       -1.572337   1.000000   1.000000
    300         -1.567242       -1.567242   1.000000   1.000000
    301         -1.567242       -1.567242   1.000000   1.000000
    302         -1.567242       -1.567242   1.000000   1.000000
    303         -1.567242       -1.567242   1.000000   1.000000
    304         -1.555748       -1.555748   1.000000   1.000000
    305         -1.555748       -1.555748   1.000000   1.000000
    306         -1.555748       -1.555748   1.000000   1.000000
    307         -1.555748       -1.555748   1.000000   1.000000
    308         -1.528087       -1.528087   1.000000   1.000000
    309         -1.528087       -1.528087   1.000000   1.000000
    310         -1.528087       -1.528087   1.000000   1.000000
    311         -1.528087       -1.528087   1.000000   1.000000
    312         -1.522476       -1.522476   1.000000   1.000000
    313         -1.522476       -1.522476   1.000000   1.000000
    314         -1.522476       -1.522476   1.000000   1.000000
    315         -1.522476       -1.522476   1.000000   1.000000
    316         -1.498430       -1.498430   1.000000   1.000000
    317         -1.498430       -1.498430   1.000000   1.000000
    318         -1.498430       -1.498430   1.000000   1.000000
    319         -1.498430       -1.498430   1.000000   1.000000
    320         -1.472719       -1.472719   1.000000   1.000000
    321         -1.472719       -1.472719   1.000000   1.000000
    322         -1.468072       -1.468072   1.000000   1.000000
    323         -1.468072       -1.468072   1.000000   1.000000
    324         -1.468072       -1.468072   1.000000   1.000000
    325         -1.468072       -1.468072   1.000000   1.000000
    326         -1.442303       -1.442303   1.000000   1.000000
    327         -1.442303       -1.442303   1.000000   1.000000
    328         -1.442303       -1.442303   1.000000   1.000000
    329         -1.442303       -1.442303   1.000000   1.000000
    330         -1.427951       -1.427951   1.000000   1.000000
    331         -1.427951       -1.427951   1.000000   1.000000
    332         -1.427951       -1.427951   1.000000   1.000000
    333         -1.427951       -1.427951   1.000000   1.000000
    334         -1.400750       -1.400750   1.000000   1.000000
    335         -1.400750       -1.400750   1.000000   1.000000
    336         -1.400750       -1.400750   1.000000   1.000000
    337         -1.400750       -1.400750   1.000000   1.000000
    338         -1.321750       -1.321750   1.000000   1.000000
    339         -1.321750       -1.321750   1.000000   1.000000
    340         -1.321750       -1.321750   1.000000   1.000000
    341         -1.321750       -1.321750   1.000000   1.000000
    342         -1.316521       -1.316521   1.000000   1.000000
    343         -1.316521       -1.316521   1.000000   1.000000
    344         -1.316521       -1.316521   1.000000   1.000000
    345         -1.316521       -1.316521   1.000000   1.000000
    346         -1.308895       -1.308895   1.000000   1.000000
    347         -1.308895       -1.308895   1.000000   1.000000
    348         -1.302045       -1.302045   1.000000   1.000000
    349         -1.302045       -1.302045   1.000000   1.000000
    350         -1.302045       -1.302045   1.000000   1.000000
    351         -1.302045       -1.302045   1.000000   1.000000
    352         -1.295419       -1.295419   1.000000   1.000000
    353         -1.295419       -1.295419   1.000000   1.000000
    354         -1.295419       -1.295419   1.000000   1.000000
    355         -1.295419       -1.295419   1.000000   1.000000
    356         -1.291565       -1.291565   1.000000   1.000000
    357         -1.291565       -1.291565   1.000000   1.000000
    358         -1.291565       -1.291565   1.000000   1.000000
    359         -1.291565       -1.291565   1.000000   1.000000
    360         -1.286210       -1.286210   1.000000   1.000000
    361         -1.286210       -1.286210   1.000000   1.000000
    362         -1.286210       -1.286210   1.000000   1.000000
    363         -1.286210       -1.286210   1.000000   1.000000
    364         -1.285831       -1.285831   1.000000   1.000000
    365         -1.285831       -1.285831   1.000000   1.000000
    366         -1.285831       -1.285831   1.000000   1.000000
    367         -1.285831       -1.285831   1.000000   1.000000
    368         -1.279205       -1.279205   1.000000   1.000000
    369         -1.279205       -1.279205   1.000000   1.000000
    370         -1.279205       -1.279205   1.000000   1.000000
    371         -1.279205       -1.279205   1.000000   1.000000
    372         -1.223688       -1.223688   1.000000   1.000000
    373         -1.223688       -1.223688   1.000000   1.000000
    374         -1.223688       -1.223688   1.000000   1.000000
    375         -1.223688       -1.223688   1.000000   1.000000
    376         -1.178210       -1.178210   1.000000   1.000000
    377         -1.178210       -1.178210   1.000000   1.000000
    378         -1.169446       -1.169446   1.000000   1.000000
    379         -1.169446       -1.169446   1.000000   1.000000
    380         -1.169446       -1.169446   1.000000   1.000000
    381         -1.169446       -1.169446   1.000000   1.000000
    382         -1.154776       -1.154776   1.000000   1.000000
    383         -1.154776       -1.154776   1.000000   1.000000
    384         -1.154776       -1.154776   1.000000   1.000000
    385         -1.154776       -1.154776   1.000000   1.000000
    386         -1.128216       -1.128216   1.000000   1.000000
    387         -1.128216       -1.128216   1.000000   1.000000
    388         -1.128216       -1.128216   1.000000   1.000000
    389         -1.128216       -1.128216   1.000000   1.000000
    390         -1.122146       -1.122146   1.000000   1.000000
    391         -1.122146       -1.122146   1.000000   1.000000
    392         -1.122146       -1.122146   1.000000   1.000000
    393         -1.122146       -1.122146   1.000000   1.000000
    394         -1.120895       -1.120895   1.000000   1.000000
    395         -1.120556       -1.120556   1.000000   1.000000
    396         -1.120556       -1.120556   1.000000   1.000000
    397         -1.120556       -1.120556   1.000000   1.000000
    398         -1.120556       -1.120556   1.000000   1.000000
    399         -1.107074       -1.107074   1.000000   1.000000
    400         -1.107074       -1.107074   1.000000   1.000000
    401         -1.107074       -1.107074   1.000000   1.000000
    402         -1.107074       -1.107074   1.000000   1.000000
    403         -1.057656       -1.057656   1.000000   1.000000
    404         -1.057656       -1.057656   1.000000   1.000000
    405         -1.057656       -1.057656   1.000000   1.000000
    406         -1.057656       -1.057656   1.000000   1.000000
    407         -1.049282       -1.049282   1.000000   1.000000
    408         -1.049282       -1.049282   1.000000   1.000000
    409         -1.049282       -1.049282   1.000000   1.000000
    410         -1.049282       -1.049282   1.000000   1.000000
    411         -1.017396       -1.017396   1.000000   1.000000
    412         -0.983363       -0.983363   1.000000   1.000000
    413         -0.983363       -0.983363   1.000000   1.000000
    414         -0.983363       -0.983363   1.000000   1.000000
    415         -0.983363       -0.983363   1.000000   1.000000
    416         -0.982460       -0.982460   1.000000   1.000000
    417         -0.982460       -0.982460   1.000000   1.000000
    418         -0.982460       -0.982460   1.000000   1.000000
    419         -0.982460       -0.982460   1.000000   1.000000
    420         -0.942004       -0.942004   1.000000   1.000000
    421         -0.942004       -0.942004   1.000000   1.000000
    422         -0.942004       -0.942004   1.000000   1.000000
    423         -0.942004       -0.942004   1.000000   1.000000
    424         -0.923114       -0.923114   1.000000   1.000000
    425         -0.923114       -0.923114   1.000000   1.000000
    426         -0.923114       -0.923114   1.000000   1.000000
    427         -0.923114       -0.923114   1.000000   1.000000
    428         -0.922262       -0.922262   1.000000   1.000000
    429         -0.922262       -0.922262   1.000000   1.000000
    430         -0.922262       -0.922262   1.000000   1.000000
    431         -0.922262       -0.922262   1.000000   1.000000
    432         -0.920365       -0.920365   1.000000   1.000000
    433         -0.920365       -0.920365   1.000000   1.000000
    434         -0.920365       -0.920365   1.000000   1.000000
    435         -0.920365       -0.920365   1.000000   1.000000
    436         -0.919618       -0.919618   1.000000   1.000000
    437         -0.919618       -0.919618   1.000000   1.000000
    438         -0.919618       -0.919618   1.000000   1.000000
    439         -0.919618       -0.919618   1.000000   1.000000
    440         -0.892198       -0.892198   1.000000   1.000000
    441         -0.877636       -0.877636   1.000000   1.000000
    442         -0.877636       -0.877636   1.000000   1.000000
    443         -0.877636       -0.877636   1.000000   1.000000
    444         -0.877636       -0.877636   1.000000   1.000000
    445         -0.864870       -0.864870   1.000000   1.000000
    446         -0.864870       -0.864870   1.000000   1.000000
    447         -0.864870       -0.864870   1.000000   1.000000
    448         -0.864870       -0.864870   1.000000   1.000000
    449         -0.832499       -0.832499   1.000000   1.000000
    450         -0.832499       -0.832499   1.000000   1.000000
    451         -0.832499       -0.832499   1.000000   1.000000
    452         -0.832499       -0.832499   1.000000   1.000000
    453         -0.816847       -0.816847   1.000000   1.000000
    454         -0.816847       -0.816847   1.000000   1.000000
    455         -0.815908       -0.815908   1.000000   1.000000
    456         -0.811065       -0.811065   1.000000   1.000000
    457         -0.811065       -0.811065   1.000000   1.000000
    458         -0.811065       -0.811065   1.000000   1.000000
    459         -0.811065       -0.811065   1.000000   1.000000
    460         -0.802320       -0.802320   1.000000   1.000000
    461         -0.773724       -0.773724   1.000000   1.000000
    462         -0.755735       -0.755735   1.000000   1.000000
    463         -0.733742       -0.733742   1.000000   1.000000
    464         -0.733742       -0.733742   1.000000   1.000000