unknown system                          
           1
    10.890000    0.000000    0.000000
     0.000000   10.890000    0.000000
     0.000000    0.000000   25.890000
   Cu
   126
Direct configuration=     1
   0.00000000  0.00000000  0.00000000
   0.00000000  0.33333333  0.00000000
   0.00000000  0.66666667  0.00000000
   0.33333333  0.00000000  0.00000000
   0.33333333  0.33333333  0.00000000
   0.33333333  0.66666667  0.00000000
   0.66666667  0.00000000  0.00000000
   0.66666667  0.33333333  0.00000000
   0.66666667  0.66666667  0.00000000
   0.16666667  0.16666667  0.00000000
   0.16666667  0.50000000  0.00000000
   0.16666667  0.83333333  0.00000000
   0.50000000  0.16666667  0.00000000
   0.50000000  0.50000000  0.00000000
   0.50000000  0.83333333  0.00000000
   0.83333333  0.16666667  0.00000000
   0.83333333  0.50000000  0.00000000
   0.83333333  0.83333333  0.00000000
   0.00000000  0.16666667  0.07010429
   0.00000000  0.50000000  0.07010429
   0.00000000  0.83333333  0.07010429
   0.33333333  0.16666667  0.07010429
   0.33333333  0.50000000  0.07010429
   0.33333333  0.83333333  0.07010429
   0.66666667  0.16666667  0.07010429
   0.66666667  0.50000000  0.07010429
   0.66666667  0.83333333  0.07010429
   0.16666667  0.00000000  0.07010429
   0.16666667  0.33333333  0.07010429
   0.16666667  0.66666667  0.07010429
   0.50000000  0.00000000  0.07010429
   0.50000000  0.33333333  0.07010429
   0.50000000  0.66666667  0.07010429
   0.83333333  0.00000000  0.07010429
   0.83333333  0.33333333  0.07010429
   0.83333333  0.66666667  0.07010429
   0.00000000  0.00000000  0.14020858
   0.00000000  0.33333333  0.14020858
   0.00000000  0.66666667  0.14020858
   0.33333333  0.00000000  0.14020858
   0.33333333  0.33333333  0.14020858
   0.33333333  0.66666667  0.14020858
   0.66666667  0.00000000  0.14020858
   0.66666667  0.33333333  0.14020858
   0.66666667  0.66666667  0.14020858
   0.16666667  0.16666667  0.14020858
   0.16666667  0.50000000  0.14020858
   0.16666667  0.83333333  0.14020858
   0.50000000  0.16666667  0.14020858
   0.50000000  0.50000000  0.14020858
   0.50000000  0.83333333  0.14020858
   0.83333333  0.16666667  0.14020858
   0.83333333  0.50000000  0.14020858
   0.83333333  0.83333333  0.14020858
   0.00000000  0.16666667  0.21031287
   0.00000000  0.50000000  0.21031287
   0.00000000  0.83333333  0.21031287
   0.33333333  0.16666667  0.21031287
   0.33333333  0.50000000  0.21031287
   0.33333333  0.83333333  0.21031287
   0.66666667  0.16666667  0.21031287
   0.66666667  0.50000000  0.21031287
   0.66666667  0.83333333  0.21031287
   0.16666667  0.00000000  0.21031287
   0.16666667  0.33333333  0.21031287
   0.16666667  0.66666667  0.21031287
   0.50000000  0.00000000  0.21031287
   0.50000000  0.33333333  0.21031287
   0.50000000  0.66666667  0.21031287
   0.83333333  0.00000000  0.21031287
   0.83333333  0.33333333  0.21031287
   0.83333333  0.66666667  0.21031287
   0.00000000  0.00000000  0.28041715
   0.00000000  0.33333333  0.28041715
   0.00000000  0.66666667  0.28041715
   0.33333333  0.00000000  0.28041715
   0.33333333  0.33333333  0.28041715
   0.33333333  0.66666667  0.28041715
   0.66666667  0.00000000  0.28041715
   0.66666667  0.33333333  0.28041715
   0.66666667  0.66666667  0.28041715
   0.16666667  0.16666667  0.28041715
   0.16666667  0.50000000  0.28041715
   0.16666667  0.83333333  0.28041715
   0.50000000  0.16666667  0.28041715
   0.50000000  0.50000000  0.28041715
   0.50000000  0.83333333  0.28041715
   0.83333333  0.16666667  0.28041715
   0.83333333  0.50000000  0.28041715
   0.83333333  0.83333333  0.28041715
   0.00000000  0.16666667  0.35052144
   0.00000000  0.50000000  0.35052144
   0.00000000  0.83333333  0.35052144
   0.33333333  0.16666667  0.35052144
   0.33333333  0.50000000  0.35052144
   0.33333333  0.83333333  0.35052144
   0.66666667  0.16666667  0.35052144
   0.66666667  0.50000000  0.35052144
   0.66666667  0.83333333  0.35052144
   0.16666667  0.00000000  0.35052144
   0.16666667  0.33333333  0.35052144
   0.16666667  0.66666667  0.35052144
   0.50000000  0.00000000  0.35052144
   0.50000000  0.33333333  0.35052144
   0.50000000  0.66666667  0.35052144
   0.83333333  0.00000000  0.35052144
   0.83333333  0.33333333  0.35052144
   0.83333333  0.66666667  0.35052144
   0.00000000  0.00000000  0.42062573
   0.00000000  0.33333333  0.42062573
   0.00000000  0.66666667  0.42062573
   0.33333333  0.00000000  0.42062573
   0.33333333  0.33333333  0.42062573
   0.33333333  0.66666667  0.42062573
   0.66666667  0.00000000  0.42062573
   0.66666667  0.33333333  0.42062573
   0.66666667  0.66666667  0.42062573
   0.16666667  0.16666667  0.42062573
   0.16666667  0.50000000  0.42062573
   0.16666667  0.83333333  0.42062573
   0.50000000  0.16666667  0.42062573
   0.50000000  0.50000000  0.42062573
   0.50000000  0.83333333  0.42062573
   0.83333333  0.16666667  0.42062573
   0.83333333  0.50000000  0.42062573
   0.83333333  0.83333333  0.42062573
Direct configuration=     2
   0.00000000  0.00000000  0.00000000
   0.00000000  0.33333333  0.00000000
   0.00000000  0.66666667  0.00000000
   0.33333333  0.00000000  0.00000000
   0.33333333  0.33333333  0.00000000
   0.33333333  0.66666667  0.00000000
   0.66666667  0.00000000  0.00000000
   0.66666667  0.33333333  0.00000000
   0.66666667  0.66666667  0.00000000
   0.16666667  0.16666667  0.00000000
   0.16666667  0.50000000  0.00000000
   0.16666667  0.83333333  0.00000000
   0.50000000  0.16666667  0.00000000
   0.50000000  0.50000000  0.00000000
   0.50000000  0.83333333  0.00000000
   0.83333333  0.16666667  0.00000000
   0.83333333  0.50000000  0.00000000
   0.83333333  0.83333333  0.00000000
   0.00000000  0.16666667  0.07010429
   0.00000000  0.50000000  0.07010429
   0.00000000  0.83333333  0.07010429
   0.33333333  0.16666667  0.07010429
   0.33333333  0.50000000  0.07010429
   0.33333333  0.83333333  0.07010429
   0.66666667  0.16666667  0.07010429
   0.66666667  0.50000000  0.07010429
   0.66666667  0.83333333  0.07010429
   0.16666667  0.00000000  0.07010429
   0.16666667  0.33333333  0.07010429
   0.16666667  0.66666667  0.07010429
   0.50000000  0.00000000  0.07010429
   0.50000000  0.33333333  0.07010429
   0.50000000  0.66666667  0.07010429
   0.83333333  0.00000000  0.07010429
   0.83333333  0.33333333  0.07010429
   0.83333333  0.66666667  0.07010429
  -0.00000000 -0.00000000  0.14027747
   0.00000000  0.33333333  0.14027747
   0.00000000  0.66666667  0.14027747
   0.33333333 -0.00000000  0.14027747
   0.33333333  0.33333333  0.14027747
   0.33333333  0.66666667  0.14027747
   0.66666667 -0.00000000  0.14027747
   0.66666667  0.33333333  0.14027747
   0.66666667  0.66666667  0.14027747
   0.16666667  0.16666667  0.14027747
   0.16666667  0.50000000  0.14027747
   0.16666667  0.83333333  0.14027747
   0.50000000  0.16666667  0.14027747
   0.50000000  0.50000000  0.14027747
   0.50000000  0.83333333  0.14027747
   0.83333333  0.16666667  0.14027747
   0.83333333  0.50000000  0.14027747
   0.83333333  0.83333333  0.14027747
   0.00000000  0.16666667  0.21031659
  -0.00000000  0.50000000  0.21031659
   0.00000000  0.83333333  0.21031659
   0.33333333  0.16666667  0.21031659
   0.33333333  0.50000000  0.21031659
   0.33333333  0.83333333  0.21031659
   0.66666667  0.16666667  0.21031659
   0.66666667  0.50000000  0.21031659
   0.66666667  0.83333333  0.21031659
   0.16666667  0.00000000  0.21031659
   0.16666667  0.33333333  0.21031659
   0.16666667  0.66666667  0.21031659
   0.50000000  0.00000000  0.21031659
   0.50000000  0.33333333  0.21031659
   0.50000000  0.66666667  0.21031659
   0.83333333 -0.00000000  0.21031659
   0.83333333  0.33333333  0.21031659
   0.83333333  0.66666667  0.21031659
  -0.00000000  0.00000000  0.28035287
  -0.00000000  0.33333333  0.28035287
   0.00000000  0.66666667  0.28035287
   0.33333333 -0.00000000  0.28035287
   0.33333333  0.33333333  0.28035287
   0.33333333  0.66666667  0.28035287
   0.66666667  0.00000000  0.28035287
   0.66666667  0.33333333  0.28035287
   0.66666667  0.66666667  0.28035287
   0.16666667  0.16666667  0.28035287
   0.16666667  0.50000000  0.28035287
   0.16666667  0.83333333  0.28035287
   0.50000000  0.16666667  0.28035287
   0.50000000  0.50000000  0.28035287
   0.50000000  0.83333333  0.28035287
   0.83333333  0.16666667  0.28035287
   0.83333333  0.50000000  0.28035287
   0.83333333  0.83333333  0.28035287
  -0.00000000  0.16666667  0.35067899
  -0.00000000  0.50000000  0.35067899
  -0.00000000  0.83333333  0.35067899
   0.33333333  0.16666667  0.35067899
   0.33333333  0.50000000  0.35067899
   0.33333333  0.83333333  0.35067899
   0.66666667  0.16666667  0.35067899
   0.66666667  0.50000000  0.35067899
   0.66666667  0.83333333  0.35067899
   0.16666667 -0.00000000  0.35067899
   0.16666667  0.33333333  0.35067899
   0.16666667  0.66666667  0.35067899
   0.50000000 -0.00000000  0.35067899
   0.50000000  0.33333333  0.35067899
   0.50000000  0.66666667  0.35067899
   0.83333333 -0.00000000  0.35067899
   0.83333333  0.33333333  0.35067899
   0.83333333  0.66666667  0.35067899
   0.00000000  0.00000000  0.42001400
   0.00000000  0.33333333  0.42001400
   0.00000000  0.66666667  0.42001400
   0.33333333  0.00000000  0.42001400
   0.33333333  0.33333333  0.42001400
   0.33333333  0.66666667  0.42001400
   0.66666667 -0.00000000  0.42001400
   0.66666667  0.33333333  0.42001400
   0.66666667  0.66666667  0.42001400
   0.16666667  0.16666667  0.42001400
   0.16666667  0.50000000  0.42001400
   0.16666667  0.83333333  0.42001400
   0.50000000  0.16666667  0.42001400
   0.50000000  0.50000000  0.42001400
   0.50000000  0.83333333  0.42001400
   0.83333333  0.16666667  0.42001400
   0.83333333  0.50000000  0.42001400
   0.83333333  0.83333333  0.42001400
Direct configuration=     3
   0.00000000  0.00000000  0.00000000
   0.00000000  0.33333333  0.00000000
   0.00000000  0.66666667  0.00000000
   0.33333333  0.00000000  0.00000000
   0.33333333  0.33333333  0.00000000
   0.33333333  0.66666667  0.00000000
   0.66666667  0.00000000  0.00000000
   0.66666667  0.33333333  0.00000000
   0.66666667  0.66666667  0.00000000
   0.16666667  0.16666667  0.00000000
   0.16666667  0.50000000  0.00000000
   0.16666667  0.83333333  0.00000000
   0.50000000  0.16666667  0.00000000
   0.50000000  0.50000000  0.00000000
   0.50000000  0.83333333  0.00000000
   0.83333333  0.16666667  0.00000000
   0.83333333  0.50000000  0.00000000
   0.83333333  0.83333333  0.00000000
   0.00000000  0.16666667  0.07010429
   0.00000000  0.50000000  0.07010429
   0.00000000  0.83333333  0.07010429
   0.33333333  0.16666667  0.07010429
   0.33333333  0.50000000  0.07010429
   0.33333333  0.83333333  0.07010429
   0.66666667  0.16666667  0.07010429
   0.66666667  0.50000000  0.07010429
   0.66666667  0.83333333  0.07010429
   0.16666667  0.00000000  0.07010429
   0.16666667  0.33333333  0.07010429
   0.16666667  0.66666667  0.07010429
   0.50000000  0.00000000  0.07010429
   0.50000000  0.33333333  0.07010429
   0.50000000  0.66666667  0.07010429
   0.83333333  0.00000000  0.07010429
   0.83333333  0.33333333  0.07010429
   0.83333333  0.66666667  0.07010429
  -0.00000000 -0.00000000  0.14048415
   0.00000000  0.33333333  0.14048415
   0.00000000  0.66666667  0.14048415
   0.33333333 -0.00000000  0.14048415
   0.33333333  0.33333333  0.14048415
   0.33333333  0.66666667  0.14048415
   0.66666667 -0.00000000  0.14048415
   0.66666667  0.33333333  0.14048415
   0.66666667  0.66666667  0.14048415
   0.16666667  0.16666667  0.14048415
   0.16666667  0.50000000  0.14048415
   0.16666667  0.83333333  0.14048415
   0.50000000  0.16666667  0.14048415
   0.50000000  0.50000000  0.14048415
   0.50000000  0.83333333  0.14048415
   0.83333333  0.16666667  0.14048415
   0.83333333  0.50000000  0.14048415
   0.83333333  0.83333333  0.14048415
   0.00000000  0.16666667  0.21032778
  -0.00000000  0.50000000  0.21032778
   0.00000000  0.83333333  0.21032778
   0.33333333  0.16666667  0.21032778
   0.33333333  0.50000000  0.21032778
   0.33333333  0.83333333  0.21032778
   0.66666667  0.16666667  0.21032778
   0.66666667  0.50000000  0.21032778
   0.66666667  0.83333333  0.21032778
   0.16666667  0.00000000  0.21032778
   0.16666667  0.33333333  0.21032778
   0.16666667  0.66666667  0.21032778
   0.50000000  0.00000000  0.21032778
   0.50000000  0.33333333  0.21032778
   0.50000000  0.66666667  0.21032778
   0.83333333 -0.00000000  0.21032778
   0.83333333  0.33333333  0.21032778
   0.83333333  0.66666667  0.21032778
  -0.00000000  0.00000000  0.28016002
  -0.00000000  0.33333333  0.28016002
   0.00000000  0.66666667  0.28016002
   0.33333333 -0.00000000  0.28016002
   0.33333333  0.33333333  0.28016002
   0.33333333  0.66666667  0.28016002
   0.66666667  0.00000000  0.28016002
   0.66666667  0.33333333  0.28016002
   0.66666667  0.66666667  0.28016002
   0.16666667  0.16666667  0.28016002
   0.16666667  0.50000000  0.28016002
   0.16666667  0.83333333  0.28016002
   0.50000000  0.16666667  0.28016002
   0.50000000  0.50000000  0.28016002
   0.50000000  0.83333333  0.28016002
   0.83333333  0.16666667  0.28016002
   0.83333333  0.50000000  0.28016002
   0.83333333  0.83333333  0.28016002
  -0.00000000  0.16666667  0.35115165
  -0.00000000  0.50000000  0.35115165
  -0.00000000  0.83333333  0.35115165
   0.33333333  0.16666667  0.35115165
   0.33333333  0.50000000  0.35115165
   0.33333333  0.83333333  0.35115165
   0.66666667  0.16666667  0.35115165
   0.66666667  0.50000000  0.35115165
   0.66666667  0.83333333  0.35115165
   0.16666667 -0.00000000  0.35115165
   0.16666667  0.33333333  0.35115165
   0.16666667  0.66666667  0.35115165
   0.50000000 -0.00000000  0.35115165
   0.50000000  0.33333333  0.35115165
   0.50000000  0.66666667  0.35115165
   0.83333333 -0.00000000  0.35115165
   0.83333333  0.33333333  0.35115165
   0.83333333  0.66666667  0.35115165
   0.00000000  0.00000000  0.41817881
   0.00000000  0.33333333  0.41817881
   0.00000000  0.66666667  0.41817881
   0.33333333  0.00000000  0.41817881
   0.33333333  0.33333333  0.41817881
   0.33333333  0.66666667  0.41817881
   0.66666667 -0.00000000  0.41817881
   0.66666667  0.33333333  0.41817881
   0.66666667  0.66666667  0.41817881
   0.16666667  0.16666667  0.41817881
   0.16666667  0.50000000  0.41817881
   0.16666667  0.83333333  0.41817881
   0.50000000  0.16666667  0.41817881
   0.50000000  0.50000000  0.41817881
   0.50000000  0.83333333  0.41817881
   0.83333333  0.16666667  0.41817881
   0.83333333  0.50000000  0.41817881
   0.83333333  0.83333333  0.41817881
Direct configuration=     4
   0.00000000  0.00000000  0.00000000
   0.00000000  0.33333333  0.00000000
   0.00000000  0.66666667  0.00000000
   0.33333333  0.00000000  0.00000000
   0.33333333  0.33333333  0.00000000
   0.33333333  0.66666667  0.00000000
   0.66666667  0.00000000  0.00000000
   0.66666667  0.33333333  0.00000000
   0.66666667  0.66666667  0.00000000
   0.16666667  0.16666667  0.00000000
   0.16666667  0.50000000  0.00000000
   0.16666667  0.83333333  0.00000000
   0.50000000  0.16666667  0.00000000
   0.50000000  0.50000000  0.00000000
   0.50000000  0.83333333  0.00000000
   0.83333333  0.16666667  0.00000000
   0.83333333  0.50000000  0.00000000
   0.83333333  0.83333333  0.00000000
   0.00000000  0.16666667  0.07010429
   0.00000000  0.50000000  0.07010429
   0.00000000  0.83333333  0.07010429
   0.33333333  0.16666667  0.07010429
   0.33333333  0.50000000  0.07010429
   0.33333333  0.83333333  0.07010429
   0.66666667  0.16666667  0.07010429
   0.66666667  0.50000000  0.07010429
   0.66666667  0.83333333  0.07010429
   0.16666667  0.00000000  0.07010429
   0.16666667  0.33333333  0.07010429
   0.16666667  0.66666667  0.07010429
   0.50000000  0.00000000  0.07010429
   0.50000000  0.33333333  0.07010429
   0.50000000  0.66666667  0.07010429
   0.83333333  0.00000000  0.07010429
   0.83333333  0.33333333  0.07010429
   0.83333333  0.66666667  0.07010429
  -0.00000000 -0.00000000  0.14051876
   0.00000000  0.33333333  0.14051876
   0.00000000  0.66666667  0.14051876
   0.33333333 -0.00000000  0.14051876
   0.33333333  0.33333333  0.14051876
   0.33333333  0.66666667  0.14051876
   0.66666667 -0.00000000  0.14051876
   0.66666667  0.33333333  0.14051876
   0.66666667  0.66666667  0.14051876
   0.16666667  0.16666667  0.14051876
   0.16666667  0.50000000  0.14051876
   0.16666667  0.83333333  0.14051876
   0.50000000  0.16666667  0.14051876
   0.50000000  0.50000000  0.14051876
   0.50000000  0.83333333  0.14051876
   0.83333333  0.16666667  0.14051876
   0.83333333  0.50000000  0.14051876
   0.83333333  0.83333333  0.14051876
   0.00000000  0.16666667  0.21036266
   0.00000000  0.50000000  0.21036266
   0.00000000  0.83333333  0.21036266
   0.33333333  0.16666667  0.21036266
   0.33333333  0.50000000  0.21036266
   0.33333333  0.83333333  0.21036266
   0.66666667  0.16666667  0.21036266
   0.66666667  0.50000000  0.21036266
   0.66666667  0.83333333  0.21036266
   0.16666667  0.00000000  0.21036266
   0.16666667  0.33333333  0.21036266
   0.16666667  0.66666667  0.21036266
   0.50000000  0.00000000  0.21036266
   0.50000000  0.33333333  0.21036266
   0.50000000  0.66666667  0.21036266
   0.83333333 -0.00000000  0.21036266
   0.83333333  0.33333333  0.21036266
   0.83333333  0.66666667  0.21036266
  -0.00000000  0.00000000  0.28022531
  -0.00000000  0.33333333  0.28022531
  -0.00000000  0.66666667  0.28022531
   0.33333333 -0.00000000  0.28022531
   0.33333333  0.33333333  0.28022531
   0.33333333  0.66666667  0.28022531
   0.66666667  0.00000000  0.28022531
   0.66666667  0.33333333  0.28022531
   0.66666667  0.66666667  0.28022531
   0.16666667  0.16666667  0.28022531
   0.16666667  0.50000000  0.28022531
   0.16666667  0.83333333  0.28022531
   0.50000000  0.16666667  0.28022531
   0.50000000  0.50000000  0.28022531
   0.50000000  0.83333333  0.28022531
   0.83333333  0.16666667  0.28022531
   0.83333333  0.50000000  0.28022531
   0.83333333  0.83333333  0.28022531
  -0.00000000  0.16666667  0.35061324
  -0.00000000  0.50000000  0.35061324
  -0.00000000  0.83333333  0.35061324
   0.33333333  0.16666667  0.35061324
   0.33333333  0.50000000  0.35061324
   0.33333333  0.83333333  0.35061324
   0.66666667  0.16666667  0.35061324
   0.66666667  0.50000000  0.35061324
   0.66666667  0.83333333  0.35061324
   0.16666667 -0.00000000  0.35061324
   0.16666667  0.33333333  0.35061324
   0.16666667  0.66666667  0.35061324
   0.50000000 -0.00000000  0.35061324
   0.50000000  0.33333333  0.35061324
   0.50000000  0.66666667  0.35061324
   0.83333333 -0.00000000  0.35061324
   0.83333333  0.33333333  0.35061324
   0.83333333  0.66666667  0.35061324
   0.00000000  0.00000000  0.41740238
   0.00000000  0.33333333  0.41740238
   0.00000000  0.66666667  0.41740238
   0.33333333  0.00000000  0.41740238
   0.33333333  0.33333333  0.41740238
   0.33333333  0.66666667  0.41740238
   0.66666667 -0.00000000  0.41740238
   0.66666667  0.33333333  0.41740238
   0.66666667  0.66666667  0.41740238
   0.16666667  0.16666667  0.41740238
   0.16666667  0.50000000  0.41740238
   0.16666667  0.83333333  0.41740238
   0.50000000  0.16666667  0.41740238
   0.50000000  0.50000000  0.41740238
   0.50000000  0.83333333  0.41740238
   0.83333333  0.16666667  0.41740238
   0.83333333  0.50000000  0.41740238
   0.83333333  0.83333333  0.41740238
Direct configuration=     5
   0.00000000  0.00000000  0.00000000
   0.00000000  0.33333333  0.00000000
   0.00000000  0.66666667  0.00000000
   0.33333333  0.00000000  0.00000000
   0.33333333  0.33333333  0.00000000
   0.33333333  0.66666667  0.00000000
   0.66666667  0.00000000  0.00000000
   0.66666667  0.33333333  0.00000000
   0.66666667  0.66666667  0.00000000
   0.16666667  0.16666667  0.00000000
   0.16666667  0.50000000  0.00000000
   0.16666667  0.83333333  0.00000000
   0.50000000  0.16666667  0.00000000
   0.50000000  0.50000000  0.00000000
   0.50000000  0.83333333  0.00000000
   0.83333333  0.16666667  0.00000000
   0.83333333  0.50000000  0.00000000
   0.83333333  0.83333333  0.00000000
   0.00000000  0.16666667  0.07010429
   0.00000000  0.50000000  0.07010429
   0.00000000  0.83333333  0.07010429
   0.33333333  0.16666667  0.07010429
   0.33333333  0.50000000  0.07010429
   0.33333333  0.83333333  0.07010429
   0.66666667  0.16666667  0.07010429
   0.66666667  0.50000000  0.07010429
   0.66666667  0.83333333  0.07010429
   0.16666667  0.00000000  0.07010429
   0.16666667  0.33333333  0.07010429
   0.16666667  0.66666667  0.07010429
   0.50000000  0.00000000  0.07010429
   0.50000000  0.33333333  0.07010429
   0.50000000  0.66666667  0.07010429
   0.83333333  0.00000000  0.07010429
   0.83333333  0.33333333  0.07010429
   0.83333333  0.66666667  0.07010429
  -0.00000000 -0.00000000  0.14060988
   0.00000000  0.33333333  0.14060988
  -0.00000000  0.66666667  0.14060988
   0.33333333 -0.00000000  0.14060988
   0.33333333  0.33333333  0.14060988
   0.33333333  0.66666667  0.14060988
   0.66666667 -0.00000000  0.14060988
   0.66666667  0.33333333  0.14060988
   0.66666667  0.66666667  0.14060988
   0.16666667  0.16666667  0.14060988
   0.16666667  0.50000000  0.14060988
   0.16666667  0.83333333  0.14060988
   0.50000000  0.16666667  0.14060988
   0.50000000  0.50000000  0.14060988
   0.50000000  0.83333333  0.14060988
   0.83333333  0.16666667  0.14060988
   0.83333333  0.50000000  0.14060988
   0.83333333  0.83333333  0.14060988
   0.00000000  0.16666667  0.21045451
   0.00000000  0.50000000  0.21045451
   0.00000000  0.83333333  0.21045451
   0.33333333  0.16666667  0.21045451
   0.33333333  0.50000000  0.21045451
   0.33333333  0.83333333  0.21045451
   0.66666667  0.16666667  0.21045451
   0.66666667  0.50000000  0.21045451
   0.66666667  0.83333333  0.21045451
   0.16666667  0.00000000  0.21045451
   0.16666667  0.33333333  0.21045451
   0.16666667  0.66666667  0.21045451
   0.50000000  0.00000000  0.21045451
   0.50000000  0.33333333  0.21045451
   0.50000000  0.66666667  0.21045451
   0.83333333 -0.00000000  0.21045451
   0.83333333  0.33333333  0.21045451
   0.83333333  0.66666667  0.21045451
  -0.00000000  0.00000000  0.28039722
  -0.00000000  0.33333333  0.28039722
  -0.00000000  0.66666667  0.28039722
   0.33333333 -0.00000000  0.28039722
   0.33333333  0.33333333  0.28039722
   0.33333333  0.66666667  0.28039722
   0.66666667  0.00000000  0.28039722
   0.66666667  0.33333333  0.28039722
   0.66666667  0.66666667  0.28039722
   0.16666667  0.16666667  0.28039722
   0.16666667  0.50000000  0.28039722
   0.16666667  0.83333333  0.28039722
   0.50000000  0.16666667  0.28039722
   0.50000000  0.50000000  0.28039722
   0.50000000  0.83333333  0.28039722
   0.83333333  0.16666667  0.28039722
   0.83333333  0.50000000  0.28039722
   0.83333333  0.83333333  0.28039722
  -0.00000000  0.16666667  0.34919560
  -0.00000000  0.50000000  0.34919560
  -0.00000000  0.83333333  0.34919560
   0.33333333  0.16666667  0.34919560
   0.33333333  0.50000000  0.34919560
   0.33333333  0.83333333  0.34919560
   0.66666667  0.16666667  0.34919560
   0.66666667  0.50000000  0.34919560
   0.66666667  0.83333333  0.34919560
   0.16666667 -0.00000000  0.34919560
   0.16666667  0.33333333  0.34919560
   0.16666667  0.66666667  0.34919560
   0.50000000 -0.00000000  0.34919560
   0.50000000  0.33333333  0.34919560
   0.50000000  0.66666667  0.34919560
   0.83333333 -0.00000000  0.34919560
   0.83333333  0.33333333  0.34919560
   0.83333333  0.66666667  0.34919560
   0.00000000  0.00000000  0.41535800
   0.00000000  0.33333333  0.41535800
   0.00000000  0.66666667  0.41535800
   0.33333333  0.00000000  0.41535800
   0.33333333  0.33333333  0.41535800
   0.33333333  0.66666667  0.41535800
   0.66666667 -0.00000000  0.41535800
   0.66666667  0.33333333  0.41535800
   0.66666667  0.66666667  0.41535800
   0.16666667  0.16666667  0.41535800
   0.16666667  0.50000000  0.41535800
   0.16666667  0.83333333  0.41535800
   0.50000000  0.16666667  0.41535800
   0.50000000  0.50000000  0.41535800
   0.50000000  0.83333333  0.41535800
   0.83333333  0.16666667  0.41535800
   0.83333333  0.50000000  0.41535800
   0.83333333  0.83333333  0.41535800
Direct configuration=     6
   0.00000000  0.00000000  0.00000000
   0.00000000  0.33333333  0.00000000
   0.00000000  0.66666667  0.00000000
   0.33333333  0.00000000  0.00000000
   0.33333333  0.33333333  0.00000000
   0.33333333  0.66666667  0.00000000
   0.66666667  0.00000000  0.00000000
   0.66666667  0.33333333  0.00000000
   0.66666667  0.66666667  0.00000000
   0.16666667  0.16666667  0.00000000
   0.16666667  0.50000000  0.00000000
   0.16666667  0.83333333  0.00000000
   0.50000000  0.16666667  0.00000000
   0.50000000  0.50000000  0.00000000
   0.50000000  0.83333333  0.00000000
   0.83333333  0.16666667  0.00000000
   0.83333333  0.50000000  0.00000000
   0.83333333  0.83333333  0.00000000
   0.00000000  0.16666667  0.07010429
   0.00000000  0.50000000  0.07010429
   0.00000000  0.83333333  0.07010429
   0.33333333  0.16666667  0.07010429
   0.33333333  0.50000000  0.07010429
   0.33333333  0.83333333  0.07010429
   0.66666667  0.16666667  0.07010429
   0.66666667  0.50000000  0.07010429
   0.66666667  0.83333333  0.07010429
   0.16666667  0.00000000  0.07010429
   0.16666667  0.33333333  0.07010429
   0.16666667  0.66666667  0.07010429
   0.50000000  0.00000000  0.07010429
   0.50000000  0.33333333  0.07010429
   0.50000000  0.66666667  0.07010429
   0.83333333  0.00000000  0.07010429
   0.83333333  0.33333333  0.07010429
   0.83333333  0.66666667  0.07010429
  -0.00000000 -0.00000000  0.14064751
   0.00000000  0.33333333  0.14064751
  -0.00000000  0.66666667  0.14064751
   0.33333333 -0.00000000  0.14064751
   0.33333333  0.33333333  0.14064751
   0.33333333  0.66666667  0.14064751
   0.66666667 -0.00000000  0.14064751
   0.66666667  0.33333333  0.14064751
   0.66666667  0.66666667  0.14064751
   0.16666667  0.16666667  0.14064751
   0.16666667  0.50000000  0.14064751
   0.16666667  0.83333333  0.14064751
   0.50000000  0.16666667  0.14064751
   0.50000000  0.50000000  0.14064751
   0.50000000  0.83333333  0.14064751
   0.83333333  0.16666667  0.14064751
   0.83333333  0.50000000  0.14064751
   0.83333333  0.83333333  0.14064751
   0.00000000  0.16666667  0.21049244
   0.00000000  0.50000000  0.21049244
   0.00000000  0.83333333  0.21049244
   0.33333333  0.16666667  0.21049244
   0.33333333  0.50000000  0.21049244
   0.33333333  0.83333333  0.21049244
   0.66666667  0.16666667  0.21049244
   0.66666667  0.50000000  0.21049244
   0.66666667  0.83333333  0.21049244
   0.16666667  0.00000000  0.21049244
   0.16666667  0.33333333  0.21049244
   0.16666667  0.66666667  0.21049244
   0.50000000  0.00000000  0.21049244
   0.50000000  0.33333333  0.21049244
   0.50000000  0.66666667  0.21049244
   0.83333333 -0.00000000  0.21049244
   0.83333333  0.33333333  0.21049244
   0.83333333  0.66666667  0.21049244
  -0.00000000  0.00000000  0.28046822
  -0.00000000  0.33333333  0.28046822
  -0.00000000  0.66666667  0.28046822
   0.33333333 -0.00000000  0.28046822
   0.33333333  0.33333333  0.28046822
   0.33333333  0.66666667  0.28046822
   0.66666667  0.00000000  0.28046822
   0.66666667  0.33333333  0.28046822
   0.66666667  0.66666667  0.28046822
   0.16666667  0.16666667  0.28046822
   0.16666667  0.50000000  0.28046822
   0.16666667  0.83333333  0.28046822
   0.50000000  0.16666667  0.28046822
   0.50000000  0.50000000  0.28046822
   0.50000000  0.83333333  0.28046822
   0.83333333  0.16666667  0.28046822
   0.83333333  0.50000000  0.28046822
   0.83333333  0.83333333  0.28046822
  -0.00000000  0.16666667  0.34861007
  -0.00000000  0.50000000  0.34861007
  -0.00000000  0.83333333  0.34861007
   0.33333333  0.16666667  0.34861007
   0.33333333  0.50000000  0.34861007
   0.33333333  0.83333333  0.34861007
   0.66666667  0.16666667  0.34861007
   0.66666667  0.50000000  0.34861007
   0.66666667  0.83333333  0.34861007
   0.16666667 -0.00000000  0.34861007
   0.16666667  0.33333333  0.34861007
   0.16666667  0.66666667  0.34861007
   0.50000000 -0.00000000  0.34861007
   0.50000000  0.33333333  0.34861007
   0.50000000  0.66666667  0.34861007
   0.83333333 -0.00000000  0.34861007
   0.83333333  0.33333333  0.34861007
   0.83333333  0.66666667  0.34861007
   0.00000000  0.00000000  0.41451362
   0.00000000  0.33333333  0.41451362
   0.00000000  0.66666667  0.41451362
   0.33333333  0.00000000  0.41451362
   0.33333333  0.33333333  0.41451362
   0.33333333  0.66666667  0.41451362
   0.66666667 -0.00000000  0.41451362
   0.66666667  0.33333333  0.41451362
   0.66666667  0.66666667  0.41451362
   0.16666667  0.16666667  0.41451362
   0.16666667  0.50000000  0.41451362
   0.16666667  0.83333333  0.41451362
   0.50000000  0.16666667  0.41451362
   0.50000000  0.50000000  0.41451362
   0.50000000  0.83333333  0.41451362
   0.83333333  0.16666667  0.41451362
   0.83333333  0.50000000  0.41451362
   0.83333333  0.83333333  0.41451362
Direct configuration=     7
   0.00000000  0.00000000  0.00000000
   0.00000000  0.33333333  0.00000000
   0.00000000  0.66666667  0.00000000
   0.33333333  0.00000000  0.00000000
   0.33333333  0.33333333  0.00000000
   0.33333333  0.66666667  0.00000000
   0.66666667  0.00000000  0.00000000
   0.66666667  0.33333333  0.00000000
   0.66666667  0.66666667  0.00000000
   0.16666667  0.16666667  0.00000000
   0.16666667  0.50000000  0.00000000
   0.16666667  0.83333333  0.00000000
   0.50000000  0.16666667  0.00000000
   0.50000000  0.50000000  0.00000000
   0.50000000  0.83333333  0.00000000
   0.83333333  0.16666667  0.00000000
   0.83333333  0.50000000  0.00000000
   0.83333333  0.83333333  0.00000000
   0.00000000  0.16666667  0.07010429
   0.00000000  0.50000000  0.07010429
   0.00000000  0.83333333  0.07010429
   0.33333333  0.16666667  0.07010429
   0.33333333  0.50000000  0.07010429