 vasp.6.3.2 27Jun22 (build Aug 17 2022 15:43:34) complex                        
  
 executed on           tv2STDVTST date 2025.01.21  13:55:20
 running   20 mpi-ranks, with    1 threads/rank
 distrk:  each k-point on   20 cores,    1 groups
 distr:  one band on NCORE=   5 cores,    4 groups


--------------------------------------------------------------------------------------------------------


 -----------------------------------------------------------------------------
|                                                                             |
|           W    W    AA    RRRRR   N    N  II  N    N   GGGG   !!!           |
|           W    W   A  A   R    R  NN   N  II  NN   N  G    G  !!!           |
|           W    W  A    A  R    R  N N  N  II  N N  N  G       !!!           |
|           W WW W  AAAAAA  RRRRR   N  N N  II  N  N N  G  GGG   !            |
|           WW  WW  A    A  R   R   N   NN  II  N   NN  G    G                |
|           W    W  A    A  R    R  N    N  II  N    N   GGGG   !!!           |
|                                                                             |
|     Found issues when parsing the INCAR file                                |
|     In line 64: Tagname --- R W I G S contains invalid characters.          |
|     Please check if the interpretation in the OUTCAR file is correct.       |
|                                                                             |
 -----------------------------------------------------------------------------

 INCAR:
    = \=\=\=\=\=\=\=\=\=\=\=\=\=\=\=\=\=\=\=\=\=\=\=\=\=\=\=\=\=\=\=\=\=\=\=\=\=\=\=\=\=\=\=\=\=\=\=\=\=\=\=\=\=\=\=\=\=\=\=\=\=\=\=\=\=\=\=\=\=\=\=\=
    = \=\=\=\=\=\=\=\=\=\=\=\=\=\=\=\=\=\=\=\=\=\=\=\=\=\=\=\=\=\=\=\=\=\=\=\=\=\=\=\=\=\=\=\=\=\=\=\=\=\=\=\=\=\=\=\=\=\=\=\=\=\=\=\=\=\=\=\=\=\=\=\=
   ISTART = 0
   ICHARG = 2
   IPIPOL = 3
   IVDW = 11
   IDIPOL = 3
   IVDW = 11
    = \=\=\=\=\=\=\=\=\=\=\=\=\=\=\=\=\=\=\=\=\=\=\=\=\=\=\=\=\=\=\=\=\=\=\=\=\=\=\=\=\=\=\=\=\=\=\=\=\=\=\=\=\=\=\=\=\=\=\=\=\=\=\=\=\=\=\=\=\=\=\=\=
    = \=\=\=\=\=\=\=\=\=\=\=\=\=\=\=\=\=\=\=\=\=\=\=\=\=\=\=\=\=\=\=\=\=\=\=\=\=\=\=\=\=\=\=\=\=\=\=\=\=\=\=\=\=\=\=\=\=\=\=\=\=\=\=\=\=\=\=\=\=\=\=\=
   ISPIN = 2
    = \=\=\=\=\=\=\=\=\=\=\=\=\=\=\=\=\=\=\=\=\=\=\=\=\=\=\=\=\=\=\=\=\=\=\=\=\=\=\=\=\=\=\=\=\=\=\=\=\=\=\=\=\=\=\=\=\=\=\=\=\=\=\=\=\=\=\=\=\=\=\=\=
    = \=\=\=\=\=\=\=\=\=\=\=\=\=\=\=\=\=\=\=\=\=\=\=\=\=\=\=\=\=\=\=\=\=\=\=\=\=\=\=\=\=\=\=\=\=\=\=\=\=\=\=\=\=\=\=\=\=\=\=\=\=\=\=\=\=\=\=\=\=\=\=\=
   ENCUT = 400
   PREC = Normal
   EDIFF = 2E-04
   GGA = PE
   ISMEAR = 1
   SIGMA = 0.2
   LREAL = .FALSE.
    = \=\=\=\=\=\=\=\=\=\=\=\=\=\=\=\=\=\=\=\=\=\=\=\=\=\=\=\=\=\=\=\=\=\=\=\=\=\=\=\=\=\=\=\=\=\=\=\=\=\=\=\=\=\=\=\=\=\=\=\=\=\=\=\=\=\=\=\=\=\=\=\=
    = \=\=\=\=\=\=\=\=\=\=\=\=\=\=\=\=\=\=\=\=\=\=\=\=\=\=\=\=\=\=\=\=\=\=\=\=\=\=\=\=\=\=\=\=\=\=\=\=\=\=\=\=\=\=\=\=\=\=\=\=\=\=\=\=\=\=\=\=\=\=\=\=
   ISYM = 1
   NSW = 800
   IBRION = 2
   POTIM = 0.5
   ISIF = 2
   EDIFFG = -.03
    = \=\=\=\=\=\=\=\=\=\=\=\=\=\=\=\=\=\=\=\=\=\=\=\=\=\=\=\=\=\=\=\=\=\=\=\=\=\=\=\=\=\=\=\=\=\=\=\=\=\=\=\=\=\=\=\=\=\=\=\=\=\=\=\=\=\=\=\=\=\=\=\=
    = \=\=\=\=\=\=\=\=\=\=\=\=\=\=\=\=\=\=\=\=\=\=\=\=\=\=\=\=\=\=\=\=\=\=\=\=\=\=\=\=\=\=\=\=\=\=\=\=\=\=\=\=\=\=\=\=\=\=\=\=\=\=\=\=\=\=\=\=\=\=\=\=
   NPAR = 4
   LWAVE = .FALSE.
   LCHARG = .FALSE.

 POTCAR:    PAW_PBE Cu 22Jun2005                  
 -----------------------------------------------------------------------------
|                                                                             |
|           W    W    AA    RRRRR   N    N  II  N    N   GGGG   !!!           |
|           W    W   A  A   R    R  NN   N  II  NN   N  G    G  !!!           |
|           W    W  A    A  R    R  N N  N  II  N N  N  G       !!!           |
|           W WW W  AAAAAA  RRRRR   N  N N  II  N  N N  G  GGG   !            |
|           WW  WW  A    A  R   R   N   NN  II  N   NN  G    G                |
|           W    W  A    A  R    R  N    N  II  N    N   GGGG   !!!           |
|                                                                             |
|     You use a magnetic or noncollinear calculation, but did not specify     |
|     the initial magnetic moment with the MAGMOM tag. Note that a            |
|     default of 1 will be used for all atoms. This ferromagnetic setup       |
|     may break the symmetry of the crystal, in particular it may rule        |
|     out finding an antiferromagnetic solution. Thence, we recommend         |
|     setting the initial magnetic moment manually or verifying carefully     |
|     that this magnetic setup is desired.                                    |
|                                                                             |
 -----------------------------------------------------------------------------

 POTCAR:    PAW_PBE Cu 22Jun2005                  
   SHA256 =  0e71e558f37a4e8407882b4609ceaae59938afaad9ced71dfe8490308a0ab630 Cu/POTCAR             
   COPYR  = (c) Copyright 22Jun2005 Georg Kresse                                                    
   COPYR  = This file is part of the software VASP. Any use, copying, and all other rights are regul
   COPYR  = If you do not have a valid VASP license, you may not use, copy or distribute this file. 
   VRHFIN =Cu: d10 p1                                                                               
   LEXCH  = PE                                                                                      
   EATOM  =  1390.9808 eV,  102.2342 Ry                                                             
                                                                                                    
   TITEL  = PAW_PBE Cu 22Jun2005                                                                    
   LULTRA =        F    use ultrasoft PP ?                                                          
   IUNSCR =        1    unscreen: 0-lin 1-nonlin 2-no                                               
   RPACOR =    2.000    partial core radius                                                         
   POMASS =   63.546; ZVAL   =   11.000    mass and valenz                                          
   RCORE  =    2.300    outmost cutoff radius                                                       
   RWIGS  =    2.200; RWIGS  =    1.164    wigner-seitz radius (au A)                               
   ENMAX  =  295.446; ENMIN  =  221.585 eV                                                          
   ICORE  =        3    local potential                                                             
   LCOR   =        T    correct aug charges                                                         
   LPAW   =        T    paw PP                                                                      
   EAUG   =  586.980                                                                                
   DEXC   =    0.000                                                                                
   RMAX   =    2.344    core radius for proj-oper                                                   
   RAUG   =    1.300    factor for augmentation sphere                                              
   RDEP   =    2.302    radius for radial grids                                                     
   RDEPT  =    1.771    core radius for aug-charge                                                  
                                                                                                    
   Atomic configuration                                                                             
    9 entries                                                                                       
     n  l   j            E        occ.                                                              
     1  0  0.50     -8850.2468   2.0000                                                             
     2  0  0.50     -1062.3498   2.0000                                                             
     2  1  1.50      -916.8226   6.0000                                                             
     3  0  0.50      -114.6929   2.0000                                                             
     3  1  1.50       -72.1325   6.0000                                                             
     3  2  2.50        -5.0394  10.0000                                                             
     4  0  0.50        -4.6097   1.0000                                                             
     4  1  0.50        -4.0817   0.0000                                                             
     4  3  2.50        -1.3606   0.0000                                                             
   Description                                                                                      
     l       E           TYP  RCUT    TYP  RCUT                                                     
     2     -5.0393973     23  2.200                                                                 
     2     10.8846608     23  2.200                                                                 
     0     -4.6097109     23  2.200                                                                 
     0      8.2520465     23  2.200                                                                 
     1     -2.7211652     23  2.200                                                                 
     1     21.7055443     23  2.200                                                                 
     3      2.7211652     23  2.300                                                                 
  local pseudopotential read in
  partial core-charges read in
  partial kinetic energy density read in
  atomic valenz-charges read in
  non local Contribution for L=           2  read in
    real space projection operators read in
  non local Contribution for L=           2  read in
    real space projection operators read in
  non local Contribution for L=           0  read in
    real space projection operators read in
  non local Contribution for L=           0  read in
    real space projection operators read in
  non local Contribution for L=           1  read in
    real space projection operators read in
  non local Contribution for L=           1  read in
    real space projection operators read in
    PAW grid and wavefunctions read in
 
   number of l-projection  operators is LMAX  =           6
   number of lm-projection operators is LMMAX =          18
 
 -----------------------------------------------------------------------------
|                                                                             |
|               ----> ADVICE to this user running VASP <----                  |
|                                                                             |
|     You have a (more or less) 'large supercell' and for larger cells it     |
|     might be more efficient to use real-space projection operators.         |
|     Therefore, try LREAL= Auto in the INCAR file.                           |
|     Mind: For very accurate calculation, you might also keep the            |
|     reciprocal projection scheme (i.e. LREAL=.FALSE.).                      |
|                                                                             |
 -----------------------------------------------------------------------------

  PAW_PBE Cu 22Jun2005                  :
 energy of atom  1       EATOM=-1390.9808
 kinetic energy error for atom=    0.0232 (will be added to EATOM!!)
 
 
 POSCAR: FCC Cu
  positions in cartesian coordinates
  velocities in cartesian coordinates
  No initial velocities read in
 exchange correlation table for  LEXCH =        8
   RHO(1)=    0.500       N(1)  =     2000
   RHO(2)=  100.500       N(2)  =     4000

 VTST: version 4.2, (08/11/21)

 CHAIN: initializing optimizer
 
 OPT: Using VASP Conjugate-Gradient optimizer
 CHAIN: Read ICHAIN            0
 
 POSCAR: FCC Cu
  positions in cartesian coordinates
  velocities in cartesian coordinates
  No initial velocities read in
 


--------------------------------------------------------------------------------------------------------


 ion  position               nearest neighbor table
   1  0.000  0.000  0.000-   9 2.57  13 2.57  10 2.57  15 2.57   5 2.57   6 2.57   7 2.57   8 2.57

   2  0.000  0.500  0.000-  10 2.57  14 2.57   9 2.57  16 2.57   6 2.57   5 2.57   8 2.57   7 2.57

   3  0.500  0.000  0.000-  11 2.57  15 2.57  13 2.57  12 2.57   7 2.57   5 2.57   8 2.57   6 2.57

   4  0.500  0.500  0.000-  12 2.57  16 2.57  14 2.57  11 2.57   8 2.57   7 2.57   6 2.57   5 2.57

   5  0.250  0.250  0.000-   9 2.57  13 2.57  11 2.57  14 2.57   1 2.57   2 2.57   3 2.57   4 2.57

   6  0.250  0.750  0.000-  10 2.57  14 2.57  12 2.57  13 2.57   2 2.57   4 2.57   1 2.57   3 2.57

   7  0.750  0.250  0.000-  11 2.57  15 2.57  16 2.57   9 2.57   3 2.57   4 2.57   1 2.57   2 2.57

   8  0.750  0.750  0.000-  12 2.57  16 2.57  15 2.57  10 2.57   4 2.57   3 2.57   2 2.57   1 2.57

   9  0.000  0.250  0.070-  17 2.57  21 2.57  18 2.57  23 2.57   1 2.57   5 2.57   2 2.57   7 2.57
                            13 2.57  14 2.57  15 2.57  16 2.57
  10  0.000  0.750  0.070-  18 2.57  22 2.57  17 2.57  24 2.57   2 2.57   6 2.57   1 2.57   8 2.57
                            14 2.57  13 2.57  16 2.57  15 2.57
  11  0.500  0.250  0.070-  19 2.57  23 2.57  21 2.57  20 2.57   3 2.57   7 2.57   5 2.57   4 2.57
                            15 2.57  13 2.57  16 2.57  14 2.57
  12  0.500  0.750  0.070-  20 2.57  24 2.57  22 2.57  19 2.57   4 2.57   8 2.57   6 2.57   3 2.57
                            16 2.57  14 2.57  15 2.57  13 2.57
  13  0.250  0.000  0.070-  17 2.57  21 2.57  19 2.57  22 2.57   1 2.57   5 2.57   3 2.57   6 2.57
                             9 2.57  11 2.57  10 2.57  12 2.57
  14  0.250  0.500  0.070-  18 2.57  22 2.57  21 2.57  20 2.57   2 2.57   6 2.57   5 2.57   4 2.57
                            10 2.57   9 2.57  12 2.57  11 2.57
  15  0.750  0.000  0.070-  19 2.57  23 2.57  17 2.57  24 2.57   3 2.57   7 2.57   1 2.57   8 2.57
                            11 2.57   9 2.57  12 2.57  10 2.57
  16  0.750  0.500  0.070-  20 2.57  24 2.57  23 2.57  18 2.57   4 2.57   8 2.57   7 2.57   2 2.57
                            12 2.57  11 2.57  10 2.57   9 2.57
  17  0.000  0.000  0.140-   9 2.57  13 2.57  10 2.57  15 2.57  25 2.57  29 2.57  26 2.57  31 2.57
                            21 2.57  22 2.57  23 2.57  24 2.57
  18  0.000  0.500  0.140-  10 2.57  14 2.57   9 2.57  16 2.57  26 2.57  30 2.57  25 2.57  32 2.57
                            22 2.57  21 2.57  24 2.57  23 2.57
  19  0.500  0.000  0.140-  11 2.57  15 2.57  13 2.57  12 2.57  27 2.57  31 2.57  29 2.57  28 2.57
                            23 2.57  21 2.57  24 2.57  22 2.57
  20  0.500  0.500  0.140-  12 2.57  16 2.57  14 2.57  11 2.57  28 2.57  32 2.57  30 2.57  27 2.57
                            24 2.57  23 2.57  22 2.57  21 2.57
  21  0.250  0.250  0.140-   9 2.57  13 2.57  11 2.57  14 2.57  25 2.57  29 2.57  27 2.57  30 2.57
                            17 2.57  18 2.57  19 2.57  20 2.57
  22  0.250  0.750  0.140-  10 2.57  14 2.57  12 2.57  13 2.57  26 2.57  30 2.57  28 2.57  29 2.57
                            18 2.57  20 2.57  17 2.57  19 2.57
  23  0.750  0.250  0.140-  11 2.57  15 2.57  16 2.57   9 2.57  27 2.57  31 2.57  32 2.57  25 2.57
                            19 2.57  20 2.57  17 2.57  18 2.57
  24  0.750  0.750  0.140-  12 2.57  16 2.57  15 2.57  10 2.57  28 2.57  32 2.57  31 2.57  26 2.57
                            20 2.57  19 2.57  18 2.57  17 2.57
  25  0.000  0.250  0.210-  33 2.57  37 2.57  34 2.57  39 2.57  17 2.57  21 2.57  18 2.57  23 2.57
                            29 2.57  30 2.57  31 2.57  32 2.57
  26  0.000  0.750  0.210-  34 2.57  38 2.57  33 2.57  40 2.57  18 2.57  22 2.57  17 2.57  24 2.57
                            30 2.57  29 2.57  32 2.57  31 2.57
  27  0.500  0.250  0.210-  35 2.57  39 2.57  37 2.57  36 2.57  19 2.57  23 2.57  21 2.57  20 2.57
                            31 2.57  29 2.57  32 2.57  30 2.57
  28  0.500  0.750  0.210-  36 2.57  40 2.57  38 2.57  35 2.57  20 2.57  24 2.57  22 2.57  19 2.57
                            32 2.57  30 2.57  31 2.57  29 2.57
  29  0.250  0.000  0.210-  33 2.57  37 2.57  35 2.57  38 2.57  17 2.57  21 2.57  19 2.57  22 2.57
                            25 2.57  27 2.57  26 2.57  28 2.57
  30  0.250  0.500  0.210-  34 2.57  38 2.57  37 2.57  36 2.57  18 2.57  22 2.57  21 2.57  20 2.57
                            26 2.57  25 2.57  28 2.57  27 2.57
  31  0.750  0.000  0.210-  35 2.57  39 2.57  33 2.57  40 2.57  19 2.57  23 2.57  17 2.57  24 2.57
                            27 2.57  25 2.57  28 2.57  26 2.57
  32  0.750  0.500  0.210-  36 2.57  40 2.57  39 2.57  34 2.57  20 2.57  24 2.57  23 2.57  18 2.57
                            28 2.57  27 2.57  26 2.57  25 2.57
  33  0.000  0.000  0.280-  25 2.57  29 2.57  41 2.57  45 2.57  26 2.57  31 2.57  42 2.57  47 2.57
                            37 2.57  38 2.57  39 2.57  40 2.57
  34  0.000  0.500  0.280-  26 2.57  30 2.57  25 2.57  42 2.57  46 2.57  41 2.57  32 2.57  48 2.57
                            38 2.57  37 2.57  40 2.57  39 2.57
  35  0.500  0.000  0.280-  27 2.57  31 2.57  29 2.57  43 2.57  47 2.57  45 2.57  28 2.57  44 2.57
                            39 2.57  37 2.57  40 2.57  38 2.57
  36  0.500  0.500  0.280-  28 2.57  32 2.57  30 2.57  27 2.57  44 2.57  48 2.57  46 2.57  43 2.57
                            40 2.57  39 2.57  38 2.57  37 2.57
  37  0.250  0.250  0.280-  25 2.57  29 2.57  27 2.57  30 2.57  41 2.57  45 2.57  43 2.57  46 2.57
                            33 2.57  34 2.57  35 2.57  36 2.57
  38  0.250  0.750  0.280-  26 2.57  30 2.57  28 2.57  42 2.57  46 2.57  44 2.57  29 2.57  45 2.57
                            34 2.57  36 2.57  33 2.57  35 2.57
  39  0.750  0.250  0.280-  27 2.57  31 2.57  32 2.57  43 2.57  47 2.57  48 2.57  25 2.57  41 2.57
                            35 2.57  36 2.57  33 2.57  34 2.57
  40  0.750  0.750  0.280-  28 2.57  32 2.57  44 2.57  48 2.57  31 2.57  26 2.57  47 2.57  42 2.57
                            36 2.57  35 2.57  34 2.57  33 2.57
  41  0.000  0.250  0.351-  49 2.57  53 2.57  50 2.57  55 2.57  33 2.57  37 2.57  34 2.57  39 2.57
                            45 2.57  46 2.57  47 2.57  48 2.57
  42  0.000  0.750  0.351-  50 2.57  54 2.57  49 2.57  56 2.57  34 2.57  38 2.57  33 2.57  40 2.57
                            46 2.57  45 2.57  48 2.57  47 2.57
  43  0.500  0.250  0.351-  51 2.57  55 2.57  53 2.57  52 2.57  35 2.57  39 2.57  37 2.57  36 2.57
                            47 2.57  45 2.57  48 2.57  46 2.57
  44  0.500  0.750  0.351-  52 2.57  56 2.57  54 2.57  51 2.57  36 2.57  40 2.57  38 2.57  35 2.57
                            48 2.57  46 2.57  47 2.57  45 2.57
  45  0.250  0.000  0.351-  49 2.57  53 2.57  51 2.57  54 2.57  33 2.57  37 2.57  35 2.57  38 2.57
                            41 2.57  43 2.57  42 2.57  44 2.57
  46  0.250  0.500  0.351-  50 2.57  54 2.57  53 2.57  52 2.57  34 2.57  38 2.57  37 2.57  36 2.57
                            42 2.57  41 2.57  44 2.57  43 2.57
  47  0.750  0.000  0.351-  51 2.57  55 2.57  49 2.57  56 2.57  35 2.57  39 2.57  33 2.57  40 2.57
                            43 2.57  41 2.57  44 2.57  42 2.57
  48  0.750  0.500  0.351-  52 2.57  56 2.57  55 2.57  50 2.57  36 2.57  40 2.57  39 2.57  34 2.57
                            44 2.57  43 2.57  42 2.57  41 2.57
  49  0.000  0.000  0.421-  41 2.57  45 2.57  42 2.57  47 2.57  53 2.57  54 2.57  55 2.57  56 2.57

  50  0.000  0.500  0.421-  42 2.57  46 2.57  41 2.57  48 2.57  54 2.57  53 2.57  56 2.57  55 2.57

  51  0.500  0.000  0.421-  43 2.57  47 2.57  45 2.57  44 2.57  55 2.57  53 2.57  56 2.57  54 2.57

  52  0.500  0.500  0.421-  44 2.57  48 2.57  46 2.57  43 2.57  56 2.57  55 2.57  54 2.57  53 2.57

  53  0.250  0.250  0.421-  41 2.57  45 2.57  43 2.57  46 2.57  49 2.57  50 2.57  51 2.57  52 2.57

  54  0.250  0.750  0.421-  42 2.57  46 2.57  44 2.57  45 2.57  50 2.57  52 2.57  49 2.57  51 2.57

  55  0.750  0.250  0.421-  43 2.57  47 2.57  48 2.57  41 2.57  51 2.57  52 2.57  49 2.57  50 2.57

  56  0.750  0.750  0.421-  44 2.57  48 2.57  47 2.57  42 2.57  52 2.57  51 2.57  50 2.57  49 2.57

 
  LATTYP: Found a simple tetragonal cell.
 ALAT       =     7.2600002289
 C/A-ratio  =     3.5661155900
  
  Lattice vectors:
  
 A1 = (   7.2600002289,   0.0000000000,   0.0000000000)
 A2 = (   0.0000000000,   7.2600002289,   0.0000000000)
 A3 = (   0.0000000000,   0.0000000000,  25.8900000000)


Analysis of symmetry for initial positions (statically):
=====================================================================
 Subroutine PRICEL returns following result:
 
  LATTYP: Found a simple tetragonal cell.
 ALAT       =     2.5667976963
 C/A-ratio  =    10.0864980661
  
  Lattice vectors:
  
 A1 = (   1.8150000570,  -1.8150000570,   0.0000000000)
 A2 = (   1.8150000570,   1.8150000570,   0.0000000000)
 A3 = (   0.0000000000,   0.0000000000,  25.8900000000)
 
   8 primitive cells build up your supercell.
 

 Routine SETGRP: Setting up the symmetry group for a 
 simple tetragonal supercell.


 Subroutine GETGRP returns: Found 16 space group operations
 (whereof  8 operations were pure point group operations)
 out of a pool of 16 trial point group operations.


The static configuration has the point symmetry C_4v.
 The point group associated with its full space group is D_4h.


Analysis of symmetry for dynamics (positions and initial velocities):
=====================================================================
 Subroutine PRICEL returns following result:
 
  LATTYP: Found a simple tetragonal cell.
 ALAT       =     2.5667976963
 C/A-ratio  =    10.0864980661
  
  Lattice vectors:
  
 A1 = (   1.8150000570,  -1.8150000570,   0.0000000000)
 A2 = (   1.8150000570,   1.8150000570,   0.0000000000)
 A3 = (   0.0000000000,   0.0000000000,  25.8900000000)
 
   8 primitive cells build up your supercell.
 

 Routine SETGRP: Setting up the symmetry group for a 
 simple tetragonal supercell.


 Subroutine GETGRP returns: Found 16 space group operations
 (whereof  8 operations were pure point group operations)
 out of a pool of 16 trial point group operations.


The dynamic configuration has the point symmetry C_4v.
 The point group associated with its full space group is D_4h.


Analysis of constrained symmetry for selective dynamics:
=====================================================================
 Subroutine PRICEL returns following result:
 
  LATTYP: Found a simple tetragonal cell.
 ALAT       =     2.5667976963
 C/A-ratio  =    10.0864980661
  
  Lattice vectors:
  
 A1 = (   1.8150000570,  -1.8150000570,   0.0000000000)
 A2 = (   1.8150000570,   1.8150000570,   0.0000000000)
 A3 = (   0.0000000000,   0.0000000000,  25.8900000000)
 
   8 primitive cells build up your supercell.
 

 Routine SETGRP: Setting up the symmetry group for a 
 simple tetragonal supercell.


 Subroutine GETGRP returns: Found  8 space group operations
 (whereof  8 operations were pure point group operations)
 out of a pool of 16 trial point group operations.


The constrained configuration has the point symmetry C_4v.


Analysis of structural, dynamic, and magnetic symmetry:
=====================================================================
 Subroutine PRICEL returns following result:
 
  LATTYP: Found a simple tetragonal cell.
 ALAT       =     2.5667976963
 C/A-ratio  =    10.0864980661
  
  Lattice vectors:
  
 A1 = (   1.8150000570,  -1.8150000570,   0.0000000000)
 A2 = (   1.8150000570,   1.8150000570,   0.0000000000)
 A3 = (   0.0000000000,   0.0000000000,  25.8900000000)
 
   8 primitive cells build up your supercell.
 

 Routine SETGRP: Setting up the symmetry group for a 
 simple tetragonal supercell.


 Subroutine GETGRP returns: Found  8 space group operations
 (whereof  8 operations were pure point group operations)
 out of a pool of 16 trial point group operations.


The overall configuration has the point symmetry C_4v.


 Subroutine INISYM returns: Found  8 space group operations
 (whereof  8 operations are pure point group operations),
 and found     8 'primitive' translations


----------------------------------------------------------------------------------------

                                     Primitive cell                                     

  volume of cell :     170.5750

  direct lattice vectors                    reciprocal lattice vectors
     1.815000057 -1.815000057  0.000000000     0.275482085 -0.275482085  0.000000000
     1.815000057  1.815000057  0.000000000     0.275482085  0.275482085  0.000000000
     0.000000000  0.000000000 25.890000000     0.000000000  0.000000000  0.038624952

  length of vectors
     2.566797696  2.566797696 25.890000000     0.389590501  0.389590501  0.038624952

  position of ions in fractional coordinates (direct lattice)
     0.000000000  0.000000000  0.000000000
     0.500000000  0.500000000  0.070104288
     0.000000000  0.000000000  0.140208577
     0.500000000  0.500000000  0.210312865
     0.000000000  0.000000000  0.280417153
     0.500000000  0.500000000  0.350521442
     0.000000000  0.000000000  0.420625730

  ion indices of the primitive-cell ions
   primitive index   ion index
                 1           1
                 2           9
                 3          17
                 4          25
                 5          33
                 6          41
                 7          49

----------------------------------------------------------------------------------------

 
 
 KPOINTS: Auto-mesh                               

Automatic generation of k-mesh.
 Grid dimensions read from file:
 generate k-points for:    3    3    1

 Generating k-lattice:

  Cartesian coordinates                     Fractional coordinates (reciprocal lattice)
     0.045913681  0.000000000  0.000000000     0.333333333  0.000000000  0.000000000
     0.000000000  0.045913681  0.000000000     0.000000000  0.333333333  0.000000000
     0.000000000  0.000000000  0.038624952     0.000000000  0.000000000  1.000000000

  Length of vectors
     0.045913681  0.045913681  0.038624952

  Shift w.r.t. Gamma in fractional coordinates (k-lattice)
     0.000000000  0.000000000  0.000000000

 
 Subroutine IBZKPT returns following result:
 ===========================================
 
 Found      3 irreducible k-points:
 
 Following reciprocal coordinates:
            Coordinates               Weight
  0.000000  0.000000  0.000000      1.000000
  0.333333  0.000000  0.000000      4.000000
  0.333333  0.333333  0.000000      4.000000
 
 Following cartesian coordinates:
            Coordinates               Weight
  0.000000  0.000000  0.000000      1.000000
  0.045914  0.000000  0.000000      4.000000
  0.045914  0.045914  0.000000      4.000000
 


--------------------------------------------------------------------------------------------------------




 Dimension of arrays:
   k-points           NKPTS =      3   k-points in BZ     NKDIM =      3   number of bands    NBANDS=    400
   number of dos      NEDOS =    301   number of ions     NIONS =     56
   non local maximal  LDIM  =      6   non local SUM 2l+1 LMDIM =     18
   total plane-waves  NPLWV = 165888
   max r-space proj   IRMAX =      1   max aug-charges    IRDMAX=   3720
   dimension x,y,z NGX =    36 NGY =   36 NGZ =  128
   dimension x,y,z NGXF=    72 NGYF=   72 NGZF=  256
   support grid    NGXF=    72 NGYF=   72 NGZF=  256
   ions per type =              56
   NGX,Y,Z   is equivalent  to a cutoff of   8.24,  8.24,  8.22 a.u.
   NGXF,Y,Z  is equivalent  to a cutoff of  16.49, 16.49, 16.44 a.u.

 SYSTEM =  unknown system                          
 POSCAR =  FCC Cu                                  

 Startparameter for this run:
   NWRITE =      2    write-flag & timer
   PREC   = normal    normal or accurate (medium, high low for compatibility)
   ISTART =      0    job   : 0-new  1-cont  2-samecut
   ICHARG =      2    charge: 1-file 2-atom 10-const
   ISPIN  =      2    spin polarized calculation?
   LNONCOLLINEAR =      F non collinear calculations
   LSORBIT =      F    spin-orbit coupling
   INIWAV =      1    electr: 0-lowe 1-rand  2-diag
   LASPH  =      F    aspherical Exc in radial PAW
 Electronic Relaxation 1
   ENCUT  =  400.0 eV  29.40 Ry    5.42 a.u.  11.84 11.84 42.22*2*pi/ulx,y,z
   ENINI  =  400.0     initial cutoff
   ENAUG  =  587.0 eV  augmentation charge cutoff
   NELM   =     60;   NELMIN=  2; NELMDL= -5     # of ELM steps 
   EDIFF  = 0.2E-03   stopping-criterion for ELM
   LREAL  =      F    real-space projection
   NLSPLINE    = F    spline interpolate recip. space projectors
   LCOMPAT=      F    compatible to vasp.4.4
   GGA_COMPAT  = T    GGA compatible to vasp.4.4-vasp.4.6
   LMAXPAW     = -100 max onsite density
   LMAXMIX     =    2 max onsite mixed and CHGCAR
   VOSKOWN=      0    Vosko Wilk Nusair interpolation
   ROPT   =    0.00000
 Ionic relaxation
   EDIFFG = -.3E-01   stopping-criterion for IOM
   NSW    =    800    number of steps for IOM
   NBLOCK =      1;   KBLOCK =    800    inner block; outer block 
   IBRION =      2    ionic relax: 0-MD 1-quasi-New 2-CG
   NFREE  =      1    steps in history (QN), initial steepest desc. (CG)
   ISIF   =      2    stress and relaxation
   IWAVPR =     11    prediction:  0-non 1-charg 2-wave 3-comb
   ISYM   =      1    0-nonsym 1-usesym 2-fastsym
   LCORR  =      T    Harris-Foulkes like correction to forces

   POTIM  = 0.5000    time-step for ionic-motion
   TEIN   =    0.0    initial temperature
   TEBEG  =    0.0;   TEEND  =   0.0 temperature during run
   SMASS  =  -3.00    Nose mass-parameter (am)
   estimated Nose-frequenzy (Omega)   =  0.10E-29 period in steps = 0.13E+47 mass=  -0.120E-26a.u.
   SCALEE = 1.0000    scale energy and forces
   NPACO  =    256;   APACO  = 10.0  distance and # of slots for P.C.
   PSTRESS=    0.0 pullay stress

  Mass of Ions in am
   POMASS =  63.55
  Ionic Valenz
   ZVAL   =  11.00
  Atomic Wigner-Seitz radii
   RWIGS  =  -1.00
  virtual crystal weights 
   VCA    =   1.00
   NELECT =     616.0000    total number of electrons
   NUPDOWN=      -1.0000    fix difference up-down

 DOS related values:
   EMIN   =  10.00;   EMAX   =-10.00  energy-range for DOS
   EFERMI =   0.00
   ISMEAR =     1;   SIGMA  =   0.20  broadening in eV -4-tet -1-fermi 0-gaus

 Electronic relaxation 2 (details)
   IALGO  =     38    algorithm
   LDIAG  =      T    sub-space diagonalisation (order eigenvalues)
   LSUBROT=      F    optimize rotation matrix (better conditioning)
   TURBO    =      0    0=normal 1=particle mesh
   IRESTART =      0    0=no restart 2=restart with 2 vectors
   NREBOOT  =      0    no. of reboots
   NMIN     =      0    reboot dimension
   EREF     =   0.00    reference energy to select bands
   IMIX   =      4    mixing-type and parameters
     AMIX     =   0.40;   BMIX     =  1.00
     AMIX_MAG =   1.60;   BMIX_MAG =  1.00
     AMIN     =   0.10
     WC   =   100.;   INIMIX=   1;  MIXPRE=   1;  MAXMIX= -45

 Intra band minimization:
   WEIMIN = 0.0010     energy-eigenvalue tresh-hold
   EBREAK =  0.12E-06  absolut break condition
   DEPER  =   0.30     relativ break condition  

   TIME   =   0.40     timestep for ELM

  volume/ion in A,a.u.               =      24.37       164.44
  Fermi-wavevector in a.u.,A,eV,Ry     =   1.255837  2.373188 21.458112  1.577127
  Thomas-Fermi vector in A             =   2.389574
 
 Write flags
   LWAVE        =      F    write WAVECAR
   LDOWNSAMPLE  =      F    k-point downsampling of WAVECAR
   LCHARG       =      F    write CHGCAR
   LVTOT        =      F    write LOCPOT, total local potential
   LVHAR        =      F    write LOCPOT, Hartree potential only
   LELF         =      F    write electronic localiz. function (ELF)
   LORBIT       =      0    0 simple, 1 ext, 2 COOP (PROOUT), +10 PAW based schemes


 Dipole corrections
   LMONO  =      F    monopole corrections only (constant potential shift)
   LDIPOL =      F    correct potential (dipole corrections)
   IDIPOL =      3    1-x, 2-y, 3-z, 4-all directions 
   EPSILON=  1.0000000 bulk dielectric constant

 Exchange correlation treatment:
   GGA     =    PE    GGA type
   LEXCH   =     8    internal setting for exchange type
   LIBXC   =     F    Libxc                    
   VOSKOWN =     0    Vosko Wilk Nusair interpolation
   LHFCALC =     F    Hartree Fock is set to
   LHFONE  =     F    Hartree Fock one center treatment
   AEXX    =    0.0000 exact exchange contribution

 Linear response parameters
   LEPSILON=     F    determine dielectric tensor
   LRPA    =     F    only Hartree local field effects (RPA)
   LNABLA  =     F    use nabla operator in PAW spheres
   LVEL    =     F    velocity operator in full k-point grid
   CSHIFT  =0.1000    complex shift for real part using Kramers Kronig
   OMEGAMAX=  -1.0    maximum frequency
   DEG_THRESHOLD= 0.2000000E-02 threshold for treating states as degnerate
   RTIME   =   -0.100 relaxation time in fs
  (WPLASMAI=    0.000 imaginary part of plasma frequency in eV, 0.658/RTIME)
   DFIELD  = 0.0000000 0.0000000 0.0000000 field for delta impulse in time
 
  Optional k-point grid parameters
   LKPOINTS_OPT  =     F    use optional k-point grid
   KPOINTS_OPT_MODE=     1    mode for optional k-point grid
 
 Orbital magnetization related:
   ORBITALMAG=     F  switch on orbital magnetization
   LCHIMAG   =     F  perturbation theory with respect to B field
   DQ        =  0.001000  dq finite difference perturbation B field
   LLRAUG    =     F  two centre corrections for induced B field



--------------------------------------------------------------------------------------------------------


 conjugate gradient relaxation of ions
   using selective dynamics as specified on POSCAR
   WARNING: If single coordinates had been selected the selection of coordinates
            is made according to the corresponding   d i r e c t   coordinates!
            Don't support selection of single cartesian coordinates -- sorry ...
  !
 charge density and potential will be updated during run
 spin polarized calculation
 Variant of blocked Davidson
 Davidson routine will perform the subspace rotation
 perform sub-space diagonalisation
    after iterative eigenvector-optimisation
 modified Broyden-mixing scheme, WC =      100.0
 initial mixing is a Kerker type mixing with AMIX =  0.4000 and BMIX =      1.0000
 Hartree-type preconditioning will be used
 using additional bands           92
 reciprocal scheme for non local part
 use partial core corrections
 calculate Harris-corrections to forces 
   (improved forces if not selfconsistent)
 use gradient corrections 
 use of overlap-Matrix (Vanderbilt PP)
 Methfessel and Paxton  Order N= 1 SIGMA  =   0.20


--------------------------------------------------------------------------------------------------------


  energy-cutoff  :      400.00
  volume of cell :     1364.60
      direct lattice vectors                 reciprocal lattice vectors
     7.260000229  0.000000000  0.000000000     0.137741042  0.000000000  0.000000000
     0.000000000  7.260000229  0.000000000     0.000000000  0.137741042  0.000000000
     0.000000000  0.000000000 25.890000000     0.000000000  0.000000000  0.038624952

  length of vectors
     7.260000229  7.260000229 25.890000000     0.137741042  0.137741042  0.038624952


 
 k-points in units of 2pi/SCALE and weight: Auto-mesh                               
   0.00000000  0.00000000  0.00000000       0.111
   0.04591368  0.00000000  0.00000000       0.444
   0.04591368  0.04591368  0.00000000       0.444
 
 k-points in reciprocal lattice and weights: Auto-mesh                               
   0.00000000  0.00000000  0.00000000       0.111
   0.33333333  0.00000000  0.00000000       0.444
   0.33333333  0.33333333  0.00000000       0.444
 
 position of ions in fractional coordinates (direct lattice) 
   0.00000000  0.00000000  0.00000000
   0.00000000  0.50000000  0.00000000
   0.50000000  0.00000000  0.00000000
   0.50000000  0.50000000  0.00000000
   0.25000000  0.25000000  0.00000000
   0.25000000  0.75000000  0.00000000
   0.75000000  0.25000000  0.00000000
   0.75000000  0.75000000  0.00000000
   0.00000000  0.25000000  0.07010429
   0.00000000  0.75000000  0.07010429
   0.50000000  0.25000000  0.07010429
   0.50000000  0.75000000  0.07010429
   0.25000000  0.00000000  0.07010429
   0.25000000  0.50000000  0.07010429
   0.75000000  0.00000000  0.07010429
   0.75000000  0.50000000  0.07010429
   0.00000000  0.00000000  0.14020858
   0.00000000  0.50000000  0.14020858
   0.50000000  0.00000000  0.14020858
   0.50000000  0.50000000  0.14020858
   0.25000000  0.25000000  0.14020858
   0.25000000  0.75000000  0.14020858
   0.75000000  0.25000000  0.14020858
   0.75000000  0.75000000  0.14020858
   0.00000000  0.25000000  0.21031287
   0.00000000  0.75000000  0.21031287
   0.50000000  0.25000000  0.21031287
   0.50000000  0.75000000  0.21031287
   0.25000000  0.00000000  0.21031287
   0.25000000  0.50000000  0.21031287
   0.75000000  0.00000000  0.21031287
   0.75000000  0.50000000  0.21031287
   0.00000000  0.00000000  0.28041715
   0.00000000  0.50000000  0.28041715
   0.50000000  0.00000000  0.28041715
   0.50000000  0.50000000  0.28041715
   0.25000000  0.25000000  0.28041715
   0.25000000  0.75000000  0.28041715
   0.75000000  0.25000000  0.28041715
   0.75000000  0.75000000  0.28041715
   0.00000000  0.25000000  0.35052144
   0.00000000  0.75000000  0.35052144
   0.50000000  0.25000000  0.35052144
   0.50000000  0.75000000  0.35052144
   0.25000000  0.00000000  0.35052144
   0.25000000  0.50000000  0.35052144
   0.75000000  0.00000000  0.35052144
   0.75000000  0.50000000  0.35052144
   0.00000000  0.00000000  0.42062573
   0.00000000  0.50000000  0.42062573
   0.50000000  0.00000000  0.42062573
   0.50000000  0.50000000  0.42062573
   0.25000000  0.25000000  0.42062573
   0.25000000  0.75000000  0.42062573
   0.75000000  0.25000000  0.42062573
   0.75000000  0.75000000  0.42062573
 
 position of ions in cartesian coordinates  (Angst):
   0.00000000  0.00000000  0.00000000
   0.00000000  3.63000011  0.00000000
   3.63000011  0.00000000  0.00000000
   3.63000011  3.63000011  0.00000000
   1.81500006  1.81500006  0.00000000
   1.81500006  5.44500017  0.00000000
   5.44500017  1.81500006  0.00000000
   5.44500017  5.44500017  0.00000000
   0.00000000  1.81500006  1.81500003
   0.00000000  5.44500017  1.81500003
   3.63000011  1.81500006  1.81500003
   3.63000011  5.44500017  1.81500003
   1.81500006  0.00000000  1.81500003
   1.81500006  3.63000011  1.81500003
   5.44500017  0.00000000  1.81500003
   5.44500017  3.63000011  1.81500003
   0.00000000  0.00000000  3.63000005
   0.00000000  3.63000011  3.63000005
   3.63000011  0.00000000  3.63000005
   3.63000011  3.63000011  3.63000005
   1.81500006  1.81500006  3.63000005
   1.81500006  5.44500017  3.63000005
   5.44500017  1.81500006  3.63000005
   5.44500017  5.44500017  3.63000005
   0.00000000  1.81500006  5.44500008
   0.00000000  5.44500017  5.44500008
   3.63000011  1.81500006  5.44500008
   3.63000011  5.44500017  5.44500008
   1.81500006  0.00000000  5.44500008
   1.81500006  3.63000011  5.44500008
   5.44500017  0.00000000  5.44500008
   5.44500017  3.63000011  5.44500008
   0.00000000  0.00000000  7.26000010
   0.00000000  3.63000011  7.26000010
   3.63000011  0.00000000  7.26000010
   3.63000011  3.63000011  7.26000010
   1.81500006  1.81500006  7.26000010
   1.81500006  5.44500017  7.26000010
   5.44500017  1.81500006  7.26000010
   5.44500017  5.44500017  7.26000010
   0.00000000  1.81500006  9.07500013
   0.00000000  5.44500017  9.07500013
   3.63000011  1.81500006  9.07500013
   3.63000011  5.44500017  9.07500013
   1.81500006  0.00000000  9.07500013
   1.81500006  3.63000011  9.07500013
   5.44500017  0.00000000  9.07500013
   5.44500017  3.63000011  9.07500013
   0.00000000  0.00000000 10.89000015
   0.00000000  3.63000011 10.89000015
   3.63000011  0.00000000 10.89000015
   3.63000011  3.63000011 10.89000015
   1.81500006  1.81500006 10.89000015
   1.81500006  5.44500017 10.89000015
   5.44500017  1.81500006 10.89000015
   5.44500017  5.44500017 10.89000015
 


--------------------------------------------------------------------------------------------------------


 k-point   1 :   0.0000 0.0000 0.0000  plane waves:   24817
 k-point   2 :   0.3333 0.0000 0.0000  plane waves:   24772
 k-point   3 :   0.3333 0.3333 0.0000  plane waves:   24805

 maximum and minimum number of plane-waves per node :      4989     4926

 maximum number of plane-waves:     24817
 maximum index in each direction: 
   IXMAX=   11   IYMAX=   11   IZMAX=   42
   IXMIN=  -12   IYMIN=  -12   IZMIN=  -42


 parallel 3D FFT for wavefunctions:
    minimum data exchange during FFTs selected (reduces bandwidth)
 parallel 3D FFT for charge:
    minimum data exchange during FFTs selected (reduces bandwidth)


 total amount of memory used by VASP MPI-rank0    98631. kBytes
=======================================================================

   base      :      30000. kBytes
   nonl-proj :       6602. kBytes
   fftplans  :       3553. kBytes
   grid      :       8299. kBytes
   one-center:        373. kBytes
   wavefun   :      49804. kBytes
 
     INWAV:  cpu time      0.0000: real time      0.0006
 Broyden mixing: mesh for mixing (old mesh)
   NGX = 23   NGY = 23   NGZ = 85
  (NGX  = 72   NGY  = 72   NGZ  =256)
  gives a total of  44965 points

 initial charge density was supplied:
 charge density of overlapping atoms calculated
 number of electron     616.0000000 magnetization      56.0000000
 keeping initial charge density in first step


--------------------------------------------------------------------------------------------------------


 Maximum index for augmentation-charges          277 (set IRDMAX)


--------------------------------------------------------------------------------------------------------


 First call to EWALD:  gamma=   0.160
 Maximum number of real-space cells 4x 4x 1
 Maximum number of reciprocal cells 2x 2x 6

    FEWALD:  cpu time      0.0029: real time      0.0029


--------------------------------------- Iteration      1(   1)  ---------------------------------------


    POTLOK:  cpu time      0.0968: real time      0.0978
    SETDIJ:  cpu time      0.0191: real time      0.0192
     EDDAV:  cpu time     22.8826: real time     23.0637
       DOS:  cpu time      0.0024: real time      0.0024
    --------------------------------------------
      LOOP:  cpu time     23.0010: real time     23.1831

 eigenvalue-minimisations  :  4800
 total energy-change (2. order) : 0.5862767E+04  (-0.2195906E+05)
 number of electron     616.0000000 magnetization      56.0000000
 augmentation part      616.0000000 magnetization      56.0000000

 Free energy of the ion-electron system (eV)
  ---------------------------------------------------
  alpha Z        PSCENC =      1680.67197424
  Ewald energy   TEWEN  =    310245.87952727
  -Hartree energ DENC   =   -386418.31878744
  -exchange      EXHF   =         0.00000000
  -V(xc)+E(xc)   XCENC  =      2558.57816341
  PAW double counting   =     68773.45977874   -74699.57216540
  entropy T*S    EENTRO =        -0.02753014
  eigenvalues    EBANDS =      5828.46867955
  atomic energy  EATOM  =     77893.62785119
  Solvation  Ediel_sol  =         0.00000000
  ---------------------------------------------------
  free energy    TOTEN  =      5862.76749142 eV

  energy without entropy =     5862.79502156  energy(sigma->0) =     5862.77666813


--------------------------------------------------------------------------------------------------------




--------------------------------------- Iteration      1(   2)  ---------------------------------------


     EDDAV:  cpu time     22.6071: real time     22.7832
       DOS:  cpu time      0.0031: real time      0.0031
    --------------------------------------------
      LOOP:  cpu time     22.6102: real time     22.7864

 eigenvalue-minimisations  :  4800
 total energy-change (2. order) :-0.5083019E+04  (-0.4863688E+04)
 number of electron     616.0000000 magnetization      56.0000000
 augmentation part      616.0000000 magnetization      56.0000000

 Free energy of the ion-electron system (eV)
  ---------------------------------------------------
  alpha Z        PSCENC =      1680.67197424
  Ewald energy   TEWEN  =    310245.87952727
  -Hartree energ DENC   =   -386418.31878744
  -exchange      EXHF   =         0.00000000
  -V(xc)+E(xc)   XCENC  =      2558.57816341
  PAW double counting   =     68773.45977874   -74699.57216540
  entropy T*S    EENTRO =        -0.00892810
  eigenvalues    EBANDS =       745.43110681
  atomic energy  EATOM  =     77893.62785119
  Solvation  Ediel_sol  =         0.00000000
  ---------------------------------------------------
  free energy    TOTEN  =       779.74852072 eV

  energy without entropy =      779.75744882  energy(sigma->0) =      779.75149675


--------------------------------------------------------------------------------------------------------




--------------------------------------- Iteration      1(   3)  ---------------------------------------


     EDDAV:  cpu time     22.5541: real time     22.7253
       DOS:  cpu time      0.0034: real time      0.0034
    --------------------------------------------
      LOOP:  cpu time     22.5575: real time     22.7288

 eigenvalue-minimisations  :  4800
 total energy-change (2. order) :-0.9417629E+03  (-0.8474752E+03)
 number of electron     616.0000000 magnetization      56.0000000
 augmentation part      616.0000000 magnetization      56.0000000

 Free energy of the ion-electron system (eV)
  ---------------------------------------------------
  alpha Z        PSCENC =      1680.67197424
  Ewald energy   TEWEN  =    310245.87952727
  -Hartree energ DENC   =   -386418.31878744
  -exchange      EXHF   =         0.00000000
  -V(xc)+E(xc)   XCENC  =      2558.57816341
  PAW double counting   =     68773.45977874   -74699.57216540
  entropy T*S    EENTRO =         0.03594060
  eigenvalues    EBANDS =      -196.37670550
  atomic energy  EATOM  =     77893.62785119
  Solvation  Ediel_sol  =         0.00000000
  ---------------------------------------------------
  free energy    TOTEN  =      -162.01442289 eV

  energy without entropy =     -162.05036348  energy(sigma->0) =     -162.02640309


--------------------------------------------------------------------------------------------------------




--------------------------------------- Iteration      1(   4)  ---------------------------------------


     EDDAV:  cpu time     24.4362: real time     24.6283
       DOS:  cpu time      0.0037: real time      0.0037
    --------------------------------------------
      LOOP:  cpu time     24.4398: real time     24.6320

 eigenvalue-minimisations  :  5304
 total energy-change (2. order) :-0.7249163E+02  (-0.6943071E+02)
 number of electron     616.0000000 magnetization      56.0000000
 augmentation part      616.0000000 magnetization      56.0000000

 Free energy of the ion-electron system (eV)
  ---------------------------------------------------
  alpha Z        PSCENC =      1680.67197424
  Ewald energy   TEWEN  =    310245.87952727
  -Hartree energ DENC   =   -386418.31878744
  -exchange      EXHF   =         0.00000000
  -V(xc)+E(xc)   XCENC  =      2558.57816341
  PAW double counting   =     68773.45977874   -74699.57216540
  entropy T*S    EENTRO =         0.07659856
  eigenvalues    EBANDS =      -268.90899574
  atomic energy  EATOM  =     77893.62785119
  Solvation  Ediel_sol  =         0.00000000
  ---------------------------------------------------
  free energy    TOTEN  =      -234.50605517 eV

  energy without entropy =     -234.58265372  energy(sigma->0) =     -234.53158802


--------------------------------------------------------------------------------------------------------




--------------------------------------- Iteration      1(   5)  ---------------------------------------


     EDDAV:  cpu time     24.4918: real time     24.6803
       DOS:  cpu time      0.0037: real time      0.0037
    CHARGE:  cpu time      0.8736: real time      0.8783
    MIXING:  cpu time      0.0077: real time      0.0077
    --------------------------------------------
      LOOP:  cpu time     25.3768: real time     25.5701

 eigenvalue-minimisations  :  5352
 total energy-change (2. order) :-0.1784757E+01  (-0.1777875E+01)
 number of electron     616.0010828 magnetization      51.8072604
 augmentation part      364.7199892 magnetization      51.4034895

 Broyden mixing:
  rms(total) = 0.69151E+01    rms(broyden)= 0.69142E+01
  rms(prec ) = 0.71099E+01
  weight for this iteration     100.00

 Free energy of the ion-electron system (eV)
  ---------------------------------------------------
  alpha Z        PSCENC =      1680.67197424
  Ewald energy   TEWEN  =    310245.87952727
  -Hartree energ DENC   =   -386418.31878744
  -exchange      EXHF   =         0.00000000
  -V(xc)+E(xc)   XCENC  =      2558.57816341
  PAW double counting   =     68773.45977874   -74699.57216540
  entropy T*S    EENTRO =         0.07904138
  eigenvalues    EBANDS =      -270.69619508
  atomic energy  EATOM  =     77893.62785119
  Solvation  Ediel_sol  =         0.00000000
  ---------------------------------------------------
  free energy    TOTEN  =      -236.29081168 eV

  energy without entropy =     -236.36985306  energy(sigma->0) =     -236.31715881


--------------------------------------------------------------------------------------------------------




--------------------------------------- Iteration      1(   6)  ---------------------------------------


    POTLOK:  cpu time      0.0982: real time      0.0989
    SETDIJ:  cpu time      0.0184: real time      0.0185
     EDDAV:  cpu time     24.2273: real time     24.4161
       DOS:  cpu time      0.0033: real time      0.0033
    CHARGE:  cpu time      0.8597: real time      0.8642
    MIXING:  cpu time      0.0077: real time      0.0078
    --------------------------------------------
      LOOP:  cpu time     25.2147: real time     25.4089

 eigenvalue-minimisations  :  5256
 total energy-change (2. order) : 0.4155405E+02  (-0.5460488E+02)
 number of electron     616.0012029 magnetization      49.0786988
 augmentation part      411.3987838 magnetization      37.2396286

 Broyden mixing:
  rms(total) = 0.35469E+01    rms(broyden)= 0.35452E+01
  rms(prec ) = 0.36767E+01
  weight for this iteration     100.00

 eigenvalues of (default mixing * dielectric matrix)
  average eigenvalue GAMMA=   0.7910
  0.7910

 Free energy of the ion-electron system (eV)
  ---------------------------------------------------
  alpha Z        PSCENC =      1680.67197424
  Ewald energy   TEWEN  =    310245.87952727
  -Hartree energ DENC   =   -384904.34027592
  -exchange      EXHF   =         0.00000000
  -V(xc)+E(xc)   XCENC  =      2492.75028105
  PAW double counting   =     69578.03919574   -75201.04505055
  entropy T*S    EENTRO =         0.03655064
  eigenvalues    EBANDS =     -1980.35681979
  atomic energy  EATOM  =     77893.62785119
  Solvation  Ediel_sol  =         0.00000000
  ---------------------------------------------------
  free energy    TOTEN  =      -194.73676613 eV

  energy without entropy =     -194.77331677  energy(sigma->0) =     -194.74894967


--------------------------------------------------------------------------------------------------------




--------------------------------------- Iteration      1(   7)  ---------------------------------------


    POTLOK:  cpu time      0.0913: real time      0.0953
    SETDIJ:  cpu time      0.0182: real time      0.0183
     EDDAV:  cpu time     24.2719: real time     24.5785
       DOS:  cpu time      0.0034: real time      0.0034
    CHARGE:  cpu time      0.8547: real time      0.8594
    MIXING:  cpu time      0.0080: real time      0.0080
    --------------------------------------------
      LOOP:  cpu time     25.2475: real time     25.5629

 eigenvalue-minimisations  :  5272
 total energy-change (2. order) : 0.2656868E+02  (-0.1238562E+02)
 number of electron     616.0011588 magnetization      46.0563324
 augmentation part      394.4169962 magnetization      33.1758432

 Broyden mixing:
  rms(total) = 0.17592E+01    rms(broyden)= 0.17588E+01
  rms(prec ) = 0.18020E+01
  weight for this iteration     100.00

 eigenvalues of (default mixing * dielectric matrix)
  average eigenvalue GAMMA=   0.8217
  1.0083  0.6351

 Free energy of the ion-electron system (eV)
  ---------------------------------------------------
  alpha Z        PSCENC =      1680.67197424
  Ewald energy   TEWEN  =    310245.87952727
  -Hartree energ DENC   =   -385739.59231675
  -exchange      EXHF   =         0.00000000
  -V(xc)+E(xc)   XCENC  =      2524.06967614
  PAW double counting   =     71024.24084815   -76932.15411565
  entropy T*S    EENTRO =        -0.02819587
  eigenvalues    EBANDS =      -864.88333416
  atomic energy  EATOM  =     77893.62785119
  Solvation  Ediel_sol  =         0.00000000
  ---------------------------------------------------
  free energy    TOTEN  =      -168.16808544 eV

  energy without entropy =     -168.13988958  energy(sigma->0) =     -168.15868682


--------------------------------------------------------------------------------------------------------




--------------------------------------- Iteration      1(   8)  ---------------------------------------


    POTLOK:  cpu time      0.0902: real time      0.0918
    SETDIJ:  cpu time      0.0179: real time      0.0180
     EDDAV:  cpu time     26.2306: real time     26.8377
       DOS:  cpu time      0.0096: real time      0.0096
    CHARGE:  cpu time      0.8904: real time      0.8943
    MIXING:  cpu time      0.0083: real time      0.0084
    --------------------------------------------
      LOOP:  cpu time     27.2470: real time     27.8597

 eigenvalue-minimisations  :  5672
 total energy-change (2. order) : 0.1969968E+01  (-0.3529389E+01)
 number of electron     616.0011561 magnetization      43.0428727
 augmentation part      392.8325627 magnetization      29.9001931

 Broyden mixing:
  rms(total) = 0.18468E+01    rms(broyden)= 0.18466E+01
  rms(prec ) = 0.19872E+01
  weight for this iteration     100.00

 eigenvalues of (default mixing * dielectric matrix)
  average eigenvalue GAMMA=   0.7063
  1.1299  0.6457  0.3432

 Free energy of the ion-electron system (eV)
  ---------------------------------------------------
  alpha Z        PSCENC =      1680.67197424
  Ewald energy   TEWEN  =    310245.87952727
  -Hartree energ DENC   =   -385659.15073272
  -exchange      EXHF   =         0.00000000
  -V(xc)+E(xc)   XCENC  =      2526.84180810
  PAW double counting   =     71835.23402066   -77806.40947588
  entropy T*S    EENTRO =        -0.05127997
  eigenvalues    EBANDS =      -882.84181030
  atomic energy  EATOM  =     77893.62785119
  Solvation  Ediel_sol  =         0.00000000
  ---------------------------------------------------
  free energy    TOTEN  =      -166.19811741 eV

  energy without entropy =     -166.14683744  energy(sigma->0) =     -166.18102409


--------------------------------------------------------------------------------------------------------




--------------------------------------- Iteration      1(   9)  ---------------------------------------


    POTLOK:  cpu time      0.0910: real time      0.0917
    SETDIJ:  cpu time      0.0181: real time      0.0181
     EDDAV:  cpu time     30.5770: real time     30.8152
       DOS:  cpu time      0.0035: real time      0.0035
    CHARGE:  cpu time      0.8470: real time      0.8509
    MIXING:  cpu time      0.0084: real time      0.0084
    --------------------------------------------
      LOOP:  cpu time     31.5450: real time     31.7879

 eigenvalue-minimisations  :  6864
 total energy-change (2. order) : 0.4244405E+01  (-0.9998458E+00)
 number of electron     616.0011530 magnetization      35.5106054
 augmentation part      392.1068977 magnetization      22.0752859

 Broyden mixing:
  rms(total) = 0.13602E+01    rms(broyden)= 0.13601E+01
  rms(prec ) = 0.13705E+01
  weight for this iteration     100.00

 eigenvalues of (default mixing * dielectric matrix)
  average eigenvalue GAMMA=   0.9187
  1.3128  1.3128  0.7274  0.3216

 Free energy of the ion-electron system (eV)
  ---------------------------------------------------
  alpha Z        PSCENC =      1680.67197424
  Ewald energy   TEWEN  =    310245.87952727
  -Hartree energ DENC   =   -385831.53557304
  -exchange      EXHF   =         0.00000000
  -V(xc)+E(xc)   XCENC  =      2526.53815202
  PAW double counting   =     72476.27014550   -78489.52201663
  entropy T*S    EENTRO =        -0.05835926
  eigenvalues    EBANDS =      -663.82541409
  atomic energy  EATOM  =     77893.62785119
  Solvation  Ediel_sol  =         0.00000000
  ---------------------------------------------------
  free energy    TOTEN  =      -161.95371280 eV

  energy without entropy =     -161.89535354  energy(sigma->0) =     -161.93425972


--------------------------------------------------------------------------------------------------------




--------------------------------------- Iteration      1(  10)  ---------------------------------------


    POTLOK:  cpu time      0.0913: real time      0.0954
    SETDIJ:  cpu time      0.0179: real time      0.0181
     EDDAV:  cpu time     31.3008: real time     31.6014
       DOS:  cpu time      0.0035: real time      0.0035
    CHARGE:  cpu time      0.8705: real time      0.8764
    MIXING:  cpu time      0.0131: real time      0.0132
    --------------------------------------------
      LOOP:  cpu time     32.2971: real time     32.6081

 eigenvalue-minimisations  :  7048
 total energy-change (2. order) :-0.2015459E+01  (-0.9053786E+00)
 number of electron     616.0011585 magnetization      22.9663152
 augmentation part      394.5158550 magnetization      11.5907382

 Broyden mixing:
  rms(total) = 0.12065E+01    rms(broyden)= 0.12065E+01
  rms(prec ) = 0.12753E+01
  weight for this iteration     100.00

 eigenvalues of (default mixing * dielectric matrix)
  average eigenvalue GAMMA=   1.1109
  2.8863  1.1465  0.6746  0.5392  0.3078

 Free energy of the ion-electron system (eV)
  ---------------------------------------------------
  alpha Z        PSCENC =      1680.67197424
  Ewald energy   TEWEN  =    310245.87952727
  -Hartree energ DENC   =   -385644.29396508
  -exchange      EXHF   =         0.00000000
  -V(xc)+E(xc)   XCENC  =      2518.11723138
  PAW double counting   =     73251.31203309   -79277.93441866
  entropy T*S    EENTRO =        -0.06611460
  eigenvalues    EBANDS =      -831.28329070
  atomic energy  EATOM  =     77893.62785119
  Solvation  Ediel_sol  =         0.00000000
  ---------------------------------------------------
  free energy    TOTEN  =      -163.96917189 eV

  energy without entropy =     -163.90305729  energy(sigma->0) =     -163.94713369


--------------------------------------------------------------------------------------------------------




--------------------------------------- Iteration      1(  11)  ---------------------------------------


    POTLOK:  cpu time      0.0915: real time      0.0943
    SETDIJ:  cpu time      0.0181: real time      0.0181
     EDDAV:  cpu time     25.5597: real time     25.7865
       DOS:  cpu time      0.0034: real time      0.0035
    CHARGE:  cpu time      0.8642: real time      0.8688
    MIXING:  cpu time      0.0083: real time      0.0083
    --------------------------------------------
      LOOP:  cpu time     26.5452: real time     26.7795

 eigenvalue-minimisations  :  5672
 total energy-change (2. order) :-0.2023017E+01  (-0.1003656E+01)
 number of electron     616.0011640 magnetization      16.6939298
 augmentation part      396.3456505 magnetization       7.8701461

 Broyden mixing:
  rms(total) = 0.10865E+01    rms(broyden)= 0.10864E+01
  rms(prec ) = 0.11567E+01
  weight for this iteration     100.00

 eigenvalues of (default mixing * dielectric matrix)
  average eigenvalue GAMMA=   1.3093
  4.5535  0.9441  0.8312  0.8312  0.3004  0.3957

 Free energy of the ion-electron system (eV)
  ---------------------------------------------------
  alpha Z        PSCENC =      1680.67197424
  Ewald energy   TEWEN  =    310245.87952727
  -Hartree energ DENC   =   -385732.31160404
  -exchange      EXHF   =         0.00000000
  -V(xc)+E(xc)   XCENC  =      2511.09733162
  PAW double counting   =     74428.38593869   -80499.25143081
  entropy T*S    EENTRO =        -0.04140970
  eigenvalues    EBANDS =      -694.05036765
  atomic energy  EATOM  =     77893.62785119
  Solvation  Ediel_sol  =         0.00000000
  ---------------------------------------------------
  free energy    TOTEN  =      -165.99218920 eV

  energy without entropy =     -165.95077950  energy(sigma->0) =     -165.97838596


--------------------------------------------------------------------------------------------------------




--------------------------------------- Iteration      1(  12)  ---------------------------------------


    POTLOK:  cpu time      0.0906: real time      0.0913
    SETDIJ:  cpu time      0.0293: real time      0.0294
     EDDAV:  cpu time     28.1267: real time     28.3356
       DOS:  cpu time      0.0036: real time      0.0036
    CHARGE:  cpu time      0.8660: real time      0.8708
    MIXING:  cpu time      0.0089: real time      0.0089
    --------------------------------------------
      LOOP:  cpu time     29.1251: real time     29.3396

 eigenvalue-minimisations  :  6384
 total energy-change (2. order) :-0.3133833E+01  (-0.4866405E+00)
 number of electron     616.0011593 magnetization      13.2690679
 augmentation part      395.5839020 magnetization       5.7772296

 Broyden mixing:
  rms(total) = 0.87910E+00    rms(broyden)= 0.87904E+00
  rms(prec ) = 0.10392E+01
  weight for this iteration     100.00

 eigenvalues of (default mixing * dielectric matrix)
  average eigenvalue GAMMA=   1.3813
  5.7924  0.9461  0.9461  0.8682  0.4287  0.3222  0.3658

 Free energy of the ion-electron system (eV)
  ---------------------------------------------------
  alpha Z        PSCENC =      1680.67197424
  Ewald energy   TEWEN  =    310245.87952727
  -Hartree energ DENC   =   -385907.28373758
  -exchange      EXHF   =         0.00000000
  -V(xc)+E(xc)   XCENC  =      2510.24817506
  PAW double counting   =     74740.42648734   -80837.92727525
  entropy T*S    EENTRO =         0.01198425
  eigenvalues    EBANDS =      -494.78100917
  atomic energy  EATOM  =     77893.62785119
  Solvation  Ediel_sol  =         0.00000000
  ---------------------------------------------------
  free energy    TOTEN  =      -169.12602266 eV

  energy without entropy =     -169.13800691  energy(sigma->0) =     -169.13001741


--------------------------------------------------------------------------------------------------------




--------------------------------------- Iteration      1(  13)  ---------------------------------------


    POTLOK:  cpu time      0.0915: real time      0.0957
    SETDIJ:  cpu time      0.0180: real time      0.0181
     EDDAV:  cpu time     30.5219: real time     30.9036
       DOS:  cpu time      0.0035: real time      0.0036
    CHARGE:  cpu time      0.8404: real time      0.8443
    MIXING:  cpu time      0.0091: real time      0.0091
    --------------------------------------------
      LOOP:  cpu time     31.4844: real time     31.8744

 eigenvalue-minimisations  :  6896
 total energy-change (2. order) :-0.2708900E+01  (-0.4880117E+00)
 number of electron     616.0011600 magnetization       5.8361875
 augmentation part      394.8188194 magnetization      -0.8596980

 Broyden mixing:
  rms(total) = 0.64608E+00    rms(broyden)= 0.64600E+00
  rms(prec ) = 0.79307E+00
  weight for this iteration     100.00

 eigenvalues of (default mixing * dielectric matrix)
  average eigenvalue GAMMA=   1.7587
  9.1261  1.4536  0.9258  0.9258  0.7001  0.4108  0.3058  0.2212

 Free energy of the ion-electron system (eV)
  ---------------------------------------------------
  alpha Z        PSCENC =      1680.67197424
  Ewald energy   TEWEN  =    310245.87952727
  -Hartree energ DENC   =   -385988.28231922
  -exchange      EXHF   =         0.00000000
  -V(xc)+E(xc)   XCENC  =      2509.92380376
  PAW double counting   =     74678.74525548   -80782.31887765
  entropy T*S    EENTRO =         0.04221458
  eigenvalues    EBANDS =      -410.12435233
  atomic energy  EATOM  =     77893.62785119
  Solvation  Ediel_sol  =         0.00000000
  ---------------------------------------------------
  free energy    TOTEN  =      -171.83492268 eV

  energy without entropy =     -171.87713726  energy(sigma->0) =     -171.84899420


--------------------------------------------------------------------------------------------------------




--------------------------------------- Iteration      1(  14)  ---------------------------------------


    POTLOK:  cpu time      0.0992: real time      0.1014
    SETDIJ:  cpu time      0.0229: real time      0.0231
     EDDAV:  cpu time     27.1020: real time     27.2976
       DOS:  cpu time      0.0035: real time      0.0036
    CHARGE:  cpu time      0.8634: real time      0.8675
    MIXING:  cpu time      0.0092: real time      0.0093
    --------------------------------------------
      LOOP:  cpu time     28.1003: real time     28.3025

 eigenvalue-minimisations  :  6104
 total energy-change (2. order) :-0.9748440E+01  (-0.9066333E+00)
 number of electron     616.0011543 magnetization       4.7986749
 augmentation part      393.0104833 magnetization       0.0501535

 Broyden mixing:
  rms(total) = 0.31965E+00    rms(broyden)= 0.31946E+00
  rms(prec ) = 0.35240E+00
  weight for this iteration     100.00

 eigenvalues of (default mixing * dielectric matrix)
  average eigenvalue GAMMA=   1.9358
 11.2280  2.0587  0.8989  0.8989  0.7739  0.6269  0.4200  0.3097  0.2076

 Free energy of the ion-electron system (eV)
  ---------------------------------------------------
  alpha Z        PSCENC =      1680.67197424
  Ewald energy   TEWEN  =    310245.87952727
  -Hartree energ DENC   =   -386054.48230229
  -exchange      EXHF   =         0.00000000
  -V(xc)+E(xc)   XCENC  =      2507.39374532
  PAW double counting   =     73999.94423364   -80085.93262761
  entropy T*S    EENTRO =         0.05577522
  eigenvalues    EBANDS =      -368.74153916
  atomic energy  EATOM  =     77893.62785119
  Solvation  Ediel_sol  =         0.00000000
  ---------------------------------------------------
  free energy    TOTEN  =      -181.58336218 eV

  energy without entropy =     -181.63913740  energy(sigma->0) =     -181.60195392


--------------------------------------------------------------------------------------------------------




--------------------------------------- Iteration      1(  15)  ---------------------------------------


    POTLOK:  cpu time      0.0914: real time      0.0946
    SETDIJ:  cpu time      0.0180: real time      0.0181
     EDDAV:  cpu time     27.2594: real time     27.5976
       DOS:  cpu time      0.0034: real time      0.0034
    CHARGE:  cpu time      0.8660: real time      0.8699
    MIXING:  cpu time      0.0161: real time      0.0162
    --------------------------------------------
      LOOP:  cpu time     28.2543: real time     28.5998

 eigenvalue-minimisations  :  5984
 total energy-change (2. order) :-0.6927160E+01  (-0.8358299E+00)
 number of electron     616.0011537 magnetization       4.4842616
 augmentation part      392.6961967 magnetization       1.2709585

 Broyden mixing:
  rms(total) = 0.30132E+00    rms(broyden)= 0.30121E+00
  rms(prec ) = 0.32016E+00
  weight for this iteration     100.00

 eigenvalues of (default mixing * dielectric matrix)
  average eigenvalue GAMMA=   1.8141
 11.4338  2.2436  0.8760  0.8760  0.7988  0.6039  0.4395  0.3556  0.3030  0.2111

 Free energy of the ion-electron system (eV)
  ---------------------------------------------------
  alpha Z        PSCENC =      1680.67197424
  Ewald energy   TEWEN  =    310245.87952727
  -Hartree energ DENC   =   -385968.49568320
  -exchange      EXHF   =         0.00000000
  -V(xc)+E(xc)   XCENC  =      2503.88550446
  PAW double counting   =     73354.31251221   -79401.87488919
  entropy T*S    EENTRO =         0.01252942
  eigenvalues    EBANDS =      -496.52984902
  atomic energy  EATOM  =     77893.62785119
  Solvation  Ediel_sol  =         0.00000000
  ---------------------------------------------------
  free energy    TOTEN  =      -188.51052262 eV

  energy without entropy =     -188.52305204  energy(sigma->0) =     -188.51469909


--------------------------------------------------------------------------------------------------------




--------------------------------------- Iteration      1(  16)  ---------------------------------------


    POTLOK:  cpu time      0.0932: real time      0.0939
    SETDIJ:  cpu time      0.0181: real time      0.0182
     EDDAV:  cpu time     25.4290: real time     25.5917
       DOS:  cpu time      0.0033: real time      0.0033
    CHARGE:  cpu time      0.8674: real time      0.8713
    MIXING:  cpu time      0.0128: real time      0.0128
    --------------------------------------------
      LOOP:  cpu time     26.4238: real time     26.5913

 eigenvalue-minimisations  :  5640
 total energy-change (2. order) :-0.2168420E+01  (-0.2057325E+00)
 number of electron     616.0011546 magnetization       4.1126036
 augmentation part      392.9216266 magnetization       1.6140332

 Broyden mixing:
  rms(total) = 0.17831E+00    rms(broyden)= 0.17823E+00
  rms(prec ) = 0.19242E+00
  weight for this iteration     100.00

 eigenvalues of (default mixing * dielectric matrix)
  average eigenvalue GAMMA=   1.7165
 11.4851  2.3928  0.8247  0.8247  0.7981  0.6188  0.6188  0.3989  0.3989  0.3104
  0.2100

 Free energy of the ion-electron system (eV)
  ---------------------------------------------------
  alpha Z        PSCENC =      1680.67197424
  Ewald energy   TEWEN  =    310245.87952727
  -Hartree energ DENC   =   -385914.85345897
  -exchange      EXHF   =         0.00000000
  -V(xc)+E(xc)   XCENC  =      2502.51432123
  PAW double counting   =     73118.71617711   -79149.38934160
  entropy T*S    EENTRO =         0.00808900
  eigenvalues    EBANDS =      -567.85408173
  atomic energy  EATOM  =     77893.62785119
  Solvation  Ediel_sol  =         0.00000000
  ---------------------------------------------------
  free energy    TOTEN  =      -190.67894226 eV

  energy without entropy =     -190.68703126  energy(sigma->0) =     -190.68163859


--------------------------------------------------------------------------------------------------------




--------------------------------------- Iteration      1(  17)  ---------------------------------------


    POTLOK:  cpu time      0.0908: real time      0.0941
    SETDIJ:  cpu time      0.0179: real time      0.0180
     EDDAV:  cpu time     24.7893: real time     24.9668
       DOS:  cpu time      0.0033: real time      0.0034
    CHARGE:  cpu time      0.8636: real time      0.8676
    MIXING:  cpu time      0.0105: real time      0.0106
    --------------------------------------------
      LOOP:  cpu time     25.7756: real time     25.9604

 eigenvalue-minimisations  :  5256
 total energy-change (2. order) :-0.1548210E+01  (-0.1376805E+00)
 number of electron     616.0011552 magnetization       3.5719500
 augmentation part      393.2529222 magnetization       1.7045957

 Broyden mixing:
  rms(total) = 0.13860E+00    rms(broyden)= 0.13855E+00
  rms(prec ) = 0.15081E+00
  weight for this iteration     100.00

 eigenvalues of (default mixing * dielectric matrix)
  average eigenvalue GAMMA=   1.7343
 11.6380  2.6541  1.0496  1.0496  0.8835  0.8835  0.7498  0.6408  0.4210  0.2101
  0.3077  0.3239

 Free energy of the ion-electron system (eV)
  ---------------------------------------------------
  alpha Z        PSCENC =      1680.67197424
  Ewald energy   TEWEN  =    310245.87952727
  -Hartree energ DENC   =   -385862.69872128
  -exchange      EXHF   =         0.00000000
  -V(xc)+E(xc)   XCENC  =      2501.44519469
  PAW double counting   =     72993.10342110   -79014.26671762
  entropy T*S    EENTRO =         0.00573670
  eigenvalues    EBANDS =      -629.99541833
  atomic energy  EATOM  =     77893.62785119
  Solvation  Ediel_sol  =         0.00000000
  ---------------------------------------------------
  free energy    TOTEN  =      -192.22715205 eV

  energy without entropy =     -192.23288875  energy(sigma->0) =     -192.22906428


--------------------------------------------------------------------------------------------------------




--------------------------------------- Iteration      1(  18)  ---------------------------------------


    POTLOK:  cpu time      0.0912: real time      0.0939
    SETDIJ:  cpu time      0.0181: real time      0.0182
     EDDAV:  cpu time     27.6829: real time     27.8825
       DOS:  cpu time      0.0034: real time      0.0034
    CHARGE:  cpu time      0.8511: real time      0.8553
    MIXING:  cpu time      0.0102: real time      0.0102
    --------------------------------------------
      LOOP:  cpu time     28.6568: real time     28.8635

 eigenvalue-minimisations  :  6280
 total energy-change (2. order) :-0.1496646E+01  (-0.1039448E+00)
 number of electron     616.0011554 magnetization       3.0146713
 augmentation part      393.3714933 magnetization       1.7942646

 Broyden mixing:
  rms(total) = 0.11727E+00    rms(broyden)= 0.11722E+00
  rms(prec ) = 0.12425E+00
  weight for this iteration     100.00

 eigenvalues of (default mixing * dielectric matrix)
  average eigenvalue GAMMA=   1.7518
 11.8967  2.8578  1.7199  0.9864  0.9864  0.8538  0.8538  0.6790  0.6790  0.4171
  0.2100  0.3084  0.3245

 Free energy of the ion-electron system (eV)
  ---------------------------------------------------
  alpha Z        PSCENC =      1680.67197424
  Ewald energy   TEWEN  =    310245.87952727
  -Hartree energ DENC   =   -385791.29583114
  -exchange      EXHF   =         0.00000000
  -V(xc)+E(xc)   XCENC  =      2500.50725571
  PAW double counting   =     72882.00659982   -78898.05573823
  entropy T*S    EENTRO =        -0.00999210
  eigenvalues    EBANDS =      -707.05544466
  atomic energy  EATOM  =     77893.62785119
  Solvation  Ediel_sol  =         0.00000000
  ---------------------------------------------------
  free energy    TOTEN  =      -193.72379791 eV

  energy without entropy =     -193.71380581  energy(sigma->0) =     -193.72046721


--------------------------------------------------------------------------------------------------------




--------------------------------------- Iteration      1(  19)  ---------------------------------------


    POTLOK:  cpu time      0.0912: real time      0.0934
    SETDIJ:  cpu time      0.0179: real time      0.0180
     EDDAV:  cpu time     27.2674: real time     27.5783
       DOS:  cpu time      0.0035: real time      0.0035
    CHARGE:  cpu time      0.8828: real time      0.8867
    MIXING:  cpu time      0.0108: real time      0.0108
    --------------------------------------------
      LOOP:  cpu time     28.2736: real time     28.5908

 eigenvalue-minimisations  :  5912
 total energy-change (2. order) :-0.1340411E+01  (-0.5113091E-01)
 number of electron     616.0011555 magnetization       2.4601901
 augmentation part      393.2797027 magnetization       1.5692329

 Broyden mixing:
  rms(total) = 0.10703E+00    rms(broyden)= 0.10701E+00
  rms(prec ) = 0.11639E+00
  weight for this iteration     100.00

 eigenvalues of (default mixing * dielectric matrix)
  average eigenvalue GAMMA=   1.7538
 12.0898  3.2581  2.3866  0.9809  0.9809  0.9093  0.7460  0.6863  0.6863  0.5691
  0.4164  0.2100  0.3086  0.3252

 Free energy of the ion-electron system (eV)
  ---------------------------------------------------
  alpha Z        PSCENC =      1680.67197424
  Ewald energy   TEWEN  =    310245.87952727
  -Hartree energ DENC   =   -385747.78189455
  -exchange      EXHF   =         0.00000000
  -V(xc)+E(xc)   XCENC  =      2499.29357699
  PAW double counting   =     72960.52879480   -78983.83673861
  entropy T*S    EENTRO =        -0.02734718
  eigenvalues    EBANDS =      -743.41995294
  atomic energy  EATOM  =     77893.62785119
  Solvation  Ediel_sol  =         0.00000000
  ---------------------------------------------------
  free energy    TOTEN  =      -195.06420879 eV

  energy without entropy =     -195.03686161  energy(sigma->0) =     -195.05509306


--------------------------------------------------------------------------------------------------------




--------------------------------------- Iteration      1(  20)  ---------------------------------------


    POTLOK:  cpu time      0.0901: real time      0.0924
    SETDIJ:  cpu time      0.0181: real time      0.0182
     EDDAV:  cpu time     30.8229: real time     31.1410
       DOS:  cpu time      0.0036: real time      0.0036
    CHARGE:  cpu time      0.8619: real time      0.8658
    MIXING:  cpu time      0.0133: real time      0.0133
    --------------------------------------------
      LOOP:  cpu time     31.8099: real time     32.1343

 eigenvalue-minimisations  :  6720
 total energy-change (2. order) :-0.6735590E+00  (-0.1578220E-01)
 number of electron     616.0011554 magnetization       1.6097743
 augmentation part      393.2760977 magnetization       0.9960258

 Broyden mixing:
  rms(total) = 0.81444E-01    rms(broyden)= 0.81426E-01
  rms(prec ) = 0.84486E-01
  weight for this iteration     100.00

 eigenvalues of (default mixing * dielectric matrix)
  average eigenvalue GAMMA=   1.7862
 12.3577  4.1451  2.6655  1.0699  0.9513  0.9513  0.8363  0.8363  0.6999  0.6421
  0.2100  0.4175  0.3086  0.3244  0.3769

 Free energy of the ion-electron system (eV)
  ---------------------------------------------------
  alpha Z        PSCENC =      1680.67197424
  Ewald energy   TEWEN  =    310245.87952727
  -Hartree energ DENC   =   -385700.07571359
  -exchange      EXHF   =         0.00000000
  -V(xc)+E(xc)   XCENC  =      2498.61326960
  PAW double counting   =     72981.27382674   -79008.04754153
  entropy T*S    EENTRO =        -0.03928272
  eigenvalues    EBANDS =      -787.64167898
  atomic energy  EATOM  =     77893.62785119
  Solvation  Ediel_sol  =         0.00000000
  ---------------------------------------------------
  free energy    TOTEN  =      -195.73776779 eV

  energy without entropy =     -195.69848507  energy(sigma->0) =     -195.72467355


--------------------------------------------------------------------------------------------------------




--------------------------------------- Iteration      1(  21)  ---------------------------------------


    POTLOK:  cpu time      0.0912: real time      0.0951
    SETDIJ:  cpu time      0.0257: real time      0.0258
     EDDAV:  cpu time     27.8449: real time     28.0463
       DOS:  cpu time      0.0035: real time      0.0035
    CHARGE:  cpu time      0.8668: real time      0.8716
    MIXING:  cpu time      0.0106: real time      0.0107
    --------------------------------------------
      LOOP:  cpu time     28.8427: real time     29.0530

 eigenvalue-minimisations  :  6280
 total energy-change (2. order) :-0.9810629E+00  (-0.1843144E-01)
 number of electron     616.0011553 magnetization       1.3112999
 augmentation part      393.2573324 magnetization       1.0509926

 Broyden mixing:
  rms(total) = 0.63236E-01    rms(broyden)= 0.63220E-01
  rms(prec ) = 0.67158E-01
  weight for this iteration     100.00

[...]
 -----------------------------------------------------------------------------------
      0.00000      0.00000      0.00000         0.000000      0.000000      0.294961
      0.00000      3.63000      0.00000         0.000000     -0.000000      0.294961
      3.63000      0.00000      0.00000        -0.000000     -0.000000      0.294961
      3.63000      3.63000      0.00000        -0.000000      0.000000      0.294961
      1.81500      1.81500      0.00000         0.000000      0.000000      0.294961
      1.81500      5.44500      0.00000         0.000000     -0.000000      0.294961
      5.44500      1.81500      0.00000         0.000000      0.000000      0.294961
      5.44500      5.44500      0.00000        -0.000000     -0.000000      0.294961
      0.00000      1.81500      1.81500        -0.000000     -0.000000     -0.033310
      0.00000      5.44500      1.81500        -0.000000      0.000000     -0.033310
      3.63000      1.81500      1.81500        -0.000000     -0.000000     -0.033310
      3.63000      5.44500      1.81500        -0.000000      0.000000     -0.033310
      1.81500      0.00000      1.81500        -0.000000     -0.000000     -0.033310
      1.81500      3.63000      1.81500        -0.000000      0.000000     -0.033310
      5.44500      0.00000      1.81500         0.000000      0.000000     -0.033310
      5.44500      3.63000      1.81500        -0.000000      0.000000     -0.033310
      0.00000      0.00000      3.64205         0.000000      0.000000     -0.290363
     -0.00000      3.63000      3.64205         0.000000     -0.000000     -0.290363
      3.63000      0.00000      3.64205        -0.000000      0.000000     -0.290363
      3.63000      3.63000      3.64205        -0.000000     -0.000000     -0.290363
      1.81500      1.81500      3.64205         0.000000      0.000000     -0.290363
      1.81500      5.44500      3.64205         0.000000     -0.000000     -0.290363
      5.44500      1.81500      3.64205        -0.000000      0.000000     -0.290363
      5.44500      5.44500      3.64205         0.000000     -0.000000     -0.290363
      0.00000      1.81500      5.39459         0.000000     -0.000000     -0.042227
      0.00000      5.44500      5.39459         0.000000      0.000000     -0.042227
      3.63000      1.81500      5.39459         0.000000     -0.000000     -0.042227
      3.63000      5.44500      5.39459         0.000000      0.000000     -0.042227
      1.81500     -0.00000      5.39459         0.000000      0.000000     -0.042227
      1.81500      3.63000      5.39459         0.000000      0.000000     -0.042227
      5.44500      0.00000      5.39459        -0.000000      0.000000     -0.042227
      5.44500      3.63000      5.39459         0.000000      0.000000     -0.042227
      0.00000     -0.00000      7.14166         0.000000      0.000000      0.097952
      0.00000      3.63000      7.14166        -0.000000      0.000000      0.097952
      3.63000      0.00000      7.14166         0.000000      0.000000      0.097952
      3.63000      3.63000      7.14166        -0.000000      0.000000      0.097952
      1.81500      1.81500      7.14166        -0.000000     -0.000000      0.097952
      1.81500      5.44500      7.14166        -0.000000      0.000000      0.097952
      5.44500      1.81500      7.14166        -0.000000     -0.000000      0.097952
      5.44500      5.44500      7.14166        -0.000000      0.000000      0.097952
     -0.00000      1.81500      8.91343         0.000000     -0.000000      0.031636
      0.00000      5.44500      8.91343         0.000000     -0.000000      0.031636
      3.63000      1.81500      8.91343        -0.000000      0.000000      0.031636
      3.63000      5.44500      8.91343        -0.000000     -0.000000      0.031636
      1.81500      0.00000      8.91343        -0.000000     -0.000000      0.031636
      1.81500      3.63000      8.91343         0.000000     -0.000000      0.031636
      5.44500      0.00000      8.91343         0.000000      0.000000      0.031636
      5.44500      3.63000      8.91343        -0.000000      0.000000      0.031636
     -0.00000     -0.00000     10.66781         0.000000     -0.000000     -0.058650
     -0.00000      3.63000     10.66781         0.000000     -0.000000     -0.058650
      3.63000     -0.00000     10.66781         0.000000     -0.000000     -0.058650
      3.63000      3.63000     10.66781         0.000000      0.000000     -0.058650
      1.81500      1.81500     10.66781         0.000000     -0.000000     -0.058650
      1.81500      5.44500     10.66781         0.000000      0.000000     -0.058650
      5.44500      1.81500     10.66781        -0.000000     -0.000000     -0.058650
      5.44500      5.44500     10.66781        -0.000000      0.000000     -0.058650
 -----------------------------------------------------------------------------------
    total drift:                                0.000072      0.000072     -0.037087


--------------------------------------------------------------------------------------------------------



  FREE ENERGIE OF THE ION-ELECTRON SYSTEM (eV)
  ---------------------------------------------------
  free  energy   TOTEN  =      -221.81512552 eV

  energy  without entropy=     -221.78382013  energy(sigma->0) =     -221.80469039
 
 d Force = 0.5742080E-02[-0.252E-01, 0.366E-01]  d Energy = 0.1648690E-02 0.409E-02
 d Force =-0.4751698E+04[-0.477E+04,-0.473E+04]  d Ewald  =-0.4751713E+04 0.156E-01


--------------------------------------------------------------------------------------------------------


    POTLOK:  cpu time      0.1120: real time      0.1127


--------------------------------------------------------------------------------------------------------


 stress matrix after NEB project (eV)
    -34.25841      0.00000      0.00000
      0.00000    -34.25841     -0.00000
      0.00000      0.00000    -12.68476
  FORCES: max atom, RMS     0.290363    0.119600
  FORCE total and by dimension    0.895005    0.290363
  Stress total and by dimension   50.081740   34.258412


--------------------------------------------------------------------------------------------------------


    WAVPRE:  cpu time      0.0214: real time      0.0622
    FEWALD:  cpu time      0.0017: real time      0.0017
    ORTHCH:  cpu time      3.0782: real time      3.0957
     LOOP+:  cpu time    341.2300: real time    344.2971


--------------------------------------- Iteration     11(   1)  ---------------------------------------


    POTLOK:  cpu time      0.0888: real time      0.0897
    SETDIJ:  cpu time      0.0179: real time      0.0179
     EDDAV:  cpu time     24.1036: real time     24.2685
       DOS:  cpu time      0.0036: real time      0.0036
    CHARGE:  cpu time      0.8577: real time      0.8615
    MIXING:  cpu time      0.0107: real time      0.0108
    --------------------------------------------
      LOOP:  cpu time     25.0823: real time     25.2521

 eigenvalue-minimisations  :  5280
 total energy-change (2. order) : 0.6803081E-01  (-0.7905817E+01)
 number of electron     616.0009762 magnetization      -0.0000074
 augmentation part      393.0055965 magnetization       0.0001648

 Broyden mixing:
  rms(total) = 0.55335E-01    rms(broyden)= 0.55155E-01
  rms(prec ) = 0.58516E-01
  weight for this iteration     100.00

 Free energy of the ion-electron system (eV)
  ---------------------------------------------------
  alpha Z        PSCENC =      1680.67197424
  Ewald energy   TEWEN  =    323532.68633456
  -Hartree energ DENC   =   -398818.02913943
  -exchange      EXHF   =         0.00000000
  -V(xc)+E(xc)   XCENC  =      2496.62464135
  PAW double counting   =     73332.10099865   -79364.57753121
  entropy T*S    EENTRO =        -0.03737184
  eigenvalues    EBANDS =      -952.24333980
  atomic energy  EATOM  =     77893.62785119
  Solvation  Ediel_sol  =         0.00000000
  ---------------------------------------------------
  free energy    TOTEN  =      -199.17558230 eV

  energy without entropy =     -199.13821045  energy(sigma->0) =     -199.16312502


--------------------------------------------------------------------------------------------------------




--------------------------------------- Iteration     11(   2)  ---------------------------------------


    POTLOK:  cpu time      0.0949: real time      0.0975
    SETDIJ:  cpu time      0.0179: real time      0.0180
     EDDAV:  cpu time     29.7059: real time     29.9451
       DOS:  cpu time      0.0051: real time      0.0051
    CHARGE:  cpu time      0.8678: real time      0.8729
    MIXING:  cpu time      0.0070: real time      0.0070
    --------------------------------------------
      LOOP:  cpu time     30.6986: real time     30.9456

 eigenvalue-minimisations  :  6856
 total energy-change (2. order) :-0.1435137E+00  (-0.1461601E+00)
 number of electron     616.0009764 magnetization      -0.0000069
 augmentation part      393.2398103 magnetization       0.0001224

 Broyden mixing:
  rms(total) = 0.73610E-01    rms(broyden)= 0.73524E-01
  rms(prec ) = 0.83987E-01
  weight for this iteration     100.00

 eigenvalues of (default mixing * dielectric matrix)
  average eigenvalue GAMMA=   0.3754
  0.3754

 Free energy of the ion-electron system (eV)
  ---------------------------------------------------
  alpha Z        PSCENC =      1680.67197424
  Ewald energy   TEWEN  =    323532.68633456
  -Hartree energ DENC   =   -398805.36131285
  -exchange      EXHF   =         0.00000000
  -V(xc)+E(xc)   XCENC  =      2496.48550089
  PAW double counting   =     73314.23375337   -79345.03727282
  entropy T*S    EENTRO =        -0.03396459
  eigenvalues    EBANDS =      -966.59196003
  atomic energy  EATOM  =     77893.62785119
  Solvation  Ediel_sol  =         0.00000000
  ---------------------------------------------------
  free energy    TOTEN  =      -199.31909603 eV

  energy without entropy =     -199.28513145  energy(sigma->0) =     -199.30777451


--------------------------------------------------------------------------------------------------------




--------------------------------------- Iteration     11(   3)  ---------------------------------------


    POTLOK:  cpu time      0.0903: real time      0.0919
    SETDIJ:  cpu time      0.0180: real time      0.0181
     EDDAV:  cpu time     24.3599: real time     24.5183
       DOS:  cpu time      0.0037: real time      0.0037
    CHARGE:  cpu time      1.6694: real time      1.7079
    MIXING:  cpu time      0.0079: real time      0.0079
    --------------------------------------------
      LOOP:  cpu time     26.1492: real time     26.3478

 eigenvalue-minimisations  :  5328
 total energy-change (2. order) : 0.3742773E-02  (-0.5435873E-02)
 number of electron     616.0009762 magnetization      -0.0000067
 augmentation part      393.1560302 magnetization       0.0001004

 Broyden mixing:
  rms(total) = 0.57762E-01    rms(broyden)= 0.57752E-01
  rms(prec ) = 0.60716E-01
  weight for this iteration     100.00

 eigenvalues of (default mixing * dielectric matrix)
  average eigenvalue GAMMA=   0.3931
  0.3931  0.3931

 Free energy of the ion-electron system (eV)
  ---------------------------------------------------
  alpha Z        PSCENC =      1680.67197424
  Ewald energy   TEWEN  =    323532.68633456
  -Hartree energ DENC   =   -398815.35145371
  -exchange      EXHF   =         0.00000000
  -V(xc)+E(xc)   XCENC  =      2496.60513062
  PAW double counting   =     73313.44830523   -79345.03648377
  entropy T*S    EENTRO =        -0.03660616
  eigenvalues    EBANDS =      -955.93040546
  atomic energy  EATOM  =     77893.62785119
  Solvation  Ediel_sol  =         0.00000000
  ---------------------------------------------------
  free energy    TOTEN  =      -199.31535326 eV

  energy without entropy =     -199.27874710  energy(sigma->0) =     -199.30315121


--------------------------------------------------------------------------------------------------------




--------------------------------------- Iteration     11(   4)  ---------------------------------------


    POTLOK:  cpu time      0.0915: real time      0.0949
    SETDIJ:  cpu time      0.0181: real time      0.0182
     EDDAV:  cpu time     25.4709: real time     25.7303
       DOS:  cpu time      0.0036: real time      0.0036
    CHARGE:  cpu time      0.8605: real time      0.8641
    MIXING:  cpu time      0.0049: real time      0.0049
    --------------------------------------------
      LOOP:  cpu time     26.4495: real time     26.7161

 eigenvalue-minimisations  :  5432
 total energy-change (2. order) : 0.1262157E-02  (-0.1341540E-02)
 number of electron     616.0009763 magnetization      -0.0000064
 augmentation part      393.1566720 magnetization       0.0000776

 Broyden mixing:
  rms(total) = 0.48349E-01    rms(broyden)= 0.48346E-01
  rms(prec ) = 0.55371E-01
  weight for this iteration     100.00

 eigenvalues of (default mixing * dielectric matrix)
  average eigenvalue GAMMA=   0.4879
  0.6187  0.6187  0.2264

 Free energy of the ion-electron system (eV)
  ---------------------------------------------------
  alpha Z        PSCENC =      1680.67197424
  Ewald energy   TEWEN  =    323532.68633456
  -Hartree energ DENC   =   -398813.57458209
  -exchange      EXHF   =         0.00000000
  -V(xc)+E(xc)   XCENC  =      2496.62653183
  PAW double counting   =     73311.32017913   -79343.01604885
  entropy T*S    EENTRO =        -0.03638479
  eigenvalues    EBANDS =      -957.61994632
  atomic energy  EATOM  =     77893.62785119
  Solvation  Ediel_sol  =         0.00000000
  ---------------------------------------------------
  free energy    TOTEN  =      -199.31409110 eV

  energy without entropy =     -199.27770632  energy(sigma->0) =     -199.30196284


--------------------------------------------------------------------------------------------------------




--------------------------------------- Iteration     11(   5)  ---------------------------------------


    POTLOK:  cpu time      0.0902: real time      0.0917
    SETDIJ:  cpu time      0.0180: real time      0.0181
     EDDAV:  cpu time     32.5833: real time     32.8072
       DOS:  cpu time      0.0036: real time      0.0036
    CHARGE:  cpu time      0.8575: real time      0.8614
    MIXING:  cpu time      0.0110: real time      0.0111
    --------------------------------------------
      LOOP:  cpu time     33.5637: real time     33.7932

 eigenvalue-minimisations  :  7608
 total energy-change (2. order) : 0.8610470E-03  (-0.6501935E-03)
 number of electron     616.0009762 magnetization      -0.0000056
 augmentation part      393.1516616 magnetization       0.0000669

 Broyden mixing:
  rms(total) = 0.48322E-01    rms(broyden)= 0.48317E-01
  rms(prec ) = 0.57753E-01
  weight for this iteration     100.00

 eigenvalues of (default mixing * dielectric matrix)
  average eigenvalue GAMMA=   0.7652
  1.2743  1.2743  0.2562  0.2562

 Free energy of the ion-electron system (eV)
  ---------------------------------------------------
  alpha Z        PSCENC =      1680.67197424
  Ewald energy   TEWEN  =    323532.68633456
  -Hartree energ DENC   =   -398813.62214501
  -exchange      EXHF   =         0.00000000
  -V(xc)+E(xc)   XCENC  =      2496.64068549
  PAW double counting   =     73308.59297581   -79340.35044773
  entropy T*S    EENTRO =        -0.03399375
  eigenvalues    EBANDS =      -957.52646486
  atomic energy  EATOM  =     77893.62785119
  Solvation  Ediel_sol  =         0.00000000
  ---------------------------------------------------
  free energy    TOTEN  =      -199.31323006 eV

  energy without entropy =     -199.27923630  energy(sigma->0) =     -199.30189881


--------------------------------------------------------------------------------------------------------




--------------------------------------- Iteration     11(   6)  ---------------------------------------


    POTLOK:  cpu time      0.0939: real time      0.0987
    SETDIJ:  cpu time      0.0206: real time      0.0207
     EDDAV:  cpu time     37.0401: real time     37.2668
       DOS:  cpu time      0.0036: real time      0.0036
    CHARGE:  cpu time      0.8699: real time      0.8735
    MIXING:  cpu time      0.0050: real time      0.0051
    --------------------------------------------
      LOOP:  cpu time     38.0331: real time     38.2683

 eigenvalue-minimisations  :  8816
 total energy-change (2. order) : 0.4308122E-02  (-0.9276485E-03)
 number of electron     616.0009763 magnetization      -0.0000053
 augmentation part      393.1219142 magnetization       0.0000538

 Broyden mixing:
  rms(total) = 0.23911E-01    rms(broyden)= 0.23901E-01
  rms(prec ) = 0.36505E-01
  weight for this iteration     100.00

 eigenvalues of (default mixing * dielectric matrix)
  average eigenvalue GAMMA=   0.8024
  1.9471  0.9925  0.5913  0.3193  0.1617

 Free energy of the ion-electron system (eV)
  ---------------------------------------------------
  alpha Z        PSCENC =      1680.67197424
  Ewald energy   TEWEN  =    323532.68633456
  -Hartree energ DENC   =   -398817.51594298
  -exchange      EXHF   =         0.00000000
  -V(xc)+E(xc)   XCENC  =      2496.67297799
  PAW double counting   =     73300.23755837   -79332.13232521
  entropy T*S    EENTRO =        -0.03706336
  eigenvalues    EBANDS =      -953.52028673
  atomic energy  EATOM  =     77893.62785119
  Solvation  Ediel_sol  =         0.00000000
  ---------------------------------------------------
  free energy    TOTEN  =      -199.30892194 eV

  energy without entropy =     -199.27185857  energy(sigma->0) =     -199.29656748


--------------------------------------------------------------------------------------------------------




--------------------------------------- Iteration     11(   7)  ---------------------------------------


    POTLOK:  cpu time      0.0908: real time      0.0924
    SETDIJ:  cpu time      0.0181: real time      0.0182
     EDDAV:  cpu time     36.0239: real time     36.2693
       DOS:  cpu time      0.0036: real time      0.0036
    CHARGE:  cpu time      0.8666: real time      0.8705
    MIXING:  cpu time      0.0131: real time      0.0131
    --------------------------------------------
      LOOP:  cpu time     37.0161: real time     37.2672

 eigenvalue-minimisations  :  8528
 total energy-change (2. order) : 0.1515983E-02  (-0.6500454E-03)
 number of electron     616.0009763 magnetization      -0.0000053
 augmentation part      393.1166351 magnetization       0.0000339

 Broyden mixing:
  rms(total) = 0.15746E-01    rms(broyden)= 0.15741E-01
  rms(prec ) = 0.18764E-01
  weight for this iteration     100.00

 eigenvalues of (default mixing * dielectric matrix)
  average eigenvalue GAMMA=   0.8149
  2.3346  0.8271  0.8271  0.4586  0.2815  0.1606

 Free energy of the ion-electron system (eV)
  ---------------------------------------------------
  alpha Z        PSCENC =      1680.67197424
  Ewald energy   TEWEN  =    323532.68633456
  -Hartree energ DENC   =   -398816.16436601
  -exchange      EXHF   =         0.00000000
  -V(xc)+E(xc)   XCENC  =      2496.69706720
  PAW double counting   =     73293.04916083   -79325.04763676
  entropy T*S    EENTRO =        -0.03593463
  eigenvalues    EBANDS =      -954.79185657
  atomic energy  EATOM  =     77893.62785119
  Solvation  Ediel_sol  =         0.00000000
  ---------------------------------------------------
  free energy    TOTEN  =      -199.30740595 eV

  energy without entropy =     -199.27147132  energy(sigma->0) =     -199.29542774


--------------------------------------------------------------------------------------------------------




--------------------------------------- Iteration     11(   8)  ---------------------------------------


    POTLOK:  cpu time      0.0941: real time      0.0986
    SETDIJ:  cpu time      0.0181: real time      0.0181
