<?xml version="1.0" encoding="ISO-8859-1"?>
<modeling>
 <generator>
  <i name="program" type="string">vasp </i>
  <i name="version" type="string">6.3.2  </i>
  <i name="subversion" type="string">27Jun22 (build Aug 17 2022 15:43:34) complex                          parallel </i>
  <i name="platform" type="string">tv2STDVTST </i>
  <i name="date" type="string">2025 01 21 </i>
  <i name="time" type="string">13:55:20 </i>
 </generator>
 <incar>
  <i type="int" name="ISTART">     0</i>
  <i type="string" name="PREC">Normal</i>
  <i type="int" name="ISPIN">     2</i>
  <i type="int" name="ICHARG">     2</i>
  <i type="int" name="IBRION">     2</i>
  <i name="EDIFF">      0.00020000</i>
  <i name="EDIFFG">     -0.03000000</i>
  <i type="int" name="NSW">   800</i>
  <i type="int" name="ISIF">     2</i>
  <i type="int" name="ISYM">     1</i>
  <i name="ENCUT">    400.00000000</i>
  <i name="POTIM">      0.50000000</i>
  <i type="logical" name="LREAL"> F  </i>
  <i type="int" name="ISMEAR">     1</i>
  <i name="SIGMA">      0.20000000</i>
  <i type="logical" name="LWAVE"> F  </i>
  <i type="logical" name="LCHARG"> F  </i>
  <i type="string" name="GGA">PE</i>
  <i type="int" name="IDIPOL">     3</i>
  <i type="int" name="IVDW">    11</i>
 </incar>
 <primitive_cell>
  <structure name="primitive_cell" >
   <crystal>
    <varray name="basis" >
     <v>       1.81500006      -1.81500006       0.00000000 </v>
     <v>       1.81500006       1.81500006       0.00000000 </v>
     <v>       0.00000000       0.00000000      25.89000000 </v>
    </varray>
    <i name="volume">    170.57498121 </i>
    <varray name="rec_basis" >
     <v>       0.27548209      -0.27548209       0.00000000 </v>
     <v>       0.27548209       0.27548209       0.00000000 </v>
     <v>       0.00000000       0.00000000       0.03862495 </v>
    </varray>
   </crystal>
   <varray name="positions" >
    <v>       0.00000000       0.00000000       0.00000000 </v>
    <v>       0.50000000       0.50000000       0.07010429 </v>
    <v>       0.00000000       0.00000000       0.14020858 </v>
    <v>       0.50000000       0.50000000       0.21031287 </v>
    <v>       0.00000000       0.00000000       0.28041715 </v>
    <v>       0.50000000       0.50000000       0.35052144 </v>
    <v>       0.00000000       0.00000000       0.42062573 </v>
   </varray>
  </structure>
  <varray name="primitive_index" >
   <v type="int" >        1 </v>
   <v type="int" >        9 </v>
   <v type="int" >       17 </v>
   <v type="int" >       25 </v>
   <v type="int" >       33 </v>
   <v type="int" >       41 </v>
   <v type="int" >       49 </v>
  </varray>
 </primitive_cell>
 <kpoints>
  <generation param="Monkhorst-Pack">
   <v type="int" name="divisions">       3        3        1 </v>
   <v name="usershift">      0.00000000       0.00000000       0.00000000 </v>
   <v name="genvec1">      0.33333333       0.00000000       0.00000000 </v>
   <v name="genvec2">      0.00000000       0.33333333       0.00000000 </v>
   <v name="genvec3">      0.00000000       0.00000000       1.00000000 </v>
   <v name="shift">      0.00000000       0.00000000       0.00000000 </v>
  </generation>
  <varray name="kpointlist" >
   <v>       0.00000000       0.00000000       0.00000000 </v>
   <v>       0.33333333       0.00000000       0.00000000 </v>
   <v>       0.33333333       0.33333333       0.00000000 </v>
  </varray>
  <varray name="weights" >
   <v>       0.11111111 </v>
   <v>       0.44444444 </v>
   <v>       0.44444444 </v>
  </varray>
 </kpoints>
 <parameters>
  <separator name="general" >
   <i type="string" name="SYSTEM">unknown system</i>
   <i type="logical" name="LCOMPAT"> F  </i>
  </separator>
  <separator name="electronic" >
   <i type="string" name="PREC">normal</i>
   <i name="ENMAX">    400.00000000</i>
   <i name="ENAUG">    586.98000000</i>
   <i name="EDIFF">      0.00020000</i>
   <i type="int" name="IALGO">    38</i>
   <i type="int" name="IWAVPR">    11</i>
   <i type="int" name="NBANDS">   400</i>
   <i type="int" name="NBANDSLOW">    -1</i>
   <i type="int" name="NBANDSHIGH">    -1</i>
   <i name="NELECT">    616.00000000</i>
   <i type="int" name="TURBO">     0</i>
   <i type="int" name="IRESTART">     0</i>
   <i type="int" name="NREBOOT">     0</i>
   <i type="int" name="NMIN">     0</i>
   <i name="EREF">      0.00000000</i>
   <separator name="electronic smearing" >
    <i type="int" name="ISMEAR">     1</i>
    <i name="SIGMA">      0.20000000</i>
    <i name="KSPACING">      0.50000000</i>
    <i type="logical" name="KGAMMA"> T  </i>
    <i type="logical" name="KBLOWUP"> T  </i>
   </separator>
   <separator name="electronic projectors" >
    <i type="logical" name="LREAL"> F  </i>
    <v name="ROPT">      0.00000000</v>
    <i type="int" name="LMAXPAW">  -100</i>
    <i type="int" name="LMAXMIX">     2</i>
    <i type="logical" name="NLSPLINE"> F  </i>
   </separator>
   <separator name="electronic startup" >
    <i type="int" name="ISTART">     0</i>
    <i type="int" name="ICHARG">     2</i>
    <i type="int" name="INIWAV">     1</i>
   </separator>
   <separator name="electronic spin" >
    <i type="int" name="ISPIN">     2</i>
    <i type="logical" name="LNONCOLLINEAR"> F  </i>
    <v name="MAGMOM">      1.00000000      1.00000000      1.00000000      1.00000000      1.00000000      1.00000000      1.00000000      1.00000000      1.00000000      1.00000000      1.00000000      1.00000000      1.00000000      1.00000000      1.00000000      1.00000000      1.00000000      1.00000000      1.00000000      1.00000000
      1.00000000      1.00000000      1.00000000      1.00000000      1.00000000      1.00000000      1.00000000      1.00000000      1.00000000      1.00000000      1.00000000      1.00000000      1.00000000      1.00000000      1.00000000      1.00000000      1.00000000      1.00000000      1.00000000      1.00000000
      1.00000000      1.00000000      1.00000000      1.00000000      1.00000000      1.00000000      1.00000000      1.00000000      1.00000000      1.00000000      1.00000000      1.00000000      1.00000000      1.00000000      1.00000000      1.00000000</v>
    <i name="NUPDOWN">     -1.00000000</i>
    <i type="logical" name="LSORBIT"> F  </i>
    <v name="SAXIS">      0.00000000      0.00000000      1.00000000</v>
    <i type="logical" name="LSPIRAL"> F  </i>
    <v name="QSPIRAL">      0.00000000      0.00000000      0.00000000</v>
    <i type="logical" name="LZEROZ"> F  </i>
   </separator>
   <separator name="electronic exchange-correlation" >
    <i type="logical" name="LASPH"> F  </i>
    <i type="logical" name="LMETAGGA"> F  </i>
   </separator>
   <separator name="electronic convergence" >
    <i type="int" name="NELM">    60</i>
    <i type="int" name="NELMDL">    -5</i>
    <i type="int" name="NELMIN">     2</i>
    <i name="ENINI">    400.00000000</i>
    <separator name="electronic convergence detail" >
     <i type="logical" name="LDIAG"> T  </i>
     <i type="logical" name="LSUBROT"> F  </i>
     <i name="WEIMIN">      0.00100000</i>
     <i name="EBREAK">      0.00000012</i>
     <i name="DEPER">      0.30000000</i>
     <i type="int" name="NRMM">     4</i>
     <i name="TIME">      0.40000000</i>
    </separator>
   </separator>
   <separator name="electronic mixer" >
    <i name="AMIX">      0.40000000</i>
    <i name="BMIX">      1.00000000</i>
    <i name="AMIN">      0.10000000</i>
    <i name="AMIX_MAG">      1.60000000</i>
    <i name="BMIX_MAG">      1.00000000</i>
    <separator name="electronic mixer details" >
     <i type="int" name="IMIX">     4</i>
     <i type="logical" name="MIXFIRST"> F  </i>
     <i type="int" name="MAXMIX">   -45</i>
     <i name="WC">    100.00000000</i>
     <i type="int" name="INIMIX">     1</i>
     <i type="int" name="MIXPRE">     1</i>
     <i type="int" name="MREMOVE">     5</i>
    </separator>
   </separator>
   <separator name="electronic dipolcorrection" >
    <i type="logical" name="LDIPOL"> F  </i>
    <i type="logical" name="LMONO"> F  </i>
    <i type="int" name="IDIPOL">     3</i>
    <i name="EPSILON">      1.00000000</i>
    <v name="DIPOL">   -100.00000000   -100.00000000   -100.00000000</v>
    <i name="EFIELD">      0.00000000</i>
   </separator>
  </separator>
  <separator name="grids" >
   <i type="int" name="NGX">    36</i>
   <i type="int" name="NGY">    36</i>
   <i type="int" name="NGZ">   128</i>
   <i type="int" name="NGXF">    72</i>
   <i type="int" name="NGYF">    72</i>
   <i type="int" name="NGZF">   256</i>
   <i type="logical" name="ADDGRID"> F  </i>
  </separator>
  <separator name="ionic" >
   <i type="int" name="NSW">   800</i>
   <i type="int" name="IBRION">     2</i>
   <i type="int" name="MDALGO">     0</i>
   <i type="int" name="ISIF">     2</i>
   <i name="PSTRESS">      0.00000000</i>
   <i name="EDIFFG">     -0.03000000</i>
   <i type="int" name="NFREE">     1</i>
   <i name="POTIM">      0.50000000</i>
   <i name="SMASS">     -3.00000000</i>
   <i name="SCALEE">      1.00000000</i>
  </separator>
  <separator name="ionic md" >
   <i name="TEBEG">      0.00010000</i>
   <i name="TEEND">      0.00010000</i>
   <i type="int" name="NBLOCK">     1</i>
   <i type="int" name="KBLOCK">   800</i>
   <i type="int" name="NPACO">   256</i>
   <i name="APACO">     10.00000000</i>
  </separator>
  <separator name="symmetry" >
   <i type="int" name="ISYM">     1</i>
   <i name="SYMPREC">      0.00001000</i>
  </separator>
  <separator name="dos" >
   <i type="int" name="LORBIT">     0</i>
   <v name="RWIGS">     -1.00000000</v>
   <i type="int" name="NEDOS">   301</i>
   <i name="EMIN">     10.00000000</i>
   <i name="EMAX">    -10.00000000</i>
   <i name="EFERMI">      0.00000000</i>
  </separator>
  <separator name="writing" >
   <i type="int" name="NWRITE">     2</i>
   <i type="logical" name="LWAVE"> F  </i>
   <i type="logical" name="LDOWNSAMPLE"> F  </i>
   <i type="logical" name="LCHARG"> F  </i>
   <i type="logical" name="LPARD"> F  </i>
   <i type="logical" name="LVTOT"> F  </i>
   <i type="logical" name="LVHAR"> F  </i>
   <i type="logical" name="LELF"> F  </i>
   <i type="logical" name="LOPTICS"> F  </i>
   <v name="STM">      0.00000000      0.00000000      0.00000000      0.00000000      0.00000000      0.00000000      0.00000000</v>
  </separator>
  <separator name="performance" >
   <i type="int" name="NPAR">     4</i>
   <i type="int" name="NSIM">     4</i>
   <i type="int" name="NBLK">    -1</i>
   <i type="logical" name="LPLANE"> T  </i>
   <i type="logical" name="LSCALAPACK"> T  </i>
   <i type="logical" name="LSCAAWARE"> F  </i>
   <i type="logical" name="LSCALU"> F  </i>
   <i type="logical" name="LASYNC"> F  </i>
   <i type="logical" name="LORBITALREAL"> F  </i>
  </separator>
  <separator name="miscellaneous" >
   <i type="int" name="IDIOT">     3</i>
   <i type="int" name="PHON_NSTRUCT">    -1</i>
   <i type="logical" name="LMUSIC"> F  </i>
   <v name="POMASS">     63.54600000</v>
   <v name="DARWINR">      0.00000000</v>
   <v name="DARWINV">      1.00000000</v>
   <i type="logical" name="LCORR"> T  </i>
  </separator>
  <i type="logical" name="GGA_COMPAT"> T  </i>
  <i type="logical" name="LBERRY"> F  </i>
  <i type="int" name="ICORELEVEL">     0</i>
  <i type="logical" name="LDAU"> F  </i>
  <i type="int" name="I_CONSTRAINED_M">     0</i>
  <separator name="electronic exchange-correlation" >
   <i type="string" name="GGA">PE</i>
   <i type="int" name="VOSKOWN">     0</i>
   <i type="logical" name="LHFCALC"> F  </i>
   <i type="string" name="PRECFOCK"></i>
   <i type="logical" name="LSYMGRAD"> F  </i>
   <i type="logical" name="LHFONE"> F  </i>
   <i type="logical" name="LRHFCALC"> F  </i>
   <i type="logical" name="LTHOMAS"> F  </i>
   <i type="logical" name="LMODELHF"> F  </i>
   <i type="logical" name="LFOCKACE"> F  </i>
   <i name="ENCUT4O">     -1.00000000</i>
   <i type="int" name="EXXOEP">     0</i>
   <i type="int" name="FOURORBIT">     0</i>
   <i name="AEXX">      0.00000000</i>
   <i name="HFALPHA">      0.00000000</i>
   <i name="MCALPHA">      0.00000000</i>
   <i name="ALDAX">      1.00000000</i>
   <i name="AGGAX">      1.00000000</i>
   <i name="ALDAC">      1.00000000</i>
   <i name="AGGAC">      1.00000000</i>
   <i type="int" name="NKREDX">     1</i>
   <i type="int" name="NKREDY">     1</i>
   <i type="int" name="NKREDZ">     1</i>
   <i type="logical" name="SHIFTRED"> F  </i>
   <i type="logical" name="ODDONLY"> F  </i>
   <i type="logical" name="EVENONLY"> F  </i>
   <i type="int" name="LMAXFOCK">     0</i>
   <i type="int" name="NMAXFOCKAE">     0</i>
   <i type="logical" name="LFOCKAEDFT"> F  </i>
   <i name="HFSCREEN">      0.00000000</i>
   <i name="HFSCREENC">      0.00000000</i>
   <i type="int" name="NBANDSGWLOW">     0</i>
  </separator>
  <separator name="vdW DFT" >
   <i type="logical" name="LUSE_VDW"> F  </i>
   <i name="Zab_VDW">     -0.84910000</i>
   <i name="PARAM1">      0.12340000</i>
   <i name="PARAM2">      1.00000000</i>
   <i name="PARAM3">      0.00000000</i>
  </separator>
  <separator name="model GW" >
   <i type="int" name="MODEL_GW">     0</i>
   <i name="MODEL_EPS0">     14.62071268</i>
   <i name="MODEL_ALPHA">      1.00000000</i>
  </separator>
  <separator name="linear response parameters" >
   <i type="logical" name="LEPSILON"> F  </i>
   <i type="logical" name="LRPA"> F  </i>
   <i type="logical" name="LNABLA"> F  </i>
   <i type="logical" name="LVEL"> F  </i>
   <i name="CSHIFT">      0.10000000</i>
   <i name="OMEGAMAX">     -1.00000000</i>
   <i name="DEG_THRESHOLD">      0.00200000</i>
   <i name="RTIME">     -0.10000000</i>
   <i name="WPLASMAI">      0.00000000</i>
   <v name="DFIELD">      0.00000000      0.00000000      0.00000000</v>
   <v name="WPLASMA">      0.00000000      0.00000000      0.00000000      0.00000000      0.00000000      0.00000000      0.00000000      0.00000000      0.00000000</v>
  </separator>
  <separator name="orbital magnetization" >
   <i type="logical" name="NUCIND"> F  </i>
   <v name="MAGPOS">      0.00000000      0.00000000      0.00000000</v>
   <i type="logical" name="LNICSALL"> T  </i>
   <i type="logical" name="ORBITALMAG"> F  </i>
   <i type="logical" name="LMAGBLOCH"> F  </i>
   <i type="logical" name="LCHIMAG"> F  </i>
   <i type="logical" name="LGAUGE"> T  </i>
   <i type="int" name="MAGATOM">     0</i>
   <v name="MAGDIPOL">      0.00000000      0.00000000      0.00000000</v>
   <v name="AVECCONST">      0.00000000      0.00000000      0.00000000</v>
  </separator>
  <separator name="response functions" >
   <i type="logical" name="LFINITE_TEMPERATURE"> F  </i>
   <i type="logical" name="LADDER"> F  </i>
   <i type="logical" name="LRPAFORCE"> F  </i>
   <i type="logical" name="LFXC"> F  </i>
   <i type="logical" name="LHARTREE"> T  </i>
   <i type="int" name="IBSE">     0</i>
   <v type="int" name="KPOINT">    -1     0     0     0</v>
   <i type="logical" name="LTCTC"> F  </i>
   <i type="logical" name="LTCTE"> F  </i>
   <i type="logical" name="LTETE"> F  </i>
   <i type="logical" name="LTRIPLET"> F  </i>
   <i type="logical" name="LFXCEPS"> F  </i>
   <i type="logical" name="LFXHEG"> F  </i>
   <i type="int" name="NATURALO">     2</i>
   <i type="logical" name="LHOLEGF"> F  </i>
   <i type="logical" name="L2ORDER"> F  </i>
   <i type="logical" name="LDMP1"> F  </i>
   <i type="logical" name="LMP2LT"> F  </i>
   <i type="logical" name="LSMP2LT"> F  </i>
   <i type="logical" name="LGWLF"> F  </i>
   <i name="ENCUTGW">     -2.00000000</i>
   <i name="ENCUTGWSOFT">     -2.00000000</i>
   <i name="ENCUTLF">     -1.00000000</i>
   <i type="logical" name="LESF_SPLINES"> F  </i>
   <i type="int" name="LMAXMP2">    -1</i>
   <i name="SCISSOR">      0.00000000</i>
   <i type="int" name="NOMEGA">     0</i>
   <i type="int" name="NOMEGAR">     0</i>
   <i type="int" name="NBANDSGW">    -1</i>
   <i type="int" name="NBANDSO">    -1</i>
   <i type="int" name="NBANDSV">    -1</i>
   <i type="int" name="NELMGW">     1</i>
   <i type="int" name="NELMHF">     1</i>
   <i type="int" name="DIM">     3</i>
   <i type="int" name="IESPILON">     4</i>
   <i type="int" name="ANTIRES">     0</i>
   <i name="OMEGAMAX">    -30.00000000</i>
   <i name="OMEGAMIN">    -30.00000000</i>
   <i name="OMEGATL">   -200.00000000</i>
   <i type="int" name="OMEGAGRID">     0</i>
   <i name="CSHIFT">     -0.10000000</i>
   <i type="logical" name="LSELFENERGY"> F  </i>
   <i type="logical" name="LSPECTRAL"> F  </i>
   <i type="logical" name="LSPECTRALGW"> F  </i>
   <i type="logical" name="LSINGLES"> F  </i>
   <i type="logical" name="LFERMIGW"> F  </i>
   <i type="logical" name="ODDONLYGW"> F  </i>
   <i type="logical" name="EVENONLYGW"> F  </i>
   <i type="int" name="NKREDLFX">     1</i>
   <i type="int" name="NKREDLFY">     1</i>
   <i type="int" name="NKREDLFZ">     1</i>
   <i type="int" name="MAXMEM">  2800</i>
   <i type="int" name="TELESCOPE">     0</i>
   <i type="int" name="NTAUPAR">    -1</i>
   <i type="int" name="NOMEGAPAR">    -1</i>
   <i name="DAMP_NEWTON">      0.80000001</i>
   <i name="LAMBDA">      1.00000000</i>
  </separator>
  <separator name="External order field" >
   <i name="OFIELD_KAPPA">      0.00000000</i>
   <v name="OFIELD_K">      0.00000000      0.00000000      0.00000000</v>
   <i name="OFIELD_Q6_NEAR">      0.00000000</i>
   <i name="OFIELD_Q6_FAR">      0.00000000</i>
   <i name="OFIELD_A">      0.00000000</i>
  </separator>
  <separator name="optional k-points parameters" >
   <i type="int" name="KPOINTS_OPT_MODE">     1</i>
   <i type="logical" name="LKPOINTS_OPT"> F  </i>
  </separator>
 </parameters>
 <atominfo>
  <atoms>      56 </atoms>
  <types>       1 </types>
  <array name="atoms" >
   <dimension dim="1">ion</dimension>
   <field type="string">element</field>
   <field type="int">atomtype</field>
   <set>
    <rc><c>Cu</c><c>   1</c></rc>
    <rc><c>Cu</c><c>   1</c></rc>
    <rc><c>Cu</c><c>   1</c></rc>
    <rc><c>Cu</c><c>   1</c></rc>
    <rc><c>Cu</c><c>   1</c></rc>
    <rc><c>Cu</c><c>   1</c></rc>
    <rc><c>Cu</c><c>   1</c></rc>
    <rc><c>Cu</c><c>   1</c></rc>
    <rc><c>Cu</c><c>   1</c></rc>
    <rc><c>Cu</c><c>   1</c></rc>
    <rc><c>Cu</c><c>   1</c></rc>
    <rc><c>Cu</c><c>   1</c></rc>
    <rc><c>Cu</c><c>   1</c></rc>
    <rc><c>Cu</c><c>   1</c></rc>
    <rc><c>Cu</c><c>   1</c></rc>
    <rc><c>Cu</c><c>   1</c></rc>
    <rc><c>Cu</c><c>   1</c></rc>
    <rc><c>Cu</c><c>   1</c></rc>
    <rc><c>Cu</c><c>   1</c></rc>
    <rc><c>Cu</c><c>   1</c></rc>
    <rc><c>Cu</c><c>   1</c></rc>
    <rc><c>Cu</c><c>   1</c></rc>
    <rc><c>Cu</c><c>   1</c></rc>
    <rc><c>Cu</c><c>   1</c></rc>
    <rc><c>Cu</c><c>   1</c></rc>
    <rc><c>Cu</c><c>   1</c></rc>
    <rc><c>Cu</c><c>   1</c></rc>
    <rc><c>Cu</c><c>   1</c></rc>
    <rc><c>Cu</c><c>   1</c></rc>
    <rc><c>Cu</c><c>   1</c></rc>
    <rc><c>Cu</c><c>   1</c></rc>
    <rc><c>Cu</c><c>   1</c></rc>
    <rc><c>Cu</c><c>   1</c></rc>
    <rc><c>Cu</c><c>   1</c></rc>
    <rc><c>Cu</c><c>   1</c></rc>
    <rc><c>Cu</c><c>   1</c></rc>
    <rc><c>Cu</c><c>   1</c></rc>
    <rc><c>Cu</c><c>   1</c></rc>
    <rc><c>Cu</c><c>   1</c></rc>
    <rc><c>Cu</c><c>   1</c></rc>
    <rc><c>Cu</c><c>   1</c></rc>
    <rc><c>Cu</c><c>   1</c></rc>
    <rc><c>Cu</c><c>   1</c></rc>
    <rc><c>Cu</c><c>   1</c></rc>
    <rc><c>Cu</c><c>   1</c></rc>
    <rc><c>Cu</c><c>   1</c></rc>
    <rc><c>Cu</c><c>   1</c></rc>
    <rc><c>Cu</c><c>   1</c></rc>
    <rc><c>Cu</c><c>   1</c></rc>
    <rc><c>Cu</c><c>   1</c></rc>
    <rc><c>Cu</c><c>   1</c></rc>
    <rc><c>Cu</c><c>   1</c></rc>
    <rc><c>Cu</c><c>   1</c></rc>
    <rc><c>Cu</c><c>   1</c></rc>
    <rc><c>Cu</c><c>   1</c></rc>
    <rc><c>Cu</c><c>   1</c></rc>
   </set>
  </array>
  <array name="atomtypes" >
   <dimension dim="1">type</dimension>
   <field type="int">atomspertype</field>
   <field type="string">element</field>
   <field>mass</field>
   <field>valence</field>
   <field type="string">pseudopotential</field>
   <set>
    <rc><c>  56</c><c>Cu</c><c>     63.54600000</c><c>     11.00000000</c><c>  PAW_PBE Cu 22Jun2005                  </c></rc>
   </set>
  </array>
 </atominfo>
 <structure name="initialpos" >
  <crystal>
   <varray name="basis" >
    <v>       7.26000023       0.00000000       0.00000000 </v>
    <v>       0.00000000       7.26000023       0.00000000 </v>
    <v>       0.00000000       0.00000000      25.89000000 </v>
   </varray>
   <i name="volume">   1364.59985005 </i>
   <varray name="rec_basis" >
    <v>       0.13774104       0.00000000       0.00000000 </v>
    <v>       0.00000000       0.13774104       0.00000000 </v>
    <v>       0.00000000       0.00000000       0.03862495 </v>
   </varray>
  </crystal>
  <varray name="positions" >
   <v>       0.00000000       0.00000000       0.00000000 </v>
   <v>       0.00000000       0.50000000       0.00000000 </v>
   <v>       0.50000000       0.00000000       0.00000000 </v>
   <v>       0.50000000       0.50000000       0.00000000 </v>
   <v>       0.25000000       0.25000000       0.00000000 </v>
   <v>       0.25000000       0.75000000       0.00000000 </v>
   <v>       0.75000000       0.25000000       0.00000000 </v>
   <v>       0.75000000       0.75000000       0.00000000 </v>
   <v>       0.00000000       0.25000000       0.07010429 </v>
   <v>       0.00000000       0.75000000       0.07010429 </v>
   <v>       0.50000000       0.25000000       0.07010429 </v>
   <v>       0.50000000       0.75000000       0.07010429 </v>
   <v>       0.25000000       0.00000000       0.07010429 </v>
   <v>       0.25000000       0.50000000       0.07010429 </v>
   <v>       0.75000000       0.00000000       0.07010429 </v>
   <v>       0.75000000       0.50000000       0.07010429 </v>
   <v>       0.00000000       0.00000000       0.14020858 </v>
   <v>       0.00000000       0.50000000       0.14020858 </v>
   <v>       0.50000000       0.00000000       0.14020858 </v>
   <v>       0.50000000       0.50000000       0.14020858 </v>
   <v>       0.25000000       0.25000000       0.14020858 </v>
   <v>       0.25000000       0.75000000       0.14020858 </v>
   <v>       0.75000000       0.25000000       0.14020858 </v>
   <v>       0.75000000       0.75000000       0.14020858 </v>
   <v>       0.00000000       0.25000000       0.21031287 </v>
   <v>       0.00000000       0.75000000       0.21031287 </v>
   <v>       0.50000000       0.25000000       0.21031287 </v>
   <v>       0.50000000       0.75000000       0.21031287 </v>
   <v>       0.25000000       0.00000000       0.21031287 </v>
   <v>       0.25000000       0.50000000       0.21031287 </v>
   <v>       0.75000000       0.00000000       0.21031287 </v>
   <v>       0.75000000       0.50000000       0.21031287 </v>
   <v>       0.00000000       0.00000000       0.28041715 </v>
   <v>       0.00000000       0.50000000       0.28041715 </v>
   <v>       0.50000000       0.00000000       0.28041715 </v>
   <v>       0.50000000       0.50000000       0.28041715 </v>
   <v>       0.25000000       0.25000000       0.28041715 </v>
   <v>       0.25000000       0.75000000       0.28041715 </v>
   <v>       0.75000000       0.25000000       0.28041715 </v>
   <v>       0.75000000       0.75000000       0.28041715 </v>
   <v>       0.00000000       0.25000000       0.35052144 </v>
   <v>       0.00000000       0.75000000       0.35052144 </v>
   <v>       0.50000000       0.25000000       0.35052144 </v>
   <v>       0.50000000       0.75000000       0.35052144 </v>
   <v>       0.25000000       0.00000000       0.35052144 </v>
   <v>       0.25000000       0.50000000       0.35052144 </v>
   <v>       0.75000000       0.00000000       0.35052144 </v>
   <v>       0.75000000       0.50000000       0.35052144 </v>
   <v>       0.00000000       0.00000000       0.42062573 </v>
   <v>       0.00000000       0.50000000       0.42062573 </v>
   <v>       0.50000000       0.00000000       0.42062573 </v>
   <v>       0.50000000       0.50000000       0.42062573 </v>
   <v>       0.25000000       0.25000000       0.42062573 </v>
   <v>       0.25000000       0.75000000       0.42062573 </v>
   <v>       0.75000000       0.25000000       0.42062573 </v>
   <v>       0.75000000       0.75000000       0.42062573 </v>
  </varray>
  <varray name="selective"  type="logical" >
   <v type="logical" >  F  F  F </v>
   <v type="logical" >  F  F  F </v>
   <v type="logical" >  F  F  F </v>
   <v type="logical" >  F  F  F </v>
   <v type="logical" >  F  F  F </v>
   <v type="logical" >  F  F  F </v>
   <v type="logical" >  F  F  F </v>
   <v type="logical" >  F  F  F </v>
   <v type="logical" >  F  F  F </v>
   <v type="logical" >  F  F  F </v>
   <v type="logical" >  F  F  F </v>
   <v type="logical" >  F  F  F </v>
   <v type="logical" >  F  F  F </v>
   <v type="logical" >  F  F  F </v>
   <v type="logical" >  F  F  F </v>
   <v type="logical" >  F  F  F </v>
   <v type="logical" >  T  T  T </v>
   <v type="logical" >  T  T  T </v>
   <v type="logical" >  T  T  T </v>
   <v type="logical" >  T  T  T </v>
   <v type="logical" >  T  T  T </v>
   <v type="logical" >  T  T  T </v>
   <v type="logical" >  T  T  T </v>
   <v type="logical" >  T  T  T </v>
   <v type="logical" >  T  T  T </v>
   <v type="logical" >  T  T  T </v>
   <v type="logical" >  T  T  T </v>
   <v type="logical" >  T  T  T </v>
   <v type="logical" >  T  T  T </v>
   <v type="logical" >  T  T  T </v>
   <v type="logical" >  T  T  T </v>
   <v type="logical" >  T  T  T </v>
   <v type="logical" >  T  T  T </v>
   <v type="logical" >  T  T  T </v>
   <v type="logical" >  T  T  T </v>
   <v type="logical" >  T  T  T </v>
   <v type="logical" >  T  T  T </v>
   <v type="logical" >  T  T  T </v>
   <v type="logical" >  T  T  T </v>
   <v type="logical" >  T  T  T </v>
   <v type="logical" >  T  T  T </v>
   <v type="logical" >  T  T  T </v>
   <v type="logical" >  T  T  T </v>
   <v type="logical" >  T  T  T </v>
   <v type="logical" >  T  T  T </v>
   <v type="logical" >  T  T  T </v>
   <v type="logical" >  T  T  T </v>
   <v type="logical" >  T  T  T </v>
   <v type="logical" >  T  T  T </v>
   <v type="logical" >  T  T  T </v>
   <v type="logical" >  T  T  T </v>
   <v type="logical" >  T  T  T </v>
   <v type="logical" >  T  T  T </v>
   <v type="logical" >  T  T  T </v>
   <v type="logical" >  T  T  T </v>
   <v type="logical" >  T  T  T </v>
  </varray>
  <nose>
   <v>      -3.00000000       0.00000000       0.00010000       0.00010000 </v>
  </nose>
 </structure>
 <calculation>
  <scstep>
   <time name="dav">   22.88   23.06</time>
   <time name="total">   23.00   23.18</time>
   <energy>
    <i name="alphaZ">   1680.67197424 </i>
    <i name="ewald"> 310245.87952727 </i>
    <i name="hartreedc">-386418.31878744 </i>
    <i name="XCdc">   2558.57816341 </i>
    <i name="pawpsdc">  68773.45977874 </i>
    <i name="pawaedc"> -74699.57216540 </i>
    <i name="eentropy">     -0.02753014 </i>
    <i name="bandstr">   5828.46867955 </i>
    <i name="atom">  77893.62785119 </i>
    <i name="e_fr_energy">   5862.76749142 </i>
    <i name="e_wo_entrp">   5862.79502156 </i>
    <i name="e_0_energy">   5862.77666813 </i>
   </energy>
  </scstep>
  <scstep>
   <time name="dav">   22.61   22.78</time>
   <time name="total">   22.61   22.79</time>
   <energy>
    <i name="e_fr_energy">    779.74852072 </i>
    <i name="e_wo_entrp">    779.75744882 </i>
    <i name="e_0_energy">    779.75149675 </i>
   </energy>
  </scstep>
  <scstep>
   <time name="dav">   22.55   22.73</time>
   <time name="total">   22.56   22.73</time>
   <energy>
    <i name="e_fr_energy">   -162.01442289 </i>
    <i name="e_wo_entrp">   -162.05036348 </i>
    <i name="e_0_energy">   -162.02640309 </i>
   </energy>
  </scstep>
  <scstep>
   <time name="dav">   24.44   24.63</time>
   <time name="total">   24.44   24.63</time>
   <energy>
    <i name="e_fr_energy">   -234.50605517 </i>
    <i name="e_wo_entrp">   -234.58265372 </i>
    <i name="e_0_energy">   -234.53158802 </i>
   </energy>
  </scstep>
  <scstep>
   <time name="dav">   24.49   24.68</time>
   <time name="total">   25.38   25.57</time>
   <energy>
    <i name="e_fr_energy">   -236.29081168 </i>
    <i name="e_wo_entrp">   -236.36985306 </i>
    <i name="e_0_energy">   -236.31715881 </i>
   </energy>
  </scstep>
  <scstep>
   <time name="dav">   24.23   24.42</time>
   <time name="total">   25.21   25.41</time>
   <energy>
    <i name="e_fr_energy">   -194.73676613 </i>
    <i name="e_wo_entrp">   -194.77331677 </i>
    <i name="e_0_energy">   -194.74894967 </i>
   </energy>
  </scstep>
  <scstep>
   <time name="dav">   24.27   24.58</time>
   <time name="total">   25.25   25.56</time>
   <energy>
    <i name="e_fr_energy">   -168.16808544 </i>
    <i name="e_wo_entrp">   -168.13988958 </i>
    <i name="e_0_energy">   -168.15868682 </i>
   </energy>
  </scstep>
  <scstep>
   <time name="dav">   26.23   26.84</time>
   <time name="total">   27.25   27.86</time>
   <energy>
    <i name="e_fr_energy">   -166.19811741 </i>
    <i name="e_wo_entrp">   -166.14683744 </i>
    <i name="e_0_energy">   -166.18102409 </i>
   </energy>
  </scstep>
  <scstep>
   <time name="dav">   30.58   30.82</time>
   <time name="total">   31.54   31.79</time>
   <energy>
    <i name="e_fr_energy">   -161.95371280 </i>
    <i name="e_wo_entrp">   -161.89535354 </i>
    <i name="e_0_energy">   -161.93425972 </i>
   </energy>
  </scstep>
  <scstep>
   <time name="dav">   31.30   31.60</time>
   <time name="total">   32.30   32.61</time>
   <energy>
    <i name="e_fr_energy">   -163.96917189 </i>
    <i name="e_wo_entrp">   -163.90305729 </i>
    <i name="e_0_energy">   -163.94713369 </i>
   </energy>
  </scstep>
  <scstep>
   <time name="dav">   25.56   25.79</time>
   <time name="total">   26.55   26.78</time>
   <energy>
    <i name="e_fr_energy">   -165.99218920 </i>
    <i name="e_wo_entrp">   -165.95077950 </i>
    <i name="e_0_energy">   -165.97838596 </i>
   </energy>
  </scstep>
  <scstep>
   <time name="dav">   28.13   28.34</time>
   <time name="total">   29.13   29.34</time>
   <energy>
    <i name="e_fr_energy">   -169.12602266 </i>
    <i name="e_wo_entrp">   -169.13800691 </i>
    <i name="e_0_energy">   -169.13001741 </i>
   </energy>
  </scstep>
  <scstep>
   <time name="dav">   30.52   30.90</time>
   <time name="total">   31.48   31.87</time>
   <energy>
    <i name="e_fr_energy">   -171.83492268 </i>
    <i name="e_wo_entrp">   -171.87713726 </i>
    <i name="e_0_energy">   -171.84899420 </i>
   </energy>
  </scstep>
  <scstep>
   <time name="dav">   27.10   27.30</time>
   <time name="total">   28.10   28.30</time>
   <energy>
    <i name="e_fr_energy">   -181.58336218 </i>
    <i name="e_wo_entrp">   -181.63913740 </i>
    <i name="e_0_energy">   -181.60195392 </i>
   </energy>
  </scstep>
  <scstep>
   <time name="dav">   27.26   27.60</time>
   <time name="total">   28.25   28.60</time>
   <energy>
    <i name="e_fr_energy">   -188.51052262 </i>
    <i name="e_wo_entrp">   -188.52305204 </i>
    <i name="e_0_energy">   -188.51469909 </i>
   </energy>
  </scstep>
  <scstep>
   <time name="dav">   25.43   25.59</time>
   <time name="total">   26.42   26.59</time>
   <energy>
    <i name="e_fr_energy">   -190.67894226 </i>
    <i name="e_wo_entrp">   -190.68703126 </i>
    <i name="e_0_energy">   -190.68163859 </i>
   </energy>
  </scstep>
  <scstep>
   <time name="dav">   24.79   24.97</time>
   <time name="total">   25.78   25.96</time>
   <energy>
    <i name="e_fr_energy">   -192.22715205 </i>
    <i name="e_wo_entrp">   -192.23288875 </i>
    <i name="e_0_energy">   -192.22906428 </i>
   </energy>
  </scstep>
  <scstep>
   <time name="dav">   27.68   27.88</time>
   <time name="total">   28.66   28.86</time>
   <energy>
    <i name="e_fr_energy">   -193.72379791 </i>
    <i name="e_wo_entrp">   -193.71380581 </i>
    <i name="e_0_energy">   -193.72046721 </i>
   </energy>
  </scstep>
  <scstep>
   <time name="dav">   27.27   27.58</time>
   <time name="total">   28.27   28.59</time>
   <energy>
    <i name="e_fr_energy">   -195.06420879 </i>
    <i name="e_wo_entrp">   -195.03686161 </i>
    <i name="e_0_energy">   -195.05509306 </i>
   </energy>
  </scstep>
  <scstep>
   <time name="dav">   30.82   31.14</time>
   <time name="total">   31.81   32.13</time>
   <energy>
    <i name="e_fr_energy">   -195.73776779 </i>
    <i name="e_wo_entrp">   -195.69848507 </i>
    <i name="e_0_energy">   -195.72467355 </i>
   </energy>
  </scstep>
  <scstep>
   <time name="dav">   27.84   28.05</time>
   <time name="total">   28.84   29.05</time>
   <energy>
    <i name="e_fr_energy">   -196.71883070 </i>
    <i name="e_wo_entrp">   -196.66890228 </i>
    <i name="e_0_energy">   -196.70218789 </i>
   </energy>
  </scstep>
  <scstep>
   <time name="dav">   28.56   28.77</time>
   <time name="total">   29.55   29.77</time>
   <energy>
    <i name="e_fr_energy">   -197.75766300 </i>
    <i name="e_wo_entrp">   -197.71271334 </i>
    <i name="e_0_energy">   -197.74267978 </i>
   </energy>
  </scstep>
  <scstep>
   <time name="dav">   29.61   29.83</time>
   <time name="total">   30.61   30.83</time>
   <energy>
    <i name="e_fr_energy">   -198.22743136 </i>
    <i name="e_wo_entrp">   -198.17492988 </i>
    <i name="e_0_energy">   -198.20993087 </i>
   </energy>
  </scstep>
  <scstep>
   <time name="dav">   25.53   25.71</time>
   <time name="total">   26.52   26.71</time>
   <energy>
    <i name="e_fr_energy">   -198.92215936 </i>
    <i name="e_wo_entrp">   -198.86897300 </i>
    <i name="e_0_energy">   -198.90443057 </i>
   </energy>
  </scstep>
  <scstep>
   <time name="dav">   29.22   29.43</time>
   <time name="total">   30.24   30.45</time>
   <energy>
    <i name="e_fr_energy">   -199.22739228 </i>
    <i name="e_wo_entrp">   -199.17695444 </i>
    <i name="e_0_energy">   -199.21057967 </i>
   </energy>
  </scstep>
  <scstep>
   <time name="dav">   27.80   28.10</time>
   <time name="total">   28.81   29.12</time>
   <energy>
    <i name="e_fr_energy">   -199.41923630 </i>
    <i name="e_wo_entrp">   -199.36764093 </i>
    <i name="e_0_energy">   -199.40203784 </i>
   </energy>
  </scstep>
  <scstep>
   <time name="dav">   25.09   25.39</time>
   <time name="total">   26.09   26.40</time>
   <energy>
    <i name="e_fr_energy">   -199.49344739 </i>
    <i name="e_wo_entrp">   -199.44192853 </i>
    <i name="e_0_energy">   -199.47627444 </i>
   </energy>
  </scstep>
  <scstep>
   <time name="dav">   21.02   21.16</time>
   <time name="total">   22.03   22.17</time>
   <energy>
    <i name="e_fr_energy">   -199.50965071 </i>
    <i name="e_wo_entrp">   -199.45803519 </i>
    <i name="e_0_energy">   -199.49244554 </i>
   </energy>
  </scstep>
  <scstep>
   <time name="dav">   19.53   20.00</time>
   <time name="total">   20.51   20.99</time>
   <energy>
    <i name="e_fr_energy">   -199.51448825 </i>
    <i name="e_wo_entrp">   -199.46276660 </i>
    <i name="e_0_energy">   -199.49724770 </i>
   </energy>
  </scstep>
  <scstep>
   <time name="dav">   19.00   19.36</time>
   <time name="total">   20.04   20.40</time>
   <energy>
    <i name="e_fr_energy">   -199.51486846 </i>
    <i name="e_wo_entrp">   -199.46312691 </i>
    <i name="e_0_energy">   -199.49762127 </i>
   </energy>
  </scstep>
  <scstep>
   <time name="dav">   16.59   16.69</time>
   <time name="total">   17.58   17.70</time>
   <energy>
    <i name="e_fr_energy">   -199.51508226 </i>
    <i name="e_wo_entrp">   -199.46339882 </i>
    <i name="e_0_energy">   -199.49785445 </i>
   </energy>
  </scstep>
  <scstep>
   <time name="dav">   17.02   17.16</time>
   <time name="total">   17.14   17.28</time>
   <energy>
    <i name="alphaZ">   1680.67197424 </i>
    <i name="ewald"> 310245.87952727 </i>
    <i name="hartreedc">-385557.43139059 </i>
    <i name="XCdc">   2494.82849960 </i>
    <i name="pawpsdc">  72977.55455238 </i>
    <i name="pawaedc"> -79003.81752444 </i>
    <i name="eentropy">     -0.05162745 </i>
    <i name="bandstr">   -930.77707434 </i>
    <i name="atom">  77893.62785119 </i>
    <i name="e_fr_energy">   -199.51521215 </i>
    <i name="e_wo_entrp">   -199.46358470 </i>
    <i name="e_0_energy">   -199.49800300 </i>
   </energy>
  </scstep>
  <dipole>
   <v name="dipole">      0.00000000       0.00000000      -0.02290458 </v>
   <i name="Tr[quadrupol]">  -6080.26334995 </i>
   <i name="Echarged">      0.00000000 </i>
   <i name="Edipol_quadrupol">      0.00000000 </i>
   <i name="Eion">      0.00000000 </i>
  </dipole>
  <structure>
   <crystal>
    <varray name="basis" >
     <v>       7.26000023       0.00000000       0.00000000 </v>
     <v>       0.00000000       7.26000023       0.00000000 </v>
     <v>       0.00000000       0.00000000      25.89000000 </v>
    </varray>
    <i name="volume">   1364.59985005 </i>
    <varray name="rec_basis" >
     <v>       0.13774104       0.00000000       0.00000000 </v>
     <v>       0.00000000       0.13774104       0.00000000 </v>
     <v>       0.00000000       0.00000000       0.03862495 </v>
    </varray>
   </crystal>
   <varray name="positions" >
    <v>       0.00000000       0.00000000       0.00000000 </v>
    <v>       0.00000000       0.50000000       0.00000000 </v>
    <v>       0.50000000       0.00000000       0.00000000 </v>
    <v>       0.50000000       0.50000000       0.00000000 </v>
    <v>       0.25000000       0.25000000       0.00000000 </v>
    <v>       0.25000000       0.75000000       0.00000000 </v>
    <v>       0.75000000       0.25000000       0.00000000 </v>
    <v>       0.75000000       0.75000000       0.00000000 </v>
    <v>       0.00000000       0.25000000       0.07010429 </v>
    <v>       0.00000000       0.75000000       0.07010429 </v>
    <v>       0.50000000       0.25000000       0.07010429 </v>
    <v>       0.50000000       0.75000000       0.07010429 </v>
    <v>       0.25000000       0.00000000       0.07010429 </v>
    <v>       0.25000000       0.50000000       0.07010429 </v>
    <v>       0.75000000       0.00000000       0.07010429 </v>
    <v>       0.75000000       0.50000000       0.07010429 </v>
    <v>       0.00000000       0.00000000       0.14020858 </v>
    <v>       0.00000000       0.50000000       0.14020858 </v>
    <v>       0.50000000       0.00000000       0.14020858 </v>
    <v>       0.50000000       0.50000000       0.14020858 </v>
    <v>       0.25000000       0.25000000       0.14020858 </v>
    <v>       0.25000000       0.75000000       0.14020858 </v>
    <v>       0.75000000       0.25000000       0.14020858 </v>
    <v>       0.75000000       0.75000000       0.14020858 </v>
    <v>       0.00000000       0.25000000       0.21031287 </v>
    <v>       0.00000000       0.75000000       0.21031287 </v>
    <v>       0.50000000       0.25000000       0.21031287 </v>
    <v>       0.50000000       0.75000000       0.21031287 </v>
    <v>       0.25000000       0.00000000       0.21031287 </v>
    <v>       0.25000000       0.50000000       0.21031287 </v>
    <v>       0.75000000       0.00000000       0.21031287 </v>
    <v>       0.75000000       0.50000000       0.21031287 </v>
    <v>       0.00000000       0.00000000       0.28041715 </v>
    <v>       0.00000000       0.50000000       0.28041715 </v>
    <v>       0.50000000       0.00000000       0.28041715 </v>
    <v>       0.50000000       0.50000000       0.28041715 </v>
    <v>       0.25000000       0.25000000       0.28041715 </v>
    <v>       0.25000000       0.75000000       0.28041715 </v>
    <v>       0.75000000       0.25000000       0.28041715 </v>
    <v>       0.75000000       0.75000000       0.28041715 </v>
    <v>       0.00000000       0.25000000       0.35052144 </v>
    <v>       0.00000000       0.75000000       0.35052144 </v>
    <v>       0.50000000       0.25000000       0.35052144 </v>
    <v>       0.50000000       0.75000000       0.35052144 </v>
    <v>       0.25000000       0.00000000       0.35052144 </v>
    <v>       0.25000000       0.50000000       0.35052144 </v>
    <v>       0.75000000       0.00000000       0.35052144 </v>
    <v>       0.75000000       0.50000000       0.35052144 </v>
    <v>       0.00000000       0.00000000       0.42062573 </v>
    <v>       0.00000000       0.50000000       0.42062573 </v>
    <v>       0.50000000       0.00000000       0.42062573 </v>
    <v>       0.50000000       0.50000000       0.42062573 </v>
    <v>       0.25000000       0.25000000       0.42062573 </v>
    <v>       0.25000000       0.75000000       0.42062573 </v>
    <v>       0.75000000       0.25000000       0.42062573 </v>
    <v>       0.75000000       0.75000000       0.42062573 </v>
   </varray>
  </structure>
  <varray name="forces" >
   <v>      -0.00000000       0.00000000       0.27705110 </v>
   <v>      -0.00000000       0.00000000       0.27705110 </v>
   <v>       0.00000000      -0.00000000       0.27705110 </v>
   <v>       0.00000000       0.00000000       0.27705110 </v>
   <v>      -0.00000000      -0.00000000       0.27705110 </v>
   <v>      -0.00000000       0.00000000       0.27705110 </v>
   <v>      -0.00000000      -0.00000000       0.27705110 </v>
   <v>      -0.00000000       0.00000000       0.27705110 </v>
   <v>       0.00000000       0.00000000      -0.08458139 </v>
   <v>      -0.00000000      -0.00000000      -0.08458139 </v>
   <v>      -0.00000000       0.00000000      -0.08458139 </v>
   <v>       0.00000000       0.00000000      -0.08458139 </v>
   <v>       0.00000000      -0.00000000      -0.08458139 </v>
   <v>      -0.00000000       0.00000000      -0.08458139 </v>
   <v>       0.00000000      -0.00000000      -0.08458139 </v>
   <v>      -0.00000000       0.00000000      -0.08458139 </v>
   <v>       0.00000000       0.00000000      -0.00448217 </v>
   <v>       0.00000000      -0.00000000      -0.00448217 </v>
   <v>      -0.00000000       0.00000000      -0.00448217 </v>
   <v>      -0.00000000       0.00000000      -0.00448217 </v>
   <v>       0.00000000      -0.00000000      -0.00448217 </v>
   <v>       0.00000000       0.00000000      -0.00448217 </v>
   <v>      -0.00000000       0.00000000      -0.00448217 </v>
   <v>      -0.00000000      -0.00000000      -0.00448217 </v>
   <v>       0.00000000       0.00000000       0.00222629 </v>
   <v>       0.00000000       0.00000000       0.00222629 </v>
   <v>       0.00000000      -0.00000000       0.00222629 </v>
   <v>       0.00000000       0.00000000       0.00222629 </v>
   <v>       0.00000000       0.00000000       0.00222629 </v>
   <v>       0.00000000      -0.00000000       0.00222629 </v>
   <v>      -0.00000000       0.00000000       0.00222629 </v>
   <v>       0.00000000      -0.00000000       0.00222629 </v>
   <v>      -0.00000000       0.00000000       0.00705828 </v>
   <v>       0.00000000       0.00000000       0.00705828 </v>
   <v>       0.00000000       0.00000000       0.00705828 </v>
   <v>       0.00000000      -0.00000000       0.00705828 </v>
   <v>      -0.00000000      -0.00000000       0.00705828 </v>
   <v>       0.00000000       0.00000000       0.00705828 </v>
   <v>      -0.00000000      -0.00000000       0.00705828 </v>
   <v>      -0.00000000       0.00000000       0.00705828 </v>
   <v>       0.00000000       0.00000000       0.08499111 </v>
   <v>       0.00000000      -0.00000000       0.08499111 </v>
   <v>      -0.00000000      -0.00000000       0.08499111 </v>
   <v>       0.00000000      -0.00000000       0.08499111 </v>
   <v>      -0.00000000      -0.00000000       0.08499111 </v>
   <v>      -0.00000000       0.00000000       0.08499111 </v>
   <v>       0.00000000      -0.00000000       0.08499111 </v>
   <v>       0.00000000       0.00000000       0.08499111 </v>
   <v>       0.00000000      -0.00000000      -0.28226323 </v>
   <v>      -0.00000000      -0.00000000      -0.28226323 </v>
   <v>       0.00000000      -0.00000000      -0.28226323 </v>
   <v>      -0.00000000       0.00000000      -0.28226323 </v>
   <v>      -0.00000000       0.00000000      -0.28226323 </v>
   <v>      -0.00000000       0.00000000      -0.28226323 </v>
   <v>       0.00000000      -0.00000000      -0.28226323 </v>
   <v>       0.00000000      -0.00000000      -0.28226323 </v>
  </varray>
  <varray name="stress" >
   <v>     -50.41435184       0.00000000       0.00000000 </v>
   <v>       0.00000000     -50.41435184       0.00000000 </v>
   <v>       0.00000000       0.00000000     -28.65129599 </v>
  </varray>
  <energy>
   <i name="e_fr_energy">   -221.62842101 </i>
   <i name="e_wo_entrp">   -221.57679356 </i>
   <i name="e_0_energy">   -221.61121186 </i>
  </energy>
  <time name="totalsc">  893.26  901.81</time>
 </calculation>
 <calculation>
  <scstep>
   <time name="dav">   24.20   24.38</time>
   <time name="total">   25.19   25.38</time>
   <energy>
    <i name="alphaZ">   1680.67197424 </i>
    <i name="ewald"> 310673.85165334 </i>
    <i name="hartreedc">-385983.91112885 </i>
    <i name="XCdc">   2495.00504755 </i>
    <i name="pawpsdc">  72976.65560997 </i>
    <i name="pawaedc"> -79002.85545853 </i>
    <i name="eentropy">     -0.05253388 </i>
    <i name="bandstr">   -932.50997872 </i>
    <i name="atom">  77893.62785119 </i>
    <i name="e_fr_energy">   -199.51696370 </i>
    <i name="e_wo_entrp">   -199.46442982 </i>
    <i name="e_0_energy">   -199.49945241 </i>
   </energy>
  </scstep>
  <scstep>
   <time name="dav">   31.24   31.48</time>
   <time name="total">   32.24   32.49</time>
   <energy>
    <i name="e_fr_energy">   -199.53333439 </i>
    <i name="e_wo_entrp">   -199.48063988 </i>
    <i name="e_0_energy">   -199.51576955 </i>
   </energy>
  </scstep>
  <scstep>
   <time name="dav">   24.05   24.20</time>
   <time name="total">   25.04   25.20</time>
   <energy>
    <i name="e_fr_energy">   -199.53232996 </i>
    <i name="e_wo_entrp">   -199.47946519 </i>
    <i name="e_0_energy">   -199.51470837 </i>
   </energy>
  </scstep>
  <scstep>
   <time name="dav">   24.27   24.42</time>
   <time name="total">   25.26   25.42</time>
   <energy>
    <i name="e_fr_energy">   -199.53233831 </i>
    <i name="e_wo_entrp">   -199.47976169 </i>
    <i name="e_0_energy">   -199.51481277 </i>
   </energy>
  </scstep>
  <scstep>
   <time name="dav">   24.60   24.95</time>
   <time name="total">   24.71   25.07</time>
   <energy>
    <i name="alphaZ">   1680.67197424 </i>
    <i name="ewald"> 310673.85165334 </i>
    <i name="hartreedc">-385983.49577014 </i>
    <i name="XCdc">   2494.94890260 </i>
    <i name="pawpsdc">  72989.16883026 </i>
    <i name="pawaedc"> -79015.37368250 </i>
    <i name="eentropy">     -0.05273371 </i>
    <i name="bandstr">   -932.87940225 </i>
    <i name="atom">  77893.62785119 </i>
    <i name="e_fr_energy">   -199.53237696 </i>
    <i name="e_wo_entrp">   -199.47964325 </i>
    <i name="e_0_energy">   -199.51479906 </i>
   </energy>
  </scstep>
  <dipole>
   <v name="dipole">      0.00000000       0.00000000      -0.00957100 </v>
   <i name="Tr[quadrupol]">  -6080.24876966 </i>
   <i name="Echarged">      0.00000000 </i>
   <i name="Edipol_quadrupol">      0.00000000 </i>
   <i name="Eion">      0.00000000 </i>
  </dipole>
  <structure>
   <crystal>
    <varray name="basis" >
     <v>       7.26000023       0.00000000       0.00000000 </v>
     <v>       0.00000000       7.26000023       0.00000000 </v>
     <v>       0.00000000       0.00000000      25.89000000 </v>
    </varray>
    <i name="volume">   1364.59985005 </i>
    <varray name="rec_basis" >
     <v>       0.13774104       0.00000000       0.00000000 </v>
     <v>       0.00000000       0.13774104       0.00000000 </v>
     <v>       0.00000000       0.00000000       0.03862495 </v>
    </varray>
   </crystal>
   <varray name="positions" >
    <v>       0.00000000       0.00000000       0.00000000 </v>
    <v>       0.00000000       0.50000000       0.00000000 </v>
    <v>       0.50000000       0.00000000       0.00000000 </v>
    <v>       0.50000000       0.50000000       0.00000000 </v>
    <v>       0.25000000       0.25000000       0.00000000 </v>
    <v>       0.25000000       0.75000000       0.00000000 </v>
    <v>       0.75000000       0.25000000       0.00000000 </v>
    <v>       0.75000000       0.75000000       0.00000000 </v>
    <v>       0.00000000       0.25000000       0.07010429 </v>
    <v>       0.00000000       0.75000000       0.07010429 </v>
    <v>       0.50000000       0.25000000       0.07010429 </v>
    <v>       0.50000000       0.75000000       0.07010429 </v>
    <v>       0.25000000       0.00000000       0.07010429 </v>
    <v>       0.25000000       0.50000000       0.07010429 </v>
    <v>       0.75000000       0.00000000       0.07010429 </v>
    <v>       0.75000000       0.50000000       0.07010429 </v>
    <v>       0.00000000       0.00000000       0.14020022 </v>
    <v>       0.00000000       0.50000000       0.14020022 </v>
    <v>       0.50000000       0.00000000       0.14020022 </v>
    <v>       0.50000000       0.50000000       0.14020022 </v>
    <v>       0.25000000       0.25000000       0.14020022 </v>
    <v>       0.25000000       0.75000000       0.14020022 </v>
    <v>       0.75000000       0.25000000       0.14020022 </v>
    <v>       0.75000000       0.75000000       0.14020022 </v>
    <v>       0.00000000       0.25000000       0.21031701 </v>
    <v>       0.00000000       0.75000000       0.21031701 </v>
    <v>       0.50000000       0.25000000       0.21031701 </v>
    <v>       0.50000000       0.75000000       0.21031701 </v>
    <v>       0.25000000       0.00000000       0.21031701 </v>
    <v>       0.25000000       0.50000000       0.21031701 </v>
    <v>       0.75000000       0.00000000       0.21031701 </v>
    <v>       0.75000000       0.50000000       0.21031701 </v>
    <v>      -0.00000000       0.00000000       0.28043031 </v>
    <v>       0.00000000       0.50000000       0.28043031 </v>
    <v>       0.50000000       0.00000000       0.28043031 </v>
    <v>       0.50000000       0.50000000       0.28043031 </v>
    <v>       0.25000000       0.25000000       0.28043031 </v>
    <v>       0.25000000       0.75000000       0.28043031 </v>
    <v>       0.75000000       0.25000000       0.28043031 </v>
    <v>       0.75000000       0.75000000       0.28043031 </v>
    <v>       0.00000000       0.25000000       0.35067981 </v>
    <v>       0.00000000       0.75000000       0.35067981 </v>
    <v>       0.50000000       0.25000000       0.35067981 </v>
    <v>       0.50000000       0.75000000       0.35067981 </v>
    <v>       0.25000000      -0.00000000       0.35067981 </v>
    <v>       0.25000000       0.50000000       0.35067981 </v>
    <v>       0.75000000      -0.00000000       0.35067981 </v>
    <v>       0.75000000       0.50000000       0.35067981 </v>
    <v>       0.00000000      -0.00000000       0.42009977 </v>
    <v>      -0.00000000       0.50000000       0.42009977 </v>
    <v>       0.50000000      -0.00000000       0.42009977 </v>
    <v>       0.50000000       0.50000000       0.42009977 </v>
    <v>       0.25000000       0.25000000       0.42009977 </v>
    <v>       0.25000000       0.75000000       0.42009977 </v>
    <v>       0.75000000       0.25000000       0.42009977 </v>
    <v>       0.75000000       0.75000000       0.42009977 </v>
   </varray>
  </structure>
  <varray name="forces" >
   <v>       0.00000000      -0.00000000       0.27565021 </v>
   <v>       0.00000000       0.00000000       0.27565021 </v>
   <v>      -0.00000000       0.00000000       0.27565021 </v>
   <v>      -0.00000000       0.00000000       0.27565021 </v>
   <v>       0.00000000       0.00000000       0.27565021 </v>
   <v>      -0.00000000      -0.00000000       0.27565021 </v>
   <v>      -0.00000000       0.00000000       0.27565021 </v>
   <v>       0.00000000      -0.00000000       0.27565021 </v>
   <v>      -0.00000000      -0.00000000      -0.08399168 </v>
   <v>      -0.00000000       0.00000000      -0.08399168 </v>
   <v>       0.00000000      -0.00000000      -0.08399168 </v>
   <v>      -0.00000000      -0.00000000      -0.08399168 </v>
   <v>      -0.00000000       0.00000000      -0.08399168 </v>
   <v>      -0.00000000       0.00000000      -0.08399168 </v>
   <v>       0.00000000      -0.00000000      -0.08399168 </v>
   <v>      -0.00000000       0.00000000      -0.08399168 </v>
   <v>      -0.00000000       0.00000000      -0.00076189 </v>
   <v>       0.00000000       0.00000000      -0.00076189 </v>
   <v>      -0.00000000      -0.00000000      -0.00076189 </v>
   <v>       0.00000000       0.00000000      -0.00076189 </v>
   <v>       0.00000000      -0.00000000      -0.00076189 </v>
   <v>      -0.00000000       0.00000000      -0.00076189 </v>
   <v>      -0.00000000      -0.00000000      -0.00076189 </v>
   <v>      -0.00000000      -0.00000000      -0.00076189 </v>
   <v>       0.00000000       0.00000000       0.00588131 </v>
   <v>       0.00000000      -0.00000000       0.00588131 </v>
   <v>       0.00000000      -0.00000000       0.00588131 </v>
   <v>      -0.00000000      -0.00000000       0.00588131 </v>
   <v>       0.00000000       0.00000000       0.00588131 </v>
   <v>      -0.00000000       0.00000000       0.00588131 </v>
   <v>       0.00000000       0.00000000       0.00588131 </v>
   <v>       0.00000000       0.00000000       0.00588131 </v>
   <v>       0.00000000       0.00000000       0.01461543 </v>
   <v>       0.00000000      -0.00000000       0.01461543 </v>
   <v>      -0.00000000      -0.00000000       0.01461543 </v>
   <v>      -0.00000000      -0.00000000       0.01461543 </v>
   <v>      -0.00000000      -0.00000000       0.01461543 </v>
   <v>      -0.00000000       0.00000000       0.01461543 </v>
   <v>       0.00000000      -0.00000000       0.01461543 </v>
   <v>       0.00000000       0.00000000       0.01461543 </v>
   <v>       0.00000000       0.00000000       0.00871823 </v>
   <v>       0.00000000      -0.00000000       0.00871823 </v>
   <v>       0.00000000       0.00000000       0.00871823 </v>
   <v>       0.00000000      -0.00000000       0.00871823 </v>
   <v>      -0.00000000      -0.00000000       0.00871823 </v>
   <v>      -0.00000000       0.00000000       0.00871823 </v>
   <v>      -0.00000000       0.00000000       0.00871823 </v>
   <v>       0.00000000      -0.00000000       0.00871823 </v>
   <v>      -0.00000000       0.00000000      -0.22011160 </v>
   <v>      -0.00000000      -0.00000000      -0.22011160 </v>
   <v>       0.00000000      -0.00000000      -0.22011160 </v>
   <v>       0.00000000       0.00000000      -0.22011160 </v>
   <v>      -0.00000000       0.00000000      -0.22011160 </v>
   <v>      -0.00000000       0.00000000      -0.22011160 </v>
   <v>       0.00000000      -0.00000000      -0.22011160 </v>
   <v>      -0.00000000      -0.00000000      -0.22011160 </v>
  </varray>
  <varray name="stress" >
   <v>     -47.06639693       0.00000000       0.00000000 </v>
   <v>       0.00000000     -47.06639693      -0.00000000 </v>
   <v>       0.00000000       0.00000000     -25.02756492 </v>
  </varray>
  <energy>
   <i name="e_fr_energy">   -221.65798691 </i>
   <i name="e_wo_entrp">   -221.60525320 </i>
   <i name="e_0_energy">   -221.64040900 </i>
  </energy>
  <time name="totalsc">  183.87  185.28</time>
 </calculation>
 <calculation>
  <scstep>
   <time name="dav">   24.20   24.37</time>
   <time name="total">   25.21   25.37</time>
   <energy>
    <i name="alphaZ">   1680.67197424 </i>
    <i name="ewald"> 311802.57902046 </i>
    <i name="hartreedc">-387107.96484156 </i>
    <i name="XCdc">   2495.43998837 </i>
    <i name="pawpsdc">  72992.79939654 </i>
    <i name="pawaedc"> -79019.24331401 </i>
    <i name="eentropy">     -0.05351420 </i>
    <i name="bandstr">   -937.27852596 </i>
    <i name="atom">  77893.62785119 </i>
    <i name="e_fr_energy">   -199.42196493 </i>
    <i name="e_wo_entrp">   -199.36845073 </i>
    <i name="e_0_energy">   -199.40412687 </i>
   </energy>
  </scstep>
  <scstep>
   <time name="dav">   34.73   35.19</time>
   <time name="total">   35.73   36.20</time>
   <energy>
    <i name="e_fr_energy">   -199.55379069 </i>
    <i name="e_wo_entrp">   -199.50047117 </i>
    <i name="e_0_energy">   -199.53601751 </i>
   </energy>
  </scstep>
  <scstep>
   <time name="dav">   25.22   25.37</time>
   <time name="total">   26.22   26.38</time>
   <energy>
    <i name="e_fr_energy">   -199.54009000 </i>
    <i name="e_wo_entrp">   -199.48505155 </i>
    <i name="e_0_energy">   -199.52174385 </i>
   </energy>
  </scstep>
  <scstep>
   <time name="dav">   27.57   28.12</time>
   <time name="total">   28.55   29.12</time>
   <energy>
    <i name="e_fr_energy">   -199.53971139 </i>
    <i name="e_wo_entrp">   -199.48638286 </i>
    <i name="e_0_energy">   -199.52193521 </i>
   </energy>
  </scstep>
  <scstep>
   <time name="dav">   24.63   24.80</time>
   <time name="total">   25.63   25.81</time>
   <energy>
    <i name="e_fr_energy">   -199.54034640 </i>
    <i name="e_wo_entrp">   -199.48567150 </i>
    <i name="e_0_energy">   -199.52212143 </i>
   </energy>
  </scstep>
  <scstep>
   <time name="dav">   29.24   29.45</time>
   <time name="total">   30.24   30.46</time>
   <energy>
    <i name="e_fr_energy">   -199.53818280 </i>
    <i name="e_wo_entrp">   -199.48366805 </i>
    <i name="e_0_energy">   -199.52001122 </i>
   </energy>
  </scstep>
  <scstep>
   <time name="dav">   28.40   28.60</time>
   <time name="total">   29.40   29.60</time>
   <energy>
    <i name="e_fr_energy">   -199.53723227 </i>
    <i name="e_wo_entrp">   -199.48293663 </i>
    <i name="e_0_energy">   -199.51913372 </i>
   </energy>
  </scstep>
  <scstep>
   <time name="dav">   29.03   29.26</time>
   <time name="total">   30.04   30.28</time>
   <energy>
    <i name="e_fr_energy">   -199.53682264 </i>
    <i name="e_wo_entrp">   -199.48269624 </i>
    <i name="e_0_energy">   -199.51878051 </i>
   </energy>
  </scstep>
  <scstep>
   <time name="dav">   24.25   24.49</time>
   <time name="total">   24.37   24.61</time>
   <energy>
    <i name="alphaZ">   1680.67197424 </i>
    <i name="ewald"> 311802.57902046 </i>
    <i name="hartreedc">-387107.69043138 </i>
    <i name="XCdc">   2495.26814945 </i>
    <i name="pawpsdc">  73054.35252663 </i>
    <i name="pawaedc"> -79082.13527163 </i>
    <i name="eentropy">     -0.05401366 </i>
    <i name="bandstr">   -936.15668776 </i>
    <i name="atom">  77893.62785119 </i>
    <i name="e_fr_energy">   -199.53688246 </i>
    <i name="e_wo_entrp">   -199.48286880 </i>
    <i name="e_0_energy">   -199.51887790 </i>
   </energy>
  </scstep>
  <dipole>
   <v name="dipole">      0.00000000       0.00000000      -0.01516965 </v>
   <i name="Tr[quadrupol]">  -6080.24039014 </i>
   <i name="Echarged">      0.00000000 </i>
   <i name="Edipol_quadrupol">      0.00000000 </i>
   <i name="Eion">      0.00000000 </i>
  </dipole>
  <structure>
   <crystal>
    <varray name="basis" >
     <v>       7.26000023       0.00000000       0.00000000 </v>
     <v>       0.00000000       7.26000023       0.00000000 </v>
     <v>       0.00000000       0.00000000      25.89000000 </v>
    </varray>
    <i name="volume">   1364.59985005 </i>
    <varray name="rec_basis" >
     <v>       0.13774104       0.00000000       0.00000000 </v>
     <v>       0.00000000       0.13774104       0.00000000 </v>
     <v>       0.00000000       0.00000000       0.03862495 </v>
    </varray>
   </crystal>
   <varray name="positions" >
    <v>       0.00000000       0.00000000       0.00000000 </v>
    <v>       0.00000000       0.50000000       0.00000000 </v>
    <v>       0.50000000       0.00000000       0.00000000 </v>
    <v>       0.50000000       0.50000000       0.00000000 </v>
    <v>       0.25000000       0.25000000       0.00000000 </v>
    <v>       0.25000000       0.75000000       0.00000000 </v>
    <v>       0.75000000       0.25000000       0.00000000 </v>
    <v>       0.75000000       0.75000000       0.00000000 </v>
    <v>       0.00000000       0.25000000       0.07010429 </v>
    <v>       0.00000000       0.75000000       0.07010429 </v>
    <v>       0.50000000       0.25000000       0.07010429 </v>
    <v>       0.50000000       0.75000000       0.07010429 </v>
    <v>       0.25000000       0.00000000       0.07010429 </v>
    <v>       0.25000000       0.50000000       0.07010429 </v>
    <v>       0.75000000       0.00000000       0.07010429 </v>
    <v>       0.75000000       0.50000000       0.07010429 </v>
    <v>       0.00000000       0.00000000       0.14017829 </v>
    <v>       0.00000000       0.50000000       0.14017829 </v>
    <v>       0.50000000       0.00000000       0.14017829 </v>
    <v>       0.50000000       0.50000000       0.14017829 </v>
    <v>       0.25000000       0.25000000       0.14017829 </v>
    <v>       0.25000000       0.75000000       0.14017829 </v>
    <v>       0.75000000       0.25000000       0.14017829 </v>
    <v>       0.75000000       0.75000000       0.14017829 </v>
    <v>       0.00000000       0.25000000       0.21032791 </v>
    <v>       0.00000000       0.75000000       0.21032791 </v>
    <v>       0.50000000       0.25000000       0.21032791 </v>
    <v>       0.50000000       0.75000000       0.21032791 </v>
    <v>       0.25000000       0.00000000       0.21032791 </v>
    <v>       0.25000000       0.50000000       0.21032791 </v>
    <v>       0.75000000       0.00000000       0.21032791 </v>
    <v>       0.75000000       0.50000000       0.21032791 </v>
    <v>      -0.00000000       0.00000000       0.28046485 </v>
    <v>       0.00000000       0.50000000       0.28046485 </v>
    <v>       0.50000000       0.00000000       0.28046485 </v>
    <v>       0.50000000       0.50000000       0.28046485 </v>
    <v>       0.25000000       0.25000000       0.28046485 </v>
    <v>       0.25000000       0.75000000       0.28046485 </v>
    <v>       0.75000000       0.25000000       0.28046485 </v>
    <v>       0.75000000       0.75000000       0.28046485 </v>
    <v>       0.00000000       0.25000000       0.35109580 </v>
    <v>       0.00000000       0.75000000       0.35109580 </v>
    <v>       0.50000000       0.25000000       0.35109580 </v>
    <v>       0.50000000       0.75000000       0.35109580 </v>
    <v>       0.25000000      -0.00000000       0.35109580 </v>
    <v>       0.25000000       0.50000000       0.35109580 </v>
    <v>       0.75000000      -0.00000000       0.35109580 </v>
    <v>       0.75000000       0.50000000       0.35109580 </v>
    <v>       0.00000000      -0.00000000       0.41871824 </v>
    <v>      -0.00000000       0.50000000       0.41871824 </v>
    <v>       0.50000000      -0.00000000       0.41871824 </v>
    <v>       0.50000000       0.50000000       0.41871824 </v>
    <v>       0.25000000       0.25000000       0.41871824 </v>
    <v>       0.25000000       0.75000000       0.41871824 </v>
    <v>       0.75000000       0.25000000       0.41871824 </v>
    <v>       0.75000000       0.75000000       0.41871824 </v>
   </varray>
  </structure>
  <varray name="forces" >
   <v>       0.00000000       0.00000000       0.27985865 </v>
   <v>       0.00000000       0.00000000       0.27985865 </v>
   <v>      -0.00000000       0.00000000       0.27985865 </v>
   <v>      -0.00000000       0.00000000       0.27985865 </v>
   <v>      -0.00000000       0.00000000       0.27985865 </v>
   <v>       0.00000000      -0.00000000       0.27985865 </v>
   <v>       0.00000000      -0.00000000       0.27985865 </v>
   <v>      -0.00000000       0.00000000       0.27985865 </v>
   <v>      -0.00000000      -0.00000000      -0.08117730 </v>
   <v>      -0.00000000       0.00000000      -0.08117730 </v>
   <v>       0.00000000      -0.00000000      -0.08117730 </v>
   <v>       0.00000000       0.00000000      -0.08117730 </v>
   <v>      -0.00000000      -0.00000000      -0.08117730 </v>
   <v>      -0.00000000      -0.00000000      -0.08117730 </v>
   <v>      -0.00000000       0.00000000      -0.08117730 </v>
   <v>      -0.00000000       0.00000000      -0.08117730 </v>
   <v>      -0.00000000       0.00000000       0.00928165 </v>
   <v>      -0.00000000      -0.00000000       0.00928165 </v>
   <v>       0.00000000       0.00000000       0.00928165 </v>
   <v>       0.00000000      -0.00000000       0.00928165 </v>
   <v>       0.00000000      -0.00000000       0.00928165 </v>
   <v>       0.00000000       0.00000000       0.00928165 </v>
   <v>      -0.00000000      -0.00000000       0.00928165 </v>
   <v>      -0.00000000       0.00000000       0.00928165 </v>
   <v>       0.00000000       0.00000000       0.01017296 </v>
   <v>       0.00000000      -0.00000000       0.01017296 </v>
   <v>       0.00000000       0.00000000       0.01017296 </v>
   <v>       0.00000000      -0.00000000       0.01017296 </v>
   <v>      -0.00000000      -0.00000000       0.01017296 </v>
   <v>       0.00000000      -0.00000000       0.01017296 </v>
   <v>       0.00000000      -0.00000000       0.01017296 </v>
   <v>       0.00000000      -0.00000000       0.01017296 </v>
   <v>       0.00000000       0.00000000       0.03610002 </v>
   <v>       0.00000000      -0.00000000       0.03610002 </v>
   <v>       0.00000000      -0.00000000       0.03610002 </v>
   <v>      -0.00000000       0.00000000       0.03610002 </v>
   <v>       0.00000000      -0.00000000       0.03610002 </v>
   <v>       0.00000000      -0.00000000       0.03610002 </v>
   <v>       0.00000000      -0.00000000       0.03610002 </v>
   <v>       0.00000000      -0.00000000       0.03610002 </v>
   <v>       0.00000000      -0.00000000      -0.18517297 </v>
   <v>       0.00000000       0.00000000      -0.18517297 </v>
   <v>       0.00000000       0.00000000      -0.18517297 </v>
   <v>      -0.00000000      -0.00000000      -0.18517297 </v>
   <v>      -0.00000000       0.00000000      -0.18517297 </v>
   <v>       0.00000000      -0.00000000      -0.18517297 </v>
   <v>      -0.00000000       0.00000000      -0.18517297 </v>
   <v>      -0.00000000       0.00000000      -0.18517297 </v>
   <v>      -0.00000000      -0.00000000      -0.06906303 </v>
   <v>       0.00000000      -0.00000000      -0.06906303 </v>
   <v>      -0.00000000      -0.00000000      -0.06906303 </v>
   <v>       0.00000000      -0.00000000      -0.06906303 </v>
   <v>       0.00000000       0.00000000      -0.06906303 </v>
   <v>      -0.00000000      -0.00000000      -0.06906303 </v>
   <v>       0.00000000      -0.00000000      -0.06906303 </v>
   <v>       0.00000000       0.00000000      -0.06906303 </v>
  </varray>
  <varray name="stress" >
   <v>     -49.37961271       0.00000000       0.00000000 </v>
   <v>       0.00000000     -49.37961271       0.00000000 </v>
   <v>       0.00000000      -0.00000000     -26.41375017 </v>
  </varray>
  <energy>
   <i name="e_fr_energy">   -221.69533763 </i>
   <i name="e_wo_entrp">   -221.64132397 </i>
   <i name="e_0_energy">   -221.67733308 </i>
  </energy>
  <time name="totalsc">  307.18  310.03</time>
 </calculation>
 <calculation>
  <scstep>
   <time name="dav">   24.27   24.44</time>
   <time name="total">   25.26   25.44</time>
   <energy>
    <i name="alphaZ">   1680.67197424 </i>
    <i name="ewald"> 312626.72124263 </i>
    <i name="hartreedc">-387930.67008776 </i>
    <i name="XCdc">   2495.45121384 </i>
    <i name="pawpsdc">  73054.19698076 </i>
    <i name="pawaedc"> -79081.94273437 </i>
    <i name="eentropy">     -0.05279293 </i>
    <i name="bandstr">   -937.51066759 </i>
    <i name="atom">  77893.62785119 </i>
    <i name="e_fr_energy">   -199.50702000 </i>
    <i name="e_wo_entrp">   -199.45422707 </i>
    <i name="e_0_energy">   -199.48942236 </i>
   </energy>
  </scstep>
  <scstep>
   <time name="dav">   32.89   33.55</time>
   <time name="total">   33.91   34.58</time>
   <energy>
    <i name="e_fr_energy">   -199.53279951 </i>
    <i name="e_wo_entrp">   -199.48008891 </i>
    <i name="e_0_energy">   -199.51522931 </i>
   </energy>
  </scstep>
  <scstep>
   <time name="dav">   25.32   25.74</time>
   <time name="total">   26.31   26.73</time>
   <energy>
    <i name="e_fr_energy">   -199.53194515 </i>
    <i name="e_wo_entrp">   -199.47829781 </i>
    <i name="e_0_energy">   -199.51406270 </i>
   </energy>
  </scstep>
  <scstep>
   <time name="dav">   25.09   25.30</time>
   <time name="total">   26.10   26.31</time>
   <energy>
    <i name="e_fr_energy">   -199.53191995 </i>
    <i name="e_wo_entrp">   -199.47913512 </i>
    <i name="e_0_energy">   -199.51432500 </i>
   </energy>
  </scstep>
  <scstep>
   <time name="dav">   23.79   24.07</time>
   <time name="total">   24.78   25.07</time>
   <energy>
    <i name="e_fr_energy">   -199.53201616 </i>
    <i name="e_wo_entrp">   -199.47858719 </i>
    <i name="e_0_energy">   -199.51420650 </i>
   </energy>
  </scstep>
  <scstep>
   <time name="dav">   24.30   24.47</time>
   <time name="total">   25.30   25.47</time>
   <energy>
    <i name="e_fr_energy">   -199.53137068 </i>
    <i name="e_wo_entrp">   -199.47813408 </i>
    <i name="e_0_energy">   -199.51362515 </i>
   </energy>
  </scstep>
  <scstep>
   <time name="dav">   28.92   29.11</time>
   <time name="total">   29.92   30.13</time>
   <energy>
    <i name="e_fr_energy">   -199.53118713 </i>
    <i name="e_wo_entrp">   -199.47814784 </i>
    <i name="e_0_energy">   -199.51350737 </i>
   </energy>
  </scstep>
  <scstep>
   <time name="dav">   19.38   19.51</time>
   <time name="total">   19.49   19.63</time>
   <energy>
    <i name="alphaZ">   1680.67197424 </i>
    <i name="ewald"> 312626.72124263 </i>
    <i name="hartreedc">-387929.85831325 </i>
    <i name="XCdc">   2495.39295466 </i>
    <i name="pawpsdc">  73074.84056392 </i>
    <i name="pawaedc"> -79102.95793350 </i>
    <i name="eentropy">     -0.05311187 </i>
    <i name="bandstr">   -937.91638724 </i>
    <i name="atom">  77893.62785119 </i>
    <i name="e_fr_energy">   -199.53115922 </i>
    <i name="e_wo_entrp">   -199.47804735 </i>
    <i name="e_0_energy">   -199.51345527 </i>
   </energy>
  </scstep>
  <dipole>
   <v name="dipole">      0.00000000       0.00000000      -0.01236541 </v>
   <i name="Tr[quadrupol]">  -6080.25035684 </i>
   <i name="Echarged">      0.00000000 </i>
   <i name="Edipol_quadrupol">      0.00000000 </i>
   <i name="Eion">      0.00000000 </i>
  </dipole>
  <structure>
   <crystal>
    <varray name="basis" >
     <v>       7.26000023       0.00000000       0.00000000 </v>
     <v>       0.00000000       7.26000023       0.00000000 </v>
     <v>       0.00000000       0.00000000      25.89000000 </v>
    </varray>
    <i name="volume">   1364.59985005 </i>
    <varray name="rec_basis" >
     <v>       0.13774104       0.00000000       0.00000000 </v>
     <v>       0.00000000       0.13774104       0.00000000 </v>
     <v>       0.00000000       0.00000000       0.03862495 </v>
    </varray>
   </crystal>
   <varray name="positions" >
    <v>       0.00000000       0.00000000       0.00000000 </v>
    <v>       0.00000000       0.50000000       0.00000000 </v>
    <v>       0.50000000       0.00000000       0.00000000 </v>
    <v>       0.50000000       0.50000000       0.00000000 </v>
    <v>       0.25000000       0.25000000       0.00000000 </v>
    <v>       0.25000000       0.75000000       0.00000000 </v>
    <v>       0.75000000       0.25000000       0.00000000 </v>
    <v>       0.75000000       0.75000000       0.00000000 </v>
    <v>       0.00000000       0.25000000       0.07010429 </v>
    <v>       0.00000000       0.75000000       0.07010429 </v>
    <v>       0.50000000       0.25000000       0.07010429 </v>
    <v>       0.50000000       0.75000000       0.07010429 </v>
    <v>       0.25000000       0.00000000       0.07010429 </v>
    <v>       0.25000000       0.50000000       0.07010429 </v>
    <v>       0.75000000       0.00000000       0.07010429 </v>
    <v>       0.75000000       0.50000000       0.07010429 </v>
    <v>       0.00000000       0.00000000       0.14019931 </v>
    <v>       0.00000000       0.50000000       0.14019931 </v>
    <v>       0.50000000       0.00000000       0.14019931 </v>
    <v>       0.50000000       0.50000000       0.14019931 </v>
    <v>       0.25000000       0.25000000       0.14019931 </v>
    <v>       0.25000000       0.75000000       0.14019931 </v>
    <v>       0.75000000       0.25000000       0.14019931 </v>
    <v>       0.75000000       0.75000000       0.14019931 </v>
    <v>       0.00000000       0.25000000       0.21035948 </v>
    <v>       0.00000000       0.75000000       0.21035948 </v>
    <v>       0.50000000       0.25000000       0.21035948 </v>
    <v>       0.50000000       0.75000000       0.21035948 </v>
    <v>       0.25000000       0.00000000       0.21035948 </v>
    <v>       0.25000000       0.50000000       0.21035948 </v>
    <v>       0.75000000       0.00000000       0.21035948 </v>
    <v>       0.75000000       0.50000000       0.21035948 </v>
    <v>      -0.00000000       0.00000000       0.28057589 </v>
    <v>       0.00000000       0.50000000       0.28057589 </v>
    <v>       0.50000000       0.00000000       0.28057589 </v>
    <v>       0.50000000       0.50000000       0.28057589 </v>
    <v>       0.25000000       0.25000000       0.28057589 </v>
    <v>       0.25000000       0.75000000       0.28057589 </v>
    <v>       0.75000000       0.25000000       0.28057589 </v>
    <v>       0.75000000       0.75000000       0.28057589 </v>
    <v>       0.00000000       0.25000000       0.35067104 </v>
    <v>       0.00000000       0.75000000       0.35067104 </v>
    <v>       0.50000000       0.25000000       0.35067104 </v>
    <v>       0.50000000       0.75000000       0.35067104 </v>
    <v>       0.25000000      -0.00000000       0.35067104 </v>
    <v>       0.25000000       0.50000000       0.35067104 </v>
    <v>       0.75000000       0.00000000       0.35067104 </v>
    <v>       0.75000000       0.50000000       0.35067104 </v>
    <v>       0.00000000      -0.00000000       0.41818469 </v>
    <v>      -0.00000000       0.50000000       0.41818469 </v>
    <v>       0.50000000      -0.00000000       0.41818469 </v>
    <v>       0.50000000       0.50000000       0.41818469 </v>
    <v>       0.25000000       0.25000000       0.41818469 </v>
    <v>       0.25000000       0.75000000       0.41818469 </v>
    <v>       0.75000000       0.25000000       0.41818469 </v>
    <v>       0.75000000       0.75000000       0.41818469 </v>
   </varray>
  </structure>
  <varray name="forces" >
   <v>       0.00000000       0.00000000       0.27731987 </v>
   <v>       0.00000000       0.00000000       0.27731987 </v>
   <v>      -0.00000000      -0.00000000       0.27731987 </v>
   <v>      -0.00000000      -0.00000000       0.27731987 </v>
   <v>       0.00000000       0.00000000       0.27731987 </v>
   <v>      -0.00000000      -0.00000000       0.27731987 </v>
   <v>       0.00000000       0.00000000       0.27731987 </v>
   <v>      -0.00000000       0.00000000       0.27731987 </v>
   <v>       0.00000000      -0.00000000      -0.08196318 </v>
   <v>      -0.00000000       0.00000000      -0.08196318 </v>
   <v>       0.00000000      -0.00000000      -0.08196318 </v>
   <v>       0.00000000      -0.00000000      -0.08196318 </v>
   <v>       0.00000000       0.00000000      -0.08196318 </v>
   <v>      -0.00000000       0.00000000      -0.08196318 </v>
   <v>      -0.00000000       0.00000000      -0.08196318 </v>
   <v>      -0.00000000      -0.00000000      -0.08196318 </v>
   <v>       0.00000000       0.00000000       0.00541580 </v>
   <v>       0.00000000      -0.00000000       0.00541580 </v>
   <v>      -0.00000000      -0.00000000       0.00541580 </v>
   <v>      -0.00000000      -0.00000000       0.00541580 </v>
   <v>       0.00000000       0.00000000       0.00541580 </v>
   <v>      -0.00000000      -0.00000000       0.00541580 </v>
   <v>       0.00000000       0.00000000       0.00541580 </v>
   <v>       0.00000000      -0.00000000       0.00541580 </v>
   <v>      -0.00000000       0.00000000       0.01013590 </v>
   <v>      -0.00000000       0.00000000       0.01013590 </v>
   <v>      -0.00000000       0.00000000       0.01013590 </v>
   <v>      -0.00000000      -0.00000000       0.01013590 </v>
   <v>      -0.00000000      -0.00000000       0.01013590 </v>
   <v>       0.00000000      -0.00000000       0.01013590 </v>
   <v>       0.00000000       0.00000000       0.01013590 </v>
   <v>      -0.00000000       0.00000000       0.01013590 </v>
   <v>       0.00000000      -0.00000000      -0.02782635 </v>
   <v>      -0.00000000       0.00000000      -0.02782635 </v>
   <v>      -0.00000000      -0.00000000      -0.02782635 </v>
   <v>       0.00000000      -0.00000000      -0.02782635 </v>
   <v>       0.00000000       0.00000000      -0.02782635 </v>
   <v>       0.00000000       0.00000000      -0.02782635 </v>
   <v>      -0.00000000      -0.00000000      -0.02782635 </v>
   <v>       0.00000000       0.00000000      -0.02782635 </v>
   <v>      -0.00000000       0.00000000      -0.13787653 </v>
   <v>       0.00000000      -0.00000000      -0.13787653 </v>
   <v>      -0.00000000       0.00000000      -0.13787653 </v>
   <v>       0.00000000      -0.00000000      -0.13787653 </v>
   <v>       0.00000000      -0.00000000      -0.13787653 </v>
   <v>       0.00000000       0.00000000      -0.13787653 </v>
   <v>      -0.00000000      -0.00000000      -0.13787653 </v>
   <v>       0.00000000      -0.00000000      -0.13787653 </v>
   <v>       0.00000000       0.00000000      -0.04520551 </v>
   <v>      -0.00000000      -0.00000000      -0.04520551 </v>
   <v>      -0.00000000      -0.00000000      -0.04520551 </v>
   <v>       0.00000000       0.00000000      -0.04520551 </v>
   <v>      -0.00000000       0.00000000      -0.04520551 </v>
   <v>      -0.00000000      -0.00000000      -0.04520551 </v>
   <v>      -0.00000000      -0.00000000      -0.04520551 </v>
   <v>       0.00000000      -0.00000000      -0.04520551 </v>
  </varray>
  <varray name="stress" >
   <v>     -47.96057963       0.00000000       0.00000000 </v>
   <v>       0.00000000     -47.96057963      -0.00000000 </v>
   <v>       0.00000000       0.00000000     -24.70742490 </v>
  </varray>
  <energy>
   <i name="e_fr_energy">   -221.71541728 </i>
   <i name="e_wo_entrp">   -221.66230541 </i>
   <i name="e_0_energy">   -221.69771332 </i>
  </energy>
  <time name="totalsc">  262.83  265.62</time>
 </calculation>
 <calculation>
  <scstep>
   <time name="dav">   24.06   24.22</time>
   <time name="total">   25.05   25.21</time>
   <energy>
    <i name="alphaZ">   1680.67197424 </i>
    <i name="ewald"> 314280.51272235 </i>
    <i name="hartreedc">-389581.37827463 </i>
    <i name="XCdc">   2495.78167901 </i>
    <i name="pawpsdc">  73074.77590412 </i>
    <i name="pawaedc"> -79102.85413939 </i>
    <i name="eentropy">     -0.05013896 </i>
    <i name="bandstr">   -940.48223886 </i>
    <i name="atom">  77893.62785119 </i>
    <i name="e_fr_energy">   -199.39466094 </i>
    <i name="e_wo_entrp">   -199.34452198 </i>
    <i name="e_0_energy">   -199.37794796 </i>
   </energy>
  </scstep>
  <scstep>
   <time name="dav">   31.83   32.14</time>
   <time name="total">   32.84   33.16</time>
   <energy>
    <i name="e_fr_energy">   -199.50859805 </i>
    <i name="e_wo_entrp">   -199.45884845 </i>
    <i name="e_0_energy">   -199.49201485 </i>
   </energy>
  </scstep>
  <scstep>
   <time name="dav">   26.12   26.30</time>
   <time name="total">   27.11   27.30</time>
   <energy>
[...]
    <v>       0.00000000       0.50000000       0.27779421 </v>
    <v>       0.50000000       0.00000000       0.27779421 </v>
    <v>       0.50000000       0.50000000       0.27779421 </v>
    <v>       0.25000000       0.25000000       0.27779421 </v>
    <v>       0.25000000       0.75000000       0.27779421 </v>
    <v>       0.75000000       0.25000000       0.27779421 </v>
    <v>       0.75000000       0.75000000       0.27779421 </v>
    <v>      -0.00000000       0.25000000       0.34646943 </v>
    <v>       0.00000000       0.75000000       0.34646943 </v>
    <v>       0.50000000       0.25000000       0.34646943 </v>
    <v>       0.50000000       0.75000000       0.34646943 </v>
    <v>       0.25000000       0.00000000       0.34646943 </v>
    <v>       0.25000000       0.50000000       0.34646943 </v>
    <v>       0.75000000       0.00000000       0.34646943 </v>
    <v>       0.75000000       0.50000000       0.34646943 </v>
    <v>      -0.00000000      -0.00000000       0.41433778 </v>
    <v>      -0.00000000       0.50000000       0.41433778 </v>
    <v>       0.50000000      -0.00000000       0.41433778 </v>
    <v>       0.50000000       0.50000000       0.41433778 </v>
    <v>       0.25000000       0.25000000       0.41433778 </v>
    <v>       0.25000000       0.75000000       0.41433778 </v>
    <v>       0.75000000       0.25000000       0.41433778 </v>
    <v>       0.75000000       0.75000000       0.41433778 </v>
   </varray>
  </structure>
  <varray name="forces" >
   <v>      -0.00000000       0.00000000       0.28627301 </v>
   <v>       0.00000000      -0.00000000       0.28627301 </v>
   <v>      -0.00000000      -0.00000000       0.28627301 </v>
   <v>       0.00000000       0.00000000       0.28627301 </v>
   <v>      -0.00000000       0.00000000       0.28627301 </v>
   <v>      -0.00000000      -0.00000000       0.28627301 </v>
   <v>       0.00000000       0.00000000       0.28627301 </v>
   <v>       0.00000000      -0.00000000       0.28627301 </v>
   <v>      -0.00000000      -0.00000000      -0.04942876 </v>
   <v>       0.00000000      -0.00000000      -0.04942876 </v>
   <v>       0.00000000       0.00000000      -0.04942876 </v>
   <v>       0.00000000      -0.00000000      -0.04942876 </v>
   <v>       0.00000000       0.00000000      -0.04942876 </v>
   <v>      -0.00000000      -0.00000000      -0.04942876 </v>
   <v>      -0.00000000       0.00000000      -0.04942876 </v>
   <v>       0.00000000      -0.00000000      -0.04942876 </v>
   <v>       0.00000000       0.00000000      -0.11164955 </v>
   <v>       0.00000000      -0.00000000      -0.11164955 </v>
   <v>       0.00000000      -0.00000000      -0.11164955 </v>
   <v>       0.00000000      -0.00000000      -0.11164955 </v>
   <v>      -0.00000000      -0.00000000      -0.11164955 </v>
   <v>      -0.00000000      -0.00000000      -0.11164955 </v>
   <v>       0.00000000       0.00000000      -0.11164955 </v>
   <v>      -0.00000000      -0.00000000      -0.11164955 </v>
   <v>      -0.00000000      -0.00000000      -0.11758476 </v>
   <v>      -0.00000000       0.00000000      -0.11758476 </v>
   <v>       0.00000000      -0.00000000      -0.11758476 </v>
   <v>      -0.00000000       0.00000000      -0.11758476 </v>
   <v>      -0.00000000      -0.00000000      -0.11758476 </v>
   <v>      -0.00000000      -0.00000000      -0.11758476 </v>
   <v>      -0.00000000      -0.00000000      -0.11758476 </v>
   <v>      -0.00000000       0.00000000      -0.11758476 </v>
   <v>       0.00000000       0.00000000       0.03502368 </v>
   <v>       0.00000000       0.00000000       0.03502368 </v>
   <v>      -0.00000000       0.00000000       0.03502368 </v>
   <v>       0.00000000       0.00000000       0.03502368 </v>
   <v>      -0.00000000      -0.00000000       0.03502368 </v>
   <v>       0.00000000       0.00000000       0.03502368 </v>
   <v>       0.00000000       0.00000000       0.03502368 </v>
   <v>       0.00000000       0.00000000       0.03502368 </v>
   <v>      -0.00000000      -0.00000000       0.03698033 </v>
   <v>      -0.00000000       0.00000000       0.03698033 </v>
   <v>      -0.00000000      -0.00000000       0.03698033 </v>
   <v>      -0.00000000       0.00000000       0.03698033 </v>
   <v>       0.00000000       0.00000000       0.03698033 </v>
   <v>       0.00000000       0.00000000       0.03698033 </v>
   <v>      -0.00000000      -0.00000000       0.03698033 </v>
   <v>       0.00000000       0.00000000       0.03698033 </v>
   <v>      -0.00000000      -0.00000000      -0.07961395 </v>
   <v>       0.00000000       0.00000000      -0.07961395 </v>
   <v>       0.00000000      -0.00000000      -0.07961395 </v>
   <v>      -0.00000000      -0.00000000      -0.07961395 </v>
   <v>      -0.00000000       0.00000000      -0.07961395 </v>
   <v>      -0.00000000      -0.00000000      -0.07961395 </v>
   <v>       0.00000000       0.00000000      -0.07961395 </v>
   <v>       0.00000000      -0.00000000      -0.07961395 </v>
  </varray>
  <varray name="stress" >
   <v>     -43.63667805       0.00000000       0.00000000 </v>
   <v>       0.00000000     -43.63667805       0.00000000 </v>
   <v>       0.00000000       0.00000000     -18.98457967 </v>
  </varray>
  <energy>
   <i name="e_fr_energy">   -221.81347683 </i>
   <i name="e_wo_entrp">   -221.77059790 </i>
   <i name="e_0_energy">   -221.79918385 </i>
  </energy>
  <time name="totalsc">  305.59  308.78</time>
 </calculation>
 <calculation>
  <scstep>
   <time name="dav">   24.80   24.97</time>
   <time name="total">   25.83   26.00</time>
   <energy>
    <i name="alphaZ">   1680.67197424 </i>
    <i name="ewald"> 325471.01543864 </i>
    <i name="hartreedc">-400758.80241844 </i>
    <i name="XCdc">   2497.36246994 </i>
    <i name="pawpsdc">  73232.67204137 </i>
    <i name="pawaedc"> -79263.51701785 </i>
    <i name="eentropy">     -0.02854348 </i>
    <i name="bandstr">   -951.41838650 </i>
    <i name="atom">  77893.62785119 </i>
    <i name="e_fr_energy">   -198.41659090 </i>
    <i name="e_wo_entrp">   -198.38804741 </i>
    <i name="e_0_energy">   -198.40707640 </i>
   </energy>
  </scstep>
  <scstep>
   <time name="dav">   33.62   33.92</time>
   <time name="total">   34.62   34.93</time>
   <energy>
    <i name="e_fr_energy">   -199.39107859 </i>
    <i name="e_wo_entrp">   -199.36800072 </i>
    <i name="e_0_energy">   -199.38338597 </i>
   </energy>
  </scstep>
  <scstep>
   <time name="dav">   31.66   31.86</time>
   <time name="total">   32.65   32.85</time>
   <energy>
    <i name="e_fr_energy">   -199.31266439 </i>
    <i name="e_wo_entrp">   -199.28402879 </i>
    <i name="e_0_energy">   -199.30311919 </i>
   </energy>
  </scstep>
  <scstep>
   <time name="dav">   27.73   27.96</time>
   <time name="total">   28.72   28.96</time>
   <energy>
    <i name="e_fr_energy">   -199.27503506 </i>
    <i name="e_wo_entrp">   -199.24548560 </i>
    <i name="e_0_energy">   -199.26518524 </i>
   </energy>
  </scstep>
  <scstep>
   <time name="dav">   26.15   26.57</time>
   <time name="total">   27.12   27.54</time>
   <energy>
    <i name="e_fr_energy">   -199.27408975 </i>
    <i name="e_wo_entrp">   -199.23943835 </i>
    <i name="e_0_energy">   -199.26253929 </i>
   </energy>
  </scstep>
  <scstep>
   <time name="dav">   25.35   25.51</time>
   <time name="total">   26.31   26.48</time>
   <energy>
    <i name="e_fr_energy">   -199.25065828 </i>
    <i name="e_wo_entrp">   -199.21767854 </i>
    <i name="e_0_energy">   -199.23966503 </i>
   </energy>
  </scstep>
  <scstep>
   <time name="dav">   32.68   32.90</time>
   <time name="total">   33.67   33.90</time>
   <energy>
    <i name="e_fr_energy">   -199.24651241 </i>
    <i name="e_wo_entrp">   -199.21507748 </i>
    <i name="e_0_energy">   -199.23603410 </i>
   </energy>
  </scstep>
  <scstep>
   <time name="dav">   29.58   29.77</time>
   <time name="total">   30.56   30.76</time>
   <energy>
    <i name="e_fr_energy">   -199.24340290 </i>
    <i name="e_wo_entrp">   -199.21273904 </i>
    <i name="e_0_energy">   -199.23318161 </i>
   </energy>
  </scstep>
  <scstep>
   <time name="dav">   23.97   24.12</time>
   <time name="total">   24.96   25.13</time>
   <energy>
    <i name="e_fr_energy">   -199.24361311 </i>
    <i name="e_wo_entrp">   -199.21240173 </i>
    <i name="e_0_energy">   -199.23320932 </i>
   </energy>
  </scstep>
  <scstep>
   <time name="dav">   23.78   23.96</time>
   <time name="total">   23.90   24.08</time>
   <energy>
    <i name="alphaZ">   1680.67197424 </i>
    <i name="ewald"> 325471.01543864 </i>
    <i name="hartreedc">-400754.00572011 </i>
    <i name="XCdc">   2496.95919023 </i>
    <i name="pawpsdc">  73332.41013638 </i>
    <i name="pawaedc"> -79365.05878819 </i>
    <i name="eentropy">     -0.03130539 </i>
    <i name="bandstr">   -954.83247043 </i>
    <i name="atom">  77893.62785119 </i>
    <i name="e_fr_energy">   -199.24369345 </i>
    <i name="e_wo_entrp">   -199.21238806 </i>
    <i name="e_0_energy">   -199.23325832 </i>
   </energy>
  </scstep>
  <dipole>
   <v name="dipole">      0.00000000       0.00000000      -0.01366062 </v>
   <i name="Tr[quadrupol]">  -6080.40351304 </i>
   <i name="Echarged">      0.00000000 </i>
   <i name="Edipol_quadrupol">      0.00000000 </i>
   <i name="Eion">      0.00000000 </i>
  </dipole>
  <structure>
   <crystal>
    <varray name="basis" >
     <v>       7.26000023       0.00000000       0.00000000 </v>
     <v>       0.00000000       7.26000023       0.00000000 </v>
     <v>       0.00000000       0.00000000      25.89000000 </v>
    </varray>
    <i name="volume">   1364.59985005 </i>
    <varray name="rec_basis" >
     <v>       0.13774104       0.00000000       0.00000000 </v>
     <v>       0.00000000       0.13774104       0.00000000 </v>
     <v>       0.00000000       0.00000000       0.03862495 </v>
    </varray>
   </crystal>
   <varray name="positions" >
    <v>       0.00000000       0.00000000       0.00000000 </v>
    <v>       0.00000000       0.50000000       0.00000000 </v>
    <v>       0.50000000       0.00000000       0.00000000 </v>
    <v>       0.50000000       0.50000000       0.00000000 </v>
    <v>       0.25000000       0.25000000       0.00000000 </v>
    <v>       0.25000000       0.75000000       0.00000000 </v>
    <v>       0.75000000       0.25000000       0.00000000 </v>
    <v>       0.75000000       0.75000000       0.00000000 </v>
    <v>       0.00000000       0.25000000       0.07010429 </v>
    <v>       0.00000000       0.75000000       0.07010429 </v>
    <v>       0.50000000       0.25000000       0.07010429 </v>
    <v>       0.50000000       0.75000000       0.07010429 </v>
    <v>       0.25000000       0.00000000       0.07010429 </v>
    <v>       0.25000000       0.50000000       0.07010429 </v>
    <v>       0.75000000       0.00000000       0.07010429 </v>
    <v>       0.75000000       0.50000000       0.07010429 </v>
    <v>       0.00000000       0.00000000       0.14067383 </v>
    <v>      -0.00000000       0.50000000       0.14067383 </v>
    <v>       0.50000000       0.00000000       0.14067383 </v>
    <v>       0.50000000       0.50000000       0.14067383 </v>
    <v>       0.25000000       0.25000000       0.14067383 </v>
    <v>       0.25000000       0.75000000       0.14067383 </v>
    <v>       0.75000000       0.25000000       0.14067383 </v>
    <v>       0.75000000       0.75000000       0.14067383 </v>
    <v>       0.00000000       0.25000000       0.20836591 </v>
    <v>       0.00000000       0.75000000       0.20836591 </v>
    <v>       0.50000000       0.25000000       0.20836591 </v>
    <v>       0.50000000       0.75000000       0.20836591 </v>
    <v>       0.25000000      -0.00000000       0.20836591 </v>
    <v>       0.25000000       0.50000000       0.20836591 </v>
    <v>       0.75000000       0.00000000       0.20836591 </v>
    <v>       0.75000000       0.50000000       0.20836591 </v>
    <v>       0.00000000      -0.00000000       0.27584635 </v>
    <v>       0.00000000       0.50000000       0.27584635 </v>
    <v>       0.50000000       0.00000000       0.27584635 </v>
    <v>       0.50000000       0.50000000       0.27584635 </v>
    <v>       0.25000000       0.25000000       0.27584635 </v>
    <v>       0.25000000       0.75000000       0.27584635 </v>
    <v>       0.75000000       0.25000000       0.27584635 </v>
    <v>       0.75000000       0.75000000       0.27584635 </v>
    <v>      -0.00000000       0.25000000       0.34428079 </v>
    <v>       0.00000000       0.75000000       0.34428079 </v>
    <v>       0.50000000       0.25000000       0.34428079 </v>
    <v>       0.50000000       0.75000000       0.34428079 </v>
    <v>       0.25000000       0.00000000       0.34428079 </v>
    <v>       0.25000000       0.50000000       0.34428079 </v>
    <v>       0.75000000       0.00000000       0.34428079 </v>
    <v>       0.75000000       0.50000000       0.34428079 </v>
    <v>      -0.00000000      -0.00000000       0.41204360 </v>
    <v>      -0.00000000       0.50000000       0.41204360 </v>
    <v>       0.50000000      -0.00000000       0.41204360 </v>
    <v>       0.50000000       0.50000000       0.41204360 </v>
    <v>       0.25000000       0.25000000       0.41204360 </v>
    <v>       0.25000000       0.75000000       0.41204360 </v>
    <v>       0.75000000       0.25000000       0.41204360 </v>
    <v>       0.75000000       0.75000000       0.41204360 </v>
   </varray>
  </structure>
  <varray name="forces" >
   <v>       0.00000000       0.00000000       0.29496091 </v>
   <v>       0.00000000      -0.00000000       0.29496091 </v>
   <v>      -0.00000000      -0.00000000       0.29496091 </v>
   <v>      -0.00000000       0.00000000       0.29496091 </v>
   <v>       0.00000000       0.00000000       0.29496091 </v>
   <v>       0.00000000      -0.00000000       0.29496091 </v>
   <v>       0.00000000       0.00000000       0.29496091 </v>
   <v>      -0.00000000      -0.00000000       0.29496091 </v>
   <v>      -0.00000000      -0.00000000      -0.03330986 </v>
   <v>      -0.00000000       0.00000000      -0.03330986 </v>
   <v>      -0.00000000      -0.00000000      -0.03330986 </v>
   <v>      -0.00000000       0.00000000      -0.03330986 </v>
   <v>      -0.00000000      -0.00000000      -0.03330986 </v>
   <v>      -0.00000000       0.00000000      -0.03330986 </v>
   <v>       0.00000000       0.00000000      -0.03330986 </v>
   <v>      -0.00000000       0.00000000      -0.03330986 </v>
   <v>       0.00000000       0.00000000      -0.29036321 </v>
   <v>       0.00000000      -0.00000000      -0.29036321 </v>
   <v>      -0.00000000       0.00000000      -0.29036321 </v>
   <v>      -0.00000000      -0.00000000      -0.29036321 </v>
   <v>       0.00000000       0.00000000      -0.29036321 </v>
   <v>       0.00000000      -0.00000000      -0.29036321 </v>
   <v>      -0.00000000       0.00000000      -0.29036321 </v>
   <v>       0.00000000      -0.00000000      -0.29036321 </v>
   <v>       0.00000000      -0.00000000      -0.04222669 </v>
   <v>       0.00000000       0.00000000      -0.04222669 </v>
   <v>       0.00000000      -0.00000000      -0.04222669 </v>
   <v>       0.00000000       0.00000000      -0.04222669 </v>
   <v>       0.00000000       0.00000000      -0.04222669 </v>
   <v>       0.00000000       0.00000000      -0.04222669 </v>
   <v>      -0.00000000       0.00000000      -0.04222669 </v>
   <v>       0.00000000       0.00000000      -0.04222669 </v>
   <v>       0.00000000       0.00000000       0.09795214 </v>
   <v>      -0.00000000       0.00000000       0.09795214 </v>
   <v>       0.00000000       0.00000000       0.09795214 </v>
   <v>      -0.00000000       0.00000000       0.09795214 </v>
   <v>      -0.00000000      -0.00000000       0.09795214 </v>
   <v>      -0.00000000       0.00000000       0.09795214 </v>
   <v>      -0.00000000      -0.00000000       0.09795214 </v>
   <v>      -0.00000000       0.00000000       0.09795214 </v>
   <v>       0.00000000      -0.00000000       0.03163642 </v>
   <v>       0.00000000      -0.00000000       0.03163642 </v>
   <v>      -0.00000000       0.00000000       0.03163642 </v>
   <v>      -0.00000000      -0.00000000       0.03163642 </v>
   <v>      -0.00000000      -0.00000000       0.03163642 </v>
   <v>       0.00000000      -0.00000000       0.03163642 </v>
   <v>       0.00000000       0.00000000       0.03163642 </v>
   <v>      -0.00000000       0.00000000       0.03163642 </v>
   <v>       0.00000000      -0.00000000      -0.05864971 </v>
   <v>       0.00000000      -0.00000000      -0.05864971 </v>
   <v>       0.00000000      -0.00000000      -0.05864971 </v>
   <v>       0.00000000       0.00000000      -0.05864971 </v>
   <v>       0.00000000      -0.00000000      -0.05864971 </v>
   <v>       0.00000000       0.00000000      -0.05864971 </v>
   <v>      -0.00000000      -0.00000000      -0.05864971 </v>
   <v>      -0.00000000       0.00000000      -0.05864971 </v>
  </varray>
  <varray name="stress" >
   <v>     -40.22281792       0.00000000       0.00000000 </v>
   <v>       0.00000000     -40.22281792      -0.00000000 </v>
   <v>       0.00000000       0.00000000     -14.89317840 </v>
  </varray>
  <energy>
   <i name="e_fr_energy">   -221.81512552 </i>
   <i name="e_wo_entrp">   -221.78382013 </i>
   <i name="e_0_energy">   -221.80469039 </i>
  </energy>
  <time name="totalsc">  341.23  344.30</time>
 </calculation>
 <calculation>
  <scstep>
   <time name="dav">   24.10   24.27</time>
   <time name="total">   25.08   25.25</time>
   <energy>
    <i name="alphaZ">   1680.67197424 </i>
    <i name="ewald"> 323532.68633456 </i>
    <i name="hartreedc">-398818.02913943 </i>
    <i name="XCdc">   2496.62464135 </i>
    <i name="pawpsdc">  73332.10099865 </i>
    <i name="pawaedc"> -79364.57753121 </i>
    <i name="eentropy">     -0.03737184 </i>
    <i name="bandstr">   -952.24333980 </i>
    <i name="atom">  77893.62785119 </i>
    <i name="e_fr_energy">   -199.17558230 </i>
    <i name="e_wo_entrp">   -199.13821045 </i>
    <i name="e_0_energy">   -199.16312502 </i>
   </energy>
  </scstep>
  <scstep>
   <time name="dav">   29.71   29.95</time>
   <time name="total">   30.70   30.95</time>
   <energy>
    <i name="e_fr_energy">   -199.31909603 </i>
    <i name="e_wo_entrp">   -199.28513145 </i>
    <i name="e_0_energy">   -199.30777451 </i>
   </energy>
  </scstep>
  <scstep>
   <time name="dav">   24.36   24.52</time>
   <time name="total">   26.15   26.35</time>
   <energy>
    <i name="e_fr_energy">   -199.31535326 </i>
    <i name="e_wo_entrp">   -199.27874710 </i>
    <i name="e_0_energy">   -199.30315121 </i>
   </energy>
  </scstep>
  <scstep>
   <time name="dav">   25.47   25.73</time>
   <time name="total">   26.45   26.72</time>
   <energy>
    <i name="e_fr_energy">   -199.31409110 </i>
    <i name="e_wo_entrp">   -199.27770632 </i>
    <i name="e_0_energy">   -199.30196284 </i>
   </energy>
  </scstep>
  <scstep>
   <time name="dav">   32.58   32.81</time>
   <time name="total">   33.56   33.79</time>
   <energy>
    <i name="e_fr_energy">   -199.31323006 </i>
    <i name="e_wo_entrp">   -199.27923630 </i>
    <i name="e_0_energy">   -199.30189881 </i>
   </energy>
  </scstep>
  <scstep>
   <time name="dav">   37.04   37.27</time>
   <time name="total">   38.03   38.27</time>
   <energy>
    <i name="e_fr_energy">   -199.30892194 </i>
    <i name="e_wo_entrp">   -199.27185857 </i>
    <i name="e_0_energy">   -199.29656748 </i>
   </energy>
  </scstep>
  <scstep>
   <time name="dav">   36.02   36.27</time>
   <time name="total">   37.02   37.27</time>
   <energy>
    <i name="e_fr_energy">   -199.30740595 </i>
    <i name="e_wo_entrp">   -199.27147132 </i>
    <i name="e_0_energy">   -199.29542774 </i>
   </energy>
  </scstep>
  <scstep>
