unknown system                          
           1
     7.260000    0.000000    0.000000
     0.000000    7.260000    0.000000
     0.000000    0.000000   25.890000
   Cu
    56
Direct configuration=     1
   0.00000000  0.00000000  0.00000000
   0.00000000  0.50000000  0.00000000
   0.50000000  0.00000000  0.00000000
   0.50000000  0.50000000  0.00000000
   0.25000000  0.25000000  0.00000000
   0.25000000  0.75000000  0.00000000
   0.75000000  0.25000000  0.00000000
   0.75000000  0.75000000  0.00000000
   0.00000000  0.25000000  0.07010429
   0.00000000  0.75000000  0.07010429
   0.50000000  0.25000000  0.07010429
   0.50000000  0.75000000  0.07010429
   0.25000000  0.00000000  0.07010429
   0.25000000  0.50000000  0.07010429
   0.75000000  0.00000000  0.07010429
   0.75000000  0.50000000  0.07010429
   0.00000000  0.00000000  0.14020858
   0.00000000  0.50000000  0.14020858
   0.50000000  0.00000000  0.14020858
   0.50000000  0.50000000  0.14020858
   0.25000000  0.25000000  0.14020858
   0.25000000  0.75000000  0.14020858
   0.75000000  0.25000000  0.14020858
   0.75000000  0.75000000  0.14020858
   0.00000000  0.25000000  0.21031287
   0.00000000  0.75000000  0.21031287
   0.50000000  0.25000000  0.21031287
   0.50000000  0.75000000  0.21031287
   0.25000000  0.00000000  0.21031287
   0.25000000  0.50000000  0.21031287
   0.75000000  0.00000000  0.21031287
   0.75000000  0.50000000  0.21031287
   0.00000000  0.00000000  0.28041715
   0.00000000  0.50000000  0.28041715
   0.50000000  0.00000000  0.28041715
   0.50000000  0.50000000  0.28041715
   0.25000000  0.25000000  0.28041715
   0.25000000  0.75000000  0.28041715
   0.75000000  0.25000000  0.28041715
   0.75000000  0.75000000  0.28041715
   0.00000000  0.25000000  0.35052144
   0.00000000  0.75000000  0.35052144
   0.50000000  0.25000000  0.35052144
   0.50000000  0.75000000  0.35052144
   0.25000000  0.00000000  0.35052144
   0.25000000  0.50000000  0.35052144
   0.75000000  0.00000000  0.35052144
   0.75000000  0.50000000  0.35052144
   0.00000000  0.00000000  0.42062573
   0.00000000  0.50000000  0.42062573
   0.50000000  0.00000000  0.42062573
   0.50000000  0.50000000  0.42062573
   0.25000000  0.25000000  0.42062573
   0.25000000  0.75000000  0.42062573
   0.75000000  0.25000000  0.42062573
   0.75000000  0.75000000  0.42062573
Direct configuration=     2
   0.00000000  0.00000000  0.00000000
   0.00000000  0.50000000  0.00000000
   0.50000000  0.00000000  0.00000000
   0.50000000  0.50000000  0.00000000
   0.25000000  0.25000000  0.00000000
   0.25000000  0.75000000  0.00000000
   0.75000000  0.25000000  0.00000000
   0.75000000  0.75000000  0.00000000
   0.00000000  0.25000000  0.07010429
   0.00000000  0.75000000  0.07010429
   0.50000000  0.25000000  0.07010429
   0.50000000  0.75000000  0.07010429
   0.25000000  0.00000000  0.07010429
   0.25000000  0.50000000  0.07010429
   0.75000000  0.00000000  0.07010429
   0.75000000  0.50000000  0.07010429
   0.00000000  0.00000000  0.14020022
   0.00000000  0.50000000  0.14020022
   0.50000000  0.00000000  0.14020022
   0.50000000  0.50000000  0.14020022
   0.25000000  0.25000000  0.14020022
   0.25000000  0.75000000  0.14020022
   0.75000000  0.25000000  0.14020022
   0.75000000  0.75000000  0.14020022
   0.00000000  0.25000000  0.21031701
   0.00000000  0.75000000  0.21031701
   0.50000000  0.25000000  0.21031701
   0.50000000  0.75000000  0.21031701
   0.25000000  0.00000000  0.21031701
   0.25000000  0.50000000  0.21031701
   0.75000000  0.00000000  0.21031701
   0.75000000  0.50000000  0.21031701
  -0.00000000  0.00000000  0.28043031
   0.00000000  0.50000000  0.28043031
   0.50000000  0.00000000  0.28043031
   0.50000000  0.50000000  0.28043031
   0.25000000  0.25000000  0.28043031
   0.25000000  0.75000000  0.28043031
   0.75000000  0.25000000  0.28043031
   0.75000000  0.75000000  0.28043031
   0.00000000  0.25000000  0.35067981
   0.00000000  0.75000000  0.35067981
   0.50000000  0.25000000  0.35067981
   0.50000000  0.75000000  0.35067981
   0.25000000 -0.00000000  0.35067981
   0.25000000  0.50000000  0.35067981
   0.75000000 -0.00000000  0.35067981
   0.75000000  0.50000000  0.35067981
   0.00000000 -0.00000000  0.42009977
  -0.00000000  0.50000000  0.42009977
   0.50000000 -0.00000000  0.42009977
   0.50000000  0.50000000  0.42009977
   0.25000000  0.25000000  0.42009977
   0.25000000  0.75000000  0.42009977
   0.75000000  0.25000000  0.42009977
   0.75000000  0.75000000  0.42009977
Direct configuration=     3
   0.00000000  0.00000000  0.00000000
   0.00000000  0.50000000  0.00000000
   0.50000000  0.00000000  0.00000000
   0.50000000  0.50000000  0.00000000
   0.25000000  0.25000000  0.00000000
   0.25000000  0.75000000  0.00000000
   0.75000000  0.25000000  0.00000000
   0.75000000  0.75000000  0.00000000
   0.00000000  0.25000000  0.07010429
   0.00000000  0.75000000  0.07010429
   0.50000000  0.25000000  0.07010429
   0.50000000  0.75000000  0.07010429
   0.25000000  0.00000000  0.07010429
   0.25000000  0.50000000  0.07010429
   0.75000000  0.00000000  0.07010429
   0.75000000  0.50000000  0.07010429
   0.00000000  0.00000000  0.14017829
   0.00000000  0.50000000  0.14017829
   0.50000000  0.00000000  0.14017829
   0.50000000  0.50000000  0.14017829
   0.25000000  0.25000000  0.14017829
   0.25000000  0.75000000  0.14017829
   0.75000000  0.25000000  0.14017829
   0.75000000  0.75000000  0.14017829
   0.00000000  0.25000000  0.21032791
   0.00000000  0.75000000  0.21032791
   0.50000000  0.25000000  0.21032791
   0.50000000  0.75000000  0.21032791
   0.25000000  0.00000000  0.21032791
   0.25000000  0.50000000  0.21032791
   0.75000000  0.00000000  0.21032791
   0.75000000  0.50000000  0.21032791
  -0.00000000  0.00000000  0.28046485
   0.00000000  0.50000000  0.28046485
   0.50000000  0.00000000  0.28046485
   0.50000000  0.50000000  0.28046485
   0.25000000  0.25000000  0.28046485
   0.25000000  0.75000000  0.28046485
   0.75000000  0.25000000  0.28046485
   0.75000000  0.75000000  0.28046485
   0.00000000  0.25000000  0.35109580
   0.00000000  0.75000000  0.35109580
   0.50000000  0.25000000  0.35109580
   0.50000000  0.75000000  0.35109580
   0.25000000 -0.00000000  0.35109580
   0.25000000  0.50000000  0.35109580
   0.75000000 -0.00000000  0.35109580
   0.75000000  0.50000000  0.35109580
   0.00000000 -0.00000000  0.41871824
  -0.00000000  0.50000000  0.41871824
   0.50000000 -0.00000000  0.41871824
   0.50000000  0.50000000  0.41871824
   0.25000000  0.25000000  0.41871824
   0.25000000  0.75000000  0.41871824
   0.75000000  0.25000000  0.41871824
   0.75000000  0.75000000  0.41871824
Direct configuration=     4
   0.00000000  0.00000000  0.00000000
   0.00000000  0.50000000  0.00000000
   0.50000000  0.00000000  0.00000000
   0.50000000  0.50000000  0.00000000
   0.25000000  0.25000000  0.00000000
   0.25000000  0.75000000  0.00000000
   0.75000000  0.25000000  0.00000000
   0.75000000  0.75000000  0.00000000
   0.00000000  0.25000000  0.07010429
   0.00000000  0.75000000  0.07010429
   0.50000000  0.25000000  0.07010429
   0.50000000  0.75000000  0.07010429
   0.25000000  0.00000000  0.07010429
   0.25000000  0.50000000  0.07010429
   0.75000000  0.00000000  0.07010429
   0.75000000  0.50000000  0.07010429
   0.00000000  0.00000000  0.14019931
   0.00000000  0.50000000  0.14019931
   0.50000000  0.00000000  0.14019931
   0.50000000  0.50000000  0.14019931
   0.25000000  0.25000000  0.14019931
   0.25000000  0.75000000  0.14019931
   0.75000000  0.25000000  0.14019931
   0.75000000  0.75000000  0.14019931
   0.00000000  0.25000000  0.21035948
   0.00000000  0.75000000  0.21035948
   0.50000000  0.25000000  0.21035948
   0.50000000  0.75000000  0.21035948
   0.25000000  0.00000000  0.21035948
   0.25000000  0.50000000  0.21035948
   0.75000000  0.00000000  0.21035948
   0.75000000  0.50000000  0.21035948
  -0.00000000  0.00000000  0.28057589
   0.00000000  0.50000000  0.28057589
   0.50000000  0.00000000  0.28057589
   0.50000000  0.50000000  0.28057589
   0.25000000  0.25000000  0.28057589
   0.25000000  0.75000000  0.28057589
   0.75000000  0.25000000  0.28057589
   0.75000000  0.75000000  0.28057589
   0.00000000  0.25000000  0.35067104
   0.00000000  0.75000000  0.35067104
   0.50000000  0.25000000  0.35067104
   0.50000000  0.75000000  0.35067104
   0.25000000 -0.00000000  0.35067104
   0.25000000  0.50000000  0.35067104
   0.75000000  0.00000000  0.35067104
   0.75000000  0.50000000  0.35067104
   0.00000000 -0.00000000  0.41818469
  -0.00000000  0.50000000  0.41818469
   0.50000000 -0.00000000  0.41818469
   0.50000000  0.50000000  0.41818469
   0.25000000  0.25000000  0.41818469
   0.25000000  0.75000000  0.41818469
   0.75000000  0.25000000  0.41818469
   0.75000000  0.75000000  0.41818469
Direct configuration=     5
   0.00000000  0.00000000  0.00000000
   0.00000000  0.50000000  0.00000000
   0.50000000  0.00000000  0.00000000
   0.50000000  0.50000000  0.00000000
   0.25000000  0.25000000  0.00000000
   0.25000000  0.75000000  0.00000000
   0.75000000  0.25000000  0.00000000
   0.75000000  0.75000000  0.00000000
   0.00000000  0.25000000  0.07010429
   0.00000000  0.75000000  0.07010429
   0.50000000  0.25000000  0.07010429
   0.50000000  0.75000000  0.07010429
   0.25000000  0.00000000  0.07010429
   0.25000000  0.50000000  0.07010429
   0.75000000  0.00000000  0.07010429
   0.75000000  0.50000000  0.07010429
   0.00000000  0.00000000  0.14024138
  -0.00000000  0.50000000  0.14024138
   0.50000000  0.00000000  0.14024138
   0.50000000  0.50000000  0.14024138
   0.25000000  0.25000000  0.14024138
   0.25000000  0.75000000  0.14024138
   0.75000000  0.25000000  0.14024138
   0.75000000  0.75000000  0.14024138
   0.00000000  0.25000000  0.21042266
   0.00000000  0.75000000  0.21042266
   0.50000000  0.25000000  0.21042266
   0.50000000  0.75000000  0.21042266
   0.25000000 -0.00000000  0.21042266
   0.25000000  0.50000000  0.21042266
   0.75000000  0.00000000  0.21042266
   0.75000000  0.50000000  0.21042266
  -0.00000000  0.00000000  0.28079805
   0.00000000  0.50000000  0.28079805
   0.50000000  0.00000000  0.28079805
   0.50000000  0.50000000  0.28079805
   0.25000000  0.25000000  0.28079805
   0.25000000  0.75000000  0.28079805
   0.75000000  0.25000000  0.28079805
   0.75000000  0.75000000  0.28079805
   0.00000000  0.25000000  0.34982120
   0.00000000  0.75000000  0.34982120
   0.50000000  0.25000000  0.34982120
   0.50000000  0.75000000  0.34982120
   0.25000000 -0.00000000  0.34982120
   0.25000000  0.50000000  0.34982120
   0.75000000  0.00000000  0.34982120
   0.75000000  0.50000000  0.34982120
   0.00000000 -0.00000000  0.41711722
  -0.00000000  0.50000000  0.41711722
   0.50000000 -0.00000000  0.41711722
   0.50000000  0.50000000  0.41711722
   0.25000000  0.25000000  0.41711722
   0.25000000  0.75000000  0.41711722
   0.75000000  0.25000000  0.41711722
   0.75000000  0.75000000  0.41711722
Direct configuration=     6
   0.00000000  0.00000000  0.00000000
   0.00000000  0.50000000  0.00000000
   0.50000000  0.00000000  0.00000000
   0.50000000  0.50000000  0.00000000
   0.25000000  0.25000000  0.00000000
   0.25000000  0.75000000  0.00000000
   0.75000000  0.25000000  0.00000000
   0.75000000  0.75000000  0.00000000
   0.00000000  0.25000000  0.07010429
   0.00000000  0.75000000  0.07010429
   0.50000000  0.25000000  0.07010429
   0.50000000  0.75000000  0.07010429
   0.25000000  0.00000000  0.07010429
   0.25000000  0.50000000  0.07010429
   0.75000000  0.00000000  0.07010429
   0.75000000  0.50000000  0.07010429
   0.00000000  0.00000000  0.14027757
  -0.00000000  0.50000000  0.14027757
   0.50000000  0.00000000  0.14027757
   0.50000000  0.50000000  0.14027757
   0.25000000  0.25000000  0.14027757
   0.25000000  0.75000000  0.14027757
   0.75000000  0.25000000  0.14027757
   0.75000000  0.75000000  0.14027757
   0.00000000  0.25000000  0.21050829
   0.00000000  0.75000000  0.21050829
   0.50000000  0.25000000  0.21050829
   0.50000000  0.75000000  0.21050829
   0.25000000 -0.00000000  0.21050829
   0.25000000  0.50000000  0.21050829
   0.75000000  0.00000000  0.21050829
   0.75000000  0.50000000  0.21050829
  -0.00000000  0.00000000  0.28026834
   0.00000000  0.50000000  0.28026834
   0.50000000  0.00000000  0.28026834
   0.50000000  0.50000000  0.28026834
   0.25000000  0.25000000  0.28026834
   0.25000000  0.75000000  0.28026834
   0.75000000  0.25000000  0.28026834
   0.75000000  0.75000000  0.28026834
   0.00000000  0.25000000  0.34923328
   0.00000000  0.75000000  0.34923328
   0.50000000  0.25000000  0.34923328
   0.50000000  0.75000000  0.34923328
   0.25000000 -0.00000000  0.34923328
   0.25000000  0.50000000  0.34923328
   0.75000000  0.00000000  0.34923328
   0.75000000  0.50000000  0.34923328
   0.00000000 -0.00000000  0.41672894
  -0.00000000  0.50000000  0.41672894
   0.50000000 -0.00000000  0.41672894
   0.50000000  0.50000000  0.41672894
   0.25000000  0.25000000  0.41672894
   0.25000000  0.75000000  0.41672894
   0.75000000  0.25000000  0.41672894
   0.75000000  0.75000000  0.41672894
Direct configuration=     7
   0.00000000  0.00000000  0.00000000
   0.00000000  0.50000000  0.00000000
   0.50000000  0.00000000  0.00000000
   0.50000000  0.50000000  0.00000000
   0.25000000  0.25000000  0.00000000
   0.25000000  0.75000000  0.00000000
   0.75000000  0.25000000  0.00000000
   0.75000000  0.75000000  0.00000000
   0.00000000  0.25000000  0.07010429
   0.00000000  0.75000000  0.07010429
   0.50000000  0.25000000  0.07010429
   0.50000000  0.75000000  0.07010429
   0.25000000  0.00000000  0.07010429
   0.25000000  0.50000000  0.07010429
   0.75000000  0.00000000  0.07010429
   0.75000000  0.50000000  0.07010429
   0.00000000  0.00000000  0.14035789
  -0.00000000  0.50000000  0.14035789
   0.50000000  0.00000000  0.14035789
   0.50000000  0.50000000  0.14035789
   0.25000000  0.25000000  0.14035789
   0.25000000  0.75000000  0.14035789
   0.75000000  0.25000000  0.14035789
   0.75000000  0.75000000  0.14035789
   0.00000000  0.25000000  0.21069833
   0.00000000  0.75000000  0.21069833
   0.50000000  0.25000000  0.21069833
   0.50000000  0.75000000  0.21069833
   0.25000000 -0.00000000  0.21069833
   0.25000000  0.50000000  0.21069833
   0.75000000  0.00000000  0.21069833
   0.75000000  0.50000000  0.21069833
  -0.00000000 -0.00000000  0.27909278
   0.00000000  0.50000000  0.27909278
   0.50000000  0.00000000  0.27909278
   0.50000000  0.50000000  0.27909278
   0.25000000  0.25000000  0.27909278
   0.25000000  0.75000000  0.27909278
   0.75000000  0.25000000  0.27909278
   0.75000000  0.75000000  0.27909278
  -0.00000000  0.25000000  0.34792853
   0.00000000  0.75000000  0.34792853
   0.50000000  0.25000000  0.34792853
   0.50000000  0.75000000  0.34792853
   0.25000000  0.00000000  0.34792853
   0.25000000  0.50000000  0.34792853
   0.75000000  0.00000000  0.34792853
   0.75000000  0.50000000  0.34792853
   0.00000000 -0.00000000  0.41586723
  -0.00000000  0.50000000  0.41586723
   0.50000000 -0.00000000  0.41586723
   0.50000000  0.50000000  0.41586723
   0.25000000  0.25000000  0.41586723
   0.25000000  0.75000000  0.41586723
   0.75000000  0.25000000  0.41586723
   0.75000000  0.75000000  0.41586723
Direct configuration=     8
   0.00000000  0.00000000  0.00000000
   0.00000000  0.50000000  0.00000000
   0.50000000  0.00000000  0.00000000
   0.50000000  0.50000000  0.00000000
   0.25000000  0.25000000  0.00000000
   0.25000000  0.75000000  0.00000000
   0.75000000  0.25000000  0.00000000
   0.75000000  0.75000000  0.00000000
   0.00000000  0.25000000  0.07010429
   0.00000000  0.75000000  0.07010429
   0.50000000  0.25000000  0.07010429
   0.50000000  0.75000000  0.07010429
   0.25000000  0.00000000  0.07010429
   0.25000000  0.50000000  0.07010429
   0.75000000  0.00000000  0.07010429
   0.75000000  0.50000000  0.07010429
   0.00000000  0.00000000  0.14038949
  -0.00000000  0.50000000  0.14038949
   0.50000000  0.00000000  0.14038949
   0.50000000  0.50000000  0.14038949
   0.25000000  0.25000000  0.14038949
   0.25000000  0.75000000  0.14038949
   0.75000000  0.25000000  0.14038949
   0.75000000  0.75000000  0.14038949
   0.00000000  0.25000000  0.21046508
   0.00000000  0.75000000  0.21046508
   0.50000000  0.25000000  0.21046508
   0.50000000  0.75000000  0.21046508
   0.25000000 -0.00000000  0.21046508
   0.25000000  0.50000000  0.21046508
   0.75000000  0.00000000  0.21046508
   0.75000000  0.50000000  0.21046508
  -0.00000000 -0.00000000  0.27876814
   0.00000000  0.50000000  0.27876814
   0.50000000  0.00000000  0.27876814
   0.50000000  0.50000000  0.27876814
   0.25000000  0.25000000  0.27876814
   0.25000000  0.75000000  0.27876814
   0.75000000  0.25000000  0.27876814
   0.75000000  0.75000000  0.27876814
  -0.00000000  0.25000000  0.34756376
   0.00000000  0.75000000  0.34756376
   0.50000000  0.25000000  0.34756376
   0.50000000  0.75000000  0.34756376
   0.25000000  0.00000000  0.34756376
   0.25000000  0.50000000  0.34756376
   0.75000000  0.00000000  0.34756376
   0.75000000  0.50000000  0.34756376
   0.00000000 -0.00000000  0.41548487
  -0.00000000  0.50000000  0.41548487
   0.50000000 -0.00000000  0.41548487
   0.50000000  0.50000000  0.41548487
   0.25000000  0.25000000  0.41548487
   0.25000000  0.75000000  0.41548487
   0.75000000  0.25000000  0.41548487
   0.75000000  0.75000000  0.41548487
Direct configuration=     9
   0.00000000  0.00000000  0.00000000
   0.00000000  0.50000000  0.00000000
   0.50000000  0.00000000  0.00000000
   0.50000000  0.50000000  0.00000000
   0.25000000  0.25000000  0.00000000
   0.25000000  0.75000000  0.00000000
   0.75000000  0.25000000  0.00000000
   0.75000000  0.75000000  0.00000000
   0.00000000  0.25000000  0.07010429
   0.00000000  0.75000000  0.07010429
   0.50000000  0.25000000  0.07010429
   0.50000000  0.75000000  0.07010429
   0.25000000  0.00000000  0.07010429
   0.25000000  0.50000000  0.07010429
   0.75000000  0.00000000  0.07010429
   0.75000000  0.50000000  0.07010429
   0.00000000  0.00000000  0.14048427
  -0.00000000  0.50000000  0.14048427
   0.50000000  0.00000000  0.14048427
   0.50000000  0.50000000  0.14048427
   0.25000000  0.25000000  0.14048427
   0.25000000  0.75000000  0.14048427
   0.75000000  0.25000000  0.14048427
   0.75000000  0.75000000  0.14048427
   0.00000000  0.25000000  0.20976536
   0.00000000  0.75000000  0.20976536
   0.50000000  0.25000000  0.20976536
   0.50000000  0.75000000  0.20976536
   0.25000000 -0.00000000  0.20976536
   0.25000000  0.50000000  0.20976536
   0.75000000  0.00000000  0.20976536
   0.75000000  0.50000000  0.20976536
   0.00000000 -0.00000000  0.27779421
   0.00000000  0.50000000  0.27779421
   0.50000000  0.00000000  0.27779421
   0.50000000  0.50000000  0.27779421
   0.25000000  0.25000000  0.27779421
   0.25000000  0.75000000  0.27779421
   0.75000000  0.25000000  0.27779421
   0.75000000  0.75000000  0.27779421
  -0.00000000  0.25000000  0.34646943
   0.00000000  0.75000000  0.34646943
   0.50000000  0.25000000  0.34646943
   0.50000000  0.75000000  0.34646943
   0.25000000  0.00000000  0.34646943
   0.25000000  0.50000000  0.34646943
   0.75000000  0.00000000  0.34646943
   0.75000000  0.50000000  0.34646943
  -0.00000000 -0.00000000  0.41433778
  -0.00000000  0.50000000  0.41433778
   0.50000000 -0.00000000  0.41433778
   0.50000000  0.50000000  0.41433778
   0.25000000  0.25000000  0.41433778
   0.25000000  0.75000000  0.41433778
   0.75000000  0.25000000  0.41433778
   0.75000000  0.75000000  0.41433778
Direct configuration=    10
   0.00000000  0.00000000  0.00000000
   0.00000000  0.50000000  0.00000000
   0.50000000  0.00000000  0.00000000
   0.50000000  0.50000000  0.00000000
   0.25000000  0.25000000  0.00000000
   0.25000000  0.75000000  0.00000000
   0.75000000  0.25000000  0.00000000
   0.75000000  0.75000000  0.00000000
   0.00000000  0.25000000  0.07010429
   0.00000000  0.75000000  0.07010429
   0.50000000  0.25000000  0.07010429
   0.50000000  0.75000000  0.07010429
   0.25000000  0.00000000  0.07010429
   0.25000000  0.50000000  0.07010429
   0.75000000  0.00000000  0.07010429
   0.75000000  0.50000000  0.07010429
   0.00000000  0.00000000  0.14067383
  -0.00000000  0.50000000  0.14067383
   0.50000000  0.00000000  0.14067383
   0.50000000  0.50000000  0.14067383
   0.25000000  0.25000000  0.14067383
   0.25000000  0.75000000  0.14067383
   0.75000000  0.25000000  0.14067383
   0.75000000  0.75000000  0.14067383
   0.00000000  0.25000000  0.20836591
   0.00000000  0.75000000  0.20836591
   0.50000000  0.25000000  0.20836591
   0.50000000  0.75000000  0.20836591
   0.25000000 -0.00000000  0.20836591
   0.25000000  0.50000000  0.20836591
   0.75000000  0.00000000  0.20836591
   0.75000000  0.50000000  0.20836591
   0.00000000 -0.00000000  0.27584635
   0.00000000  0.50000000  0.27584635
   0.50000000  0.00000000  0.27584635
   0.50000000  0.50000000  0.27584635
   0.25000000  0.25000000  0.27584635
   0.25000000  0.75000000  0.27584635
   0.75000000  0.25000000  0.27584635
   0.75000000  0.75000000  0.27584635
  -0.00000000  0.25000000  0.34428079
   0.00000000  0.75000000  0.34428079
   0.50000000  0.25000000  0.34428079
   0.50000000  0.75000000  0.34428079
   0.25000000  0.00000000  0.34428079
   0.25000000  0.50000000  0.34428079
   0.75000000  0.00000000  0.34428079
   0.75000000  0.50000000  0.34428079
  -0.00000000 -0.00000000  0.41204360
  -0.00000000  0.50000000  0.41204360
   0.50000000 -0.00000000  0.41204360
   0.50000000  0.50000000  0.41204360
   0.25000000  0.25000000  0.41204360
   0.25000000  0.75000000  0.41204360
   0.75000000  0.25000000  0.41204360
   0.75000000  0.75000000  0.41204360
