 108 108   0   0
  0.2643616E+02  0.1089000E-08  0.1089000E-08  0.2407500E-08  0.5000000E-15
  1.000000000000000E-004
  CAR 
 unknown system                          
     11.76587701    -10.22811984  301      0.83037698      1.00000000
    -10.228  0.0000E+00  0.0000E+00  0.0000E+00  0.0000E+00
    -10.155  0.0000E+00  0.0000E+00  0.0000E+00  0.0000E+00
    -10.081  0.0000E+00  0.0000E+00  0.0000E+00  0.0000E+00
    -10.008  0.0000E+00  0.0000E+00  0.0000E+00  0.0000E+00
     -9.935  0.0000E+00  0.0000E+00  0.0000E+00  0.0000E+00
     -9.862 -0.4692E-31 -0.4692E-31 -0.3440E-32 -0.3440E-32
     -9.788 -0.1557E-28 -0.1557E-28 -0.1145E-29 -0.1145E-29
     -9.715 -0.3946E-26 -0.3946E-26 -0.2905E-27 -0.2905E-27
     -9.642 -0.7626E-24 -0.7626E-24 -0.5620E-25 -0.5620E-25
     -9.568 -0.1123E-21 -0.1123E-21 -0.8290E-23 -0.8290E-23
     -9.495 -0.1260E-19 -0.1260E-19 -0.9318E-21 -0.9318E-21
     -9.422 -0.1076E-17 -0.1076E-17 -0.7980E-19 -0.7980E-19
     -9.348 -0.6768E-16 -0.6768E-16 -0.5042E-17 -0.5042E-17
     -9.275 -0.3329E-14 -0.3329E-14 -0.2491E-15 -0.2491E-15
     -9.202 -0.1242E-12 -0.1242E-12 -0.9355E-14 -0.9355E-14
     -9.128 -0.3512E-11 -0.3512E-11 -0.2668E-12 -0.2668E-12
     -9.055 -0.7511E-10 -0.7511E-10 -0.5773E-11 -0.5773E-11
     -8.982 -0.1212E-08 -0.1212E-08 -0.9465E-10 -0.9465E-10
     -8.908 -0.1473E-07 -0.1473E-07 -0.1174E-08 -0.1174E-08
     -8.835 -0.1341E-06 -0.1341E-06 -0.1101E-07 -0.1101E-07
     -8.762 -0.9113E-06 -0.9113E-06 -0.7781E-07 -0.7781E-07
     -8.689 -0.4587E-05 -0.4587E-05 -0.4141E-06 -0.4141E-06
     -8.615 -0.1691E-04 -0.1691E-04 -0.1654E-05 -0.1654E-05
     -8.542 -0.4453E-04 -0.4453E-04 -0.4918E-05 -0.4918E-05
     -8.469 -0.7759E-04 -0.7759E-04 -0.1061E-04 -0.1061E-04
     -8.395 -0.5799E-04 -0.5799E-04 -0.1486E-04 -0.1486E-04
     -8.322  0.1387E-03  0.1387E-03 -0.4686E-05 -0.4686E-05
     -8.249  0.6664E-03  0.6664E-03  0.4417E-04  0.4417E-04
     -8.175  0.1584E-02  0.1584E-02  0.1603E-03  0.1603E-03
     -8.102  0.2689E-02  0.2689E-02  0.3574E-03  0.3574E-03
     -8.029  0.3503E-02  0.3503E-02  0.6143E-03  0.6143E-03
     -7.955  0.3545E-02  0.3545E-02  0.8742E-03  0.8742E-03
     -7.882  0.2757E-02  0.2757E-02  0.1076E-02  0.1076E-02
     -7.809  0.1771E-02  0.1771E-02  0.1206E-02  0.1206E-02
     -7.735  0.1593E-02  0.1593E-02  0.1323E-02  0.1323E-02
     -7.662  0.2714E-02  0.2714E-02  0.1522E-02  0.1522E-02
     -7.589  0.4504E-02  0.4504E-02  0.1852E-02  0.1852E-02
     -7.516  0.5589E-02  0.5589E-02  0.2262E-02  0.2262E-02
     -7.442  0.5021E-02  0.5021E-02  0.2630E-02  0.2630E-02
     -7.369  0.3312E-02  0.3312E-02  0.2873E-02  0.2873E-02
     -7.296  0.2113E-02  0.2113E-02  0.3028E-02  0.3028E-02
     -7.222  0.2605E-02  0.2605E-02  0.3219E-02  0.3219E-02
     -7.149  0.4417E-02  0.4417E-02  0.3543E-02  0.3543E-02
     -7.076  0.6191E-02  0.6191E-02  0.3996E-02  0.3996E-02
     -7.002  0.7014E-02  0.7014E-02  0.4511E-02  0.4511E-02
     -6.929  0.7221E-02  0.7221E-02  0.5040E-02  0.5040E-02
     -6.856  0.7631E-02  0.7631E-02  0.5600E-02  0.5600E-02
     -6.782  0.8254E-02  0.8254E-02  0.6205E-02  0.6205E-02
     -6.709  0.8346E-02  0.8346E-02  0.6817E-02  0.6817E-02
     -6.636  0.7580E-02  0.7580E-02  0.7372E-02  0.7372E-02
     -6.562  0.6470E-02  0.6470E-02  0.7847E-02  0.7847E-02
     -6.489  0.5696E-02  0.5696E-02  0.8264E-02  0.8264E-02
     -6.416  0.5283E-02  0.5283E-02  0.8651E-02  0.8651E-02
     -6.343  0.4692E-02  0.4692E-02  0.8995E-02  0.8995E-02
     -6.269  0.3857E-02  0.3857E-02  0.9278E-02  0.9278E-02
     -6.196  0.3701E-02  0.3701E-02  0.9549E-02  0.9549E-02
     -6.123  0.5327E-02  0.5327E-02  0.9940E-02  0.9940E-02
     -6.049  0.8793E-02  0.8793E-02  0.1058E-01  0.1058E-01
     -5.976  0.1251E-01  0.1251E-01  0.1150E-01  0.1150E-01
     -5.903  0.1425E-01  0.1425E-01  0.1255E-01  0.1255E-01
     -5.829  0.1330E-01  0.1330E-01  0.1352E-01  0.1352E-01
     -5.756  0.1132E-01  0.1132E-01  0.1435E-01  0.1435E-01
     -5.683  0.1038E-01  0.1038E-01  0.1511E-01  0.1511E-01
     -5.609  0.1063E-01  0.1063E-01  0.1589E-01  0.1589E-01
     -5.536  0.1059E-01  0.1059E-01  0.1667E-01  0.1667E-01
     -5.463  0.9464E-02  0.9464E-02  0.1736E-01  0.1736E-01
     -5.389  0.7941E-02  0.7941E-02  0.1794E-01  0.1794E-01
     -5.316  0.7227E-02  0.7227E-02  0.1847E-01  0.1847E-01
     -5.243  0.8283E-02  0.8283E-02  0.1908E-01  0.1908E-01
     -5.170  0.1138E-01  0.1138E-01  0.1992E-01  0.1992E-01
     -5.096  0.1550E-01  0.1550E-01  0.2105E-01  0.2105E-01
     -5.023  0.1880E-01  0.1880E-01  0.2243E-01  0.2243E-01
     -4.950  0.1983E-01  0.1983E-01  0.2388E-01  0.2388E-01
     -4.876  0.1823E-01  0.1823E-01  0.2522E-01  0.2522E-01
     -4.803  0.1508E-01  0.1508E-01  0.2633E-01  0.2633E-01
     -4.730  0.1284E-01  0.1284E-01  0.2727E-01  0.2727E-01
     -4.656  0.1302E-01  0.1302E-01  0.2822E-01  0.2822E-01
     -4.583  0.1409E-01  0.1409E-01  0.2926E-01  0.2926E-01
     -4.510  0.1420E-01  0.1420E-01  0.3030E-01  0.3030E-01
     -4.436  0.1497E-01  0.1497E-01  0.3139E-01  0.3139E-01
     -4.363  0.1998E-01  0.1998E-01  0.3286E-01  0.3286E-01
     -4.290  0.3008E-01  0.3008E-01  0.3506E-01  0.3506E-01
     -4.216  0.4122E-01  0.4122E-01  0.3808E-01  0.3808E-01
     -4.143  0.4690E-01  0.4690E-01  0.4152E-01  0.4152E-01
     -4.070  0.4427E-01  0.4427E-01  0.4477E-01  0.4477E-01
     -3.996  0.3868E-01  0.3868E-01  0.4760E-01  0.4760E-01
     -3.923  0.3921E-01  0.3921E-01  0.5048E-01  0.5048E-01
     -3.850  0.4932E-01  0.4932E-01  0.5410E-01  0.5410E-01
     -3.777  0.6414E-01  0.6414E-01  0.5880E-01  0.5880E-01
     -3.703  0.7529E-01  0.7529E-01  0.6432E-01  0.6432E-01
     -3.630  0.7817E-01  0.7817E-01  0.7005E-01  0.7005E-01
     -3.557  0.7722E-01  0.7722E-01  0.7571E-01  0.7571E-01
     -3.483  0.8160E-01  0.8160E-01  0.8169E-01  0.8169E-01
     -3.410  0.9462E-01  0.9462E-01  0.8863E-01  0.8863E-01
     -3.337  0.1136E+00  0.1136E+00  0.9696E-01  0.9696E-01
     -3.263  0.1368E+00  0.1368E+00  0.1070E+00  0.1070E+00
     -3.190  0.1595E+00  0.1595E+00  0.1187E+00  0.1187E+00
     -3.117  0.1680E+00  0.1680E+00  0.1310E+00  0.1310E+00
     -3.043  0.1537E+00  0.1537E+00  0.1423E+00  0.1423E+00
     -2.970  0.1270E+00  0.1270E+00  0.1516E+00  0.1516E+00
     -2.897  0.1084E+00  0.1084E+00  0.1595E+00  0.1595E+00
     -2.823  0.1072E+00  0.1072E+00  0.1674E+00  0.1674E+00
     -2.750  0.1188E+00  0.1188E+00  0.1761E+00  0.1761E+00
     -2.677  0.1350E+00  0.1350E+00  0.1860E+00  0.1860E+00
     -2.604  0.1495E+00  0.1495E+00  0.1970E+00  0.1970E+00
     -2.530  0.1596E+00  0.1596E+00  0.2087E+00  0.2087E+00
     -2.457  0.1654E+00  0.1654E+00  0.2208E+00  0.2208E+00
     -2.384  0.1698E+00  0.1698E+00  0.2332E+00  0.2332E+00
     -2.310  0.1784E+00  0.1784E+00  0.2463E+00  0.2463E+00
     -2.237  0.1955E+00  0.1955E+00  0.2606E+00  0.2606E+00
     -2.164  0.2183E+00  0.2183E+00  0.2766E+00  0.2766E+00
     -2.090  0.2380E+00  0.2380E+00  0.2941E+00  0.2941E+00
     -2.017  0.2464E+00  0.2464E+00  0.3122E+00  0.3122E+00
     -1.944  0.2417E+00  0.2417E+00  0.3299E+00  0.3299E+00
     -1.870  0.2276E+00  0.2276E+00  0.3466E+00  0.3466E+00
     -1.797  0.2103E+00  0.2103E+00  0.3620E+00  0.3620E+00
     -1.724  0.1957E+00  0.1957E+00  0.3763E+00  0.3763E+00
     -1.650  0.1908E+00  0.1908E+00  0.3903E+00  0.3903E+00
     -1.577  0.2018E+00  0.2018E+00  0.4051E+00  0.4051E+00
     -1.504  0.2281E+00  0.2281E+00  0.4218E+00  0.4218E+00
     -1.431  0.2577E+00  0.2577E+00  0.4407E+00  0.4407E+00
     -1.357  0.2723E+00  0.2723E+00  0.4607E+00  0.4607E+00
     -1.284  0.2642E+00  0.2642E+00  0.4801E+00  0.4801E+00
     -1.211  0.2465E+00  0.2465E+00  0.4981E+00  0.4981E+00
     -1.137  0.2401E+00  0.2401E+00  0.5157E+00  0.5157E+00
     -1.064  0.2526E+00  0.2526E+00  0.5343E+00  0.5343E+00
     -0.991  0.2756E+00  0.2756E+00  0.5545E+00  0.5545E+00
     -0.917  0.2999E+00  0.2999E+00  0.5764E+00  0.5764E+00
     -0.844  0.3236E+00  0.3236E+00  0.6002E+00  0.6002E+00
     -0.771  0.3432E+00  0.3432E+00  0.6253E+00  0.6253E+00
     -0.697  0.3439E+00  0.3439E+00  0.6505E+00  0.6505E+00
     -0.624  0.3089E+00  0.3089E+00  0.6732E+00  0.6732E+00
     -0.551  0.2391E+00  0.2391E+00  0.6907E+00  0.6907E+00
     -0.477  0.1574E+00  0.1574E+00  0.7023E+00  0.7023E+00
     -0.404  0.9109E-01  0.9109E-01  0.7089E+00  0.7089E+00
     -0.331  0.5255E-01  0.5255E-01  0.7128E+00  0.7128E+00
     -0.258  0.3567E-01  0.3567E-01  0.7154E+00  0.7154E+00
     -0.184  0.2846E-01  0.2846E-01  0.7175E+00  0.7175E+00
     -0.111  0.2490E-01  0.2490E-01  0.7193E+00  0.7193E+00
     -0.038  0.2371E-01  0.2371E-01  0.7210E+00  0.7210E+00
      0.036  0.2269E-01  0.2269E-01  0.7227E+00  0.7227E+00
      0.109  0.1976E-01  0.1976E-01  0.7242E+00  0.7242E+00
      0.182  0.1611E-01  0.1611E-01  0.7253E+00  0.7253E+00
      0.256  0.1452E-01  0.1452E-01  0.7264E+00  0.7264E+00
      0.329  0.1645E-01  0.1645E-01  0.7276E+00  0.7276E+00
      0.402  0.2135E-01  0.2135E-01  0.7292E+00  0.7292E+00
      0.476  0.2711E-01  0.2711E-01  0.7312E+00  0.7312E+00
      0.549  0.3158E-01  0.3158E-01  0.7335E+00  0.7335E+00
      0.622  0.3390E-01  0.3390E-01  0.7360E+00  0.7360E+00
      0.696  0.3395E-01  0.3395E-01  0.7385E+00  0.7385E+00
      0.769  0.3168E-01  0.3168E-01  0.7408E+00  0.7408E+00
      0.842  0.2762E-01  0.2762E-01  0.7428E+00  0.7428E+00
      0.916  0.2242E-01  0.2242E-01  0.7444E+00  0.7444E+00
      0.989  0.1628E-01  0.1628E-01  0.7456E+00  0.7456E+00
      1.062  0.9795E-02  0.9795E-02  0.7464E+00  0.7464E+00
      1.135  0.4811E-02  0.4811E-02  0.7467E+00  0.7467E+00
      1.209  0.3605E-02  0.3605E-02  0.7470E+00  0.7470E+00
      1.282  0.7090E-02  0.7090E-02  0.7475E+00  0.7475E+00
      1.355  0.1395E-01  0.1395E-01  0.7485E+00  0.7485E+00
      1.429  0.2185E-01  0.2185E-01  0.7501E+00  0.7501E+00
      1.502  0.2894E-01  0.2894E-01  0.7522E+00  0.7522E+00
      1.575  0.3377E-01  0.3377E-01  0.7547E+00  0.7547E+00
      1.649  0.3503E-01  0.3503E-01  0.7573E+00  0.7573E+00
      1.722  0.3226E-01  0.3226E-01  0.7596E+00  0.7596E+00
      1.795  0.2690E-01  0.2690E-01  0.7616E+00  0.7616E+00
      1.869  0.2155E-01  0.2155E-01  0.7632E+00  0.7632E+00
      1.942  0.1767E-01  0.1767E-01  0.7645E+00  0.7645E+00
      2.015  0.1471E-01  0.1471E-01  0.7656E+00  0.7656E+00
      2.089  0.1259E-01  0.1259E-01  0.7665E+00  0.7665E+00
      2.162  0.1413E-01  0.1413E-01  0.7675E+00  0.7675E+00
      2.235  0.2134E-01  0.2134E-01  0.7691E+00  0.7691E+00
      2.308  0.2968E-01  0.2968E-01  0.7713E+00  0.7713E+00
      2.382  0.3081E-01  0.3081E-01  0.7735E+00  0.7735E+00
      2.455  0.2227E-01  0.2227E-01  0.7752E+00  0.7752E+00
      2.528  0.1041E-01  0.1041E-01  0.7759E+00  0.7759E+00
      2.602  0.3022E-02  0.3022E-02  0.7762E+00  0.7762E+00
      2.675  0.2461E-02  0.2461E-02  0.7763E+00  0.7763E+00
      2.748  0.6518E-02  0.6518E-02  0.7768E+00  0.7768E+00
      2.822  0.1274E-01  0.1274E-01  0.7777E+00  0.7777E+00
      2.895  0.2008E-01  0.2008E-01  0.7792E+00  0.7792E+00
      2.968  0.2701E-01  0.2701E-01  0.7812E+00  0.7812E+00
      3.042  0.3088E-01  0.3088E-01  0.7835E+00  0.7835E+00
      3.115  0.3040E-01  0.3040E-01  0.7857E+00  0.7857E+00
      3.188  0.2706E-01  0.2706E-01  0.7877E+00  0.7877E+00
      3.262  0.2351E-01  0.2351E-01  0.7894E+00  0.7894E+00
      3.335  0.2174E-01  0.2174E-01  0.7910E+00  0.7910E+00
      3.408  0.2165E-01  0.2165E-01  0.7926E+00  0.7926E+00
      3.481  0.2092E-01  0.2092E-01  0.7941E+00  0.7941E+00
      3.555  0.1781E-01  0.1781E-01  0.7954E+00  0.7954E+00
      3.628  0.1330E-01  0.1330E-01  0.7964E+00  0.7964E+00
      3.701  0.9180E-02  0.9180E-02  0.7971E+00  0.7971E+00
      3.775  0.5738E-02  0.5738E-02  0.7975E+00  0.7975E+00
      3.848  0.3291E-02  0.3291E-02  0.7977E+00  0.7977E+00
      3.921  0.3889E-02  0.3889E-02  0.7980E+00  0.7980E+00
      3.995  0.9163E-02  0.9163E-02  0.7987E+00  0.7987E+00
      4.068  0.1717E-01  0.1717E-01  0.7999E+00  0.7999E+00
      4.141  0.2332E-01  0.2332E-01  0.8017E+00  0.8017E+00
      4.215  0.2464E-01  0.2464E-01  0.8035E+00  0.8035E+00
      4.288  0.2212E-01  0.2212E-01  0.8051E+00  0.8051E+00
      4.361  0.1934E-01  0.1934E-01  0.8065E+00  0.8065E+00
      4.435  0.1948E-01  0.1948E-01  0.8079E+00  0.8079E+00
      4.508  0.2310E-01  0.2310E-01  0.8096E+00  0.8096E+00
      4.581  0.2756E-01  0.2756E-01  0.8116E+00  0.8116E+00
      4.654  0.2947E-01  0.2947E-01  0.8138E+00  0.8138E+00
      4.728  0.2832E-01  0.2832E-01  0.8159E+00  0.8159E+00
      4.801  0.2630E-01  0.2630E-01  0.8178E+00  0.8178E+00
      4.874  0.2447E-01  0.2447E-01  0.8196E+00  0.8196E+00
      4.948  0.2213E-01  0.2213E-01  0.8212E+00  0.8212E+00
      5.021  0.1939E-01  0.1939E-01  0.8226E+00  0.8226E+00
      5.094  0.1728E-01  0.1728E-01  0.8239E+00  0.8239E+00
      5.168  0.1681E-01  0.1681E-01  0.8251E+00  0.8251E+00
      5.241  0.1887E-01  0.1887E-01  0.8265E+00  0.8265E+00
      5.314  0.2314E-01  0.2314E-01  0.8282E+00  0.8282E+00
      5.388  0.2666E-01  0.2666E-01  0.8302E+00  0.8302E+00
      5.461  0.2613E-01  0.2613E-01  0.8321E+00  0.8321E+00
      5.534  0.2219E-01  0.2219E-01  0.8337E+00  0.8337E+00
      5.608  0.1895E-01  0.1895E-01  0.8351E+00  0.8351E+00
      5.681  0.1856E-01  0.1856E-01  0.8365E+00  0.8365E+00
      5.754  0.1942E-01  0.1942E-01  0.8379E+00  0.8379E+00
      5.827  0.2019E-01  0.2019E-01  0.8394E+00  0.8394E+00
      5.901  0.2211E-01  0.2211E-01  0.8410E+00  0.8410E+00
      5.974  0.2564E-01  0.2564E-01  0.8429E+00  0.8429E+00
      6.047  0.2798E-01  0.2798E-01  0.8449E+00  0.8449E+00
      6.121  0.2661E-01  0.2660E-01  0.8469E+00  0.8469E+00
      6.194  0.2333E-01  0.2333E-01  0.8486E+00  0.8486E+00
      6.267  0.2228E-01  0.2227E-01  0.8502E+00  0.8502E+00
      6.341  0.2527E-01  0.2527E-01  0.8521E+00  0.8521E+00
      6.414  0.3099E-01  0.3099E-01  0.8543E+00  0.8543E+00
      6.487  0.3698E-01  0.3698E-01  0.8571E+00  0.8571E+00
      6.561  0.4070E-01  0.4070E-01  0.8600E+00  0.8600E+00
      6.634  0.4026E-01  0.4026E-01  0.8630E+00  0.8630E+00
      6.707  0.3604E-01  0.3604E-01  0.8656E+00  0.8656E+00
      6.781  0.3026E-01  0.3026E-01  0.8678E+00  0.8679E+00
      6.854  0.2446E-01  0.2446E-01  0.8696E+00  0.8696E+00
      6.927  0.1958E-01  0.1958E-01  0.8711E+00  0.8711E+00
      7.001  0.1748E-01  0.1748E-01  0.8724E+00  0.8724E+00
      7.074  0.1972E-01  0.1972E-01  0.8738E+00  0.8738E+00
      7.147  0.2532E-01  0.2532E-01  0.8757E+00  0.8757E+00
      7.220  0.3081E-01  0.3081E-01  0.8779E+00  0.8779E+00
      7.294  0.3279E-01  0.3279E-01  0.8803E+00  0.8803E+00
      7.367  0.3056E-01  0.3056E-01  0.8826E+00  0.8826E+00
      7.440  0.2669E-01  0.2669E-01  0.8845E+00  0.8845E+00
      7.514  0.2415E-01  0.2415E-01  0.8863E+00  0.8863E+00
      7.587  0.2343E-01  0.2343E-01  0.8880E+00  0.8880E+00
      7.660  0.2358E-01  0.2358E-01  0.8897E+00  0.8897E+00
      7.734  0.2458E-01  0.2458E-01  0.8915E+00  0.8915E+00
      7.807  0.2680E-01  0.2680E-01  0.8935E+00  0.8935E+00
      7.880  0.2991E-01  0.2991E-01  0.8957E+00  0.8957E+00
      7.954  0.3366E-01  0.3366E-01  0.8982E+00  0.8982E+00
      8.027  0.3724E-01  0.3724E-01  0.9009E+00  0.9009E+00
      8.100  0.3802E-01  0.3802E-01  0.9037E+00  0.9037E+00
      8.174  0.3427E-01  0.3427E-01  0.9062E+00  0.9062E+00
      8.247  0.2876E-01  0.2876E-01  0.9083E+00  0.9083E+00
      8.320  0.2638E-01  0.2638E-01  0.9102E+00  0.9102E+00
      8.393  0.2844E-01  0.2844E-01  0.9123E+00  0.9123E+00
      8.467  0.3218E-01  0.3218E-01  0.9147E+00  0.9147E+00
      8.540  0.3489E-01  0.3489E-01  0.9172E+00  0.9172E+00
      8.613  0.3584E-01  0.3584E-01  0.9199E+00  0.9199E+00
      8.687  0.3531E-01  0.3531E-01  0.9225E+00  0.9225E+00
      8.760  0.3482E-01  0.3482E-01  0.9250E+00  0.9250E+00
      8.833  0.3688E-01  0.3688E-01  0.9277E+00  0.9277E+00
      8.907  0.4144E-01  0.4145E-01  0.9308E+00  0.9308E+00
      8.980  0.4416E-01  0.4416E-01  0.9340E+00  0.9340E+00
      9.053  0.4145E-01  0.4145E-01  0.9370E+00  0.9370E+00
      9.127  0.3599E-01  0.3597E-01  0.9397E+00  0.9397E+00
      9.200  0.3365E-01  0.3359E-01  0.9421E+00  0.9421E+00
      9.273  0.3596E-01  0.3587E-01  0.9448E+00  0.9448E+00
      9.347  0.3910E-01  0.3909E-01  0.9476E+00  0.9476E+00
      9.420  0.3949E-01  0.3989E-01  0.9505E+00  0.9505E+00
      9.493  0.3652E-01  0.3766E-01  0.9532E+00  0.9533E+00
      9.566  0.3107E-01  0.3265E-01  0.9555E+00  0.9557E+00
      9.640  0.2458E-01  0.2551E-01  0.9573E+00  0.9576E+00
      9.713  0.1828E-01  0.1776E-01  0.9586E+00  0.9589E+00
      9.786  0.1220E-01  0.1069E-01  0.9595E+00  0.9597E+00
      9.860  0.6342E-02  0.4988E-02  0.9600E+00  0.9600E+00
      9.933  0.1843E-02  0.1232E-02  0.9601E+00  0.9601E+00
     10.006 -0.3448E-03 -0.4134E-03  0.9601E+00  0.9601E+00
     10.080 -0.7135E-03 -0.6256E-03  0.9600E+00  0.9600E+00
     10.153 -0.4183E-03 -0.3551E-03  0.9600E+00  0.9600E+00
     10.226 -0.1519E-03 -0.1288E-03  0.9600E+00  0.9600E+00
     10.300 -0.3849E-04 -0.3293E-04  0.9600E+00  0.9600E+00
     10.373 -0.7095E-05 -0.6150E-05  0.9600E+00  0.9600E+00
     10.446 -0.9704E-06 -0.8537E-06  0.9600E+00  0.9600E+00
     10.520 -0.9955E-07 -0.8889E-07  0.9600E+00  0.9600E+00
     10.593 -0.7709E-08 -0.6981E-08  0.9600E+00  0.9600E+00
     10.666 -0.4524E-09 -0.4150E-09  0.9600E+00  0.9600E+00
     10.739 -0.2017E-10 -0.1872E-10  0.9600E+00  0.9600E+00
     10.813 -0.6842E-12 -0.6419E-12  0.9600E+00  0.9600E+00
     10.886 -0.1768E-13 -0.1674E-13  0.9600E+00  0.9600E+00
     10.959 -0.3500E-15 -0.3336E-15  0.9600E+00  0.9600E+00
     11.033 -0.5889E-17 -0.5889E-17  0.9600E+00  0.9600E+00
     11.106  0.0000E+00  0.0000E+00  0.9600E+00  0.9600E+00
     11.179  0.0000E+00  0.0000E+00  0.9600E+00  0.9600E+00
     11.253  0.0000E+00  0.0000E+00  0.9600E+00  0.9600E+00
     11.326  0.0000E+00  0.0000E+00  0.9600E+00  0.9600E+00
     11.399  0.0000E+00  0.0000E+00  0.9600E+00  0.9600E+00
     11.473  0.0000E+00  0.0000E+00  0.9600E+00  0.9600E+00
     11.546  0.0000E+00  0.0000E+00  0.9600E+00  0.9600E+00
     11.619  0.0000E+00  0.0000E+00  0.9600E+00  0.9600E+00
     11.693  0.0000E+00  0.0000E+00  0.9600E+00  0.9600E+00
     11.766  0.0000E+00  0.0000E+00  0.9600E+00  0.9600E+00
