<?xml version="1.0" encoding="ISO-8859-1"?>
<modeling>
 <generator>
  <i name="program" type="string">vasp </i>
  <i name="version" type="string">6.3.2  </i>
  <i name="subversion" type="string">27Jun22 (build Aug 17 2022 15:43:34) complex                          parallel </i>
  <i name="platform" type="string">tv2STDVTST </i>
  <i name="date" type="string">2025 01 21 </i>
  <i name="time" type="string">20:05:47 </i>
 </generator>
 <incar>
  <i type="int" name="ISTART">     0</i>
  <i type="string" name="PREC">Normal</i>
  <i type="int" name="ISPIN">     2</i>
  <i type="int" name="ICHARG">     2</i>
  <i type="int" name="IBRION">     2</i>
  <i name="EDIFF">      0.00020000</i>
  <i name="EDIFFG">     -0.03000000</i>
  <i type="int" name="NSW">   800</i>
  <i type="int" name="ISIF">     2</i>
  <i type="int" name="ISYM">     1</i>
  <i name="ENCUT">    400.00000000</i>
  <i name="POTIM">      0.50000000</i>
  <i type="logical" name="LREAL"> F  </i>
  <i type="int" name="ISMEAR">     1</i>
  <i name="SIGMA">      0.20000000</i>
  <i type="logical" name="LWAVE"> F  </i>
  <i type="logical" name="LCHARG"> F  </i>
  <i type="string" name="GGA">PE</i>
  <i type="int" name="IDIPOL">     3</i>
  <i type="int" name="IVDW">    11</i>
 </incar>
 <primitive_cell>
  <structure name="primitive_cell" >
   <crystal>
    <varray name="basis" >
     <v>       1.81500006      -1.81500006       0.00000000 </v>
     <v>       1.81500006       1.81500006       0.00000000 </v>
     <v>       0.00000000       0.00000000      24.07500000 </v>
    </varray>
    <i name="volume">    158.61694371 </i>
    <varray name="rec_basis" >
     <v>       0.27548209      -0.27548209       0.00000000 </v>
     <v>       0.27548209       0.27548209       0.00000000 </v>
     <v>       0.00000000       0.00000000       0.04153686 </v>
    </varray>
   </crystal>
   <varray name="positions" >
    <v>       0.00000000       0.00000000       0.00000000 </v>
    <v>       0.50000000       0.50000000       0.07538941 </v>
    <v>       0.00000000       0.00000000       0.15077882 </v>
    <v>       0.50000000       0.50000000       0.22616823 </v>
    <v>       0.00000000       0.00000000       0.30155764 </v>
    <v>       0.50000000       0.50000000       0.37694705 </v>
   </varray>
  </structure>
  <varray name="primitive_index" >
   <v type="int" >        1 </v>
   <v type="int" >       19 </v>
   <v type="int" >       37 </v>
   <v type="int" >       55 </v>
   <v type="int" >       73 </v>
   <v type="int" >       91 </v>
  </varray>
 </primitive_cell>
 <kpoints>
  <generation param="Monkhorst-Pack">
   <v type="int" name="divisions">       3        3        1 </v>
   <v name="usershift">      0.00000000       0.00000000       0.00000000 </v>
   <v name="genvec1">      0.33333333       0.00000000       0.00000000 </v>
   <v name="genvec2">      0.00000000       0.33333333       0.00000000 </v>
   <v name="genvec3">      0.00000000       0.00000000       1.00000000 </v>
   <v name="shift">      0.00000000       0.00000000       0.00000000 </v>
  </generation>
  <varray name="kpointlist" >
   <v>       0.00000000       0.00000000       0.00000000 </v>
   <v>       0.33333333       0.00000000       0.00000000 </v>
   <v>       0.33333333       0.33333333       0.00000000 </v>
  </varray>
  <varray name="weights" >
   <v>       0.11111111 </v>
   <v>       0.44444444 </v>
   <v>       0.44444444 </v>
  </varray>
 </kpoints>
 <parameters>
  <separator name="general" >
   <i type="string" name="SYSTEM">unknown system</i>
   <i type="logical" name="LCOMPAT"> F  </i>
  </separator>
  <separator name="electronic" >
   <i type="string" name="PREC">normal</i>
   <i name="ENMAX">    400.00000000</i>
   <i name="ENAUG">    586.98000000</i>
   <i name="EDIFF">      0.00020000</i>
   <i type="int" name="IALGO">    38</i>
   <i type="int" name="IWAVPR">    11</i>
   <i type="int" name="NBANDS">   768</i>
   <i type="int" name="NBANDSLOW">    -1</i>
   <i type="int" name="NBANDSHIGH">    -1</i>
   <i name="NELECT">   1188.00000000</i>
   <i type="int" name="TURBO">     0</i>
   <i type="int" name="IRESTART">     0</i>
   <i type="int" name="NREBOOT">     0</i>
   <i type="int" name="NMIN">     0</i>
   <i name="EREF">      0.00000000</i>
   <separator name="electronic smearing" >
    <i type="int" name="ISMEAR">     1</i>
    <i name="SIGMA">      0.20000000</i>
    <i name="KSPACING">      0.50000000</i>
    <i type="logical" name="KGAMMA"> T  </i>
    <i type="logical" name="KBLOWUP"> T  </i>
   </separator>
   <separator name="electronic projectors" >
    <i type="logical" name="LREAL"> F  </i>
    <v name="ROPT">      0.00000000</v>
    <i type="int" name="LMAXPAW">  -100</i>
    <i type="int" name="LMAXMIX">     2</i>
    <i type="logical" name="NLSPLINE"> F  </i>
   </separator>
   <separator name="electronic startup" >
    <i type="int" name="ISTART">     0</i>
    <i type="int" name="ICHARG">     2</i>
    <i type="int" name="INIWAV">     1</i>
   </separator>
   <separator name="electronic spin" >
    <i type="int" name="ISPIN">     2</i>
    <i type="logical" name="LNONCOLLINEAR"> F  </i>
    <v name="MAGMOM">      1.00000000      1.00000000      1.00000000      1.00000000      1.00000000      1.00000000      1.00000000      1.00000000      1.00000000      1.00000000      1.00000000      1.00000000      1.00000000      1.00000000      1.00000000      1.00000000      1.00000000      1.00000000      1.00000000      1.00000000
      1.00000000      1.00000000      1.00000000      1.00000000      1.00000000      1.00000000      1.00000000      1.00000000      1.00000000      1.00000000      1.00000000      1.00000000      1.00000000      1.00000000      1.00000000      1.00000000      1.00000000      1.00000000      1.00000000      1.00000000
      1.00000000      1.00000000      1.00000000      1.00000000      1.00000000      1.00000000      1.00000000      1.00000000      1.00000000      1.00000000      1.00000000      1.00000000      1.00000000      1.00000000      1.00000000      1.00000000      1.00000000      1.00000000      1.00000000      1.00000000
      1.00000000      1.00000000      1.00000000      1.00000000      1.00000000      1.00000000      1.00000000      1.00000000      1.00000000      1.00000000      1.00000000      1.00000000      1.00000000      1.00000000      1.00000000      1.00000000      1.00000000      1.00000000      1.00000000      1.00000000
      1.00000000      1.00000000      1.00000000      1.00000000      1.00000000      1.00000000      1.00000000      1.00000000      1.00000000      1.00000000      1.00000000      1.00000000      1.00000000      1.00000000      1.00000000      1.00000000      1.00000000      1.00000000      1.00000000      1.00000000
      1.00000000      1.00000000      1.00000000      1.00000000      1.00000000      1.00000000      1.00000000      1.00000000</v>
    <i name="NUPDOWN">     -1.00000000</i>
    <i type="logical" name="LSORBIT"> F  </i>
    <v name="SAXIS">      0.00000000      0.00000000      1.00000000</v>
    <i type="logical" name="LSPIRAL"> F  </i>
    <v name="QSPIRAL">      0.00000000      0.00000000      0.00000000</v>
    <i type="logical" name="LZEROZ"> F  </i>
   </separator>
   <separator name="electronic exchange-correlation" >
    <i type="logical" name="LASPH"> F  </i>
    <i type="logical" name="LMETAGGA"> F  </i>
   </separator>
   <separator name="electronic convergence" >
    <i type="int" name="NELM">    60</i>
    <i type="int" name="NELMDL">    -5</i>
    <i type="int" name="NELMIN">     2</i>
    <i name="ENINI">    400.00000000</i>
    <separator name="electronic convergence detail" >
     <i type="logical" name="LDIAG"> T  </i>
     <i type="logical" name="LSUBROT"> F  </i>
     <i name="WEIMIN">      0.00100000</i>
     <i name="EBREAK">      0.00000007</i>
     <i name="DEPER">      0.30000000</i>
     <i type="int" name="NRMM">     4</i>
     <i name="TIME">      0.40000000</i>
    </separator>
   </separator>
   <separator name="electronic mixer" >
    <i name="AMIX">      0.40000000</i>
    <i name="BMIX">      1.00000000</i>
    <i name="AMIN">      0.10000000</i>
    <i name="AMIX_MAG">      1.60000000</i>
    <i name="BMIX_MAG">      1.00000000</i>
    <separator name="electronic mixer details" >
     <i type="int" name="IMIX">     4</i>
     <i type="logical" name="MIXFIRST"> F  </i>
     <i type="int" name="MAXMIX">   -45</i>
     <i name="WC">    100.00000000</i>
     <i type="int" name="INIMIX">     1</i>
     <i type="int" name="MIXPRE">     1</i>
     <i type="int" name="MREMOVE">     5</i>
    </separator>
   </separator>
   <separator name="electronic dipolcorrection" >
    <i type="logical" name="LDIPOL"> F  </i>
    <i type="logical" name="LMONO"> F  </i>
    <i type="int" name="IDIPOL">     3</i>
    <i name="EPSILON">      1.00000000</i>
    <v name="DIPOL">   -100.00000000   -100.00000000   -100.00000000</v>
    <i name="EFIELD">      0.00000000</i>
   </separator>
  </separator>
  <separator name="grids" >
   <i type="int" name="NGX">    54</i>
   <i type="int" name="NGY">    54</i>
   <i type="int" name="NGZ">   120</i>
   <i type="int" name="NGXF">   108</i>
   <i type="int" name="NGYF">   108</i>
   <i type="int" name="NGZF">   240</i>
   <i type="logical" name="ADDGRID"> F  </i>
  </separator>
  <separator name="ionic" >
   <i type="int" name="NSW">   800</i>
   <i type="int" name="IBRION">     2</i>
   <i type="int" name="MDALGO">     0</i>
   <i type="int" name="ISIF">     2</i>
   <i name="PSTRESS">      0.00000000</i>
   <i name="EDIFFG">     -0.03000000</i>
   <i type="int" name="NFREE">     1</i>
   <i name="POTIM">      0.50000000</i>
   <i name="SMASS">     -3.00000000</i>
   <i name="SCALEE">      1.00000000</i>
  </separator>
  <separator name="ionic md" >
   <i name="TEBEG">      0.00010000</i>
   <i name="TEEND">      0.00010000</i>
   <i type="int" name="NBLOCK">     1</i>
   <i type="int" name="KBLOCK">   800</i>
   <i type="int" name="NPACO">   256</i>
   <i name="APACO">     10.00000000</i>
  </separator>
  <separator name="symmetry" >
   <i type="int" name="ISYM">     1</i>
   <i name="SYMPREC">      0.00001000</i>
  </separator>
  <separator name="dos" >
   <i type="int" name="LORBIT">     0</i>
   <v name="RWIGS">     -1.00000000</v>
   <i type="int" name="NEDOS">   301</i>
   <i name="EMIN">     10.00000000</i>
   <i name="EMAX">    -10.00000000</i>
   <i name="EFERMI">      0.00000000</i>
  </separator>
  <separator name="writing" >
   <i type="int" name="NWRITE">     2</i>
   <i type="logical" name="LWAVE"> F  </i>
   <i type="logical" name="LDOWNSAMPLE"> F  </i>
   <i type="logical" name="LCHARG"> F  </i>
   <i type="logical" name="LPARD"> F  </i>
   <i type="logical" name="LVTOT"> F  </i>
   <i type="logical" name="LVHAR"> F  </i>
   <i type="logical" name="LELF"> F  </i>
   <i type="logical" name="LOPTICS"> F  </i>
   <v name="STM">      0.00000000      0.00000000      0.00000000      0.00000000      0.00000000      0.00000000      0.00000000</v>
  </separator>
  <separator name="performance" >
   <i type="int" name="NPAR">     4</i>
   <i type="int" name="NSIM">     4</i>
   <i type="int" name="NBLK">    -1</i>
   <i type="logical" name="LPLANE"> T  </i>
   <i type="logical" name="LSCALAPACK"> T  </i>
   <i type="logical" name="LSCAAWARE"> F  </i>
   <i type="logical" name="LSCALU"> F  </i>
   <i type="logical" name="LASYNC"> F  </i>
   <i type="logical" name="LORBITALREAL"> F  </i>
  </separator>
  <separator name="miscellaneous" >
   <i type="int" name="IDIOT">     3</i>
   <i type="int" name="PHON_NSTRUCT">    -1</i>
   <i type="logical" name="LMUSIC"> F  </i>
   <v name="POMASS">     63.54600000</v>
   <v name="DARWINR">      0.00000000</v>
   <v name="DARWINV">      1.00000000</v>
   <i type="logical" name="LCORR"> T  </i>
  </separator>
  <i type="logical" name="GGA_COMPAT"> T  </i>
  <i type="logical" name="LBERRY"> F  </i>
  <i type="int" name="ICORELEVEL">     0</i>
  <i type="logical" name="LDAU"> F  </i>
  <i type="int" name="I_CONSTRAINED_M">     0</i>
  <separator name="electronic exchange-correlation" >
   <i type="string" name="GGA">PE</i>
   <i type="int" name="VOSKOWN">     0</i>
   <i type="logical" name="LHFCALC"> F  </i>
   <i type="string" name="PRECFOCK"></i>
   <i type="logical" name="LSYMGRAD"> F  </i>
   <i type="logical" name="LHFONE"> F  </i>
   <i type="logical" name="LRHFCALC"> F  </i>
   <i type="logical" name="LTHOMAS"> F  </i>
   <i type="logical" name="LMODELHF"> F  </i>
   <i type="logical" name="LFOCKACE"> F  </i>
   <i name="ENCUT4O">     -1.00000000</i>
   <i type="int" name="EXXOEP">     0</i>
   <i type="int" name="FOURORBIT">     0</i>
   <i name="AEXX">      0.00000000</i>
   <i name="HFALPHA">      0.00000000</i>
   <i name="MCALPHA">      0.00000000</i>
   <i name="ALDAX">      1.00000000</i>
   <i name="AGGAX">      1.00000000</i>
   <i name="ALDAC">      1.00000000</i>
   <i name="AGGAC">      1.00000000</i>
   <i type="int" name="NKREDX">     1</i>
   <i type="int" name="NKREDY">     1</i>
   <i type="int" name="NKREDZ">     1</i>
   <i type="logical" name="SHIFTRED"> F  </i>
   <i type="logical" name="ODDONLY"> F  </i>
   <i type="logical" name="EVENONLY"> F  </i>
   <i type="int" name="LMAXFOCK">     0</i>
   <i type="int" name="NMAXFOCKAE">     0</i>
   <i type="logical" name="LFOCKAEDFT"> F  </i>
   <i name="HFSCREEN">      0.00000000</i>
   <i name="HFSCREENC">      0.00000000</i>
   <i type="int" name="NBANDSGWLOW">     0</i>
  </separator>
  <separator name="vdW DFT" >
   <i type="logical" name="LUSE_VDW"> F  </i>
   <i name="Zab_VDW">     -0.84910000</i>
   <i name="PARAM1">      0.12340000</i>
   <i name="PARAM2">      1.00000000</i>
   <i name="PARAM3">      0.00000000</i>
  </separator>
  <separator name="model GW" >
   <i type="int" name="MODEL_GW">     0</i>
   <i name="MODEL_EPS0">     15.86169438</i>
   <i name="MODEL_ALPHA">      1.00000000</i>
  </separator>
  <separator name="linear response parameters" >
   <i type="logical" name="LEPSILON"> F  </i>
   <i type="logical" name="LRPA"> F  </i>
   <i type="logical" name="LNABLA"> F  </i>
   <i type="logical" name="LVEL"> F  </i>
   <i name="CSHIFT">      0.10000000</i>
   <i name="OMEGAMAX">     -1.00000000</i>
   <i name="DEG_THRESHOLD">      0.00200000</i>
   <i name="RTIME">     -0.10000000</i>
   <i name="WPLASMAI">      0.00000000</i>
   <v name="DFIELD">      0.00000000      0.00000000      0.00000000</v>
   <v name="WPLASMA">      0.00000000      0.00000000      0.00000000      0.00000000      0.00000000      0.00000000      0.00000000      0.00000000      0.00000000</v>
  </separator>
  <separator name="orbital magnetization" >
   <i type="logical" name="NUCIND"> F  </i>
   <v name="MAGPOS">      0.00000000      0.00000000      0.00000000</v>
   <i type="logical" name="LNICSALL"> T  </i>
   <i type="logical" name="ORBITALMAG"> F  </i>
   <i type="logical" name="LMAGBLOCH"> F  </i>
   <i type="logical" name="LCHIMAG"> F  </i>
   <i type="logical" name="LGAUGE"> T  </i>
   <i type="int" name="MAGATOM">     0</i>
   <v name="MAGDIPOL">      0.00000000      0.00000000      0.00000000</v>
   <v name="AVECCONST">      0.00000000      0.00000000      0.00000000</v>
  </separator>
  <separator name="response functions" >
   <i type="logical" name="LFINITE_TEMPERATURE"> F  </i>
   <i type="logical" name="LADDER"> F  </i>
   <i type="logical" name="LRPAFORCE"> F  </i>
   <i type="logical" name="LFXC"> F  </i>
   <i type="logical" name="LHARTREE"> T  </i>
   <i type="int" name="IBSE">     0</i>
   <v type="int" name="KPOINT">    -1     0     0     0</v>
   <i type="logical" name="LTCTC"> F  </i>
   <i type="logical" name="LTCTE"> F  </i>
   <i type="logical" name="LTETE"> F  </i>
   <i type="logical" name="LTRIPLET"> F  </i>
   <i type="logical" name="LFXCEPS"> F  </i>
   <i type="logical" name="LFXHEG"> F  </i>
   <i type="int" name="NATURALO">     2</i>
   <i type="logical" name="LHOLEGF"> F  </i>
   <i type="logical" name="L2ORDER"> F  </i>
   <i type="logical" name="LDMP1"> F  </i>
   <i type="logical" name="LMP2LT"> F  </i>
   <i type="logical" name="LSMP2LT"> F  </i>
   <i type="logical" name="LGWLF"> F  </i>
   <i name="ENCUTGW">     -2.00000000</i>
   <i name="ENCUTGWSOFT">     -2.00000000</i>
   <i name="ENCUTLF">     -1.00000000</i>
   <i type="logical" name="LESF_SPLINES"> F  </i>
   <i type="int" name="LMAXMP2">    -1</i>
   <i name="SCISSOR">      0.00000000</i>
   <i type="int" name="NOMEGA">     0</i>
   <i type="int" name="NOMEGAR">     0</i>
   <i type="int" name="NBANDSGW">    -1</i>
   <i type="int" name="NBANDSO">    -1</i>
   <i type="int" name="NBANDSV">    -1</i>
   <i type="int" name="NELMGW">     1</i>
   <i type="int" name="NELMHF">     1</i>
   <i type="int" name="DIM">     3</i>
   <i type="int" name="IESPILON">     4</i>
   <i type="int" name="ANTIRES">     0</i>
   <i name="OMEGAMAX">    -30.00000000</i>
   <i name="OMEGAMIN">    -30.00000000</i>
   <i name="OMEGATL">   -200.00000000</i>
   <i type="int" name="OMEGAGRID">     0</i>
   <i name="CSHIFT">     -0.10000000</i>
   <i type="logical" name="LSELFENERGY"> F  </i>
   <i type="logical" name="LSPECTRAL"> F  </i>
   <i type="logical" name="LSPECTRALGW"> F  </i>
   <i type="logical" name="LSINGLES"> F  </i>
   <i type="logical" name="LFERMIGW"> F  </i>
   <i type="logical" name="ODDONLYGW"> F  </i>
   <i type="logical" name="EVENONLYGW"> F  </i>
   <i type="int" name="NKREDLFX">     1</i>
   <i type="int" name="NKREDLFY">     1</i>
   <i type="int" name="NKREDLFZ">     1</i>
   <i type="int" name="MAXMEM">  2800</i>
   <i type="int" name="TELESCOPE">     0</i>
   <i type="int" name="NTAUPAR">    -1</i>
   <i type="int" name="NOMEGAPAR">    -1</i>
   <i name="DAMP_NEWTON">      0.80000001</i>
   <i name="LAMBDA">      1.00000000</i>
  </separator>
  <separator name="External order field" >
   <i name="OFIELD_KAPPA">      0.00000000</i>
   <v name="OFIELD_K">      0.00000000      0.00000000      0.00000000</v>
   <i name="OFIELD_Q6_NEAR">      0.00000000</i>
   <i name="OFIELD_Q6_FAR">      0.00000000</i>
   <i name="OFIELD_A">      0.00000000</i>
  </separator>
  <separator name="optional k-points parameters" >
   <i type="int" name="KPOINTS_OPT_MODE">     1</i>
   <i type="logical" name="LKPOINTS_OPT"> F  </i>
  </separator>
 </parameters>
 <atominfo>
  <atoms>     108 </atoms>
  <types>       1 </types>
  <array name="atoms" >
   <dimension dim="1">ion</dimension>
   <field type="string">element</field>
   <field type="int">atomtype</field>
   <set>
    <rc><c>Cu</c><c>   1</c></rc>
    <rc><c>Cu</c><c>   1</c></rc>
    <rc><c>Cu</c><c>   1</c></rc>
    <rc><c>Cu</c><c>   1</c></rc>
    <rc><c>Cu</c><c>   1</c></rc>
    <rc><c>Cu</c><c>   1</c></rc>
    <rc><c>Cu</c><c>   1</c></rc>
    <rc><c>Cu</c><c>   1</c></rc>
    <rc><c>Cu</c><c>   1</c></rc>
    <rc><c>Cu</c><c>   1</c></rc>
    <rc><c>Cu</c><c>   1</c></rc>
    <rc><c>Cu</c><c>   1</c></rc>
    <rc><c>Cu</c><c>   1</c></rc>
    <rc><c>Cu</c><c>   1</c></rc>
    <rc><c>Cu</c><c>   1</c></rc>
    <rc><c>Cu</c><c>   1</c></rc>
    <rc><c>Cu</c><c>   1</c></rc>
    <rc><c>Cu</c><c>   1</c></rc>
    <rc><c>Cu</c><c>   1</c></rc>
    <rc><c>Cu</c><c>   1</c></rc>
    <rc><c>Cu</c><c>   1</c></rc>
    <rc><c>Cu</c><c>   1</c></rc>
    <rc><c>Cu</c><c>   1</c></rc>
    <rc><c>Cu</c><c>   1</c></rc>
    <rc><c>Cu</c><c>   1</c></rc>
    <rc><c>Cu</c><c>   1</c></rc>
    <rc><c>Cu</c><c>   1</c></rc>
    <rc><c>Cu</c><c>   1</c></rc>
    <rc><c>Cu</c><c>   1</c></rc>
    <rc><c>Cu</c><c>   1</c></rc>
    <rc><c>Cu</c><c>   1</c></rc>
    <rc><c>Cu</c><c>   1</c></rc>
    <rc><c>Cu</c><c>   1</c></rc>
    <rc><c>Cu</c><c>   1</c></rc>
    <rc><c>Cu</c><c>   1</c></rc>
    <rc><c>Cu</c><c>   1</c></rc>
    <rc><c>Cu</c><c>   1</c></rc>
    <rc><c>Cu</c><c>   1</c></rc>
    <rc><c>Cu</c><c>   1</c></rc>
    <rc><c>Cu</c><c>   1</c></rc>
    <rc><c>Cu</c><c>   1</c></rc>
    <rc><c>Cu</c><c>   1</c></rc>
    <rc><c>Cu</c><c>   1</c></rc>
    <rc><c>Cu</c><c>   1</c></rc>
    <rc><c>Cu</c><c>   1</c></rc>
    <rc><c>Cu</c><c>   1</c></rc>
    <rc><c>Cu</c><c>   1</c></rc>
    <rc><c>Cu</c><c>   1</c></rc>
    <rc><c>Cu</c><c>   1</c></rc>
    <rc><c>Cu</c><c>   1</c></rc>
    <rc><c>Cu</c><c>   1</c></rc>
    <rc><c>Cu</c><c>   1</c></rc>
    <rc><c>Cu</c><c>   1</c></rc>
    <rc><c>Cu</c><c>   1</c></rc>
    <rc><c>Cu</c><c>   1</c></rc>
    <rc><c>Cu</c><c>   1</c></rc>
    <rc><c>Cu</c><c>   1</c></rc>
    <rc><c>Cu</c><c>   1</c></rc>
    <rc><c>Cu</c><c>   1</c></rc>
    <rc><c>Cu</c><c>   1</c></rc>
    <rc><c>Cu</c><c>   1</c></rc>
    <rc><c>Cu</c><c>   1</c></rc>
    <rc><c>Cu</c><c>   1</c></rc>
    <rc><c>Cu</c><c>   1</c></rc>
    <rc><c>Cu</c><c>   1</c></rc>
    <rc><c>Cu</c><c>   1</c></rc>
    <rc><c>Cu</c><c>   1</c></rc>
    <rc><c>Cu</c><c>   1</c></rc>
    <rc><c>Cu</c><c>   1</c></rc>
    <rc><c>Cu</c><c>   1</c></rc>
    <rc><c>Cu</c><c>   1</c></rc>
    <rc><c>Cu</c><c>   1</c></rc>
    <rc><c>Cu</c><c>   1</c></rc>
    <rc><c>Cu</c><c>   1</c></rc>
    <rc><c>Cu</c><c>   1</c></rc>
    <rc><c>Cu</c><c>   1</c></rc>
    <rc><c>Cu</c><c>   1</c></rc>
    <rc><c>Cu</c><c>   1</c></rc>
    <rc><c>Cu</c><c>   1</c></rc>
    <rc><c>Cu</c><c>   1</c></rc>
    <rc><c>Cu</c><c>   1</c></rc>
    <rc><c>Cu</c><c>   1</c></rc>
    <rc><c>Cu</c><c>   1</c></rc>
    <rc><c>Cu</c><c>   1</c></rc>
    <rc><c>Cu</c><c>   1</c></rc>
    <rc><c>Cu</c><c>   1</c></rc>
    <rc><c>Cu</c><c>   1</c></rc>
    <rc><c>Cu</c><c>   1</c></rc>
    <rc><c>Cu</c><c>   1</c></rc>
    <rc><c>Cu</c><c>   1</c></rc>
    <rc><c>Cu</c><c>   1</c></rc>
    <rc><c>Cu</c><c>   1</c></rc>
    <rc><c>Cu</c><c>   1</c></rc>
    <rc><c>Cu</c><c>   1</c></rc>
    <rc><c>Cu</c><c>   1</c></rc>
    <rc><c>Cu</c><c>   1</c></rc>
    <rc><c>Cu</c><c>   1</c></rc>
    <rc><c>Cu</c><c>   1</c></rc>
    <rc><c>Cu</c><c>   1</c></rc>
    <rc><c>Cu</c><c>   1</c></rc>
    <rc><c>Cu</c><c>   1</c></rc>
    <rc><c>Cu</c><c>   1</c></rc>
    <rc><c>Cu</c><c>   1</c></rc>
    <rc><c>Cu</c><c>   1</c></rc>
    <rc><c>Cu</c><c>   1</c></rc>
    <rc><c>Cu</c><c>   1</c></rc>
    <rc><c>Cu</c><c>   1</c></rc>
    <rc><c>Cu</c><c>   1</c></rc>
   </set>
  </array>
  <array name="atomtypes" >
   <dimension dim="1">type</dimension>
   <field type="int">atomspertype</field>
   <field type="string">element</field>
   <field>mass</field>
   <field>valence</field>
   <field type="string">pseudopotential</field>
   <set>
    <rc><c> 108</c><c>Cu</c><c>     63.54600000</c><c>     11.00000000</c><c>  PAW_PBE Cu 22Jun2005                  </c></rc>
   </set>
  </array>
 </atominfo>
 <structure name="initialpos" >
  <crystal>
   <varray name="basis" >
    <v>      10.89000034       0.00000000       0.00000000 </v>
    <v>       0.00000000      10.89000034       0.00000000 </v>
    <v>       0.00000000       0.00000000      24.07500000 </v>
   </varray>
   <i name="volume">   2855.10498751 </i>
   <varray name="rec_basis" >
    <v>       0.09182736       0.00000000       0.00000000 </v>
    <v>       0.00000000       0.09182736       0.00000000 </v>
    <v>       0.00000000       0.00000000       0.04153686 </v>
   </varray>
  </crystal>
  <varray name="positions" >
   <v>       0.00000000       0.00000000       0.00000000 </v>
   <v>       0.00000000       0.33333333       0.00000000 </v>
   <v>       0.00000000       0.66666667       0.00000000 </v>
   <v>       0.33333333       0.00000000       0.00000000 </v>
   <v>       0.33333333       0.33333333       0.00000000 </v>
   <v>       0.33333333       0.66666667       0.00000000 </v>
   <v>       0.66666667       0.00000000       0.00000000 </v>
   <v>       0.66666667       0.33333333       0.00000000 </v>
   <v>       0.66666667       0.66666667       0.00000000 </v>
   <v>       0.16666667       0.16666667       0.00000000 </v>
   <v>       0.16666667       0.50000000       0.00000000 </v>
   <v>       0.16666667       0.83333333       0.00000000 </v>
   <v>       0.50000000       0.16666667       0.00000000 </v>
   <v>       0.50000000       0.50000000       0.00000000 </v>
   <v>       0.50000000       0.83333333       0.00000000 </v>
   <v>       0.83333333       0.16666667       0.00000000 </v>
   <v>       0.83333333       0.50000000       0.00000000 </v>
   <v>       0.83333333       0.83333333       0.00000000 </v>
   <v>       0.00000000       0.16666667       0.07538941 </v>
   <v>       0.00000000       0.50000000       0.07538941 </v>
   <v>       0.00000000       0.83333333       0.07538941 </v>
   <v>       0.33333333       0.16666667       0.07538941 </v>
   <v>       0.33333333       0.50000000       0.07538941 </v>
   <v>       0.33333333       0.83333333       0.07538941 </v>
   <v>       0.66666667       0.16666667       0.07538941 </v>
   <v>       0.66666667       0.50000000       0.07538941 </v>
   <v>       0.66666667       0.83333333       0.07538941 </v>
   <v>       0.16666667       0.00000000       0.07538941 </v>
   <v>       0.16666667       0.33333333       0.07538941 </v>
   <v>       0.16666667       0.66666667       0.07538941 </v>
   <v>       0.50000000       0.00000000       0.07538941 </v>
   <v>       0.50000000       0.33333333       0.07538941 </v>
   <v>       0.50000000       0.66666667       0.07538941 </v>
   <v>       0.83333333       0.00000000       0.07538941 </v>
   <v>       0.83333333       0.33333333       0.07538941 </v>
   <v>       0.83333333       0.66666667       0.07538941 </v>
   <v>       0.00000000       0.00000000       0.15077882 </v>
   <v>       0.00000000       0.33333333       0.15077882 </v>
   <v>       0.00000000       0.66666667       0.15077882 </v>
   <v>       0.33333333       0.00000000       0.15077882 </v>
   <v>       0.33333333       0.33333333       0.15077882 </v>
   <v>       0.33333333       0.66666667       0.15077882 </v>
   <v>       0.66666667       0.00000000       0.15077882 </v>
   <v>       0.66666667       0.33333333       0.15077882 </v>
   <v>       0.66666667       0.66666667       0.15077882 </v>
   <v>       0.16666667       0.16666667       0.15077882 </v>
   <v>       0.16666667       0.50000000       0.15077882 </v>
   <v>       0.16666667       0.83333333       0.15077882 </v>
   <v>       0.50000000       0.16666667       0.15077882 </v>
   <v>       0.50000000       0.50000000       0.15077882 </v>
   <v>       0.50000000       0.83333333       0.15077882 </v>
   <v>       0.83333333       0.16666667       0.15077882 </v>
   <v>       0.83333333       0.50000000       0.15077882 </v>
   <v>       0.83333333       0.83333333       0.15077882 </v>
   <v>       0.00000000       0.16666667       0.22616823 </v>
   <v>       0.00000000       0.50000000       0.22616823 </v>
   <v>       0.00000000       0.83333333       0.22616823 </v>
   <v>       0.33333333       0.16666667       0.22616823 </v>
   <v>       0.33333333       0.50000000       0.22616823 </v>
   <v>       0.33333333       0.83333333       0.22616823 </v>
   <v>       0.66666667       0.16666667       0.22616823 </v>
   <v>       0.66666667       0.50000000       0.22616823 </v>
   <v>       0.66666667       0.83333333       0.22616823 </v>
   <v>       0.16666667       0.00000000       0.22616823 </v>
   <v>       0.16666667       0.33333333       0.22616823 </v>
   <v>       0.16666667       0.66666667       0.22616823 </v>
   <v>       0.50000000       0.00000000       0.22616823 </v>
   <v>       0.50000000       0.33333333       0.22616823 </v>
   <v>       0.50000000       0.66666667       0.22616823 </v>
   <v>       0.83333333       0.00000000       0.22616823 </v>
   <v>       0.83333333       0.33333333       0.22616823 </v>
   <v>       0.83333333       0.66666667       0.22616823 </v>
   <v>       0.00000000       0.00000000       0.30155764 </v>
   <v>       0.00000000       0.33333333       0.30155764 </v>
   <v>       0.00000000       0.66666667       0.30155764 </v>
   <v>       0.33333333       0.00000000       0.30155764 </v>
   <v>       0.33333333       0.33333333       0.30155764 </v>
   <v>       0.33333333       0.66666667       0.30155764 </v>
   <v>       0.66666667       0.00000000       0.30155764 </v>
   <v>       0.66666667       0.33333333       0.30155764 </v>
   <v>       0.66666667       0.66666667       0.30155764 </v>
   <v>       0.16666667       0.16666667       0.30155764 </v>
   <v>       0.16666667       0.50000000       0.30155764 </v>
   <v>       0.16666667       0.83333333       0.30155764 </v>
   <v>       0.50000000       0.16666667       0.30155764 </v>
   <v>       0.50000000       0.50000000       0.30155764 </v>
   <v>       0.50000000       0.83333333       0.30155764 </v>
   <v>       0.83333333       0.16666667       0.30155764 </v>
   <v>       0.83333333       0.50000000       0.30155764 </v>
   <v>       0.83333333       0.83333333       0.30155764 </v>
   <v>       0.00000000       0.16666667       0.37694705 </v>
   <v>       0.00000000       0.50000000       0.37694705 </v>
   <v>       0.00000000       0.83333333       0.37694705 </v>
   <v>       0.33333333       0.16666667       0.37694705 </v>
   <v>       0.33333333       0.50000000       0.37694705 </v>
   <v>       0.33333333       0.83333333       0.37694705 </v>
   <v>       0.66666667       0.16666667       0.37694705 </v>
   <v>       0.66666667       0.50000000       0.37694705 </v>
   <v>       0.66666667       0.83333333       0.37694705 </v>
   <v>       0.16666667       0.00000000       0.37694705 </v>
   <v>       0.16666667       0.33333333       0.37694705 </v>
   <v>       0.16666667       0.66666667       0.37694705 </v>
   <v>       0.50000000       0.00000000       0.37694705 </v>
   <v>       0.50000000       0.33333333       0.37694705 </v>
   <v>       0.50000000       0.66666667       0.37694705 </v>
   <v>       0.83333333       0.00000000       0.37694705 </v>
   <v>       0.83333333       0.33333333       0.37694705 </v>
   <v>       0.83333333       0.66666667       0.37694705 </v>
  </varray>
  <varray name="selective"  type="logical" >
   <v type="logical" >  F  F  F </v>
   <v type="logical" >  F  F  F </v>
   <v type="logical" >  F  F  F </v>
   <v type="logical" >  F  F  F </v>
   <v type="logical" >  F  F  F </v>
   <v type="logical" >  F  F  F </v>
   <v type="logical" >  F  F  F </v>
   <v type="logical" >  F  F  F </v>
   <v type="logical" >  F  F  F </v>
   <v type="logical" >  F  F  F </v>
   <v type="logical" >  F  F  F </v>
   <v type="logical" >  F  F  F </v>
   <v type="logical" >  F  F  F </v>
   <v type="logical" >  F  F  F </v>
   <v type="logical" >  F  F  F </v>
   <v type="logical" >  F  F  F </v>
   <v type="logical" >  F  F  F </v>
   <v type="logical" >  F  F  F </v>
   <v type="logical" >  F  F  F </v>
   <v type="logical" >  F  F  F </v>
   <v type="logical" >  F  F  F </v>
   <v type="logical" >  F  F  F </v>
   <v type="logical" >  F  F  F </v>
   <v type="logical" >  F  F  F </v>
   <v type="logical" >  F  F  F </v>
   <v type="logical" >  F  F  F </v>
   <v type="logical" >  F  F  F </v>
   <v type="logical" >  F  F  F </v>
   <v type="logical" >  F  F  F </v>
   <v type="logical" >  F  F  F </v>
   <v type="logical" >  F  F  F </v>
   <v type="logical" >  F  F  F </v>
   <v type="logical" >  F  F  F </v>
   <v type="logical" >  F  F  F </v>
   <v type="logical" >  F  F  F </v>
   <v type="logical" >  F  F  F </v>
   <v type="logical" >  T  T  T </v>
   <v type="logical" >  T  T  T </v>
   <v type="logical" >  T  T  T </v>
   <v type="logical" >  T  T  T </v>
   <v type="logical" >  T  T  T </v>
   <v type="logical" >  T  T  T </v>
   <v type="logical" >  T  T  T </v>
   <v type="logical" >  T  T  T </v>
   <v type="logical" >  T  T  T </v>
   <v type="logical" >  T  T  T </v>
   <v type="logical" >  T  T  T </v>
   <v type="logical" >  T  T  T </v>
   <v type="logical" >  T  T  T </v>
   <v type="logical" >  T  T  T </v>
   <v type="logical" >  T  T  T </v>
   <v type="logical" >  T  T  T </v>
   <v type="logical" >  T  T  T </v>
   <v type="logical" >  T  T  T </v>
   <v type="logical" >  T  T  T </v>
   <v type="logical" >  T  T  T </v>
   <v type="logical" >  T  T  T </v>
   <v type="logical" >  T  T  T </v>
   <v type="logical" >  T  T  T </v>
   <v type="logical" >  T  T  T </v>
   <v type="logical" >  T  T  T </v>
   <v type="logical" >  T  T  T </v>
   <v type="logical" >  T  T  T </v>
   <v type="logical" >  T  T  T </v>
   <v type="logical" >  T  T  T </v>
   <v type="logical" >  T  T  T </v>
   <v type="logical" >  T  T  T </v>
   <v type="logical" >  T  T  T </v>
   <v type="logical" >  T  T  T </v>
   <v type="logical" >  T  T  T </v>
   <v type="logical" >  T  T  T </v>
   <v type="logical" >  T  T  T </v>
   <v type="logical" >  T  T  T </v>
   <v type="logical" >  T  T  T </v>
   <v type="logical" >  T  T  T </v>
   <v type="logical" >  T  T  T </v>
   <v type="logical" >  T  T  T </v>
   <v type="logical" >  T  T  T </v>
   <v type="logical" >  T  T  T </v>
   <v type="logical" >  T  T  T </v>
   <v type="logical" >  T  T  T </v>
   <v type="logical" >  T  T  T </v>
   <v type="logical" >  T  T  T </v>
   <v type="logical" >  T  T  T </v>
   <v type="logical" >  T  T  T </v>
   <v type="logical" >  T  T  T </v>
   <v type="logical" >  T  T  T </v>
   <v type="logical" >  T  T  T </v>
   <v type="logical" >  T  T  T </v>
   <v type="logical" >  T  T  T </v>
   <v type="logical" >  T  T  T </v>
   <v type="logical" >  T  T  T </v>
   <v type="logical" >  T  T  T </v>
   <v type="logical" >  T  T  T </v>
   <v type="logical" >  T  T  T </v>
   <v type="logical" >  T  T  T </v>
   <v type="logical" >  T  T  T </v>
   <v type="logical" >  T  T  T </v>
   <v type="logical" >  T  T  T </v>
   <v type="logical" >  T  T  T </v>
   <v type="logical" >  T  T  T </v>
   <v type="logical" >  T  T  T </v>
   <v type="logical" >  T  T  T </v>
   <v type="logical" >  T  T  T </v>
   <v type="logical" >  T  T  T </v>
   <v type="logical" >  T  T  T </v>
   <v type="logical" >  T  T  T </v>
   <v type="logical" >  T  T  T </v>
  </varray>
  <nose>
   <v>      -3.00000000       0.00000000       0.00010000       0.00010000 </v>
  </nose>
 </structure>
 <calculation>
  <scstep>
   <time name="dav">  264.11  266.87</time>
   <time name="total">  264.37  267.13</time>
   <energy>
    <i name="alphaZ">   2987.70457159 </i>
    <i name="ewald"> 544449.30831172 </i>
    <i name="hartreedc">-690519.34154011 </i>
    <i name="XCdc">   4931.25873833 </i>
    <i name="pawpsdc"> 132634.52957329 </i>
    <i name="pawaedc">-144063.46060470 </i>
    <i name="eentropy">      0.00987371 </i>
    <i name="bandstr">  10546.96871279 </i>
    <i name="atom"> 150223.42514157 </i>
    <i name="e_fr_energy">  11190.40277820 </i>
    <i name="e_wo_entrp">  11190.39290448 </i>
    <i name="e_0_energy">  11190.39948696 </i>
   </energy>
  </scstep>
  <scstep>
   <time name="dav">  263.92  266.85</time>
   <time name="total">  263.93  266.86</time>
   <energy>
    <i name="e_fr_energy">   1447.39367653 </i>
    <i name="e_wo_entrp">   1447.37824022 </i>
    <i name="e_0_energy">   1447.38853109 </i>
   </energy>
  </scstep>
  <scstep>
   <time name="dav">  264.87  267.73</time>
   <time name="total">  264.88  267.74</time>
   <energy>
    <i name="e_fr_energy">   -314.37208876 </i>
    <i name="e_wo_entrp">   -314.33231791 </i>
    <i name="e_0_energy">   -314.35883181 </i>
   </energy>
  </scstep>
  <scstep>
   <time name="dav">  287.20  290.65</time>
   <time name="total">  287.21  290.67</time>
   <energy>
    <i name="e_fr_energy">   -447.70908258 </i>
    <i name="e_wo_entrp">   -447.65872767 </i>
    <i name="e_0_energy">   -447.69229761 </i>
   </energy>
  </scstep>
  <scstep>
   <time name="dav">  290.57  293.81</time>
   <time name="total">  294.00  297.26</time>
   <energy>
    <i name="e_fr_energy">   -451.11300251 </i>
    <i name="e_wo_entrp">   -451.06583805 </i>
    <i name="e_0_energy">   -451.09728103 </i>
   </energy>
  </scstep>
  <scstep>
   <time name="dav">  279.96  283.41</time>
   <time name="total">  283.46  286.94</time>
   <energy>
    <i name="e_fr_energy">   -368.83147142 </i>
    <i name="e_wo_entrp">   -368.82335341 </i>
    <i name="e_0_energy">   -368.82876542 </i>
   </energy>
  </scstep>
  <scstep>
   <time name="dav">  283.59  286.82</time>
   <time name="total">  287.17  290.42</time>
   <energy>
    <i name="e_fr_energy">   -317.45833695 </i>
    <i name="e_wo_entrp">   -317.46117596 </i>
    <i name="e_0_energy">   -317.45928329 </i>
   </energy>
  </scstep>
  <scstep>
   <time name="dav">  299.41  303.01</time>
   <time name="total">  302.99  306.62</time>
   <energy>
    <i name="e_fr_energy">   -312.48155348 </i>
    <i name="e_wo_entrp">   -312.47047218 </i>
    <i name="e_0_energy">   -312.47785971 </i>
   </energy>
  </scstep>
  <scstep>
   <time name="dav">  340.72  344.23</time>
   <time name="total">  344.39  347.92</time>
   <energy>
    <i name="e_fr_energy">   -305.10104026 </i>
    <i name="e_wo_entrp">   -305.06923478 </i>
    <i name="e_0_energy">   -305.09043843 </i>
   </energy>
  </scstep>
  <scstep>
   <time name="dav">  344.65  348.55</time>
   <time name="total">  348.30  352.23</time>
   <energy>
    <i name="e_fr_energy">   -309.97825175 </i>
    <i name="e_wo_entrp">   -310.02743126 </i>
    <i name="e_0_energy">   -309.99464492 </i>
   </energy>
  </scstep>
  <scstep>
   <time name="dav">  299.49  302.64</time>
   <time name="total">  303.12  306.29</time>
   <energy>
    <i name="e_fr_energy">   -313.68850240 </i>
    <i name="e_wo_entrp">   -313.77395717 </i>
    <i name="e_0_energy">   -313.71698732 </i>
   </energy>
  </scstep>
  <scstep>
   <time name="dav">  328.48  331.95</time>
   <time name="total">  332.10  335.60</time>
   <energy>
    <i name="e_fr_energy">   -322.93401728 </i>
    <i name="e_wo_entrp">   -323.00066165 </i>
    <i name="e_0_energy">   -322.95623207 </i>
   </energy>
  </scstep>
  <scstep>
   <time name="dav">  311.85  315.44</time>
   <time name="total">  315.46  319.08</time>
   <energy>
    <i name="e_fr_energy">   -341.34629723 </i>
    <i name="e_wo_entrp">   -341.24840932 </i>
    <i name="e_0_energy">   -341.31366792 </i>
   </energy>
  </scstep>
  <scstep>
   <time name="dav">  345.87  349.28</time>
   <time name="total">  349.56  352.99</time>
   <energy>
    <i name="e_fr_energy">   -351.89537768 </i>
    <i name="e_wo_entrp">   -351.78357380 </i>
    <i name="e_0_energy">   -351.85810972 </i>
   </energy>
  </scstep>
  <scstep>
   <time name="dav">  320.67  324.18</time>
   <time name="total">  324.79  328.47</time>
   <energy>
    <i name="e_fr_energy">   -365.01846898 </i>
    <i name="e_wo_entrp">   -364.91165874 </i>
    <i name="e_0_energy">   -364.98286557 </i>
   </energy>
  </scstep>
  <scstep>
   <time name="dav">  292.66  295.83</time>
   <time name="total">  296.36  299.79</time>
   <energy>
    <i name="e_fr_energy">   -371.63632487 </i>
    <i name="e_wo_entrp">   -371.61108147 </i>
    <i name="e_0_energy">   -371.62791040 </i>
   </energy>
  </scstep>
  <scstep>
   <time name="dav">  302.57  305.50</time>
   <time name="total">  306.89  309.91</time>
   <energy>
    <i name="e_fr_energy">   -374.16904718 </i>
    <i name="e_wo_entrp">   -374.17491072 </i>
    <i name="e_0_energy">   -374.17100169 </i>
   </energy>
  </scstep>
  <scstep>
   <time name="dav">  326.55  329.78</time>
   <time name="total">  331.27  334.52</time>
   <energy>
    <i name="e_fr_energy">   -375.46817501 </i>
    <i name="e_wo_entrp">   -375.49259201 </i>
    <i name="e_0_energy">   -375.47631401 </i>
   </energy>
  </scstep>
  <scstep>
   <time name="dav">  319.32  322.78</time>
   <time name="total">  323.34  326.83</time>
   <energy>
    <i name="e_fr_energy">   -376.57151322 </i>
    <i name="e_wo_entrp">   -376.60092436 </i>
    <i name="e_0_energy">   -376.58131693 </i>
   </energy>
  </scstep>
  <scstep>
   <time name="dav">  324.70  328.55</time>
   <time name="total">  328.42  332.29</time>
   <energy>
    <i name="e_fr_energy">   -377.88015627 </i>
    <i name="e_wo_entrp">   -377.90863383 </i>
    <i name="e_0_energy">   -377.88964879 </i>
   </energy>
  </scstep>
  <scstep>
   <time name="dav">  299.37  302.95</time>
   <time name="total">  303.01  306.62</time>
   <energy>
    <i name="e_fr_energy">   -379.02242216 </i>
    <i name="e_wo_entrp">   -379.05100732 </i>
    <i name="e_0_energy">   -379.03195055 </i>
   </energy>
  </scstep>
  <scstep>
   <time name="dav">  302.92  306.00</time>
   <time name="total">  306.63  309.73</time>
   <energy>
    <i name="e_fr_energy">   -379.52274089 </i>
    <i name="e_wo_entrp">   -379.55036560 </i>
    <i name="e_0_energy">   -379.53194913 </i>
   </energy>
  </scstep>
  <scstep>
   <time name="dav">  295.71  298.94</time>
   <time name="total">  299.79  303.07</time>
   <energy>
    <i name="e_fr_energy">   -380.19948896 </i>
    <i name="e_wo_entrp">   -380.22535142 </i>
    <i name="e_0_energy">   -380.20810978 </i>
   </energy>
  </scstep>
  <scstep>
   <time name="dav">  335.79  338.94</time>
   <time name="total">  339.48  342.66</time>
   <energy>
    <i name="e_fr_energy">   -380.93068799 </i>
    <i name="e_wo_entrp">   -380.95889070 </i>
    <i name="e_0_energy">   -380.94008889 </i>
   </energy>
  </scstep>
  <scstep>
   <time name="dav">  325.58  329.18</time>
   <time name="total">  329.28  332.90</time>
   <energy>
    <i name="e_fr_energy">   -381.30034005 </i>
    <i name="e_wo_entrp">   -381.32656472 </i>
    <i name="e_0_energy">   -381.30908160 </i>
   </energy>
  </scstep>
  <scstep>
   <time name="dav">  281.61  284.36</time>
   <time name="total">  285.30  288.08</time>
   <energy>
    <i name="e_fr_energy">   -381.42979080 </i>
    <i name="e_wo_entrp">   -381.45653792 </i>
    <i name="e_0_energy">   -381.43870651 </i>
   </energy>
  </scstep>
  <scstep>
   <time name="dav">  300.22  302.94</time>
   <time name="total">  303.90  306.64</time>
   <energy>
    <i name="e_fr_energy">   -381.47028124 </i>
    <i name="e_wo_entrp">   -381.49776446 </i>
    <i name="e_0_energy">   -381.47944231 </i>
   </energy>
  </scstep>
  <scstep>
   <time name="dav">  280.41  282.66</time>
   <time name="total">  284.09  286.36</time>
   <energy>
    <i name="e_fr_energy">   -381.48662148 </i>
    <i name="e_wo_entrp">   -381.51385588 </i>
    <i name="e_0_energy">   -381.49569961 </i>
   </energy>
  </scstep>
  <scstep>
   <time name="dav">  230.01  231.81</time>
   <time name="total">  233.72  235.54</time>
   <energy>
    <i name="e_fr_energy">   -381.49284678 </i>
    <i name="e_wo_entrp">   -381.52031117 </i>
    <i name="e_0_energy">   -381.50200158 </i>
   </energy>
  </scstep>
  <scstep>
   <time name="dav">  194.29  195.89</time>
   <time name="total">  197.99  199.62</time>
   <energy>
    <i name="e_fr_energy">   -381.49369366 </i>
    <i name="e_wo_entrp">   -381.52109928 </i>
    <i name="e_0_energy">   -381.50282886 </i>
   </energy>
  </scstep>
  <scstep>
   <time name="dav">  192.15  195.32</time>
   <time name="total">  195.79  198.99</time>
   <energy>
    <i name="e_fr_energy">   -381.49408755 </i>
    <i name="e_wo_entrp">   -381.52147292 </i>
    <i name="e_0_energy">   -381.50321600 </i>
   </energy>
  </scstep>
  <scstep>
   <time name="dav">  188.57  190.25</time>
   <time name="total">  192.25  193.95</time>
   <energy>
    <i name="e_fr_energy">   -381.49441942 </i>
    <i name="e_wo_entrp">   -381.52181839 </i>
    <i name="e_0_energy">   -381.50355241 </i>
   </energy>
  </scstep>
  <scstep>
   <time name="dav">  193.19  195.44</time>
   <time name="total">  193.43  195.69</time>
   <energy>
    <i name="alphaZ">   2987.70457159 </i>
    <i name="ewald"> 544449.30831172 </i>
    <i name="hartreedc">-688988.88231232 </i>
    <i name="XCdc">   4809.72297913 </i>
    <i name="pawpsdc"> 140588.86543098 </i>
    <i name="pawaedc">-152207.82961559 </i>
    <i name="eentropy">      0.02741883 </i>
    <i name="bandstr">  -2243.83642715 </i>
    <i name="atom"> 150223.42514157 </i>
    <i name="e_fr_energy">   -381.49450123 </i>
    <i name="e_wo_entrp">   -381.52192006 </i>
    <i name="e_0_energy">   -381.50364084 </i>
   </energy>
  </scstep>
  <dipole>
   <v name="dipole">      0.00000000       0.00000000       0.01355504 </v>
   <i name="Tr[quadrupol]"> -24772.77752623 </i>
   <i name="Echarged">      0.00000000 </i>
   <i name="Edipol_quadrupol">      0.00000000 </i>
   <i name="Eion">      0.00000000 </i>
  </dipole>
  <structure>
   <crystal>
    <varray name="basis" >
     <v>      10.89000034       0.00000000       0.00000000 </v>
     <v>       0.00000000      10.89000034       0.00000000 </v>
     <v>       0.00000000       0.00000000      24.07500000 </v>
    </varray>
    <i name="volume">   2855.10498751 </i>
    <varray name="rec_basis" >
     <v>       0.09182736       0.00000000       0.00000000 </v>
     <v>       0.00000000       0.09182736       0.00000000 </v>
     <v>       0.00000000       0.00000000       0.04153686 </v>
    </varray>
   </crystal>
   <varray name="positions" >
    <v>       0.00000000       0.00000000       0.00000000 </v>
    <v>       0.00000000       0.33333333       0.00000000 </v>
    <v>       0.00000000       0.66666667       0.00000000 </v>
    <v>       0.33333333       0.00000000       0.00000000 </v>
    <v>       0.33333333       0.33333333       0.00000000 </v>
    <v>       0.33333333       0.66666667       0.00000000 </v>
    <v>       0.66666667       0.00000000       0.00000000 </v>
    <v>       0.66666667       0.33333333       0.00000000 </v>
    <v>       0.66666667       0.66666667       0.00000000 </v>
    <v>       0.16666667       0.16666667       0.00000000 </v>
    <v>       0.16666667       0.50000000       0.00000000 </v>
    <v>       0.16666667       0.83333333       0.00000000 </v>
    <v>       0.50000000       0.16666667       0.00000000 </v>
    <v>       0.50000000       0.50000000       0.00000000 </v>
    <v>       0.50000000       0.83333333       0.00000000 </v>
    <v>       0.83333333       0.16666667       0.00000000 </v>
    <v>       0.83333333       0.50000000       0.00000000 </v>
    <v>       0.83333333       0.83333333       0.00000000 </v>
    <v>       0.00000000       0.16666667       0.07538941 </v>
    <v>       0.00000000       0.50000000       0.07538941 </v>
    <v>       0.00000000       0.83333333       0.07538941 </v>
    <v>       0.33333333       0.16666667       0.07538941 </v>
    <v>       0.33333333       0.50000000       0.07538941 </v>
    <v>       0.33333333       0.83333333       0.07538941 </v>
    <v>       0.66666667       0.16666667       0.07538941 </v>
    <v>       0.66666667       0.50000000       0.07538941 </v>
    <v>       0.66666667       0.83333333       0.07538941 </v>
    <v>       0.16666667       0.00000000       0.07538941 </v>
    <v>       0.16666667       0.33333333       0.07538941 </v>
    <v>       0.16666667       0.66666667       0.07538941 </v>
    <v>       0.50000000       0.00000000       0.07538941 </v>
    <v>       0.50000000       0.33333333       0.07538941 </v>
    <v>       0.50000000       0.66666667       0.07538941 </v>
    <v>       0.83333333       0.00000000       0.07538941 </v>
    <v>       0.83333333       0.33333333       0.07538941 </v>
    <v>       0.83333333       0.66666667       0.07538941 </v>
    <v>       0.00000000       0.00000000       0.15077882 </v>
    <v>       0.00000000       0.33333333       0.15077882 </v>
    <v>       0.00000000       0.66666667       0.15077882 </v>
    <v>       0.33333333       0.00000000       0.15077882 </v>
    <v>       0.33333333       0.33333333       0.15077882 </v>
    <v>       0.33333333       0.66666667       0.15077882 </v>
    <v>       0.66666667       0.00000000       0.15077882 </v>
    <v>       0.66666667       0.33333333       0.15077882 </v>
    <v>       0.66666667       0.66666667       0.15077882 </v>
    <v>       0.16666667       0.16666667       0.15077882 </v>
    <v>       0.16666667       0.50000000       0.15077882 </v>
    <v>       0.16666667       0.83333333       0.15077882 </v>
    <v>       0.50000000       0.16666667       0.15077882 </v>
    <v>       0.50000000       0.50000000       0.15077882 </v>
    <v>       0.50000000       0.83333333       0.15077882 </v>
    <v>       0.83333333       0.16666667       0.15077882 </v>
    <v>       0.83333333       0.50000000       0.15077882 </v>
    <v>       0.83333333       0.83333333       0.15077882 </v>
    <v>       0.00000000       0.16666667       0.22616823 </v>
    <v>       0.00000000       0.50000000       0.22616823 </v>
    <v>       0.00000000       0.83333333       0.22616823 </v>
    <v>       0.33333333       0.16666667       0.22616823 </v>
    <v>       0.33333333       0.50000000       0.22616823 </v>
    <v>       0.33333333       0.83333333       0.22616823 </v>
    <v>       0.66666667       0.16666667       0.22616823 </v>
    <v>       0.66666667       0.50000000       0.22616823 </v>
    <v>       0.66666667       0.83333333       0.22616823 </v>
    <v>       0.16666667       0.00000000       0.22616823 </v>
    <v>       0.16666667       0.33333333       0.22616823 </v>
    <v>       0.16666667       0.66666667       0.22616823 </v>
    <v>       0.50000000       0.00000000       0.22616823 </v>
    <v>       0.50000000       0.33333333       0.22616823 </v>
    <v>       0.50000000       0.66666667       0.22616823 </v>
    <v>       0.83333333       0.00000000       0.22616823 </v>
    <v>       0.83333333       0.33333333       0.22616823 </v>
    <v>       0.83333333       0.66666667       0.22616823 </v>
    <v>       0.00000000       0.00000000       0.30155764 </v>
    <v>       0.00000000       0.33333333       0.30155764 </v>
    <v>       0.00000000       0.66666667       0.30155764 </v>
    <v>       0.33333333       0.00000000       0.30155764 </v>
    <v>       0.33333333       0.33333333       0.30155764 </v>
    <v>       0.33333333       0.66666667       0.30155764 </v>
    <v>       0.66666667       0.00000000       0.30155764 </v>
    <v>       0.66666667       0.33333333       0.30155764 </v>
    <v>       0.66666667       0.66666667       0.30155764 </v>
    <v>       0.16666667       0.16666667       0.30155764 </v>
    <v>       0.16666667       0.50000000       0.30155764 </v>
    <v>       0.16666667       0.83333333       0.30155764 </v>
    <v>       0.50000000       0.16666667       0.30155764 </v>
    <v>       0.50000000       0.50000000       0.30155764 </v>
    <v>       0.50000000       0.83333333       0.30155764 </v>
    <v>       0.83333333       0.16666667       0.30155764 </v>
    <v>       0.83333333       0.50000000       0.30155764 </v>
    <v>       0.83333333       0.83333333       0.30155764 </v>
    <v>       0.00000000       0.16666667       0.37694705 </v>
    <v>       0.00000000       0.50000000       0.37694705 </v>
    <v>       0.00000000       0.83333333       0.37694705 </v>
    <v>       0.33333333       0.16666667       0.37694705 </v>
    <v>       0.33333333       0.50000000       0.37694705 </v>
    <v>       0.33333333       0.83333333       0.37694705 </v>
    <v>       0.66666667       0.16666667       0.37694705 </v>
    <v>       0.66666667       0.50000000       0.37694705 </v>
    <v>       0.66666667       0.83333333       0.37694705 </v>
    <v>       0.16666667       0.00000000       0.37694705 </v>
    <v>       0.16666667       0.33333333       0.37694705 </v>
    <v>       0.16666667       0.66666667       0.37694705 </v>
    <v>       0.50000000       0.00000000       0.37694705 </v>
    <v>       0.50000000       0.33333333       0.37694705 </v>
    <v>       0.50000000       0.66666667       0.37694705 </v>
    <v>       0.83333333       0.00000000       0.37694705 </v>
    <v>       0.83333333       0.33333333       0.37694705 </v>
    <v>       0.83333333       0.66666667       0.37694705 </v>
   </varray>
  </structure>
  <varray name="forces" >
   <v>       0.00000000      -0.00000000       0.32060502 </v>
   <v>       0.00000000       0.00000000       0.32060502 </v>
   <v>       0.00000000      -0.00000000       0.32060502 </v>
   <v>       0.00000000      -0.00000000       0.32060502 </v>
   <v>      -0.00000000      -0.00000000       0.32060502 </v>
   <v>       0.00000000       0.00000000       0.32060502 </v>
   <v>      -0.00000000       0.00000000       0.32060502 </v>
   <v>      -0.00000000       0.00000000       0.32060502 </v>
   <v>      -0.00000000      -0.00000000       0.32060502 </v>
   <v>       0.00000000       0.00000000       0.32060502 </v>
   <v>       0.00000000      -0.00000000       0.32060502 </v>
   <v>       0.00000000      -0.00000000       0.32060502 </v>
   <v>      -0.00000000      -0.00000000       0.32060502 </v>
   <v>      -0.00000000       0.00000000       0.32060502 </v>
   <v>      -0.00000000       0.00000000       0.32060502 </v>
   <v>       0.00000000       0.00000000       0.32060502 </v>
   <v>       0.00000000      -0.00000000       0.32060502 </v>
   <v>       0.00000000      -0.00000000       0.32060502 </v>
   <v>       0.00000000      -0.00000000      -0.09278718 </v>
   <v>       0.00000000       0.00000000      -0.09278718 </v>
   <v>      -0.00000000       0.00000000      -0.09278718 </v>
   <v>      -0.00000000       0.00000000      -0.09278718 </v>
   <v>      -0.00000000       0.00000000      -0.09278718 </v>
   <v>      -0.00000000       0.00000000      -0.09278718 </v>
   <v>      -0.00000000      -0.00000000      -0.09278718 </v>
   <v>      -0.00000000      -0.00000000      -0.09278718 </v>
   <v>       0.00000000       0.00000000      -0.09278718 </v>
   <v>      -0.00000000       0.00000000      -0.09278718 </v>
   <v>      -0.00000000      -0.00000000      -0.09278718 </v>
   <v>      -0.00000000       0.00000000      -0.09278718 </v>
   <v>      -0.00000000       0.00000000      -0.09278718 </v>
   <v>      -0.00000000       0.00000000      -0.09278718 </v>
   <v>      -0.00000000      -0.00000000      -0.09278718 </v>
   <v>      -0.00000000       0.00000000      -0.09278718 </v>
   <v>      -0.00000000       0.00000000      -0.09278718 </v>
   <v>      -0.00000000       0.00000000      -0.09278718 </v>
   <v>       0.00000000       0.00000000       0.00743612 </v>
   <v>       0.00000000      -0.00000000       0.00743612 </v>
   <v>       0.00000000      -0.00000000       0.00743612 </v>
   <v>       0.00000000       0.00000000       0.00743612 </v>
   <v>       0.00000000      -0.00000000       0.00743612 </v>
   <v>       0.00000000      -0.00000000       0.00743612 </v>
   <v>      -0.00000000       0.00000000       0.00743612 </v>
   <v>       0.00000000       0.00000000       0.00743612 </v>
   <v>      -0.00000000      -0.00000000       0.00743612 </v>
   <v>       0.00000000       0.00000000       0.00743612 </v>
   <v>       0.00000000      -0.00000000       0.00743612 </v>
   <v>       0.00000000       0.00000000       0.00743612 </v>
   <v>      -0.00000000       0.00000000       0.00743612 </v>
   <v>      -0.00000000       0.00000000       0.00743612 </v>
   <v>       0.00000000      -0.00000000       0.00743612 </v>
   <v>       0.00000000       0.00000000       0.00743612 </v>
   <v>       0.00000000      -0.00000000       0.00743612 </v>
   <v>      -0.00000000       0.00000000       0.00743612 </v>
   <v>      -0.00000000      -0.00000000      -0.02086238 </v>
   <v>      -0.00000000       0.00000000      -0.02086238 </v>
   <v>       0.00000000       0.00000000      -0.02086238 </v>
   <v>       0.00000000       0.00000000      -0.02086238 </v>
   <v>      -0.00000000      -0.00000000      -0.02086238 </v>
   <v>       0.00000000      -0.00000000      -0.02086238 </v>
   <v>      -0.00000000       0.00000000      -0.02086238 </v>
   <v>      -0.00000000       0.00000000      -0.02086238 </v>
   <v>      -0.00000000       0.00000000      -0.02086238 </v>
   <v>       0.00000000       0.00000000      -0.02086238 </v>
   <v>      -0.00000000      -0.00000000      -0.02086238 </v>
   <v>      -0.00000000       0.00000000      -0.02086238 </v>
   <v>      -0.00000000       0.00000000      -0.02086238 </v>
   <v>      -0.00000000      -0.00000000      -0.02086238 </v>
   <v>      -0.00000000      -0.00000000      -0.02086238 </v>
   <v>      -0.00000000      -0.00000000      -0.02086238 </v>
   <v>      -0.00000000      -0.00000000      -0.02086238 </v>
   <v>       0.00000000       0.00000000      -0.02086238 </v>
   <v>       0.00000000      -0.00000000       0.09080691 </v>
   <v>      -0.00000000      -0.00000000       0.09080691 </v>
   <v>      -0.00000000       0.00000000       0.09080691 </v>
   <v>      -0.00000000      -0.00000000       0.09080691 </v>
   <v>       0.00000000      -0.00000000       0.09080691 </v>
   <v>      -0.00000000       0.00000000       0.09080691 </v>
   <v>       0.00000000      -0.00000000       0.09080691 </v>
   <v>       0.00000000      -0.00000000       0.09080691 </v>
   <v>       0.00000000       0.00000000       0.09080691 </v>
   <v>      -0.00000000      -0.00000000       0.09080691 </v>
   <v>       0.00000000      -0.00000000       0.09080691 </v>
   <v>      -0.00000000       0.00000000       0.09080691 </v>
   <v>      -0.00000000       0.00000000       0.09080691 </v>
   <v>       0.00000000       0.00000000       0.09080691 </v>
   <v>      -0.00000000       0.00000000       0.09080691 </v>
   <v>       0.00000000      -0.00000000       0.09080691 </v>
   <v>      -0.00000000      -0.00000000       0.09080691 </v>
   <v>      -0.00000000       0.00000000       0.09080691 </v>
   <v>       0.00000000       0.00000000      -0.30519849 </v>
   <v>       0.00000000       0.00000000      -0.30519849 </v>
   <v>       0.00000000       0.00000000      -0.30519849 </v>
   <v>       0.00000000       0.00000000      -0.30519849 </v>
   <v>       0.00000000      -0.00000000      -0.30519849 </v>
   <v>       0.00000000      -0.00000000      -0.30519849 </v>
   <v>      -0.00000000       0.00000000      -0.30519849 </v>
   <v>      -0.00000000      -0.00000000      -0.30519849 </v>
   <v>      -0.00000000      -0.00000000      -0.30519849 </v>
   <v>       0.00000000       0.00000000      -0.30519849 </v>
   <v>       0.00000000      -0.00000000      -0.30519849 </v>
   <v>       0.00000000      -0.00000000      -0.30519849 </v>
   <v>       0.00000000      -0.00000000      -0.30519849 </v>
   <v>       0.00000000       0.00000000      -0.30519849 </v>
   <v>      -0.00000000      -0.00000000      -0.30519849 </v>
   <v>       0.00000000      -0.00000000      -0.30519849 </v>
   <v>       0.00000000      -0.00000000      -0.30519849 </v>
   <v>       0.00000000      -0.00000000      -0.30519849 </v>
  </varray>
  <varray name="stress" >
   <v>     -45.90135782       0.00000000       0.00000000 </v>
   <v>       0.00000000     -45.90135782      -0.00000000 </v>
   <v>       0.00000000      -0.00000000     -27.76950343 </v>
  </varray>
  <energy>
   <i name="e_fr_energy">   -422.39170283 </i>
   <i name="e_wo_entrp">   -422.41912166 </i>
   <i name="e_0_energy">   -422.40084244 </i>
  </energy>
  <time name="totalsc">10224.7710333.63</time>
 </calculation>
 <calculation>
  <scstep>
   <time name="dav">  286.70  290.21</time>
   <time name="total">  290.32  293.85</time>
   <energy>
    <i name="alphaZ">   2987.70457159 </i>
    <i name="ewald"> 545446.19833238 </i>
    <i name="hartreedc">-689982.81735531 </i>
    <i name="XCdc">   4810.15056686 </i>
    <i name="pawpsdc"> 140589.09637772 </i>
    <i name="pawaedc">-152208.07281305 </i>
    <i name="eentropy">      0.02216246 </i>
    <i name="bandstr">  -2247.20972606 </i>
    <i name="atom"> 150223.42514157 </i>
    <i name="e_fr_energy">   -381.50274184 </i>
    <i name="e_wo_entrp">   -381.52490430 </i>
    <i name="e_0_energy">   -381.51012932 </i>
   </energy>
  </scstep>
  <scstep>
   <time name="dav">  370.73  375.17</time>
   <time name="total">  374.50  378.96</time>
   <energy>
    <i name="e_fr_energy">   -381.54697603 </i>
    <i name="e_wo_entrp">   -381.57186708 </i>
    <i name="e_0_energy">   -381.55527305 </i>
   </energy>
  </scstep>
  <scstep>
   <time name="dav">  282.54  285.63</time>
   <time name="total">  286.18  289.30</time>
   <energy>
    <i name="e_fr_energy">   -381.54409752 </i>
    <i name="e_wo_entrp">   -381.56696134 </i>
    <i name="e_0_energy">   -381.55171879 </i>
   </energy>
  </scstep>
  <scstep>
   <time name="dav">  289.89  293.06</time>
   <time name="total">  293.60  296.79</time>
   <energy>
    <i name="e_fr_energy">   -381.54389372 </i>
    <i name="e_wo_entrp">   -381.56667107 </i>
    <i name="e_0_energy">   -381.55148617 </i>
   </energy>
  </scstep>
  <scstep>
   <time name="dav">  277.17  280.20</time>
   <time name="total">  280.82  283.87</time>
   <energy>
    <i name="e_fr_energy">   -381.54394095 </i>
    <i name="e_wo_entrp">   -381.56747089 </i>
    <i name="e_0_energy">   -381.55178426 </i>
   </energy>
  </scstep>
  <scstep>
   <time name="dav">  301.23  304.48</time>
   <time name="total">  304.92  308.19</time>
   <energy>
    <i name="e_fr_energy">   -381.54339954 </i>
    <i name="e_wo_entrp">   -381.56644507 </i>
    <i name="e_0_energy">   -381.55108138 </i>
   </energy>
  </scstep>
  <scstep>
   <time name="dav">  284.18  287.03</time>
   <time name="total">  284.42  287.28</time>
   <energy>
    <i name="alphaZ">   2987.70457159 </i>
    <i name="ewald"> 545446.19833238 </i>
    <i name="hartreedc">-689980.80775872 </i>
    <i name="XCdc">   4810.00908848 </i>
    <i name="pawpsdc"> 140638.51275503 </i>
    <i name="pawaedc">-152258.57116788 </i>
    <i name="eentropy">      0.02302063 </i>
    <i name="bandstr">  -2248.03733635 </i>
    <i name="atom"> 150223.42514157 </i>
    <i name="e_fr_energy">   -381.54335326 </i>
    <i name="e_wo_entrp">   -381.56637388 </i>
    <i name="e_0_energy">   -381.55102680 </i>
   </energy>
  </scstep>
  <dipole>
   <v name="dipole">      0.00000000       0.00000000      -0.00478910 </v>
   <i name="Tr[quadrupol]"> -24772.76944897 </i>
   <i name="Echarged">      0.00000000 </i>
   <i name="Edipol_quadrupol">      0.00000000 </i>
   <i name="Eion">      0.00000000 </i>
  </dipole>
  <structure>
   <crystal>
    <varray name="basis" >
     <v>      10.89000034       0.00000000       0.00000000 </v>
     <v>       0.00000000      10.89000034       0.00000000 </v>
     <v>       0.00000000       0.00000000      24.07500000 </v>
    </varray>
    <i name="volume">   2855.10498751 </i>
    <varray name="rec_basis" >
     <v>       0.09182736       0.00000000       0.00000000 </v>
     <v>       0.00000000       0.09182736       0.00000000 </v>
     <v>       0.00000000       0.00000000       0.04153686 </v>
    </varray>
   </crystal>
   <varray name="positions" >
    <v>       0.00000000       0.00000000       0.00000000 </v>
    <v>       0.00000000       0.33333333       0.00000000 </v>
    <v>       0.00000000       0.66666667       0.00000000 </v>
    <v>       0.33333333       0.00000000       0.00000000 </v>
    <v>       0.33333333       0.33333333       0.00000000 </v>
    <v>       0.33333333       0.66666667       0.00000000 </v>
    <v>       0.66666667       0.00000000       0.00000000 </v>
    <v>       0.66666667       0.33333333       0.00000000 </v>
    <v>       0.66666667       0.66666667       0.00000000 </v>
    <v>       0.16666667       0.16666667       0.00000000 </v>
    <v>       0.16666667       0.50000000       0.00000000 </v>
    <v>       0.16666667       0.83333333       0.00000000 </v>
    <v>       0.50000000       0.16666667       0.00000000 </v>
    <v>       0.50000000       0.50000000       0.00000000 </v>
    <v>       0.50000000       0.83333333       0.00000000 </v>
    <v>       0.83333333       0.16666667       0.00000000 </v>
    <v>       0.83333333       0.50000000       0.00000000 </v>
    <v>       0.83333333       0.83333333       0.00000000 </v>
    <v>       0.00000000       0.16666667       0.07538941 </v>
    <v>       0.00000000       0.50000000       0.07538941 </v>
    <v>       0.00000000       0.83333333       0.07538941 </v>
    <v>       0.33333333       0.16666667       0.07538941 </v>
    <v>       0.33333333       0.50000000       0.07538941 </v>
    <v>       0.33333333       0.83333333       0.07538941 </v>
    <v>       0.66666667       0.16666667       0.07538941 </v>
    <v>       0.66666667       0.50000000       0.07538941 </v>
    <v>       0.66666667       0.83333333       0.07538941 </v>
    <v>       0.16666667       0.00000000       0.07538941 </v>
    <v>       0.16666667       0.33333333       0.07538941 </v>
    <v>       0.16666667       0.66666667       0.07538941 </v>
    <v>       0.50000000       0.00000000       0.07538941 </v>
    <v>       0.50000000       0.33333333       0.07538941 </v>
    <v>       0.50000000       0.66666667       0.07538941 </v>
    <v>       0.83333333       0.00000000       0.07538941 </v>
    <v>       0.83333333       0.33333333       0.07538941 </v>
    <v>       0.83333333       0.66666667       0.07538941 </v>
    <v>       0.00000000       0.00000000       0.15079372 </v>
    <v>       0.00000000       0.33333333       0.15079372 </v>
    <v>       0.00000000       0.66666667       0.15079372 </v>
    <v>       0.33333333       0.00000000       0.15079372 </v>
    <v>       0.33333333       0.33333333       0.15079372 </v>
    <v>       0.33333333       0.66666667       0.15079372 </v>
    <v>       0.66666667       0.00000000       0.15079372 </v>
    <v>       0.66666667       0.33333333       0.15079372 </v>
    <v>       0.66666667       0.66666667       0.15079372 </v>
    <v>       0.16666667       0.16666667       0.15079372 </v>
    <v>       0.16666667       0.50000000       0.15079372 </v>
    <v>       0.16666667       0.83333333       0.15079372 </v>
    <v>       0.50000000       0.16666667       0.15079372 </v>
    <v>       0.50000000       0.50000000       0.15079372 </v>
    <v>       0.50000000       0.83333333       0.15079372 </v>
    <v>       0.83333333       0.16666667       0.15079372 </v>
    <v>       0.83333333       0.50000000       0.15079372 </v>
    <v>       0.83333333       0.83333333       0.15079372 </v>
    <v>      -0.00000000       0.16666667       0.22612642 </v>
    <v>      -0.00000000       0.50000000       0.22612642 </v>
    <v>       0.00000000       0.83333333       0.22612642 </v>
    <v>       0.33333333       0.16666667       0.22612642 </v>
    <v>       0.33333333       0.50000000       0.22612642 </v>
    <v>       0.33333333       0.83333333       0.22612642 </v>
    <v>       0.66666667       0.16666667       0.22612642 </v>
    <v>       0.66666667       0.50000000       0.22612642 </v>
    <v>       0.66666667       0.83333333       0.22612642 </v>
    <v>       0.16666667       0.00000000       0.22612642 </v>
    <v>       0.16666667       0.33333333       0.22612642 </v>
    <v>       0.16666667       0.66666667       0.22612642 </v>
    <v>       0.50000000       0.00000000       0.22612642 </v>
    <v>       0.50000000       0.33333333       0.22612642 </v>
    <v>       0.50000000       0.66666667       0.22612642 </v>
    <v>       0.83333333      -0.00000000       0.22612642 </v>
    <v>       0.83333333       0.33333333       0.22612642 </v>
    <v>       0.83333333       0.66666667       0.22612642 </v>
    <v>       0.00000000      -0.00000000       0.30173960 </v>
    <v>      -0.00000000       0.33333333       0.30173960 </v>
    <v>      -0.00000000       0.66666667       0.30173960 </v>
    <v>       0.33333333      -0.00000000       0.30173960 </v>
    <v>       0.33333333       0.33333333       0.30173960 </v>
    <v>       0.33333333       0.66666667       0.30173960 </v>
    <v>       0.66666667      -0.00000000       0.30173960 </v>
    <v>       0.66666667       0.33333333       0.30173960 </v>
    <v>       0.66666667       0.66666667       0.30173960 </v>
    <v>       0.16666667       0.16666667       0.30173960 </v>
    <v>       0.16666667       0.50000000       0.30173960 </v>
    <v>       0.16666667       0.83333333       0.30173960 </v>
    <v>       0.50000000       0.16666667       0.30173960 </v>
    <v>       0.50000000       0.50000000       0.30173960 </v>
    <v>       0.50000000       0.83333333       0.30173960 </v>
    <v>       0.83333333       0.16666667       0.30173960 </v>
    <v>       0.83333333       0.50000000       0.30173960 </v>
    <v>       0.83333333       0.83333333       0.30173960 </v>
    <v>       0.00000000       0.16666667       0.37633547 </v>
    <v>       0.00000000       0.50000000       0.37633547 </v>
    <v>       0.00000000       0.83333333       0.37633547 </v>
    <v>       0.33333333       0.16666667       0.37633547 </v>
    <v>       0.33333333       0.50000000       0.37633547 </v>
    <v>       0.33333333       0.83333333       0.37633547 </v>
    <v>       0.66666667       0.16666667       0.37633547 </v>
    <v>       0.66666667       0.50000000       0.37633547 </v>
    <v>       0.66666667       0.83333333       0.37633547 </v>
    <v>       0.16666667       0.00000000       0.37633547 </v>
    <v>       0.16666667       0.33333333       0.37633547 </v>
    <v>       0.16666667       0.66666667       0.37633547 </v>
    <v>       0.50000000      -0.00000000       0.37633547 </v>
    <v>       0.50000000       0.33333333       0.37633547 </v>
    <v>       0.50000000       0.66666667       0.37633547 </v>
    <v>       0.83333333      -0.00000000       0.37633547 </v>
    <v>       0.83333333       0.33333333       0.37633547 </v>
    <v>       0.83333333       0.66666667       0.37633547 </v>
   </varray>
  </structure>
  <varray name="forces" >
   <v>      -0.00000000      -0.00000000       0.32118579 </v>
   <v>       0.00000000      -0.00000000       0.32118579 </v>
   <v>      -0.00000000       0.00000000       0.32118579 </v>
   <v>      -0.00000000       0.00000000       0.32118579 </v>
   <v>      -0.00000000      -0.00000000       0.32118579 </v>
   <v>      -0.00000000       0.00000000       0.32118579 </v>
   <v>       0.00000000      -0.00000000       0.32118579 </v>
   <v>      -0.00000000       0.00000000       0.32118579 </v>
   <v>       0.00000000       0.00000000       0.32118579 </v>
   <v>      -0.00000000      -0.00000000       0.32118579 </v>
   <v>      -0.00000000      -0.00000000       0.32118579 </v>
   <v>      -0.00000000       0.00000000       0.32118579 </v>
   <v>      -0.00000000      -0.00000000       0.32118579 </v>
   <v>       0.00000000      -0.00000000       0.32118579 </v>
   <v>      -0.00000000       0.00000000       0.32118579 </v>
   <v>       0.00000000      -0.00000000       0.32118579 </v>
   <v>      -0.00000000       0.00000000       0.32118579 </v>
   <v>      -0.00000000       0.00000000       0.32118579 </v>
   <v>       0.00000000       0.00000000      -0.08993827 </v>
   <v>       0.00000000      -0.00000000      -0.08993827 </v>
   <v>       0.00000000      -0.00000000      -0.08993827 </v>
   <v>      -0.00000000       0.00000000      -0.08993827 </v>
   <v>       0.00000000      -0.00000000      -0.08993827 </v>
   <v>       0.00000000      -0.00000000      -0.08993827 </v>
   <v>       0.00000000       0.00000000      -0.08993827 </v>
   <v>      -0.00000000       0.00000000      -0.08993827 </v>
   <v>       0.00000000      -0.00000000      -0.08993827 </v>
   <v>      -0.00000000      -0.00000000      -0.08993827 </v>
   <v>       0.00000000       0.00000000      -0.08993827 </v>
   <v>       0.00000000      -0.00000000      -0.08993827 </v>
   <v>      -0.00000000      -0.00000000      -0.08993827 </v>
   <v>      -0.00000000       0.00000000      -0.08993827 </v>
   <v>      -0.00000000      -0.00000000      -0.08993827 </v>
   <v>       0.00000000       0.00000000      -0.08993827 </v>
   <v>       0.00000000      -0.00000000      -0.08993827 </v>
   <v>       0.00000000      -0.00000000      -0.08993827 </v>
   <v>       0.00000000      -0.00000000       0.00370028 </v>
   <v>       0.00000000      -0.00000000       0.00370028 </v>
   <v>       0.00000000      -0.00000000       0.00370028 </v>
   <v>      -0.00000000       0.00000000       0.00370028 </v>
   <v>       0.00000000      -0.00000000       0.00370028 </v>
   <v>       0.00000000      -0.00000000       0.00370028 </v>
   <v>       0.00000000       0.00000000       0.00370028 </v>
   <v>      -0.00000000      -0.00000000       0.00370028 </v>
   <v>      -0.00000000       0.00000000       0.00370028 </v>
   <v>       0.00000000       0.00000000       0.00370028 </v>
   <v>      -0.00000000       0.00000000       0.00370028 </v>
   <v>      -0.00000000       0.00000000       0.00370028 </v>
   <v>      -0.00000000       0.00000000       0.00370028 </v>
   <v>       0.00000000       0.00000000       0.00370028 </v>
   <v>      -0.00000000      -0.00000000       0.00370028 </v>
   <v>       0.00000000       0.00000000       0.00370028 </v>
   <v>      -0.00000000      -0.00000000       0.00370028 </v>
   <v>      -0.00000000       0.00000000       0.00370028 </v>
   <v>       0.00000000       0.00000000      -0.00218154 </v>
   <v>       0.00000000      -0.00000000      -0.00218154 </v>
   <v>       0.00000000       0.00000000      -0.00218154 </v>
   <v>       0.00000000       0.00000000      -0.00218154 </v>
   <v>       0.00000000      -0.00000000      -0.00218154 </v>
   <v>       0.00000000      -0.00000000      -0.00218154 </v>
   <v>      -0.00000000       0.00000000      -0.00218154 </v>
   <v>      -0.00000000      -0.00000000      -0.00218154 </v>
   <v>       0.00000000       0.00000000      -0.00218154 </v>
   <v>      -0.00000000       0.00000000      -0.00218154 </v>
   <v>       0.00000000       0.00000000      -0.00218154 </v>
   <v>       0.00000000      -0.00000000      -0.00218154 </v>
   <v>      -0.00000000      -0.00000000      -0.00218154 </v>
   <v>      -0.00000000      -0.00000000      -0.00218154 </v>
   <v>      -0.00000000       0.00000000      -0.00218154 </v>
   <v>       0.00000000       0.00000000      -0.00218154 </v>
   <v>      -0.00000000      -0.00000000      -0.00218154 </v>
   <v>      -0.00000000       0.00000000      -0.00218154 </v>
   <v>       0.00000000       0.00000000       0.01441097 </v>
   <v>      -0.00000000      -0.00000000       0.01441097 </v>
   <v>      -0.00000000      -0.00000000       0.01441097 </v>
   <v>       0.00000000      -0.00000000       0.01441097 </v>
   <v>       0.00000000      -0.00000000       0.01441097 </v>
   <v>      -0.00000000      -0.00000000       0.01441097 </v>
   <v>       0.00000000       0.00000000       0.01441097 </v>
   <v>       0.00000000      -0.00000000       0.01441097 </v>
   <v>       0.00000000       0.00000000       0.01441097 </v>
   <v>      -0.00000000      -0.00000000       0.01441097 </v>
   <v>       0.00000000       0.00000000       0.01441097 </v>
   <v>      -0.00000000       0.00000000       0.01441097 </v>
   <v>       0.00000000       0.00000000       0.01441097 </v>
   <v>      -0.00000000      -0.00000000       0.01441097 </v>
   <v>       0.00000000       0.00000000       0.01441097 </v>
   <v>       0.00000000      -0.00000000       0.01441097 </v>
   <v>       0.00000000       0.00000000       0.01441097 </v>
   <v>       0.00000000       0.00000000       0.01441097 </v>
   <v>       0.00000000      -0.00000000      -0.24717724 </v>
   <v>       0.00000000      -0.00000000      -0.24717724 </v>
   <v>      -0.00000000       0.00000000      -0.24717724 </v>
   <v>       0.00000000      -0.00000000      -0.24717724 </v>
   <v>      -0.00000000      -0.00000000      -0.24717724 </v>
   <v>       0.00000000      -0.00000000      -0.24717724 </v>
   <v>       0.00000000       0.00000000      -0.24717724 </v>
   <v>      -0.00000000      -0.00000000      -0.24717724 </v>
   <v>       0.00000000      -0.00000000      -0.24717724 </v>
   <v>       0.00000000       0.00000000      -0.24717724 </v>
   <v>      -0.00000000       0.00000000      -0.24717724 </v>
   <v>      -0.00000000      -0.00000000      -0.24717724 </v>
   <v>       0.00000000      -0.00000000      -0.24717724 </v>
   <v>       0.00000000      -0.00000000      -0.24717724 </v>
   <v>       0.00000000       0.00000000      -0.24717724 </v>
   <v>      -0.00000000       0.00000000      -0.24717724 </v>
   <v>      -0.00000000      -0.00000000      -0.24717724 </v>
   <v>       0.00000000      -0.00000000      -0.24717724 </v>
  </varray>
  <varray name="stress" >
   <v>     -45.78421524       0.00000000       0.00000000 </v>
   <v>       0.00000000     -45.78421524       0.00000000 </v>
   <v>       0.00000000       0.00000000     -27.18766426 </v>
  </varray>
  <energy>
   <i name="e_fr_energy">   -422.47192710 </i>
   <i name="e_wo_entrp">   -422.49494772 </i>
   <i name="e_0_energy">   -422.47960064 </i>
  </energy>
  <time name="totalsc"> 2721.46 2751.77</time>
 </calculation>
 <calculation>
  <scstep>
   <time name="dav">  285.58  288.75</time>
   <time name="total">  289.24  292.43</time>
   <energy>
    <i name="alphaZ">   2987.70457159 </i>
    <i name="ewald"> 546630.14320752 </i>
    <i name="hartreedc">-691160.64069592 </i>
    <i name="XCdc">   4810.52564782 </i>
    <i name="pawpsdc"> 140638.31917143 </i>
    <i name="pawaedc">-152258.29150678 </i>
    <i name="eentropy">      0.01591166 </i>
    <i name="bandstr">  -2252.71346189 </i>
    <i name="atom"> 150223.42514157 </i>
    <i name="e_fr_energy">   -381.51201300 </i>
    <i name="e_wo_entrp">   -381.52792465 </i>
    <i name="e_0_energy">   -381.51731688 </i>
   </energy>
  </scstep>
  <scstep>
   <time name="dav">  368.65  372.62</time>
   <time name="total">  372.37  376.37</time>
   <energy>
    <i name="e_fr_energy">   -381.57629531 </i>
    <i name="e_wo_entrp">   -381.59560430 </i>
    <i name="e_0_energy">   -381.58273164 </i>
   </energy>
  </scstep>
  <scstep>
   <time name="dav">  279.28  282.48</time>
   <time name="total">  282.92  286.15</time>
   <energy>
    <i name="e_fr_energy">   -381.57179026 </i>
    <i name="e_wo_entrp">   -381.58905533 </i>
    <i name="e_0_energy">   -381.57754528 </i>
   </energy>
  </scstep>
  <scstep>
   <time name="dav">  289.70  292.61</time>
   <time name="total">  293.48  296.42</time>
   <energy>
    <i name="e_fr_energy">   -381.57158440 </i>
    <i name="e_wo_entrp">   -381.58838316 </i>
    <i name="e_0_energy">   -381.57718399 </i>
   </energy>
  </scstep>
  <scstep>
   <time name="dav">  278.49  281.64</time>
   <time name="total">  282.13  285.31</time>
   <energy>
    <i name="e_fr_energy">   -381.57163742 </i>
    <i name="e_wo_entrp">   -381.58943289 </i>
    <i name="e_0_energy">   -381.57756924 </i>
   </energy>
  </scstep>
  <scstep>
   <time name="dav">  303.97  307.56</time>
   <time name="total">  307.70  311.32</time>
   <energy>
    <i name="e_fr_energy">   -381.57090024 </i>
    <i name="e_wo_entrp">   -381.58811371 </i>
    <i name="e_0_energy">   -381.57663807 </i>
   </energy>
  </scstep>
  <scstep>
   <time name="dav">  295.56  299.42</time>
   <time name="total">  295.79  299.67</time>
   <energy>
    <i name="alphaZ">   2987.70457159 </i>
    <i name="ewald"> 546630.14320752 </i>
    <i name="hartreedc">-691159.16736499 </i>
    <i name="XCdc">   4810.35761146 </i>
    <i name="pawpsdc"> 140700.44294618 </i>
    <i name="pawaedc">-152321.61365591 </i>
    <i name="eentropy">      0.01712876 </i>
    <i name="bandstr">  -2252.88042041 </i>
    <i name="atom"> 150223.42514157 </i>
    <i name="e_fr_energy">   -381.57083422 </i>
    <i name="e_wo_entrp">   -381.58796297 </i>
[...]
       <r>    -0.6241   247.0814   538.5464 </r>
       <r>    -0.5508   191.2875   552.5704 </r>
       <r>    -0.4774   125.9390   561.8034 </r>
       <r>    -0.4041    72.8747   567.1461 </r>
       <r>    -0.3308    42.0361   570.2279 </r>
       <r>    -0.2575    28.5358   572.3199 </r>
       <r>    -0.1842    22.7698   573.9892 </r>
       <r>    -0.1109    19.9171   575.4494 </r>
       <r>    -0.0376    18.9653   576.8398 </r>
       <r>     0.0357    18.1505   578.1705 </r>
       <r>     0.1091    15.8077   579.3294 </r>
       <r>     0.1824    12.8880   580.2743 </r>
       <r>     0.2557    11.6178   581.1260 </r>
       <r>     0.3290    13.1591   582.0908 </r>
       <r>     0.4023    17.0761   583.3427 </r>
       <r>     0.4756    21.6876   584.9327 </r>
       <r>     0.5489    25.2607   586.7846 </r>
       <r>     0.6223    27.1218   588.7730 </r>
       <r>     0.6956    27.1579   590.7640 </r>
       <r>     0.7689    25.3411   592.6219 </r>
       <r>     0.8422    22.0987   594.2420 </r>
       <r>     0.9155    17.9396   595.5572 </r>
       <r>     0.9888    13.0205   596.5118 </r>
       <r>     1.0621     7.8361   597.0863 </r>
       <r>     1.1354     3.8490   597.3685 </r>
       <r>     1.2088     2.8841   597.5799 </r>
       <r>     1.2821     5.6722   597.9958 </r>
       <r>     1.3554    11.1587   598.8138 </r>
       <r>     1.4287    17.4814   600.0955 </r>
       <r>     1.5020    23.1485   601.7926 </r>
       <r>     1.5753    27.0168   603.7733 </r>
       <r>     1.6486    28.0207   605.8275 </r>
       <r>     1.7220    25.8085   607.7197 </r>
       <r>     1.7953    21.5229   609.2976 </r>
       <r>     1.8686    17.2372   610.5613 </r>
       <r>     1.9419    14.1388   611.5978 </r>
       <r>     2.0152    11.7667   612.4605 </r>
       <r>     2.0885    10.0705   613.1988 </r>
       <r>     2.1618    11.3003   614.0273 </r>
       <r>     2.2351    17.0691   615.2787 </r>
       <r>     2.3085    23.7467   617.0196 </r>
       <r>     2.3818    24.6513   618.8269 </r>
       <r>     2.4551    17.8134   620.1328 </r>
       <r>     2.5284     8.3302   620.7436 </r>
       <r>     2.6017     2.4175   620.9208 </r>
       <r>     2.6750     1.9688   621.0651 </r>
       <r>     2.7483     5.2147   621.4474 </r>
       <r>     2.8217    10.1938   622.1948 </r>
       <r>     2.8950    16.0617   623.3723 </r>
       <r>     2.9683    21.6071   624.9564 </r>
       <r>     3.0416    24.7013   626.7673 </r>
       <r>     3.1149    24.3186   628.5502 </r>
       <r>     3.1882    21.6474   630.1372 </r>
       <r>     3.2615    18.8093   631.5162 </r>
       <r>     3.3348    17.3907   632.7912 </r>
       <r>     3.4082    17.3171   634.0608 </r>
       <r>     3.4815    16.7371   635.2878 </r>
       <r>     3.5548    14.2469   636.3323 </r>
       <r>     3.6281    10.6433   637.1126 </r>
       <r>     3.7014     7.3440   637.6510 </r>
       <r>     3.7747     4.5900   637.9875 </r>
       <r>     3.8480     2.6325   638.1805 </r>
       <r>     3.9214     3.1115   638.4086 </r>
       <r>     3.9947     7.3308   638.9461 </r>
       <r>     4.0680    13.7321   639.9528 </r>
       <r>     4.1413    18.6532   641.3203 </r>
       <r>     4.2146    19.7093   642.7653 </r>
       <r>     4.2879    17.6979   644.0628 </r>
       <r>     4.3612    15.4720   645.1971 </r>
       <r>     4.4345    15.5867   646.3398 </r>
       <r>     4.5079    18.4767   647.6944 </r>
       <r>     4.5812    22.0473   649.3108 </r>
       <r>     4.6545    23.5746   651.0391 </r>
       <r>     4.7278    22.6564   652.7001 </r>
       <r>     4.8011    21.0434   654.2429 </r>
       <r>     4.8744    19.5734   655.6779 </r>
       <r>     4.9477    17.7048   656.9759 </r>
       <r>     5.0211    15.5103   658.1130 </r>
       <r>     5.0944    13.8261   659.1266 </r>
       <r>     5.1677    13.4502   660.1127 </r>
       <r>     5.2410    15.0977   661.2196 </r>
       <r>     5.3143    18.5093   662.5765 </r>
       <r>     5.3876    21.3297   664.1403 </r>
       <r>     5.4609    20.9059   665.6730 </r>
       <r>     5.5342    17.7557   666.9747 </r>
       <r>     5.6076    15.1589   668.0860 </r>
       <r>     5.6809    14.8472   669.1745 </r>
       <r>     5.7542    15.5344   670.3134 </r>
       <r>     5.8275    16.1525   671.4976 </r>
       <r>     5.9008    17.6884   672.7944 </r>
       <r>     5.9741    20.5118   674.2982 </r>
       <r>     6.0474    22.3813   675.9390 </r>
       <r>     6.1208    21.2839   677.4994 </r>
       <r>     6.1941    18.6643   678.8678 </r>
       <r>     6.2674    17.8199   680.1742 </r>
       <r>     6.3407    20.2181   681.6565 </r>
       <r>     6.4140    24.7948   683.4743 </r>
       <r>     6.4873    29.5845   685.6432 </r>
       <r>     6.5606    32.5599   688.0303 </r>
       <r>     6.6339    32.2063   690.3914 </r>
       <r>     6.7073    28.8357   692.5055 </r>
       <r>     6.7806    24.2079   694.2802 </r>
       <r>     6.8539    19.5649   695.7146 </r>
       <r>     6.9272    15.6650   696.8630 </r>
       <r>     7.0005    13.9823   697.8881 </r>
       <r>     7.0738    15.7794   699.0450 </r>
       <r>     7.1471    20.2565   700.5300 </r>
       <r>     7.2205    24.6516   702.3373 </r>
       <r>     7.2938    26.2331   704.2606 </r>
       <r>     7.3671    24.4499   706.0531 </r>
       <r>     7.4404    21.3486   707.6182 </r>
       <r>     7.5137    19.3171   709.0344 </r>
       <r>     7.5870    18.7456   710.4087 </r>
       <r>     7.6603    18.8653   711.7918 </r>
       <r>     7.7336    19.6641   713.2334 </r>
       <r>     7.8070    21.4394   714.8052 </r>
       <r>     7.8803    23.9298   716.5596 </r>
       <r>     7.9536    26.9248   718.5335 </r>
       <r>     8.0269    29.7903   720.7176 </r>
       <r>     8.1002    30.4191   722.9477 </r>
       <r>     8.1735    27.4164   724.9577 </r>
       <r>     8.2468    23.0114   726.6447 </r>
       <r>     8.3202    21.1022   728.1918 </r>
       <r>     8.3935    22.7493   729.8596 </r>
       <r>     8.4668    25.7418   731.7468 </r>
       <r>     8.5401    27.9103   733.7930 </r>
       <r>     8.6134    28.6700   735.8949 </r>
       <r>     8.6867    28.2478   737.9659 </r>
       <r>     8.7600    27.8547   740.0080 </r>
       <r>     8.8333    29.5042   742.1710 </r>
       <r>     8.9067    33.1579   744.6019 </r>
       <r>     8.9800    35.3309   747.1922 </r>
       <r>     9.0533    33.1588   749.6232 </r>
       <r>     9.1266    28.7740   751.7327 </r>
       <r>     9.1999    26.8754   753.7030 </r>
       <r>     9.2732    28.6943   755.8067 </r>
       <r>     9.3465    31.2706   758.0992 </r>
       <r>     9.4199    31.9121   760.4388 </r>
       <r>     9.4932    30.1277   762.6476 </r>
       <r>     9.5665    26.1173   764.5623 </r>
       <r>     9.6398    20.4100   766.0586 </r>
       <r>     9.7131    14.2050   767.1000 </r>
       <r>     9.7864     8.5501   767.7269 </r>
       <r>     9.8597     3.9901   768.0194 </r>
       <r>     9.9330     0.9856   768.0917 </r>
       <r>    10.0064    -0.3307   768.0674 </r>
       <r>    10.0797    -0.5005   768.0307 </r>
       <r>    10.1530    -0.2841   768.0099 </r>
       <r>    10.2263    -0.1030   768.0023 </r>
       <r>    10.2996    -0.0263   768.0004 </r>
       <r>    10.3729    -0.0049   768.0001 </r>
       <r>    10.4462    -0.0007   768.0000 </r>
       <r>    10.5196    -0.0001   768.0000 </r>
       <r>    10.5929    -0.0000   768.0000 </r>
       <r>    10.6662    -0.0000   768.0000 </r>
       <r>    10.7395    -0.0000   768.0000 </r>
       <r>    10.8128    -0.0000   768.0000 </r>
       <r>    10.8861    -0.0000   768.0000 </r>
       <r>    10.9594    -0.0000   768.0000 </r>
       <r>    11.0327    -0.0000   768.0000 </r>
       <r>    11.1061     0.0000   768.0000 </r>
       <r>    11.1794     0.0000   768.0000 </r>
       <r>    11.2527     0.0000   768.0000 </r>
       <r>    11.3260     0.0000   768.0000 </r>
       <r>    11.3993     0.0000   768.0000 </r>
       <r>    11.4726     0.0000   768.0000 </r>
       <r>    11.5459     0.0000   768.0000 </r>
       <r>    11.6193     0.0000   768.0000 </r>
       <r>    11.6926     0.0000   768.0000 </r>
       <r>    11.7659     0.0000   768.0000 </r>
      </set>
     </set>
    </array>
   </total>
  </dos>
 </calculation>
 <structure name="finalpos" >
  <crystal>
   <varray name="basis" >
    <v>      10.89000034       0.00000000       0.00000000 </v>
    <v>       0.00000000      10.89000034       0.00000000 </v>
    <v>       0.00000000       0.00000000      24.07500000 </v>
   </varray>
   <i name="volume">   2855.10498751 </i>
   <varray name="rec_basis" >
    <v>       0.09182736       0.00000000       0.00000000 </v>
    <v>       0.00000000       0.09182736       0.00000000 </v>
    <v>       0.00000000       0.00000000       0.04153686 </v>
   </varray>
  </crystal>
  <varray name="positions" >
   <v>       0.00000000       0.00000000       0.00000000 </v>
   <v>       0.00000000       0.33333333       0.00000000 </v>
   <v>       0.00000000       0.66666667       0.00000000 </v>
   <v>       0.33333333       0.00000000       0.00000000 </v>
   <v>       0.33333333       0.33333333       0.00000000 </v>
   <v>       0.33333333       0.66666667       0.00000000 </v>
   <v>       0.66666667       0.00000000       0.00000000 </v>
   <v>       0.66666667       0.33333333       0.00000000 </v>
   <v>       0.66666667       0.66666667       0.00000000 </v>
   <v>       0.16666667       0.16666667       0.00000000 </v>
   <v>       0.16666667       0.50000000       0.00000000 </v>
   <v>       0.16666667       0.83333333       0.00000000 </v>
   <v>       0.50000000       0.16666667       0.00000000 </v>
   <v>       0.50000000       0.50000000       0.00000000 </v>
   <v>       0.50000000       0.83333333       0.00000000 </v>
   <v>       0.83333333       0.16666667       0.00000000 </v>
   <v>       0.83333333       0.50000000       0.00000000 </v>
   <v>       0.83333333       0.83333333       0.00000000 </v>
   <v>       0.00000000       0.16666667       0.07538941 </v>
   <v>       0.00000000       0.50000000       0.07538941 </v>
   <v>       0.00000000       0.83333333       0.07538941 </v>
   <v>       0.33333333       0.16666667       0.07538941 </v>
   <v>       0.33333333       0.50000000       0.07538941 </v>
   <v>       0.33333333       0.83333333       0.07538941 </v>
   <v>       0.66666667       0.16666667       0.07538941 </v>
   <v>       0.66666667       0.50000000       0.07538941 </v>
   <v>       0.66666667       0.83333333       0.07538941 </v>
   <v>       0.16666667       0.00000000       0.07538941 </v>
   <v>       0.16666667       0.33333333       0.07538941 </v>
   <v>       0.16666667       0.66666667       0.07538941 </v>
   <v>       0.50000000       0.00000000       0.07538941 </v>
   <v>       0.50000000       0.33333333       0.07538941 </v>
   <v>       0.50000000       0.66666667       0.07538941 </v>
   <v>       0.83333333       0.00000000       0.07538941 </v>
   <v>       0.83333333       0.33333333       0.07538941 </v>
   <v>       0.83333333       0.66666667       0.07538941 </v>
   <v>       0.00000000       0.00000000       0.14851563 </v>
   <v>      -0.00000000       0.33333333       0.14851563 </v>
   <v>      -0.00000000       0.66666667       0.14851563 </v>
   <v>       0.33333333      -0.00000000       0.14851563 </v>
   <v>       0.33333333       0.33333333       0.14851563 </v>
   <v>       0.33333333       0.66666667       0.14851563 </v>
   <v>       0.66666667      -0.00000000       0.14851563 </v>
   <v>       0.66666667       0.33333333       0.14851563 </v>
   <v>       0.66666667       0.66666667       0.14851563 </v>
   <v>       0.16666667       0.16666667       0.14851563 </v>
   <v>       0.16666667       0.50000000       0.14851563 </v>
   <v>       0.16666667       0.83333333       0.14851563 </v>
   <v>       0.50000000       0.16666667       0.14851563 </v>
   <v>       0.50000000       0.50000000       0.14851563 </v>
   <v>       0.50000000       0.83333333       0.14851563 </v>
   <v>       0.83333333       0.16666667       0.14851563 </v>
   <v>       0.83333333       0.50000000       0.14851563 </v>
   <v>       0.83333333       0.83333333       0.14851563 </v>
   <v>      -0.00000000       0.16666667       0.22147908 </v>
   <v>       0.00000000       0.50000000       0.22147908 </v>
   <v>      -0.00000000       0.83333333       0.22147908 </v>
   <v>       0.33333333       0.16666667       0.22147908 </v>
   <v>       0.33333333       0.50000000       0.22147908 </v>
   <v>       0.33333333       0.83333333       0.22147908 </v>
   <v>       0.66666667       0.16666667       0.22147908 </v>
   <v>       0.66666667       0.50000000       0.22147908 </v>
   <v>       0.66666667       0.83333333       0.22147908 </v>
   <v>       0.16666667       0.00000000       0.22147908 </v>
   <v>       0.16666667       0.33333333       0.22147908 </v>
   <v>       0.16666667       0.66666667       0.22147908 </v>
   <v>       0.50000000       0.00000000       0.22147908 </v>
   <v>       0.50000000       0.33333333       0.22147908 </v>
   <v>       0.50000000       0.66666667       0.22147908 </v>
   <v>       0.83333333      -0.00000000       0.22147908 </v>
   <v>       0.83333333       0.33333333       0.22147908 </v>
   <v>       0.83333333       0.66666667       0.22147908 </v>
   <v>       0.00000000      -0.00000000       0.29517045 </v>
   <v>       0.00000000       0.33333333       0.29517045 </v>
   <v>       0.00000000       0.66666667       0.29517045 </v>
   <v>       0.33333333      -0.00000000       0.29517045 </v>
   <v>       0.33333333       0.33333333       0.29517045 </v>
   <v>       0.33333333       0.66666667       0.29517045 </v>
   <v>       0.66666667      -0.00000000       0.29517045 </v>
   <v>       0.66666667       0.33333333       0.29517045 </v>
   <v>       0.66666667       0.66666667       0.29517045 </v>
   <v>       0.16666667       0.16666667       0.29517045 </v>
   <v>       0.16666667       0.50000000       0.29517045 </v>
   <v>       0.16666667       0.83333333       0.29517045 </v>
   <v>       0.50000000       0.16666667       0.29517045 </v>
   <v>       0.50000000       0.50000000       0.29517045 </v>
   <v>       0.50000000       0.83333333       0.29517045 </v>
   <v>       0.83333333       0.16666667       0.29517045 </v>
   <v>       0.83333333       0.50000000       0.29517045 </v>
   <v>       0.83333333       0.83333333       0.29517045 </v>
   <v>       0.00000000       0.16666667       0.36729652 </v>
   <v>       0.00000000       0.50000000       0.36729652 </v>
   <v>       0.00000000       0.83333333       0.36729652 </v>
   <v>       0.33333333       0.16666667       0.36729652 </v>
   <v>       0.33333333       0.50000000       0.36729652 </v>
   <v>       0.33333333       0.83333333       0.36729652 </v>
   <v>       0.66666667       0.16666667       0.36729652 </v>
   <v>       0.66666667       0.50000000       0.36729652 </v>
   <v>       0.66666667       0.83333333       0.36729652 </v>
   <v>       0.16666667       0.00000000       0.36729652 </v>
   <v>       0.16666667       0.33333333       0.36729652 </v>
   <v>       0.16666667       0.66666667       0.36729652 </v>
   <v>       0.50000000      -0.00000000       0.36729652 </v>
   <v>       0.50000000       0.33333333       0.36729652 </v>
   <v>       0.50000000       0.66666667       0.36729652 </v>
   <v>       0.83333333       0.00000000       0.36729652 </v>
   <v>       0.83333333       0.33333333       0.36729652 </v>
   <v>       0.83333333       0.66666667       0.36729652 </v>
  </varray>
  <varray name="selective"  type="logical" >
   <v type="logical" >  F  F  F </v>
   <v type="logical" >  F  F  F </v>
   <v type="logical" >  F  F  F </v>
   <v type="logical" >  F  F  F </v>
   <v type="logical" >  F  F  F </v>
   <v type="logical" >  F  F  F </v>
   <v type="logical" >  F  F  F </v>
   <v type="logical" >  F  F  F </v>
   <v type="logical" >  F  F  F </v>
   <v type="logical" >  F  F  F </v>
   <v type="logical" >  F  F  F </v>
   <v type="logical" >  F  F  F </v>
   <v type="logical" >  F  F  F </v>
   <v type="logical" >  F  F  F </v>
   <v type="logical" >  F  F  F </v>
   <v type="logical" >  F  F  F </v>
   <v type="logical" >  F  F  F </v>
   <v type="logical" >  F  F  F </v>
   <v type="logical" >  F  F  F </v>
   <v type="logical" >  F  F  F </v>
   <v type="logical" >  F  F  F </v>
   <v type="logical" >  F  F  F </v>
   <v type="logical" >  F  F  F </v>
   <v type="logical" >  F  F  F </v>
   <v type="logical" >  F  F  F </v>
   <v type="logical" >  F  F  F </v>
   <v type="logical" >  F  F  F </v>
   <v type="logical" >  F  F  F </v>
   <v type="logical" >  F  F  F </v>
   <v type="logical" >  F  F  F </v>
   <v type="logical" >  F  F  F </v>
   <v type="logical" >  F  F  F </v>
   <v type="logical" >  F  F  F </v>
   <v type="logical" >  F  F  F </v>
   <v type="logical" >  F  F  F </v>
   <v type="logical" >  F  F  F </v>
   <v type="logical" >  T  T  T </v>
   <v type="logical" >  T  T  T </v>
   <v type="logical" >  T  T  T </v>
   <v type="logical" >  T  T  T </v>
   <v type="logical" >  T  T  T </v>
   <v type="logical" >  T  T  T </v>
   <v type="logical" >  T  T  T </v>
   <v type="logical" >  T  T  T </v>
   <v type="logical" >  T  T  T </v>
   <v type="logical" >  T  T  T </v>
   <v type="logical" >  T  T  T </v>
   <v type="logical" >  T  T  T </v>
   <v type="logical" >  T  T  T </v>
   <v type="logical" >  T  T  T </v>
   <v type="logical" >  T  T  T </v>
   <v type="logical" >  T  T  T </v>
   <v type="logical" >  T  T  T </v>
   <v type="logical" >  T  T  T </v>
   <v type="logical" >  T  T  T </v>
   <v type="logical" >  T  T  T </v>
   <v type="logical" >  T  T  T </v>
   <v type="logical" >  T  T  T </v>
   <v type="logical" >  T  T  T </v>
   <v type="logical" >  T  T  T </v>
   <v type="logical" >  T  T  T </v>
   <v type="logical" >  T  T  T </v>
   <v type="logical" >  T  T  T </v>
   <v type="logical" >  T  T  T </v>
   <v type="logical" >  T  T  T </v>
   <v type="logical" >  T  T  T </v>
   <v type="logical" >  T  T  T </v>
   <v type="logical" >  T  T  T </v>
   <v type="logical" >  T  T  T </v>
   <v type="logical" >  T  T  T </v>
   <v type="logical" >  T  T  T </v>
   <v type="logical" >  T  T  T </v>
   <v type="logical" >  T  T  T </v>
   <v type="logical" >  T  T  T </v>
   <v type="logical" >  T  T  T </v>
   <v type="logical" >  T  T  T </v>
   <v type="logical" >  T  T  T </v>
   <v type="logical" >  T  T  T </v>
   <v type="logical" >  T  T  T </v>
   <v type="logical" >  T  T  T </v>
   <v type="logical" >  T  T  T </v>
   <v type="logical" >  T  T  T </v>
   <v type="logical" >  T  T  T </v>
   <v type="logical" >  T  T  T </v>
   <v type="logical" >  T  T  T </v>
   <v type="logical" >  T  T  T </v>
   <v type="logical" >  T  T  T </v>
   <v type="logical" >  T  T  T </v>
   <v type="logical" >  T  T  T </v>
   <v type="logical" >  T  T  T </v>
   <v type="logical" >  T  T  T </v>
   <v type="logical" >  T  T  T </v>
   <v type="logical" >  T  T  T </v>
   <v type="logical" >  T  T  T </v>
   <v type="logical" >  T  T  T </v>
   <v type="logical" >  T  T  T </v>
   <v type="logical" >  T  T  T </v>
   <v type="logical" >  T  T  T </v>
   <v type="logical" >  T  T  T </v>
   <v type="logical" >  T  T  T </v>
   <v type="logical" >  T  T  T </v>
   <v type="logical" >  T  T  T </v>
   <v type="logical" >  T  T  T </v>
   <v type="logical" >  T  T  T </v>
   <v type="logical" >  T  T  T </v>
   <v type="logical" >  T  T  T </v>
   <v type="logical" >  T  T  T </v>
   <v type="logical" >  T  T  T </v>
  </varray>
  <nose>
   <v>      -3.00000000       0.00000000       0.00010000       0.00010000 </v>
  </nose>
 </structure>
</modeling>
