unknown system                          
           1
    10.890000    0.000000    0.000000
     0.000000   10.890000    0.000000
     0.000000    0.000000   24.075000
   Cu
   108
Direct configuration=     1
   0.00000000  0.00000000  0.00000000
   0.00000000  0.33333333  0.00000000
   0.00000000  0.66666667  0.00000000
   0.33333333  0.00000000  0.00000000
   0.33333333  0.33333333  0.00000000
   0.33333333  0.66666667  0.00000000
   0.66666667  0.00000000  0.00000000
   0.66666667  0.33333333  0.00000000
   0.66666667  0.66666667  0.00000000
   0.16666667  0.16666667  0.00000000
   0.16666667  0.50000000  0.00000000
   0.16666667  0.83333333  0.00000000
   0.50000000  0.16666667  0.00000000
   0.50000000  0.50000000  0.00000000
   0.50000000  0.83333333  0.00000000
   0.83333333  0.16666667  0.00000000
   0.83333333  0.50000000  0.00000000
   0.83333333  0.83333333  0.00000000
   0.00000000  0.16666667  0.07538941
   0.00000000  0.50000000  0.07538941
   0.00000000  0.83333333  0.07538941
   0.33333333  0.16666667  0.07538941
   0.33333333  0.50000000  0.07538941
   0.33333333  0.83333333  0.07538941
   0.66666667  0.16666667  0.07538941
   0.66666667  0.50000000  0.07538941
   0.66666667  0.83333333  0.07538941
   0.16666667  0.00000000  0.07538941
   0.16666667  0.33333333  0.07538941
   0.16666667  0.66666667  0.07538941
   0.50000000  0.00000000  0.07538941
   0.50000000  0.33333333  0.07538941
   0.50000000  0.66666667  0.07538941
   0.83333333  0.00000000  0.07538941
   0.83333333  0.33333333  0.07538941
   0.83333333  0.66666667  0.07538941
   0.00000000  0.00000000  0.15077882
   0.00000000  0.33333333  0.15077882
   0.00000000  0.66666667  0.15077882
   0.33333333  0.00000000  0.15077882
   0.33333333  0.33333333  0.15077882
   0.33333333  0.66666667  0.15077882
   0.66666667  0.00000000  0.15077882
   0.66666667  0.33333333  0.15077882
   0.66666667  0.66666667  0.15077882
   0.16666667  0.16666667  0.15077882
   0.16666667  0.50000000  0.15077882
   0.16666667  0.83333333  0.15077882
   0.50000000  0.16666667  0.15077882
   0.50000000  0.50000000  0.15077882
   0.50000000  0.83333333  0.15077882
   0.83333333  0.16666667  0.15077882
   0.83333333  0.50000000  0.15077882
   0.83333333  0.83333333  0.15077882
   0.00000000  0.16666667  0.22616823
   0.00000000  0.50000000  0.22616823
   0.00000000  0.83333333  0.22616823
   0.33333333  0.16666667  0.22616823
   0.33333333  0.50000000  0.22616823
   0.33333333  0.83333333  0.22616823
   0.66666667  0.16666667  0.22616823
   0.66666667  0.50000000  0.22616823
   0.66666667  0.83333333  0.22616823
   0.16666667  0.00000000  0.22616823
   0.16666667  0.33333333  0.22616823
   0.16666667  0.66666667  0.22616823
   0.50000000  0.00000000  0.22616823
   0.50000000  0.33333333  0.22616823
   0.50000000  0.66666667  0.22616823
   0.83333333  0.00000000  0.22616823
   0.83333333  0.33333333  0.22616823
   0.83333333  0.66666667  0.22616823
   0.00000000  0.00000000  0.30155764
   0.00000000  0.33333333  0.30155764
   0.00000000  0.66666667  0.30155764
   0.33333333  0.00000000  0.30155764
   0.33333333  0.33333333  0.30155764
   0.33333333  0.66666667  0.30155764
   0.66666667  0.00000000  0.30155764
   0.66666667  0.33333333  0.30155764
   0.66666667  0.66666667  0.30155764
   0.16666667  0.16666667  0.30155764
   0.16666667  0.50000000  0.30155764
   0.16666667  0.83333333  0.30155764
   0.50000000  0.16666667  0.30155764
   0.50000000  0.50000000  0.30155764
   0.50000000  0.83333333  0.30155764
   0.83333333  0.16666667  0.30155764
   0.83333333  0.50000000  0.30155764
   0.83333333  0.83333333  0.30155764
   0.00000000  0.16666667  0.37694705
   0.00000000  0.50000000  0.37694705
   0.00000000  0.83333333  0.37694705
   0.33333333  0.16666667  0.37694705
   0.33333333  0.50000000  0.37694705
   0.33333333  0.83333333  0.37694705
   0.66666667  0.16666667  0.37694705
   0.66666667  0.50000000  0.37694705
   0.66666667  0.83333333  0.37694705
   0.16666667  0.00000000  0.37694705
   0.16666667  0.33333333  0.37694705
   0.16666667  0.66666667  0.37694705
   0.50000000  0.00000000  0.37694705
   0.50000000  0.33333333  0.37694705
   0.50000000  0.66666667  0.37694705
   0.83333333  0.00000000  0.37694705
   0.83333333  0.33333333  0.37694705
   0.83333333  0.66666667  0.37694705
Direct configuration=     2
   0.00000000  0.00000000  0.00000000
   0.00000000  0.33333333  0.00000000
   0.00000000  0.66666667  0.00000000
   0.33333333  0.00000000  0.00000000
   0.33333333  0.33333333  0.00000000
   0.33333333  0.66666667  0.00000000
   0.66666667  0.00000000  0.00000000
   0.66666667  0.33333333  0.00000000
   0.66666667  0.66666667  0.00000000
   0.16666667  0.16666667  0.00000000
   0.16666667  0.50000000  0.00000000
   0.16666667  0.83333333  0.00000000
   0.50000000  0.16666667  0.00000000
   0.50000000  0.50000000  0.00000000
   0.50000000  0.83333333  0.00000000
   0.83333333  0.16666667  0.00000000
   0.83333333  0.50000000  0.00000000
   0.83333333  0.83333333  0.00000000
   0.00000000  0.16666667  0.07538941
   0.00000000  0.50000000  0.07538941
   0.00000000  0.83333333  0.07538941
   0.33333333  0.16666667  0.07538941
   0.33333333  0.50000000  0.07538941
   0.33333333  0.83333333  0.07538941
   0.66666667  0.16666667  0.07538941
   0.66666667  0.50000000  0.07538941
   0.66666667  0.83333333  0.07538941
   0.16666667  0.00000000  0.07538941
   0.16666667  0.33333333  0.07538941
   0.16666667  0.66666667  0.07538941
   0.50000000  0.00000000  0.07538941
   0.50000000  0.33333333  0.07538941
   0.50000000  0.66666667  0.07538941
   0.83333333  0.00000000  0.07538941
   0.83333333  0.33333333  0.07538941
   0.83333333  0.66666667  0.07538941
   0.00000000  0.00000000  0.15079372
   0.00000000  0.33333333  0.15079372
   0.00000000  0.66666667  0.15079372
   0.33333333  0.00000000  0.15079372
   0.33333333  0.33333333  0.15079372
   0.33333333  0.66666667  0.15079372
   0.66666667  0.00000000  0.15079372
   0.66666667  0.33333333  0.15079372
   0.66666667  0.66666667  0.15079372
   0.16666667  0.16666667  0.15079372
   0.16666667  0.50000000  0.15079372
   0.16666667  0.83333333  0.15079372
   0.50000000  0.16666667  0.15079372
   0.50000000  0.50000000  0.15079372
   0.50000000  0.83333333  0.15079372
   0.83333333  0.16666667  0.15079372
   0.83333333  0.50000000  0.15079372
   0.83333333  0.83333333  0.15079372
  -0.00000000  0.16666667  0.22612642
  -0.00000000  0.50000000  0.22612642
   0.00000000  0.83333333  0.22612642
   0.33333333  0.16666667  0.22612642
   0.33333333  0.50000000  0.22612642
   0.33333333  0.83333333  0.22612642
   0.66666667  0.16666667  0.22612642
   0.66666667  0.50000000  0.22612642
   0.66666667  0.83333333  0.22612642
   0.16666667  0.00000000  0.22612642
   0.16666667  0.33333333  0.22612642
   0.16666667  0.66666667  0.22612642
   0.50000000  0.00000000  0.22612642
   0.50000000  0.33333333  0.22612642
   0.50000000  0.66666667  0.22612642
   0.83333333 -0.00000000  0.22612642
   0.83333333  0.33333333  0.22612642
   0.83333333  0.66666667  0.22612642
   0.00000000 -0.00000000  0.30173960
  -0.00000000  0.33333333  0.30173960
  -0.00000000  0.66666667  0.30173960
   0.33333333 -0.00000000  0.30173960
   0.33333333  0.33333333  0.30173960
   0.33333333  0.66666667  0.30173960
   0.66666667 -0.00000000  0.30173960
   0.66666667  0.33333333  0.30173960
   0.66666667  0.66666667  0.30173960
   0.16666667  0.16666667  0.30173960
   0.16666667  0.50000000  0.30173960
   0.16666667  0.83333333  0.30173960
   0.50000000  0.16666667  0.30173960
   0.50000000  0.50000000  0.30173960
   0.50000000  0.83333333  0.30173960
   0.83333333  0.16666667  0.30173960
   0.83333333  0.50000000  0.30173960
   0.83333333  0.83333333  0.30173960
   0.00000000  0.16666667  0.37633547
   0.00000000  0.50000000  0.37633547
   0.00000000  0.83333333  0.37633547
   0.33333333  0.16666667  0.37633547
   0.33333333  0.50000000  0.37633547
   0.33333333  0.83333333  0.37633547
   0.66666667  0.16666667  0.37633547
   0.66666667  0.50000000  0.37633547
   0.66666667  0.83333333  0.37633547
   0.16666667  0.00000000  0.37633547
   0.16666667  0.33333333  0.37633547
   0.16666667  0.66666667  0.37633547
   0.50000000 -0.00000000  0.37633547
   0.50000000  0.33333333  0.37633547
   0.50000000  0.66666667  0.37633547
   0.83333333 -0.00000000  0.37633547
   0.83333333  0.33333333  0.37633547
   0.83333333  0.66666667  0.37633547
Direct configuration=     3
   0.00000000  0.00000000  0.00000000
   0.00000000  0.33333333  0.00000000
   0.00000000  0.66666667  0.00000000
   0.33333333  0.00000000  0.00000000
   0.33333333  0.33333333  0.00000000
   0.33333333  0.66666667  0.00000000
   0.66666667  0.00000000  0.00000000
   0.66666667  0.33333333  0.00000000
   0.66666667  0.66666667  0.00000000
   0.16666667  0.16666667  0.00000000
   0.16666667  0.50000000  0.00000000
   0.16666667  0.83333333  0.00000000
   0.50000000  0.16666667  0.00000000
   0.50000000  0.50000000  0.00000000
   0.50000000  0.83333333  0.00000000
   0.83333333  0.16666667  0.00000000
   0.83333333  0.50000000  0.00000000
   0.83333333  0.83333333  0.00000000
   0.00000000  0.16666667  0.07538941
   0.00000000  0.50000000  0.07538941
   0.00000000  0.83333333  0.07538941
   0.33333333  0.16666667  0.07538941
   0.33333333  0.50000000  0.07538941
   0.33333333  0.83333333  0.07538941
   0.66666667  0.16666667  0.07538941
   0.66666667  0.50000000  0.07538941
   0.66666667  0.83333333  0.07538941
   0.16666667  0.00000000  0.07538941
   0.16666667  0.33333333  0.07538941
   0.16666667  0.66666667  0.07538941
   0.50000000  0.00000000  0.07538941
   0.50000000  0.33333333  0.07538941
   0.50000000  0.66666667  0.07538941
   0.83333333  0.00000000  0.07538941
   0.83333333  0.33333333  0.07538941
   0.83333333  0.66666667  0.07538941
   0.00000000  0.00000000  0.15081137
   0.00000000  0.33333333  0.15081137
   0.00000000  0.66666667  0.15081137
   0.33333333  0.00000000  0.15081137
   0.33333333  0.33333333  0.15081137
   0.33333333  0.66666667  0.15081137
   0.66666667  0.00000000  0.15081137
   0.66666667  0.33333333  0.15081137
   0.66666667  0.66666667  0.15081137
   0.16666667  0.16666667  0.15081137
   0.16666667  0.50000000  0.15081137
   0.16666667  0.83333333  0.15081137
   0.50000000  0.16666667  0.15081137
   0.50000000  0.50000000  0.15081137
   0.50000000  0.83333333  0.15081137
   0.83333333  0.16666667  0.15081137
   0.83333333  0.50000000  0.15081137
   0.83333333  0.83333333  0.15081137
  -0.00000000  0.16666667  0.22607689
  -0.00000000  0.50000000  0.22607689
   0.00000000  0.83333333  0.22607689
   0.33333333  0.16666667  0.22607689
   0.33333333  0.50000000  0.22607689
   0.33333333  0.83333333  0.22607689
   0.66666667  0.16666667  0.22607689
   0.66666667  0.50000000  0.22607689
   0.66666667  0.83333333  0.22607689
   0.16666667  0.00000000  0.22607689
   0.16666667  0.33333333  0.22607689
   0.16666667  0.66666667  0.22607689
   0.50000000  0.00000000  0.22607689
   0.50000000  0.33333333  0.22607689
   0.50000000  0.66666667  0.22607689
   0.83333333 -0.00000000  0.22607689
   0.83333333  0.33333333  0.22607689
   0.83333333  0.66666667  0.22607689
   0.00000000 -0.00000000  0.30195520
  -0.00000000  0.33333333  0.30195520
  -0.00000000  0.66666667  0.30195520
   0.33333333 -0.00000000  0.30195520
   0.33333333  0.33333333  0.30195520
   0.33333333  0.66666667  0.30195520
   0.66666667 -0.00000000  0.30195520
   0.66666667  0.33333333  0.30195520
   0.66666667  0.66666667  0.30195520
   0.16666667  0.16666667  0.30195520
   0.16666667  0.50000000  0.30195520
   0.16666667  0.83333333  0.30195520
   0.50000000  0.16666667  0.30195520
   0.50000000  0.50000000  0.30195520
   0.50000000  0.83333333  0.30195520
   0.83333333  0.16666667  0.30195520
   0.83333333  0.50000000  0.30195520
   0.83333333  0.83333333  0.30195520
   0.00000000  0.16666667  0.37561086
   0.00000000  0.50000000  0.37561086
   0.00000000  0.83333333  0.37561086
   0.33333333  0.16666667  0.37561086
   0.33333333  0.50000000  0.37561086
   0.33333333  0.83333333  0.37561086
   0.66666667  0.16666667  0.37561086
   0.66666667  0.50000000  0.37561086
   0.66666667  0.83333333  0.37561086
   0.16666667  0.00000000  0.37561086
   0.16666667  0.33333333  0.37561086
   0.16666667  0.66666667  0.37561086
   0.50000000 -0.00000000  0.37561086
   0.50000000  0.33333333  0.37561086
   0.50000000  0.66666667  0.37561086
   0.83333333 -0.00000000  0.37561086
   0.83333333  0.33333333  0.37561086
   0.83333333  0.66666667  0.37561086
Direct configuration=     4
   0.00000000  0.00000000  0.00000000
   0.00000000  0.33333333  0.00000000
   0.00000000  0.66666667  0.00000000
   0.33333333  0.00000000  0.00000000
   0.33333333  0.33333333  0.00000000
   0.33333333  0.66666667  0.00000000
   0.66666667  0.00000000  0.00000000
   0.66666667  0.33333333  0.00000000
   0.66666667  0.66666667  0.00000000
   0.16666667  0.16666667  0.00000000
   0.16666667  0.50000000  0.00000000
   0.16666667  0.83333333  0.00000000
   0.50000000  0.16666667  0.00000000
   0.50000000  0.50000000  0.00000000
   0.50000000  0.83333333  0.00000000
   0.83333333  0.16666667  0.00000000
   0.83333333  0.50000000  0.00000000
   0.83333333  0.83333333  0.00000000
   0.00000000  0.16666667  0.07538941
   0.00000000  0.50000000  0.07538941
   0.00000000  0.83333333  0.07538941
   0.33333333  0.16666667  0.07538941
   0.33333333  0.50000000  0.07538941
   0.33333333  0.83333333  0.07538941
   0.66666667  0.16666667  0.07538941
   0.66666667  0.50000000  0.07538941
   0.66666667  0.83333333  0.07538941
   0.16666667  0.00000000  0.07538941
   0.16666667  0.33333333  0.07538941
   0.16666667  0.66666667  0.07538941
   0.50000000  0.00000000  0.07538941
   0.50000000  0.33333333  0.07538941
   0.50000000  0.66666667  0.07538941
   0.83333333  0.00000000  0.07538941
   0.83333333  0.33333333  0.07538941
   0.83333333  0.66666667  0.07538941
   0.00000000  0.00000000  0.15084668
   0.00000000  0.33333333  0.15084668
   0.00000000  0.66666667  0.15084668
   0.33333333  0.00000000  0.15084668
   0.33333333  0.33333333  0.15084668
   0.33333333  0.66666667  0.15084668
   0.66666667  0.00000000  0.15084668
   0.66666667  0.33333333  0.15084668
   0.66666667  0.66666667  0.15084668
   0.16666667  0.16666667  0.15084668
   0.16666667  0.50000000  0.15084668
   0.16666667  0.83333333  0.15084668
   0.50000000  0.16666667  0.15084668
   0.50000000  0.50000000  0.15084668
   0.50000000  0.83333333  0.15084668
   0.83333333  0.16666667  0.15084668
   0.83333333  0.50000000  0.15084668
   0.83333333  0.83333333  0.15084668
  -0.00000000  0.16666667  0.22597783
  -0.00000000  0.50000000  0.22597783
   0.00000000  0.83333333  0.22597783
   0.33333333  0.16666667  0.22597783
   0.33333333  0.50000000  0.22597783
   0.33333333  0.83333333  0.22597783
   0.66666667  0.16666667  0.22597783
   0.66666667  0.50000000  0.22597783
   0.66666667  0.83333333  0.22597783
   0.16666667  0.00000000  0.22597783
   0.16666667  0.33333333  0.22597783
   0.16666667  0.66666667  0.22597783
   0.50000000  0.00000000  0.22597783
   0.50000000  0.33333333  0.22597783
   0.50000000  0.66666667  0.22597783
   0.83333333 -0.00000000  0.22597783
   0.83333333  0.33333333  0.22597783
   0.83333333  0.66666667  0.22597783
   0.00000000 -0.00000000  0.30238639
  -0.00000000  0.33333333  0.30238639
  -0.00000000  0.66666667  0.30238639
   0.33333333 -0.00000000  0.30238639
   0.33333333  0.33333333  0.30238639
   0.33333333  0.66666667  0.30238639
   0.66666667 -0.00000000  0.30238639
   0.66666667  0.33333333  0.30238639
   0.66666667  0.66666667  0.30238639
   0.16666667  0.16666667  0.30238639
   0.16666667  0.50000000  0.30238639
   0.16666667  0.83333333  0.30238639
   0.50000000  0.16666667  0.30238639
   0.50000000  0.50000000  0.30238639
   0.50000000  0.83333333  0.30238639
   0.83333333  0.16666667  0.30238639
   0.83333333  0.50000000  0.30238639
   0.83333333  0.83333333  0.30238639
   0.00000000  0.16666667  0.37416162
   0.00000000  0.50000000  0.37416162
   0.00000000  0.83333333  0.37416162
   0.33333333  0.16666667  0.37416162
   0.33333333  0.50000000  0.37416162
   0.33333333  0.83333333  0.37416162
   0.66666667  0.16666667  0.37416162
   0.66666667  0.50000000  0.37416162
   0.66666667  0.83333333  0.37416162
   0.16666667  0.00000000  0.37416162
   0.16666667  0.33333333  0.37416162
   0.16666667  0.66666667  0.37416162
   0.50000000 -0.00000000  0.37416162
   0.50000000  0.33333333  0.37416162
   0.50000000  0.66666667  0.37416162
   0.83333333 -0.00000000  0.37416162
   0.83333333  0.33333333  0.37416162
   0.83333333  0.66666667  0.37416162
Direct configuration=     5
   0.00000000  0.00000000  0.00000000
   0.00000000  0.33333333  0.00000000
   0.00000000  0.66666667  0.00000000
   0.33333333  0.00000000  0.00000000
   0.33333333  0.33333333  0.00000000
   0.33333333  0.66666667  0.00000000
   0.66666667  0.00000000  0.00000000
   0.66666667  0.33333333  0.00000000
   0.66666667  0.66666667  0.00000000
   0.16666667  0.16666667  0.00000000
   0.16666667  0.50000000  0.00000000
   0.16666667  0.83333333  0.00000000
   0.50000000  0.16666667  0.00000000
   0.50000000  0.50000000  0.00000000
   0.50000000  0.83333333  0.00000000
   0.83333333  0.16666667  0.00000000
   0.83333333  0.50000000  0.00000000
   0.83333333  0.83333333  0.00000000
   0.00000000  0.16666667  0.07538941
   0.00000000  0.50000000  0.07538941
   0.00000000  0.83333333  0.07538941
   0.33333333  0.16666667  0.07538941
   0.33333333  0.50000000  0.07538941
   0.33333333  0.83333333  0.07538941
   0.66666667  0.16666667  0.07538941
   0.66666667  0.50000000  0.07538941
   0.66666667  0.83333333  0.07538941
   0.16666667  0.00000000  0.07538941
   0.16666667  0.33333333  0.07538941
   0.16666667  0.66666667  0.07538941
   0.50000000  0.00000000  0.07538941
   0.50000000  0.33333333  0.07538941
   0.50000000  0.66666667  0.07538941
   0.83333333  0.00000000  0.07538941
   0.83333333  0.33333333  0.07538941
   0.83333333  0.66666667  0.07538941
   0.00000000  0.00000000  0.15082908
   0.00000000  0.33333333  0.15082908
   0.00000000  0.66666667  0.15082908
   0.33333333  0.00000000  0.15082908
   0.33333333  0.33333333  0.15082908
   0.33333333  0.66666667  0.15082908
   0.66666667  0.00000000  0.15082908
   0.66666667  0.33333333  0.15082908
   0.66666667  0.66666667  0.15082908
   0.16666667  0.16666667  0.15082908
   0.16666667  0.50000000  0.15082908
   0.16666667  0.83333333  0.15082908
   0.50000000  0.16666667  0.15082908
   0.50000000  0.50000000  0.15082908
   0.50000000  0.83333333  0.15082908
   0.83333333  0.16666667  0.15082908
   0.83333333  0.50000000  0.15082908
   0.83333333  0.83333333  0.15082908
  -0.00000000  0.16666667  0.22602722
  -0.00000000  0.50000000  0.22602722
   0.00000000  0.83333333  0.22602722
   0.33333333  0.16666667  0.22602722
   0.33333333  0.50000000  0.22602722
   0.33333333  0.83333333  0.22602722
   0.66666667  0.16666667  0.22602722
   0.66666667  0.50000000  0.22602722
   0.66666667  0.83333333  0.22602722
   0.16666667  0.00000000  0.22602722
   0.16666667  0.33333333  0.22602722
   0.16666667  0.66666667  0.22602722
   0.50000000  0.00000000  0.22602722
   0.50000000  0.33333333  0.22602722
   0.50000000  0.66666667  0.22602722
   0.83333333 -0.00000000  0.22602722
   0.83333333  0.33333333  0.22602722
   0.83333333  0.66666667  0.22602722
   0.00000000 -0.00000000  0.30217140
  -0.00000000  0.33333333  0.30217140
  -0.00000000  0.66666667  0.30217140
   0.33333333 -0.00000000  0.30217140
   0.33333333  0.33333333  0.30217140
   0.33333333  0.66666667  0.30217140
   0.66666667 -0.00000000  0.30217140
   0.66666667  0.33333333  0.30217140
   0.66666667  0.66666667  0.30217140
   0.16666667  0.16666667  0.30217140
   0.16666667  0.50000000  0.30217140
   0.16666667  0.83333333  0.30217140
   0.50000000  0.16666667  0.30217140
   0.50000000  0.50000000  0.30217140
   0.50000000  0.83333333  0.30217140
   0.83333333  0.16666667  0.30217140
   0.83333333  0.50000000  0.30217140
   0.83333333  0.83333333  0.30217140
   0.00000000  0.16666667  0.37488422
   0.00000000  0.50000000  0.37488422
   0.00000000  0.83333333  0.37488422
   0.33333333  0.16666667  0.37488422
   0.33333333  0.50000000  0.37488422
   0.33333333  0.83333333  0.37488422
   0.66666667  0.16666667  0.37488422
   0.66666667  0.50000000  0.37488422
   0.66666667  0.83333333  0.37488422
   0.16666667  0.00000000  0.37488422
   0.16666667  0.33333333  0.37488422
   0.16666667  0.66666667  0.37488422
   0.50000000 -0.00000000  0.37488422
   0.50000000  0.33333333  0.37488422
   0.50000000  0.66666667  0.37488422
   0.83333333 -0.00000000  0.37488422
   0.83333333  0.33333333  0.37488422
   0.83333333  0.66666667  0.37488422
Direct configuration=     6
   0.00000000  0.00000000  0.00000000
   0.00000000  0.33333333  0.00000000
   0.00000000  0.66666667  0.00000000
   0.33333333  0.00000000  0.00000000
   0.33333333  0.33333333  0.00000000
   0.33333333  0.66666667  0.00000000
   0.66666667  0.00000000  0.00000000
   0.66666667  0.33333333  0.00000000
   0.66666667  0.66666667  0.00000000
   0.16666667  0.16666667  0.00000000
   0.16666667  0.50000000  0.00000000
   0.16666667  0.83333333  0.00000000
   0.50000000  0.16666667  0.00000000
   0.50000000  0.50000000  0.00000000
   0.50000000  0.83333333  0.00000000
   0.83333333  0.16666667  0.00000000
   0.83333333  0.50000000  0.00000000
   0.83333333  0.83333333  0.00000000
   0.00000000  0.16666667  0.07538941
   0.00000000  0.50000000  0.07538941
   0.00000000  0.83333333  0.07538941
   0.33333333  0.16666667  0.07538941
   0.33333333  0.50000000  0.07538941
   0.33333333  0.83333333  0.07538941
   0.66666667  0.16666667  0.07538941
   0.66666667  0.50000000  0.07538941
   0.66666667  0.83333333  0.07538941
   0.16666667  0.00000000  0.07538941
   0.16666667  0.33333333  0.07538941
   0.16666667  0.66666667  0.07538941
   0.50000000  0.00000000  0.07538941
   0.50000000  0.33333333  0.07538941
   0.50000000  0.66666667  0.07538941
   0.83333333  0.00000000  0.07538941
   0.83333333  0.33333333  0.07538941
   0.83333333  0.66666667  0.07538941
   0.00000000  0.00000000  0.15080493
   0.00000000  0.33333333  0.15080493
   0.00000000  0.66666667  0.15080493
   0.33333333  0.00000000  0.15080493
   0.33333333  0.33333333  0.15080493
   0.33333333  0.66666667  0.15080493
   0.66666667  0.00000000  0.15080493
   0.66666667  0.33333333  0.15080493
   0.66666667  0.66666667  0.15080493
   0.16666667  0.16666667  0.15080493
   0.16666667  0.50000000  0.15080493
   0.16666667  0.83333333  0.15080493
   0.50000000  0.16666667  0.15080493
   0.50000000  0.50000000  0.15080493
   0.50000000  0.83333333  0.15080493
   0.83333333  0.16666667  0.15080493
   0.83333333  0.50000000  0.15080493
   0.83333333  0.83333333  0.15080493
  -0.00000000  0.16666667  0.22611419
  -0.00000000  0.50000000  0.22611419
   0.00000000  0.83333333  0.22611419
   0.33333333  0.16666667  0.22611419
   0.33333333  0.50000000  0.22611419
   0.33333333  0.83333333  0.22611419
   0.66666667  0.16666667  0.22611419
   0.66666667  0.50000000  0.22611419
   0.66666667  0.83333333  0.22611419
   0.16666667  0.00000000  0.22611419
   0.16666667  0.33333333  0.22611419
   0.16666667  0.66666667  0.22611419
   0.50000000  0.00000000  0.22611419
   0.50000000  0.33333333  0.22611419
   0.50000000  0.66666667  0.22611419
   0.83333333 -0.00000000  0.22611419
   0.83333333  0.33333333  0.22611419
   0.83333333  0.66666667  0.22611419
   0.00000000 -0.00000000  0.30172692
  -0.00000000  0.33333333  0.30172692
  -0.00000000  0.66666667  0.30172692
   0.33333333 -0.00000000  0.30172692
   0.33333333  0.33333333  0.30172692
   0.33333333  0.66666667  0.30172692
   0.66666667 -0.00000000  0.30172692
   0.66666667  0.33333333  0.30172692
   0.66666667  0.66666667  0.30172692
   0.16666667  0.16666667  0.30172692
   0.16666667  0.50000000  0.30172692
   0.16666667  0.83333333  0.30172692
   0.50000000  0.16666667  0.30172692
   0.50000000  0.50000000  0.30172692
   0.50000000  0.83333333  0.30172692
   0.83333333  0.16666667  0.30172692
   0.83333333  0.50000000  0.30172692
   0.83333333  0.83333333  0.30172692
   0.00000000  0.16666667  0.37436349
   0.00000000  0.50000000  0.37436349
   0.00000000  0.83333333  0.37436349
   0.33333333  0.16666667  0.37436349
   0.33333333  0.50000000  0.37436349
   0.33333333  0.83333333  0.37436349
   0.66666667  0.16666667  0.37436349
   0.66666667  0.50000000  0.37436349
   0.66666667  0.83333333  0.37436349
   0.16666667  0.00000000  0.37436349
   0.16666667  0.33333333  0.37436349
   0.16666667  0.66666667  0.37436349
   0.50000000  0.00000000  0.37436349
   0.50000000  0.33333333  0.37436349
   0.50000000  0.66666667  0.37436349
   0.83333333 -0.00000000  0.37436349
   0.83333333  0.33333333  0.37436349
   0.83333333  0.66666667  0.37436349
Direct configuration=     7
   0.00000000  0.00000000  0.00000000
   0.00000000  0.33333333  0.00000000
   0.00000000  0.66666667  0.00000000
   0.33333333  0.00000000  0.00000000
   0.33333333  0.33333333  0.00000000
   0.33333333  0.66666667  0.00000000
   0.66666667  0.00000000  0.00000000
   0.66666667  0.33333333  0.00000000
   0.66666667  0.66666667  0.00000000
   0.16666667  0.16666667  0.00000000
   0.16666667  0.50000000  0.00000000
   0.16666667  0.83333333  0.00000000
   0.50000000  0.16666667  0.00000000
   0.50000000  0.50000000  0.00000000
   0.50000000  0.83333333  0.00000000
   0.83333333  0.16666667  0.00000000
   0.83333333  0.50000000  0.00000000
   0.83333333  0.83333333  0.00000000
   0.00000000  0.16666667  0.07538941
   0.00000000  0.50000000  0.07538941
   0.00000000  0.83333333  0.07538941
   0.33333333  0.16666667  0.07538941
   0.33333333  0.50000000  0.07538941
   0.33333333  0.83333333  0.07538941
   0.66666667  0.16666667  0.07538941
   0.66666667  0.50000000  0.07538941
   0.66666667  0.83333333  0.07538941
   0.16666667  0.00000000  0.07538941
   0.16666667  0.33333333  0.07538941
   0.16666667  0.66666667  0.07538941
   0.50000000  0.00000000  0.07538941
   0.50000000  0.33333333  0.07538941
   0.50000000  0.66666667  0.07538941
   0.83333333  0.00000000  0.07538941
   0.83333333  0.33333333  0.07538941
   0.83333333  0.66666667  0.07538941
   0.00000000  0.00000000  0.15073590
   0.00000000  0.33333333  0.15073590
   0.00000000  0.66666667  0.15073590
   0.33333333 -0.00000000  0.15073590
   0.33333333  0.33333333  0.15073590
   0.33333333  0.66666667  0.15073590
   0.66666667 -0.00000000  0.15073590
   0.66666667  0.33333333  0.15073590
   0.66666667  0.66666667  0.15073590
   0.16666667  0.16666667  0.15073590
   0.16666667  0.50000000  0.15073590
   0.16666667  0.83333333  0.15073590
   0.50000000  0.16666667  0.15073590
   0.50000000  0.50000000  0.15073590
   0.50000000  0.83333333  0.15073590
   0.83333333  0.16666667  0.15073590
   0.83333333  0.50000000  0.15073590
   0.83333333  0.83333333  0.15073590
  -0.00000000  0.16666667  0.22636276
   0.00000000  0.50000000  0.22636276
   0.00000000  0.83333333  0.22636276
   0.33333333  0.16666667  0.22636276
   0.33333333  0.50000000  0.22636276
   0.33333333  0.83333333  0.22636276
   0.66666667  0.16666667  0.22636276
   0.66666667  0.50000000  0.22636276
   0.66666667  0.83333333  0.22636276
   0.16666667  0.00000000  0.22636276
   0.16666667  0.33333333  0.22636276
   0.16666667  0.66666667  0.22636276
   0.50000000  0.00000000  0.22636276
   0.50000000  0.33333333  0.22636276
   0.50000000  0.66666667  0.22636276
   0.83333333 -0.00000000  0.22636276
   0.83333333  0.33333333  0.22636276
   0.83333333  0.66666667  0.22636276
   0.00000000 -0.00000000  0.30045659
  -0.00000000  0.33333333  0.30045659
   0.00000000  0.66666667  0.30045659
   0.33333333 -0.00000000  0.30045659
   0.33333333  0.33333333  0.30045659
   0.33333333  0.66666667  0.30045659
   0.66666667 -0.00000000  0.30045659
   0.66666667  0.33333333  0.30045659
   0.66666667  0.66666667  0.30045659
   0.16666667  0.16666667  0.30045659
   0.16666667  0.50000000  0.30045659
   0.16666667  0.83333333  0.30045659
   0.50000000  0.16666667  0.30045659
   0.50000000  0.50000000  0.30045659
   0.50000000  0.83333333  0.30045659
   0.83333333  0.16666667  0.30045659
   0.83333333  0.50000000  0.30045659
   0.83333333  0.83333333  0.30045659
   0.00000000  0.16666667  0.37287521
   0.00000000  0.50000000  0.37287521
   0.00000000  0.83333333  0.37287521
   0.33333333  0.16666667  0.37287521
   0.33333333  0.50000000  0.37287521
   0.33333333  0.83333333  0.37287521
   0.66666667  0.16666667  0.37287521
   0.66666667  0.50000000  0.37287521
   0.66666667  0.83333333  0.37287521
   0.16666667  0.00000000  0.37287521
   0.16666667  0.33333333  0.37287521
   0.16666667  0.66666667  0.37287521
   0.50000000  0.00000000  0.37287521
   0.50000000  0.33333333  0.37287521
   0.50000000  0.66666667  0.37287521
   0.83333333 -0.00000000  0.37287521
   0.83333333  0.33333333  0.37287521
   0.83333333  0.66666667  0.37287521
Direct configuration=     8
   0.00000000  0.00000000  0.00000000
   0.00000000  0.33333333  0.00000000
   0.00000000  0.66666667  0.00000000
   0.33333333  0.00000000  0.00000000
   0.33333333  0.33333333  0.00000000
   0.33333333  0.66666667  0.00000000
   0.66666667  0.00000000  0.00000000
   0.66666667  0.33333333  0.00000000
   0.66666667  0.66666667  0.00000000
   0.16666667  0.16666667  0.00000000
   0.16666667  0.50000000  0.00000000
   0.16666667  0.83333333  0.00000000
   0.50000000  0.16666667  0.00000000
   0.50000000  0.50000000  0.00000000
   0.50000000  0.83333333  0.00000000
   0.83333333  0.16666667  0.00000000
   0.83333333  0.50000000  0.00000000
   0.83333333  0.83333333  0.00000000
   0.00000000  0.16666667  0.07538941
   0.00000000  0.50000000  0.07538941
   0.00000000  0.83333333  0.07538941
   0.33333333  0.16666667  0.07538941