       N       E                     dE             d eps       ncg     rms          rms(c)
DAV:   1     0.566043746712E+04    0.56604E+04   -0.21210E+05  4608   0.185E+03
DAV:   2     0.749249174620E+03   -0.49112E+04   -0.47013E+04  4608   0.435E+02
DAV:   3    -0.158019532828E+03   -0.90727E+03   -0.82069E+03  4608   0.223E+02
DAV:   4    -0.227792986798E+03   -0.69773E+02   -0.66665E+02  5072   0.869E+01
DAV:   5    -0.229533133270E+03   -0.17401E+01   -0.17331E+01  5136   0.135E+01    0.693E+01
DAV:   6    -0.190397935736E+03    0.39135E+02   -0.54705E+02  5112   0.125E+02    0.366E+01
DAV:   7    -0.162288542936E+03    0.28109E+02   -0.14373E+02  5008   0.660E+01    0.165E+01
DAV:   8    -0.155597926688E+03    0.66906E+01   -0.18072E+01  5488   0.393E+01    0.156E+01
DAV:   9    -0.156047748539E+03   -0.44982E+00   -0.58815E+00  5304   0.361E+01    0.135E+01
DAV:  10    -0.161300943648E+03   -0.52532E+01   -0.70844E+00  7136   0.207E+01    0.104E+01
DAV:  11    -0.162446040424E+03   -0.11451E+01   -0.44699E+00  5608   0.362E+01    0.807E+00
DAV:  12    -0.164269882715E+03   -0.18238E+01   -0.12758E+00  6240   0.324E+01    0.633E+00
DAV:  13    -0.173751686360E+03   -0.94818E+01   -0.43937E+00  6848   0.342E+01    0.481E+00
DAV:  14    -0.184385564769E+03   -0.10634E+02   -0.13191E+01  6976   0.249E+01    0.262E+00
DAV:  15    -0.185771427166E+03   -0.13859E+01   -0.31193E+00  5656   0.724E+00    0.214E+00
DAV:  16    -0.186714754102E+03   -0.94333E+00   -0.89157E-01  5080   0.448E+00    0.163E+00
DAV:  17    -0.187681263207E+03   -0.96651E+00   -0.69538E-01  5944   0.398E+00    0.123E+00
DAV:  18    -0.188448930608E+03   -0.76767E+00   -0.83496E-01  6672   0.378E+00    0.108E+00
DAV:  19    -0.189592421685E+03   -0.11435E+01   -0.28136E-01  5392   0.353E+00    0.842E-01
DAV:  20    -0.190312705339E+03   -0.72028E+00   -0.13290E-01  6376   0.188E+00    0.575E-01
DAV:  21    -0.191569445403E+03   -0.12567E+01   -0.84192E-02  5744   0.182E+00    0.612E-01
DAV:  22    -0.192305920637E+03   -0.73648E+00   -0.27628E-02  5184   0.164E+00    0.493E-01
DAV:  23    -0.193023508005E+03   -0.71759E+00   -0.49409E-02  6512   0.136E+00    0.353E-01
DAV:  24    -0.193470311326E+03   -0.44680E+00   -0.14748E-02  5480   0.654E-01    0.205E-01
DAV:  25    -0.193720852994E+03   -0.25054E+00   -0.67399E-03  5400   0.449E-01    0.127E-01
DAV:  26    -0.193774677645E+03   -0.53825E-01   -0.37591E-03  5936   0.495E-01    0.121E-01
DAV:  27    -0.193790903819E+03   -0.16226E-01   -0.16150E-03  5120   0.254E-01    0.573E-02
DAV:  28    -0.193799260718E+03   -0.83569E-02   -0.68057E-04  4152   0.114E-01    0.241E-02
DAV:  29    -0.193800553183E+03   -0.12925E-02   -0.13677E-04  3192   0.686E-02    0.173E-02
DAV:  30    -0.193800604432E+03   -0.51249E-04   -0.93232E-05  2976   0.578E-02
   1 F= -.21502403E+03 E0= -.21502264E+03  d E =-.215024E+03  mag=     0.0043
       N       E                     dE             d eps       ncg     rms          rms(c)
DAV:   1    -0.193798010410E+03    0.25428E-02   -0.56417E+00  5048   0.374E+00    0.187E-01
DAV:   2    -0.193807861935E+03   -0.98515E-02   -0.97940E-02  7296   0.185E+00    0.278E-01
DAV:   3    -0.193807297775E+03    0.56416E-03   -0.11160E-02  5280   0.166E+00    0.146E-01
DAV:   4    -0.193807185349E+03    0.11243E-03   -0.27701E-03  4880   0.663E-01    0.126E-01
DAV:   5    -0.193807251244E+03   -0.65895E-04   -0.16615E-03  4584   0.375E-01
   2 F= -.21504291E+03 E0= -.21504093E+03  d E =-.188739E-01  mag=     0.0030
       N       E                     dE             d eps       ncg     rms          rms(c)
DAV:   1    -0.193712029009E+03    0.95156E-01   -0.51133E+01  5056   0.113E+01    0.683E-01
DAV:   2    -0.193820689672E+03   -0.10866E+00   -0.10629E+00  7648   0.737E+00    0.101E+00
DAV:   3    -0.193807670051E+03    0.13020E-01   -0.13988E-01  7048   0.638E+00    0.485E-01
DAV:   4    -0.193803639347E+03    0.40307E-02   -0.18543E-02  5968   0.222E+00    0.403E-01
DAV:   5    -0.193804254555E+03   -0.61521E-03   -0.18563E-02  5112   0.113E+00    0.369E-01
DAV:   6    -0.193803035499E+03    0.12191E-02   -0.10831E-02  5056   0.936E-01    0.174E-01
DAV:   7    -0.193802983023E+03    0.52475E-04   -0.66778E-03  6920   0.872E-01    0.116E-01
DAV:   8    -0.193802817459E+03    0.16556E-03   -0.90189E-04  4480   0.496E-01
   3 F= -.21507505E+03 E0= -.21507147E+03  d E =-.510152E-01  mag=     0.0017
       N       E                     dE             d eps       ncg     rms          rms(c)
DAV:   1    -0.193786164977E+03    0.16818E-01   -0.44633E+00  5024   0.329E+00    0.180E-01
DAV:   2    -0.193794183174E+03   -0.80182E-02   -0.81150E-02  7176   0.156E+00    0.237E-01
DAV:   3    -0.193793864576E+03    0.31860E-03   -0.96433E-03  5112   0.151E+00    0.135E-01
DAV:   4    -0.193793740090E+03    0.12449E-03   -0.21916E-03  4808   0.665E-01    0.960E-02
DAV:   5    -0.193793815293E+03   -0.75202E-04   -0.12893E-03  4392   0.364E-01
   4 F= -.21507691E+03 E0= -.21507297E+03  d E =-.528713E-01  mag=     0.0012
       N       E                     dE             d eps       ncg     rms          rms(c)
DAV:   1    -0.193778254529E+03    0.15486E-01   -0.71040E+00  5048   0.433E+00    0.181E-01
DAV:   2    -0.193790877067E+03   -0.12623E-01   -0.12382E-01  7400   0.190E+00    0.267E-01
DAV:   3    -0.193790255763E+03    0.62130E-03   -0.12454E-02  5504   0.168E+00    0.161E-01
DAV:   4    -0.193790220002E+03    0.35762E-04   -0.32110E-03  4856   0.584E-01    0.146E-01
DAV:   5    -0.193790238468E+03   -0.18467E-04   -0.15810E-03  4704   0.429E-01
   5 F= -.21509223E+03 E0= -.21508824E+03  d E =-.153238E-01  mag=     0.0008
       N       E                     dE             d eps       ncg     rms          rms(c)
DAV:   1    -0.193651340168E+03    0.13888E+00   -0.64234E+01  5040   0.131E+01    0.660E-01
DAV:   2    -0.193775208487E+03   -0.12387E+00   -0.12469E+00  7416   0.646E+00    0.924E-01
DAV:   3    -0.193766878582E+03    0.83299E-02   -0.10548E-01  5856   0.552E+00    0.492E-01
DAV:   4    -0.193763923087E+03    0.29555E-02   -0.22065E-02  5696   0.218E+00    0.445E-01
DAV:   5    -0.193764012916E+03   -0.89829E-04   -0.18271E-02  5168   0.144E+00    0.407E-01
DAV:   6    -0.193762058414E+03    0.19545E-02   -0.17322E-02  5488   0.120E+00    0.182E-01
DAV:   7    -0.193761998231E+03    0.60184E-04   -0.63541E-03  6520   0.901E-01    0.107E-01
DAV:   8    -0.193761833438E+03    0.16479E-03   -0.11809E-03  4736   0.521E-01
   6 F= -.21512103E+03 E0= -.21511671E+03  d E =-.441200E-01  mag=     0.0005
       N       E                     dE             d eps       ncg     rms          rms(c)
DAV:   1    -0.193158785508E+03    0.60321E+00   -0.26191E+02  5104   0.273E+01    0.136E+00
DAV:   2    -0.193721552826E+03   -0.56277E+00   -0.55509E+00  7544   0.145E+01    0.206E+00
DAV:   3    -0.193668645199E+03    0.52908E-01   -0.43378E-01  7368   0.112E+01    0.103E+00
DAV:   4    -0.193657221749E+03    0.11423E-01   -0.43188E-02  6280   0.400E+00    0.954E-01
DAV:   5    -0.193656542842E+03    0.67891E-03   -0.58465E-02  5088   0.242E+00    0.852E-01
DAV:   6    -0.193645784066E+03    0.10759E-01   -0.42638E-02  5648   0.209E+00    0.358E-01
DAV:   7    -0.193644694707E+03    0.10894E-02   -0.27837E-02  8064   0.167E+00    0.210E-01
DAV:   8    -0.193644183230E+03    0.51148E-03   -0.36014E-03  5472   0.934E-01    0.125E-01
DAV:   9    -0.193644194544E+03   -0.11315E-04   -0.27036E-03  4840   0.464E-01    0.732E-02
DAV:  10    -0.193644178178E+03    0.16366E-04   -0.64637E-04  3648   0.159E-01
   7 F= -.21511992E+03 E0= -.21511498E+03  d E =-.430182E-01  mag=     0.0002
       N       E                     dE             d eps       ncg     rms          rms(c)
DAV:   1    -0.193571435750E+03    0.72759E-01   -0.83170E+01  5064   0.149E+01    0.576E-01
DAV:   2    -0.193731082226E+03   -0.15965E+00   -0.16380E+00  6464   0.367E+00    0.700E-01
DAV:   3    -0.193728178389E+03    0.29038E-02   -0.55026E-02  5120   0.222E+00    0.598E-01
DAV:   4    -0.193726754858E+03    0.14235E-02   -0.86412E-03  5168   0.185E+00    0.486E-01
DAV:   5    -0.193724302198E+03    0.24527E-02   -0.39267E-03  7448   0.149E+00    0.433E-01
DAV:   6    -0.193721304013E+03    0.29982E-02   -0.61785E-03  8488   0.165E+00    0.210E-01
DAV:   7    -0.193720840616E+03    0.46340E-03   -0.65450E-03  8216   0.973E-01    0.145E-01
DAV:   8    -0.193720566919E+03    0.27370E-03   -0.12949E-03  4832   0.612E-01    0.768E-02
DAV:   9    -0.193720547422E+03    0.19497E-04   -0.10080E-03  4448   0.184E-01
   8 F= -.21512966E+03 E0= -.21512515E+03  d E =-.527516E-01  mag=     0.0001
       N       E                     dE             d eps       ncg     rms          rms(c)
DAV:   1    -0.193681511529E+03    0.39055E-01   -0.22825E+01  4992   0.788E+00    0.301E-01
DAV:   2    -0.193722368276E+03   -0.40857E-01   -0.41967E-01  6840   0.225E+00    0.405E-01
DAV:   3    -0.193721426409E+03    0.94187E-03   -0.12558E-02  5216   0.164E+00    0.288E-01
DAV:   4    -0.193720974928E+03    0.45148E-03   -0.21161E-03  5432   0.960E-01    0.270E-01
DAV:   5    -0.193720102098E+03    0.87283E-03   -0.18587E-03  6456   0.787E-01    0.196E-01
DAV:   6    -0.193719287090E+03    0.81501E-03   -0.37731E-03  7904   0.705E-01    0.623E-02
DAV:   7    -0.193719302176E+03   -0.15086E-04   -0.69150E-04  4368   0.309E-01
   9 F= -.21515500E+03 E0= -.21515061E+03  d E =-.253405E-01  mag=     0.0001
       N       E                     dE             d eps       ncg     rms          rms(c)
DAV:   1    -0.193495103588E+03    0.22418E+00   -0.10846E+02  5008   0.174E+01    0.707E-01
DAV:   2    -0.193702246743E+03   -0.20714E+00   -0.21249E+00  6992   0.546E+00    0.949E-01
DAV:   3    -0.193695572993E+03    0.66737E-02   -0.59951E-02  5328   0.409E+00    0.615E-01
DAV:   4    -0.193693273346E+03    0.22996E-02   -0.12610E-02  5736   0.237E+00    0.585E-01
DAV:   5    -0.193689748838E+03    0.35245E-02   -0.10629E-02  6968   0.165E+00    0.452E-01
DAV:   6    -0.193685495282E+03    0.42536E-02   -0.20009E-02  7936   0.146E+00    0.104E-01
DAV:   7    -0.193685625506E+03   -0.13022E-03   -0.33650E-03  5680   0.796E-01    0.889E-02
DAV:   8    -0.193685678298E+03   -0.52793E-04   -0.20430E-03  4912   0.458E-01    0.502E-02
DAV:   9    -0.193685685609E+03   -0.73103E-05   -0.56283E-04  3672   0.194E-01
  10 F= -.21517995E+03 E0= -.21517573E+03  d E =-.502915E-01  mag=     0.0000
       N       E                     dE             d eps       ncg     rms          rms(c)
DAV:   1    -0.193610462736E+03    0.75216E-01   -0.43516E+01  5008   0.110E+01    0.433E-01
DAV:   2    -0.193687867299E+03   -0.77405E-01   -0.79374E-01  6944   0.328E+00    0.578E-01
DAV:   3    -0.193685985307E+03    0.18820E-02   -0.29922E-02  5168   0.263E+00    0.403E-01
DAV:   4    -0.193684952772E+03    0.10325E-02   -0.58149E-03  5448   0.155E+00    0.366E-01
DAV:   5    -0.193683546730E+03    0.14060E-02   -0.45687E-03  7376   0.108E+00    0.282E-01
DAV:   6    -0.193682170370E+03    0.13764E-02   -0.72698E-03  8176   0.913E-01    0.725E-02
DAV:   7    -0.193682252052E+03   -0.81682E-04   -0.13547E-03  5056   0.574E-01
  11 F= -.21520452E+03 E0= -.21520004E+03  d E =-.245736E-01  mag=     0.0000
       N       E                     dE             d eps       ncg     rms          rms(c)
DAV:   1    -0.193480427221E+03    0.20174E+00   -0.10167E+02  5008   0.170E+01    0.691E-01
DAV:   2    -0.193667313305E+03   -0.18689E+00   -0.19233E+00  6992   0.510E+00    0.901E-01
DAV:   3    -0.193661948159E+03    0.53651E-02   -0.64762E-02  5256   0.396E+00    0.607E-01
DAV:   4    -0.193659613271E+03    0.23349E-02   -0.14092E-02  5528   0.241E+00    0.553E-01
DAV:   5    -0.193656696541E+03    0.29167E-02   -0.97339E-03  7272   0.158E+00    0.443E-01
DAV:   6    -0.193652929536E+03    0.37670E-02   -0.17439E-02  8176   0.127E+00    0.102E-01
DAV:   7    -0.193653191025E+03   -0.26149E-03   -0.33748E-03  5216   0.947E-01    0.116E-01
DAV:   8    -0.193653124891E+03    0.66134E-04   -0.23276E-03  4992   0.596E-01    0.420E-02
DAV:   9    -0.193653144260E+03   -0.19369E-04   -0.51316E-04  3376   0.169E-01
  12 F= -.21521876E+03 E0= -.21521374E+03  d E =-.388137E-01  mag=     0.0000
       N       E                     dE             d eps       ncg     rms          rms(c)
DAV:   1    -0.193655102447E+03   -0.19776E-02   -0.29467E-01  5024   0.919E-01    0.329E-02
DAV:   2    -0.193655598013E+03   -0.49557E-03   -0.51532E-03  6496   0.253E-01    0.485E-02
DAV:   3    -0.193655586497E+03    0.11516E-04   -0.20060E-04  2672   0.158E-01
  13 F= -.21521885E+03 E0= -.21521383E+03  d E =-.388999E-01  mag=     0.0000
       N       E                     dE             d eps       ncg     rms          rms(c)
DAV:   1    -0.193653987640E+03    0.16104E-02   -0.98756E-02  5008   0.525E-01    0.351E-02
DAV:   2    -0.193654107112E+03   -0.11947E-03   -0.11431E-03  4832   0.193E-01
  14 F= -.21521875E+03 E0= -.21521376E+03  d E =-.387970E-01  mag=     0.0000
       N       E                     dE             d eps       ncg     rms          rms(c)
DAV:   1    -0.193654866837E+03   -0.87920E-03   -0.25088E-02  7056   0.431E-01    0.257E-02
DAV:   2    -0.193655119324E+03   -0.25249E-03   -0.15961E-04  3104   0.719E-01    0.710E-02
DAV:   3    -0.193654846312E+03    0.27301E-03   -0.72315E-05  3072   0.566E-01    0.491E-03
DAV:   4    -0.193654854951E+03   -0.86394E-05   -0.90049E-05  2624   0.558E-02
  15 F= -.21521880E+03 E0= -.21521380E+03  d E =-.388564E-01  mag=     0.0000
       N       E                     dE             d eps       ncg     rms          rms(c)
DAV:   1    -0.193654584281E+03    0.26203E-03   -0.37321E-03  4288   0.108E-01    0.683E-03
DAV:   2    -0.193654587054E+03   -0.27735E-05   -0.26831E-05  2352   0.449E-02
  16 F= -.21521880E+03 E0= -.21521380E+03  d E =-.388549E-01  mag=     0.0000
       N       E                     dE             d eps       ncg     rms          rms(c)
DAV:   1    -0.193625012357E+03    0.29572E-01   -0.82110E+00  5024   0.474E+00    0.180E-01
DAV:   2    -0.193639553296E+03   -0.14541E-01   -0.14901E-01  6792   0.145E+00    0.240E-01
DAV:   3    -0.193639355631E+03    0.19766E-03   -0.68946E-03  4984   0.116E+00    0.172E-01
DAV:   4    -0.193639208696E+03    0.14694E-03   -0.13018E-03  4752   0.603E-01
  17 F= -.21522127E+03 E0= -.21521614E+03  d E =-.246831E-02  mag=     0.0000
       N       E                     dE             d eps       ncg     rms          rms(c)
DAV:   1    -0.193642328809E+03   -0.29732E-02   -0.45333E-01  5336   0.125E+00    0.123E-01
DAV:   2    -0.193643512023E+03   -0.11832E-02   -0.84662E-03  8160   0.121E+00    0.113E-01
DAV:   3    -0.193643228530E+03    0.28349E-03   -0.17903E-03  4920   0.123E+00    0.854E-02
DAV:   4    -0.193643054683E+03    0.17385E-03   -0.31990E-04  3208   0.629E-01
  18 F= -.21522089E+03 E0= -.21521580E+03  d E =-.208277E-02  mag=     0.0000
       N       E                     dE             d eps       ncg     rms          rms(c)
DAV:   1    -0.193641280768E+03    0.19478E-02   -0.84064E-02  6248   0.559E-01    0.262E-02
DAV:   2    -0.193641403410E+03   -0.12264E-03   -0.48568E-04  3520   0.466E-01
  19 F= -.21522102E+03 E0= -.21521589E+03  d E =-.221579E-02  mag=     0.0000
       N       E                     dE             d eps       ncg     rms          rms(c)
DAV:   1    -0.193625900483E+03    0.15380E-01   -0.28645E+00  5064   0.280E+00    0.103E-01
DAV:   2    -0.193630887583E+03   -0.49871E-02   -0.49948E-02  6784   0.846E-01    0.137E-01
DAV:   3    -0.193630902325E+03   -0.14742E-04   -0.33233E-03  4944   0.724E-01    0.114E-01
DAV:   4    -0.193630855187E+03    0.47137E-04   -0.62136E-04  3736   0.314E-01
  20 F= -.21522280E+03 E0= -.21521756E+03  d E =-.177683E-02  mag=     0.0000
