 vasp.6.3.2 27Jun22 (build Aug 17 2022 15:43:34) complex                        
  
 executed on           tv2STDVTST date 2025.01.21  18:51:36
 running   20 mpi-ranks, with    1 threads/rank
 distrk:  each k-point on   20 cores,    1 groups
 distr:  one band on NCORE=   5 cores,    4 groups


--------------------------------------------------------------------------------------------------------


 -----------------------------------------------------------------------------
|                                                                             |
|           W    W    AA    RRRRR   N    N  II  N    N   GGGG   !!!           |
|           W    W   A  A   R    R  NN   N  II  NN   N  G    G  !!!           |
|           W    W  A    A  R    R  N N  N  II  N N  N  G       !!!           |
|           W WW W  AAAAAA  RRRRR   N  N N  II  N  N N  G  GGG   !            |
|           WW  WW  A    A  R   R   N   NN  II  N   NN  G    G                |
|           W    W  A    A  R    R  N    N  II  N    N   GGGG   !!!           |
|                                                                             |
|     Found issues when parsing the INCAR file                                |
|     In line 64: Tagname --- R W I G S contains invalid characters.          |
|     Please check if the interpretation in the OUTCAR file is correct.       |
|                                                                             |
 -----------------------------------------------------------------------------

 INCAR:
    = \=\=\=\=\=\=\=\=\=\=\=\=\=\=\=\=\=\=\=\=\=\=\=\=\=\=\=\=\=\=\=\=\=\=\=\=\=\=\=\=\=\=\=\=\=\=\=\=\=\=\=\=\=\=\=\=\=\=\=\=\=\=\=\=\=\=\=\=\=\=\=\=
    = \=\=\=\=\=\=\=\=\=\=\=\=\=\=\=\=\=\=\=\=\=\=\=\=\=\=\=\=\=\=\=\=\=\=\=\=\=\=\=\=\=\=\=\=\=\=\=\=\=\=\=\=\=\=\=\=\=\=\=\=\=\=\=\=\=\=\=\=\=\=\=\=
   ISTART = 0
   ICHARG = 2
   IPIPOL = 3
   IVDW = 11
   IDIPOL = 3
   IVDW = 11
    = \=\=\=\=\=\=\=\=\=\=\=\=\=\=\=\=\=\=\=\=\=\=\=\=\=\=\=\=\=\=\=\=\=\=\=\=\=\=\=\=\=\=\=\=\=\=\=\=\=\=\=\=\=\=\=\=\=\=\=\=\=\=\=\=\=\=\=\=\=\=\=\=
    = \=\=\=\=\=\=\=\=\=\=\=\=\=\=\=\=\=\=\=\=\=\=\=\=\=\=\=\=\=\=\=\=\=\=\=\=\=\=\=\=\=\=\=\=\=\=\=\=\=\=\=\=\=\=\=\=\=\=\=\=\=\=\=\=\=\=\=\=\=\=\=\=
   ISPIN = 2
    = \=\=\=\=\=\=\=\=\=\=\=\=\=\=\=\=\=\=\=\=\=\=\=\=\=\=\=\=\=\=\=\=\=\=\=\=\=\=\=\=\=\=\=\=\=\=\=\=\=\=\=\=\=\=\=\=\=\=\=\=\=\=\=\=\=\=\=\=\=\=\=\=
    = \=\=\=\=\=\=\=\=\=\=\=\=\=\=\=\=\=\=\=\=\=\=\=\=\=\=\=\=\=\=\=\=\=\=\=\=\=\=\=\=\=\=\=\=\=\=\=\=\=\=\=\=\=\=\=\=\=\=\=\=\=\=\=\=\=\=\=\=\=\=\=\=
   ENCUT = 400
   PREC = Normal
   EDIFF = 2E-04
   GGA = PE
   ISMEAR = 1
   SIGMA = 0.2
   LREAL = .FALSE.
    = \=\=\=\=\=\=\=\=\=\=\=\=\=\=\=\=\=\=\=\=\=\=\=\=\=\=\=\=\=\=\=\=\=\=\=\=\=\=\=\=\=\=\=\=\=\=\=\=\=\=\=\=\=\=\=\=\=\=\=\=\=\=\=\=\=\=\=\=\=\=\=\=
    = \=\=\=\=\=\=\=\=\=\=\=\=\=\=\=\=\=\=\=\=\=\=\=\=\=\=\=\=\=\=\=\=\=\=\=\=\=\=\=\=\=\=\=\=\=\=\=\=\=\=\=\=\=\=\=\=\=\=\=\=\=\=\=\=\=\=\=\=\=\=\=\=
   ISYM = 1
   NSW = 800
   IBRION = 2
   POTIM = 0.5
   ISIF = 2
   EDIFFG = -.03
    = \=\=\=\=\=\=\=\=\=\=\=\=\=\=\=\=\=\=\=\=\=\=\=\=\=\=\=\=\=\=\=\=\=\=\=\=\=\=\=\=\=\=\=\=\=\=\=\=\=\=\=\=\=\=\=\=\=\=\=\=\=\=\=\=\=\=\=\=\=\=\=\=
    = \=\=\=\=\=\=\=\=\=\=\=\=\=\=\=\=\=\=\=\=\=\=\=\=\=\=\=\=\=\=\=\=\=\=\=\=\=\=\=\=\=\=\=\=\=\=\=\=\=\=\=\=\=\=\=\=\=\=\=\=\=\=\=\=\=\=\=\=\=\=\=\=
   NPAR = 4
   LWAVE = .FALSE.
   LCHARG = .FALSE.

 POTCAR:    PAW_PBE Cu 22Jun2005                  
 -----------------------------------------------------------------------------
|                                                                             |
|           W    W    AA    RRRRR   N    N  II  N    N   GGGG   !!!           |
|           W    W   A  A   R    R  NN   N  II  NN   N  G    G  !!!           |
|           W    W  A    A  R    R  N N  N  II  N N  N  G       !!!           |
|           W WW W  AAAAAA  RRRRR   N  N N  II  N  N N  G  GGG   !            |
|           WW  WW  A    A  R   R   N   NN  II  N   NN  G    G                |
|           W    W  A    A  R    R  N    N  II  N    N   GGGG   !!!           |
|                                                                             |
|     You use a magnetic or noncollinear calculation, but did not specify     |
|     the initial magnetic moment with the MAGMOM tag. Note that a            |
|     default of 1 will be used for all atoms. This ferromagnetic setup       |
|     may break the symmetry of the crystal, in particular it may rule        |
|     out finding an antiferromagnetic solution. Thence, we recommend         |
|     setting the initial magnetic moment manually or verifying carefully     |
|     that this magnetic setup is desired.                                    |
|                                                                             |
 -----------------------------------------------------------------------------

 POTCAR:    PAW_PBE Cu 22Jun2005                  
   SHA256 =  0e71e558f37a4e8407882b4609ceaae59938afaad9ced71dfe8490308a0ab630 Cu/POTCAR             
   COPYR  = (c) Copyright 22Jun2005 Georg Kresse                                                    
   COPYR  = This file is part of the software VASP. Any use, copying, and all other rights are regul
   COPYR  = If you do not have a valid VASP license, you may not use, copy or distribute this file. 
   VRHFIN =Cu: d10 p1                                                                               
   LEXCH  = PE                                                                                      
   EATOM  =  1390.9808 eV,  102.2342 Ry                                                             
                                                                                                    
   TITEL  = PAW_PBE Cu 22Jun2005                                                                    
   LULTRA =        F    use ultrasoft PP ?                                                          
   IUNSCR =        1    unscreen: 0-lin 1-nonlin 2-no                                               
   RPACOR =    2.000    partial core radius                                                         
   POMASS =   63.546; ZVAL   =   11.000    mass and valenz                                          
   RCORE  =    2.300    outmost cutoff radius                                                       
   RWIGS  =    2.200; RWIGS  =    1.164    wigner-seitz radius (au A)                               
   ENMAX  =  295.446; ENMIN  =  221.585 eV                                                          
   ICORE  =        3    local potential                                                             
   LCOR   =        T    correct aug charges                                                         
   LPAW   =        T    paw PP                                                                      
   EAUG   =  586.980                                                                                
   DEXC   =    0.000                                                                                
   RMAX   =    2.344    core radius for proj-oper                                                   
   RAUG   =    1.300    factor for augmentation sphere                                              
   RDEP   =    2.302    radius for radial grids                                                     
   RDEPT  =    1.771    core radius for aug-charge                                                  
                                                                                                    
   Atomic configuration                                                                             
    9 entries                                                                                       
     n  l   j            E        occ.                                                              
     1  0  0.50     -8850.2468   2.0000                                                             
     2  0  0.50     -1062.3498   2.0000                                                             
     2  1  1.50      -916.8226   6.0000                                                             
     3  0  0.50      -114.6929   2.0000                                                             
     3  1  1.50       -72.1325   6.0000                                                             
     3  2  2.50        -5.0394  10.0000                                                             
     4  0  0.50        -4.6097   1.0000                                                             
     4  1  0.50        -4.0817   0.0000                                                             
     4  3  2.50        -1.3606   0.0000                                                             
   Description                                                                                      
     l       E           TYP  RCUT    TYP  RCUT                                                     
     2     -5.0393973     23  2.200                                                                 
     2     10.8846608     23  2.200                                                                 
     0     -4.6097109     23  2.200                                                                 
     0      8.2520465     23  2.200                                                                 
     1     -2.7211652     23  2.200                                                                 
     1     21.7055443     23  2.200                                                                 
     3      2.7211652     23  2.300                                                                 
  local pseudopotential read in
  partial core-charges read in
  partial kinetic energy density read in
  atomic valenz-charges read in
  non local Contribution for L=           2  read in
    real space projection operators read in
  non local Contribution for L=           2  read in
    real space projection operators read in
  non local Contribution for L=           0  read in
    real space projection operators read in
  non local Contribution for L=           0  read in
    real space projection operators read in
  non local Contribution for L=           1  read in
    real space projection operators read in
  non local Contribution for L=           1  read in
    real space projection operators read in
    PAW grid and wavefunctions read in
 
   number of l-projection  operators is LMAX  =           6
   number of lm-projection operators is LMMAX =          18
 
 -----------------------------------------------------------------------------
|                                                                             |
|               ----> ADVICE to this user running VASP <----                  |
|                                                                             |
|     You have a (more or less) 'large supercell' and for larger cells it     |
|     might be more efficient to use real-space projection operators.         |
|     Therefore, try LREAL= Auto in the INCAR file.                           |
|     Mind: For very accurate calculation, you might also keep the            |
|     reciprocal projection scheme (i.e. LREAL=.FALSE.).                      |
|                                                                             |
 -----------------------------------------------------------------------------

  PAW_PBE Cu 22Jun2005                  :
 energy of atom  1       EATOM=-1390.9808
 kinetic energy error for atom=    0.0232 (will be added to EATOM!!)
 
 
 POSCAR: FCC Cu
  positions in cartesian coordinates
  No initial velocities read in
 exchange correlation table for  LEXCH =        8
   RHO(1)=    0.500       N(1)  =     2000
   RHO(2)=  100.500       N(2)  =     4000

 VTST: version 4.2, (08/11/21)

 CHAIN: initializing optimizer
 
 OPT: Using VASP Conjugate-Gradient optimizer
 CHAIN: Read ICHAIN            0
 
 POSCAR: FCC Cu
  positions in cartesian coordinates
  No initial velocities read in
 


--------------------------------------------------------------------------------------------------------


 ion  position               nearest neighbor table
   1  0.000  0.000  0.000-   7 2.57   4 2.57   8 2.57   2 2.57   6 2.57   3 2.57  16 2.57  12 2.57
                            10 2.57
   2  0.000  0.333  0.000-   4 2.57   5 2.57   1 2.57   3 2.57   8 2.57   9 2.57  10 2.57  17 2.57
                            11 2.57
   3  1.000  0.667  0.000-   7 2.57   9 2.57   1 2.57   2 2.57   5 2.57   6 2.57  18 2.57  12 2.57
                            11 2.57
   4  0.333  0.000  0.000-   2 2.57   6 2.57   1 2.57   5 2.57   9 2.57   7 2.57  10 2.57  15 2.57
                            13 2.57
   5  0.333  0.333  0.000-   2 2.57   8 2.57   4 2.57   7 2.57   3 2.57   6 2.57  11 2.57  13 2.57
                            14 2.57
   6  0.333  0.667  0.000-   4 2.57   9 2.57   1 2.57   8 2.57   5 2.57   3 2.57  12 2.57  15 2.57
                            14 2.57
   7  0.667  0.000  0.000-   8 2.57   3 2.57   1 2.57   5 2.57   9 2.57   4 2.57  18 2.57  13 2.57
                            16 2.57
   8  0.667  0.333  0.000-   7 2.57   5 2.57   1 2.57   6 2.57   2 2.57   9 2.57  14 2.57  16 2.57
                            17 2.57
   9  0.667  0.667  0.000-   3 2.57   6 2.57   4 2.57   7 2.57   2 2.57   8 2.57  15 2.57  18 2.57
                            17 2.57
  10  0.111  0.111  0.082-  16 2.57  13 2.57  17 2.57  11 2.57  15 2.57  12 2.57  19 2.57   4 2.57
                             2 2.57  21 2.57  25 2.57   1 2.57
  11  0.111  0.444  0.082-  13 2.57  14 2.57  10 2.57  12 2.57  17 2.57  18 2.57  20 2.57   5 2.57
                            19 2.57   2 2.57   3 2.57  26 2.57
  12  0.111  0.778  0.082-  16 2.57  18 2.57  10 2.57  11 2.57  14 2.57  15 2.57  21 2.57   1 2.57
                             6 2.57   3 2.57  20 2.57  27 2.57
  13  0.444  0.111  0.082-  11 2.57  15 2.57  10 2.57  14 2.57  18 2.57  16 2.57  22 2.57   5 2.57
                            24 2.57  19 2.57   7 2.57   4 2.57
  14  0.444  0.444  0.082-  11 2.57  17 2.57  13 2.57  16 2.57  12 2.57  15 2.57  23 2.57   8 2.57
                            22 2.57  20 2.57   5 2.57   6 2.57
  15  0.444  0.778  0.082-  13 2.57  18 2.57  10 2.57  17 2.57  14 2.57  12 2.57  24 2.57   9 2.57
                             4 2.57   6 2.57  23 2.57  21 2.57
  16  0.778  0.111  0.082-  17 2.57  12 2.57  10 2.57  14 2.57  18 2.57  13 2.57   1 2.57  25 2.57
                             8 2.57  27 2.57   7 2.57  22 2.57
  17  0.778  0.444  0.082-  16 2.57  14 2.57  10 2.57  15 2.57  11 2.57  18 2.57  26 2.57  25 2.57
                             2 2.57  23 2.57   8 2.57   9 2.57
  18  0.778  0.778  0.082-  12 2.57  15 2.57  13 2.57  16 2.57  11 2.57  17 2.57  27 2.57   3 2.57
                             7 2.57  24 2.57   9 2.57  26 2.57
  19  0.222  0.222  0.165-  25 2.57  22 2.57  26 2.57  20 2.57  21 2.57  24 2.57  10 2.57  29 2.57
                            11 2.57  31 2.57  13 2.57  32 2.57
  20  0.222  0.556  0.165-  22 2.57  23 2.57  19 2.57  21 2.57  26 2.57  27 2.57  11 2.57  32 2.57
                            14 2.57  12 2.57  30 2.57  33 2.57
  21  0.222  0.889  0.165-  25 2.57  19 2.57  20 2.57  23 2.57  24 2.57  27 2.57  12 2.57  28 2.57
                            33 2.57  10 2.57  31 2.57  15 2.57
  22  0.556  0.222  0.165-  27 2.57  20 2.57  24 2.57  19 2.57  23 2.57  25 2.57  13 2.57  32 2.57
                            14 2.57  34 2.57  35 2.57  16 2.57
  23  0.556  0.556  0.165-  20 2.57  26 2.57  25 2.57  22 2.57  21 2.57  24 2.57  14 2.57  35 2.57
                            33 2.57  17 2.57  15 2.57  36 2.57
  24  0.556  0.889  0.165-  27 2.57  22 2.57  19 2.57  26 2.57  23 2.57  21 2.57  15 2.57  36 2.57
                            13 2.57  18 2.57  34 2.57  31 2.57
  25  0.889  0.222  0.165-  26 2.57  21 2.57  19 2.57  23 2.57  22 2.57  27 2.57  16 2.57  17 2.57
                            28 2.57  10 2.57  29 2.57  35 2.57
  26  0.889  0.556  0.165-  27 2.57  25 2.57  23 2.57  19 2.57  24 2.57  20 2.57  17 2.57  29 2.57
                            36 2.57  30 2.57  18 2.57  11 2.57
  27  0.889  0.889  0.165-  24 2.57  22 2.57  26 2.57  25 2.57  20 2.57  21 2.57  18 2.57  34 2.57
                            30 2.57  16 2.57  12 2.57  28 2.57
  28  0.000  0.000  0.247-  34 2.57  31 2.57  35 2.57  29 2.57  33 2.57  30 2.57  43 2.57  21 2.57
                            25 2.57  39 2.57  37 2.57  27 2.57
  29  0.000  0.333  0.247-  31 2.57  32 2.57  28 2.57  30 2.57  35 2.57  36 2.57  19 2.57  26 2.57
                            37 2.57  44 2.57  25 2.57  38 2.57
  30  1.000  0.667  0.247-  34 2.57  36 2.57  28 2.57  29 2.57  32 2.57  33 2.57  45 2.57  27 2.57
                            39 2.57  26 2.57  38 2.57  20 2.57
  31  0.333  0.000  0.247-  29 2.57  33 2.57  28 2.57  32 2.57  36 2.57  34 2.57  37 2.57  19 2.57
                            42 2.57  40 2.57  24 2.57  21 2.57
  32  0.333  0.333  0.247-  29 2.57  35 2.57  31 2.57  34 2.57  30 2.57  33 2.57  38 2.57  22 2.57
                            20 2.57  40 2.57  41 2.57  19 2.57
  33  0.333  0.667  0.247-  31 2.57  36 2.57  28 2.57  35 2.57  32 2.57  30 2.57  21 2.57  23 2.57
                            39 2.57  42 2.57  41 2.57  20 2.57
  34  0.667  0.000  0.247-  35 2.57  30 2.57  28 2.57  32 2.57  36 2.57  31 2.57  27 2.57  22 2.57
                            45 2.57  40 2.57  43 2.57  24 2.57
  35  0.667  0.333  0.247-  34 2.57  32 2.57  28 2.57  33 2.57  29 2.57  36 2.57  41 2.57  23 2.57
                            43 2.57  25 2.57  44 2.57  22 2.57
  36  0.667  0.667  0.247-  30 2.57  33 2.57  31 2.57  34 2.57  29 2.57  35 2.57  42 2.57  24 2.57
                            26 2.57  45 2.57  44 2.57  23 2.57
  37  0.111  0.111  0.329-  43 2.57  40 2.57  44 2.57  38 2.57  42 2.57  39 2.57  46 2.57  31 2.57
                            29 2.57  48 2.57  52 2.57  28 2.57
  38  0.111  0.444  0.329-  40 2.57  41 2.57  37 2.57  39 2.57  44 2.57  45 2.57  47 2.57  32 2.57
                            46 2.57  29 2.57  30 2.57  53 2.57
  39  0.111  0.778  0.329-  43 2.57  45 2.57  37 2.57  38 2.57  41 2.57  42 2.57  48 2.57  28 2.57
                            33 2.57  30 2.57  47 2.57  54 2.57
  40  0.444  0.111  0.329-  38 2.57  42 2.57  37 2.57  41 2.57  45 2.57  43 2.57  49 2.57  32 2.57
                            51 2.57  46 2.57  34 2.57  31 2.57
  41  0.444  0.444  0.329-  38 2.57  44 2.57  40 2.57  43 2.57  39 2.57  42 2.57  50 2.57  35 2.57
                            49 2.57  47 2.57  32 2.57  33 2.57
  42  0.444  0.778  0.329-  40 2.57  45 2.57  37 2.57  44 2.57  41 2.57  39 2.57  51 2.57  36 2.57
                            31 2.57  33 2.57  50 2.57  48 2.57
  43  0.778  0.111  0.329-  44 2.57  39 2.57  37 2.57  41 2.57  45 2.57  40 2.57  28 2.57  52 2.57
                            35 2.57  54 2.57  34 2.57  49 2.57
  44  0.778  0.444  0.329-  43 2.57  41 2.57  37 2.57  42 2.57  38 2.57  45 2.57  53 2.57  52 2.57
                            29 2.57  50 2.57  35 2.57  36 2.57
  45  0.778  0.778  0.329-  39 2.57  42 2.57  40 2.57  43 2.57  38 2.57  44 2.57  54 2.57  30 2.57
                            34 2.57  51 2.57  36 2.57  53 2.57
  46  0.222  0.222  0.411-  52 2.57  49 2.57  53 2.57  47 2.57  48 2.57  51 2.57  37 2.57  38 2.57
                            40 2.57
  47  0.222  0.556  0.411-  49 2.57  50 2.57  46 2.57  48 2.57  53 2.57  54 2.57  38 2.57  41 2.57
                            39 2.57
  48  0.222  0.889  0.411-  52 2.57  46 2.57  47 2.57  50 2.57  51 2.57  54 2.57  39 2.57  37 2.57
                            42 2.57
  49  0.556  0.222  0.411-  54 2.57  47 2.57  51 2.57  46 2.57  50 2.57  52 2.57  40 2.57  41 2.57
                            43 2.57
  50  0.556  0.556  0.411-  47 2.57  53 2.57  52 2.57  49 2.57  48 2.57  51 2.57  41 2.57  44 2.57
                            42 2.57
  51  0.556  0.889  0.411-  54 2.57  49 2.57  46 2.57  53 2.57  50 2.57  48 2.57  42 2.57  40 2.57
                            45 2.57
  52  0.889  0.222  0.411-  53 2.57  48 2.57  46 2.57  50 2.57  49 2.57  54 2.57  43 2.57  44 2.57
                            37 2.57
  53  0.889  0.556  0.411-  54 2.57  52 2.57  50 2.57  46 2.57  51 2.57  47 2.57  44 2.57  45 2.57
                            38 2.57
  54  0.889  0.889  0.411-  51 2.57  49 2.57  53 2.57  52 2.57  47 2.57  48 2.57  45 2.57  43 2.57
                            39 2.57
 
  LATTYP: Found a hexagonal cell.
 ALAT       =     7.7003932000
 C/A-ratio  =     3.3087801982
  
  Lattice vectors:
  
 A1 = (  -3.8501966000,  -6.6687361303,   0.0000000000)
 A2 = (   7.7003931999,   0.0000000000,   0.0000000000)
 A3 = (   0.0000000000,   0.0000000000,  25.4789085388)


Analysis of symmetry for initial positions (statically):
=====================================================================
 Subroutine PRICEL returns following result:
 
  LATTYP: Found a hexagonal cell.
 ALAT       =     2.5667977331
 C/A-ratio  =     9.9263405956
  
  Lattice vectors:
  
 A1 = (  -1.2833988670,  -2.2229120430,   0.0000000000)
 A2 = (   2.5667977330,   0.0000000000,   0.0000000000)
 A3 = (   0.0000000000,   0.0000000000,  25.4789085388)
 
   9 primitive cells build up your supercell.
 

 Routine SETGRP: Setting up the symmetry group for a 
 hexagonal supercell.


 Subroutine GETGRP returns: Found 12 space group operations
 (whereof  6 operations were pure point group operations)
 out of a pool of 24 trial point group operations.


The static configuration has the point symmetry C_3v.
 The point group associated with its full space group is D_3d.


Analysis of symmetry for dynamics (positions and initial velocities):
=====================================================================
 Subroutine PRICEL returns following result:
 
  LATTYP: Found a hexagonal cell.
 ALAT       =     2.5667977331
 C/A-ratio  =     9.9263405956
  
  Lattice vectors:
  
 A1 = (  -1.2833988670,  -2.2229120430,   0.0000000000)
 A2 = (   2.5667977330,   0.0000000000,   0.0000000000)
 A3 = (   0.0000000000,   0.0000000000,  25.4789085388)
 
   9 primitive cells build up your supercell.
 

 Routine SETGRP: Setting up the symmetry group for a 
 hexagonal supercell.


 Subroutine GETGRP returns: Found 12 space group operations
 (whereof  6 operations were pure point group operations)
 out of a pool of 24 trial point group operations.


The dynamic configuration has the point symmetry C_3v.
 The point group associated with its full space group is D_3d.


Analysis of constrained symmetry for selective dynamics:
=====================================================================
 Subroutine PRICEL returns following result:
 
  LATTYP: Found a hexagonal cell.
 ALAT       =     2.5667977331
 C/A-ratio  =     9.9263405956
  
  Lattice vectors:
  
 A1 = (  -1.2833988670,  -2.2229120430,   0.0000000000)
 A2 = (   2.5667977330,   0.0000000000,   0.0000000000)
 A3 = (   0.0000000000,   0.0000000000,  25.4789085388)
 
   9 primitive cells build up your supercell.
 

 Routine SETGRP: Setting up the symmetry group for a 
 hexagonal supercell.


 Subroutine GETGRP returns: Found  6 space group operations
 (whereof  6 operations were pure point group operations)
 out of a pool of 24 trial point group operations.


The constrained configuration has the point symmetry C_3v.


Analysis of structural, dynamic, and magnetic symmetry:
=====================================================================
 Subroutine PRICEL returns following result:
 
  LATTYP: Found a hexagonal cell.
 ALAT       =     2.5667977331
 C/A-ratio  =     9.9263405956
  
  Lattice vectors:
  
 A1 = (  -1.2833988670,  -2.2229120430,   0.0000000000)
 A2 = (   2.5667977330,   0.0000000000,   0.0000000000)
 A3 = (   0.0000000000,   0.0000000000,  25.4789085388)
 
   9 primitive cells build up your supercell.
 

 Routine SETGRP: Setting up the symmetry group for a 
 hexagonal supercell.


 Subroutine GETGRP returns: Found  6 space group operations
 (whereof  6 operations were pure point group operations)
 out of a pool of 24 trial point group operations.


The overall configuration has the point symmetry C_3v.


 Subroutine INISYM returns: Found  6 space group operations
 (whereof  6 operations are pure point group operations),
 and found     9 'primitive' translations


----------------------------------------------------------------------------------------

                                     Primitive cell                                     

  volume of cell :     145.3767

  direct lattice vectors                    reciprocal lattice vectors
    -1.283398867 -2.222912043  0.000000000     0.000000000 -0.449860355  0.000000000
     2.566797733  0.000000000  0.000000000     0.389590495 -0.224930177  0.000000000
     0.000000000  0.000000000 25.478908539     0.000000000  0.000000000  0.039248149

  length of vectors
     2.566797733  2.566797733 25.478908539     0.449860355  0.449860355  0.039248149

  position of ions in fractional coordinates (direct lattice)
     0.000000000  0.000000000  0.000000000
     0.666666667  0.333333333  0.082255549
     0.333333333  0.666666665  0.164511098
     0.000000000  0.000000000  0.246766647
     0.666666667  0.333333333  0.329022196
     0.333333333  0.666666665  0.411277745

  ion indices of the primitive-cell ions
   primitive index   ion index
                 1           1
                 2          10
                 3          27
                 4          28
                 5          37
                 6          54

----------------------------------------------------------------------------------------

 
 
 KPOINTS: Auto-mesh                               

Automatic generation of k-mesh.
 Grid dimensions read from file:
 generate k-points for:    3    3    1

 Generating k-lattice:

  Cartesian coordinates                     Fractional coordinates (reciprocal lattice)
     0.043287833 -0.024992242  0.000000000     0.333333333  0.000000000  0.000000000
     0.000000000  0.049984484  0.000000000     0.000000000  0.333333333  0.000000000
     0.000000000  0.000000000  0.039248149     0.000000000  0.000000000  1.000000000

  Length of vectors
     0.049984484  0.049984484  0.039248149

  Shift w.r.t. Gamma in fractional coordinates (k-lattice)
     0.000000000  0.000000000  0.000000000

 
 Subroutine IBZKPT returns following result:
 ===========================================
 
 Found      3 irreducible k-points:
 
 Following reciprocal coordinates:
            Coordinates               Weight
  0.000000  0.000000  0.000000      1.000000
  0.333333 -0.000000  0.000000      6.000000
 -0.333333  0.333333  0.000000      2.000000
 
 Following cartesian coordinates:
            Coordinates               Weight
  0.000000  0.000000  0.000000      1.000000
  0.043288 -0.024992  0.000000      6.000000
 -0.043288  0.074977  0.000000      2.000000
 


--------------------------------------------------------------------------------------------------------




 Dimension of arrays:
   k-points           NKPTS =      3   k-points in BZ     NKDIM =      3   number of bands    NBANDS=    384
   number of dos      NEDOS =    301   number of ions     NIONS =     54
   non local maximal  LDIM  =      6   non local SUM 2l+1 LMDIM =     18
   total plane-waves  NPLWV = 201600
   max r-space proj   IRMAX =      1   max aug-charges    IRDMAX=   4662
   dimension x,y,z NGX =    40 NGY =   40 NGZ =  126
   dimension x,y,z NGXF=    80 NGYF=   80 NGZF=  252
   support grid    NGXF=    80 NGYF=   80 NGZF=  252
   ions per type =              54
   NGX,Y,Z   is equivalent  to a cutoff of   8.64,  8.64,  8.22 a.u.
   NGXF,Y,Z  is equivalent  to a cutoff of  17.27, 17.27, 16.44 a.u.

 SYSTEM =  unknown system                          
 POSCAR =  FCC Cu                                  

 Startparameter for this run:
   NWRITE =      2    write-flag & timer
   PREC   = normal    normal or accurate (medium, high low for compatibility)
   ISTART =      0    job   : 0-new  1-cont  2-samecut
   ICHARG =      2    charge: 1-file 2-atom 10-const
   ISPIN  =      2    spin polarized calculation?
   LNONCOLLINEAR =      F non collinear calculations
   LSORBIT =      F    spin-orbit coupling
   INIWAV =      1    electr: 0-lowe 1-rand  2-diag
   LASPH  =      F    aspherical Exc in radial PAW
 Electronic Relaxation 1
   ENCUT  =  400.0 eV  29.40 Ry    5.42 a.u.  12.56 12.56 41.55*2*pi/ulx,y,z
   ENINI  =  400.0     initial cutoff
   ENAUG  =  587.0 eV  augmentation charge cutoff
   NELM   =     60;   NELMIN=  2; NELMDL= -5     # of ELM steps 
   EDIFF  = 0.2E-03   stopping-criterion for ELM
   LREAL  =      F    real-space projection
   NLSPLINE    = F    spline interpolate recip. space projectors
   LCOMPAT=      F    compatible to vasp.4.4
   GGA_COMPAT  = T    GGA compatible to vasp.4.4-vasp.4.6
   LMAXPAW     = -100 max onsite density
   LMAXMIX     =    2 max onsite mixed and CHGCAR
   VOSKOWN=      0    Vosko Wilk Nusair interpolation
   ROPT   =    0.00000
 Ionic relaxation
   EDIFFG = -.3E-01   stopping-criterion for IOM
   NSW    =    800    number of steps for IOM
   NBLOCK =      1;   KBLOCK =    800    inner block; outer block 
   IBRION =      2    ionic relax: 0-MD 1-quasi-New 2-CG
   NFREE  =      1    steps in history (QN), initial steepest desc. (CG)
   ISIF   =      2    stress and relaxation
   IWAVPR =     11    prediction:  0-non 1-charg 2-wave 3-comb
   ISYM   =      1    0-nonsym 1-usesym 2-fastsym
   LCORR  =      T    Harris-Foulkes like correction to forces

   POTIM  = 0.5000    time-step for ionic-motion
   TEIN   =    0.0    initial temperature
   TEBEG  =    0.0;   TEEND  =   0.0 temperature during run
   SMASS  =  -3.00    Nose mass-parameter (am)
   estimated Nose-frequenzy (Omega)   =  0.10E-29 period in steps = 0.13E+47 mass=  -0.136E-26a.u.
   SCALEE = 1.0000    scale energy and forces
   NPACO  =    256;   APACO  = 10.0  distance and # of slots for P.C.
   PSTRESS=    0.0 pullay stress

  Mass of Ions in am
   POMASS =  63.55
  Ionic Valenz
   ZVAL   =  11.00
  Atomic Wigner-Seitz radii
   RWIGS  =  -1.00
  virtual crystal weights 
   VCA    =   1.00
   NELECT =     594.0000    total number of electrons
   NUPDOWN=      -1.0000    fix difference up-down

 DOS related values:
   EMIN   =  10.00;   EMAX   =-10.00  energy-range for DOS
   EFERMI =   0.00
   ISMEAR =     1;   SIGMA  =   0.20  broadening in eV -4-tet -1-fermi 0-gaus

 Electronic relaxation 2 (details)
   IALGO  =     38    algorithm
   LDIAG  =      T    sub-space diagonalisation (order eigenvalues)
   LSUBROT=      F    optimize rotation matrix (better conditioning)
   TURBO    =      0    0=normal 1=particle mesh
   IRESTART =      0    0=no restart 2=restart with 2 vectors
   NREBOOT  =      0    no. of reboots
   NMIN     =      0    reboot dimension
   EREF     =   0.00    reference energy to select bands
   IMIX   =      4    mixing-type and parameters
     AMIX     =   0.40;   BMIX     =  1.00
     AMIX_MAG =   1.60;   BMIX_MAG =  1.00
     AMIN     =   0.10
     WC   =   100.;   INIMIX=   1;  MIXPRE=   1;  MAXMIX= -45

 Intra band minimization:
   WEIMIN = 0.0010     energy-eigenvalue tresh-hold
   EBREAK =  0.13E-06  absolut break condition
   DEPER  =   0.30     relativ break condition  

   TIME   =   0.40     timestep for ELM

  volume/ion in A,a.u.               =      24.23       163.51
  Fermi-wavevector in a.u.,A,eV,Ry     =   1.258224  2.377698 21.539752  1.583127
  Thomas-Fermi vector in A             =   2.391844
 
 Write flags
   LWAVE        =      F    write WAVECAR
   LDOWNSAMPLE  =      F    k-point downsampling of WAVECAR
   LCHARG       =      F    write CHGCAR
   LVTOT        =      F    write LOCPOT, total local potential
   LVHAR        =      F    write LOCPOT, Hartree potential only
   LELF         =      F    write electronic localiz. function (ELF)
   LORBIT       =      0    0 simple, 1 ext, 2 COOP (PROOUT), +10 PAW based schemes


 Dipole corrections
   LMONO  =      F    monopole corrections only (constant potential shift)
   LDIPOL =      F    correct potential (dipole corrections)
   IDIPOL =      3    1-x, 2-y, 3-z, 4-all directions 
   EPSILON=  1.0000000 bulk dielectric constant

 Exchange correlation treatment:
   GGA     =    PE    GGA type
   LEXCH   =     8    internal setting for exchange type
   LIBXC   =     F    Libxc                    
   VOSKOWN =     0    Vosko Wilk Nusair interpolation
   LHFCALC =     F    Hartree Fock is set to
   LHFONE  =     F    Hartree Fock one center treatment
   AEXX    =    0.0000 exact exchange contribution

 Linear response parameters
   LEPSILON=     F    determine dielectric tensor
   LRPA    =     F    only Hartree local field effects (RPA)
   LNABLA  =     F    use nabla operator in PAW spheres
   LVEL    =     F    velocity operator in full k-point grid
   CSHIFT  =0.1000    complex shift for real part using Kramers Kronig
   OMEGAMAX=  -1.0    maximum frequency
   DEG_THRESHOLD= 0.2000000E-02 threshold for treating states as degnerate
   RTIME   =   -0.100 relaxation time in fs
  (WPLASMAI=    0.000 imaginary part of plasma frequency in eV, 0.658/RTIME)
   DFIELD  = 0.0000000 0.0000000 0.0000000 field for delta impulse in time
 
  Optional k-point grid parameters
   LKPOINTS_OPT  =     F    use optional k-point grid
   KPOINTS_OPT_MODE=     1    mode for optional k-point grid
 
 Orbital magnetization related:
   ORBITALMAG=     F  switch on orbital magnetization
   LCHIMAG   =     F  perturbation theory with respect to B field
   DQ        =  0.001000  dq finite difference perturbation B field
   LLRAUG    =     F  two centre corrections for induced B field



--------------------------------------------------------------------------------------------------------


 conjugate gradient relaxation of ions
   using selective dynamics as specified on POSCAR
   WARNING: If single coordinates had been selected the selection of coordinates
            is made according to the corresponding   d i r e c t   coordinates!
            Don't support selection of single cartesian coordinates -- sorry ...
  !
 charge density and potential will be updated during run
 spin polarized calculation
 Variant of blocked Davidson
 Davidson routine will perform the subspace rotation
 perform sub-space diagonalisation
    after iterative eigenvector-optimisation
 modified Broyden-mixing scheme, WC =      100.0
 initial mixing is a Kerker type mixing with AMIX =  0.4000 and BMIX =      1.0000
 Hartree-type preconditioning will be used
 using additional bands           87
 reciprocal scheme for non local part
 use partial core corrections
 calculate Harris-corrections to forces 
   (improved forces if not selfconsistent)
 use gradient corrections 
 use of overlap-Matrix (Vanderbilt PP)
 Methfessel and Paxton  Order N= 1 SIGMA  =   0.20


--------------------------------------------------------------------------------------------------------


  energy-cutoff  :      400.00
  volume of cell :     1308.39
      direct lattice vectors                 reciprocal lattice vectors
     7.700393200  0.000000000  0.000000000     0.129863498 -0.074976726  0.000000000
     3.850196600  6.668736130  0.000000000     0.000000000  0.149953452  0.000000000
     0.000000000  0.000000000 25.478908539     0.000000000  0.000000000  0.039248149

  length of vectors
     7.700393200  7.700393200 25.478908539     0.149953452  0.149953452  0.039248149


 
 k-points in units of 2pi/SCALE and weight: Auto-mesh                               
   0.00000000  0.00000000  0.00000000       0.111
   0.04328783 -0.02499224  0.00000000       0.667
  -0.04328783  0.07497673  0.00000000       0.222
 
 k-points in reciprocal lattice and weights: Auto-mesh                               
   0.00000000  0.00000000  0.00000000       0.111
   0.33333333 -0.00000000  0.00000000       0.667
  -0.33333333  0.33333333  0.00000000       0.222
 
 position of ions in fractional coordinates (direct lattice) 
   0.00000000  0.00000000  0.00000000
   0.00000000  0.33333333  0.00000000
   1.00000000  0.66666667  0.00000000
   0.33333333  0.00000000  0.00000000
   0.33333333  0.33333333  0.00000000
   0.33333333  0.66666667  0.00000000
   0.66666667  0.00000000  0.00000000
   0.66666667  0.33333333  0.00000000
   0.66666667  0.66666667  0.00000000
   0.11111111  0.11111111  0.08225555
   0.11111111  0.44444444  0.08225555
   0.11111111  0.77777778  0.08225555
   0.44444444  0.11111111  0.08225555
   0.44444444  0.44444444  0.08225555
   0.44444444  0.77777778  0.08225555
   0.77777778  0.11111111  0.08225555
   0.77777778  0.44444444  0.08225555
   0.77777778  0.77777778  0.08225555
   0.22222222  0.22222222  0.16451110
   0.22222222  0.55555556  0.16451110
   0.22222222  0.88888889  0.16451110
   0.55555556  0.22222222  0.16451110
   0.55555556  0.55555556  0.16451110
   0.55555556  0.88888889  0.16451110
   0.88888889  0.22222222  0.16451110
   0.88888889  0.55555556  0.16451110
   0.88888889  0.88888889  0.16451110
   0.00000000  0.00000000  0.24676665
   0.00000000  0.33333333  0.24676665
   1.00000000  0.66666667  0.24676665
   0.33333333  0.00000000  0.24676665
   0.33333333  0.33333333  0.24676665
   0.33333333  0.66666667  0.24676665
   0.66666667  0.00000000  0.24676665
   0.66666667  0.33333333  0.24676665
   0.66666667  0.66666667  0.24676665
   0.11111111  0.11111111  0.32902220
   0.11111111  0.44444444  0.32902220
   0.11111111  0.77777778  0.32902220
   0.44444444  0.11111111  0.32902220
   0.44444444  0.44444444  0.32902220
   0.44444444  0.77777778  0.32902220
   0.77777778  0.11111111  0.32902220
   0.77777778  0.44444444  0.32902220
   0.77777778  0.77777778  0.32902220
   0.22222222  0.22222222  0.41127774
   0.22222222  0.55555556  0.41127774
   0.22222222  0.88888889  0.41127774
   0.55555556  0.22222222  0.41127774
   0.55555556  0.55555556  0.41127774
   0.55555556  0.88888889  0.41127774
   0.88888889  0.22222222  0.41127774
   0.88888889  0.55555556  0.41127774
   0.88888889  0.88888889  0.41127774
 
 position of ions in cartesian coordinates  (Angst):
   0.00000000  0.00000000  0.00000000
   1.28339887  2.22291204  0.00000000
  10.26719093  4.44582409  0.00000000
   2.56679773  0.00000000  0.00000000
   3.85019660  2.22291204  0.00000000
   5.13359547  4.44582409  0.00000000
   5.13359547  0.00000000  0.00000000
   6.41699433  2.22291204  0.00000000
   7.70039320  4.44582409  0.00000000
   1.28339887  0.74097068  2.09578161
   2.56679773  2.96388272  2.09578161
   3.85019660  5.18679477  2.09578161
   3.85019660  0.74097068  2.09578161
   5.13359547  2.96388272  2.09578161
   6.41699433  5.18679477  2.09578161
   6.41699433  0.74097068  2.09578161
   7.70039320  2.96388272  2.09578161
   8.98379207  5.18679477  2.09578161
   2.56679773  1.48194136  4.19156322
   3.85019660  3.70485341  4.19156322
   5.13359547  5.92776545  4.19156322
   5.13359547  1.48194136  4.19156322
   6.41699433  3.70485341  4.19156322
   7.70039320  5.92776545  4.19156322
   7.70039320  1.48194136  4.19156322
   8.98379207  3.70485341  4.19156322
  10.26719093  5.92776545  4.19156322
   0.00000000  0.00000000  6.28734482
   1.28339887  2.22291204  6.28734482
  10.26719093  4.44582409  6.28734482
   2.56679773  0.00000000  6.28734482
   3.85019660  2.22291204  6.28734482
   5.13359547  4.44582409  6.28734482
   5.13359547  0.00000000  6.28734482
   6.41699433  2.22291204  6.28734482
   7.70039320  4.44582409  6.28734482
   1.28339887  0.74097068  8.38312643
   2.56679773  2.96388272  8.38312643
   3.85019660  5.18679477  8.38312643
   3.85019660  0.74097068  8.38312643
   5.13359547  2.96388272  8.38312643
   6.41699433  5.18679477  8.38312643
   6.41699433  0.74097068  8.38312643
   7.70039320  2.96388272  8.38312643
   8.98379207  5.18679477  8.38312643
   2.56679773  1.48194136 10.47890804
   3.85019660  3.70485341 10.47890804
   5.13359547  5.92776545 10.47890804
   5.13359547  1.48194136 10.47890804
   6.41699433  3.70485341 10.47890804
   7.70039320  5.92776545 10.47890804
   7.70039320  1.48194136 10.47890804
   8.98379207  3.70485341 10.47890804
  10.26719093  5.92776545 10.47890804
 


--------------------------------------------------------------------------------------------------------


 k-point   1 :   0.0000 0.0000 0.0000  plane waves:   23831
 k-point   2 :   0.3333-0.0000 0.0000  plane waves:   23768
 k-point   3 :  -0.3333 0.3333 0.0000  plane waves:   23742

 maximum and minimum number of plane-waves per node :      4800     4741

 maximum number of plane-waves:     23831
 maximum index in each direction: 
   IXMAX=   12   IYMAX=   12   IZMAX=   41
   IXMIN=  -12   IYMIN=  -12   IZMIN=  -41


 parallel 3D FFT for wavefunctions:
    minimum data exchange during FFTs selected (reduces bandwidth)
 parallel 3D FFT for charge:
    minimum data exchange during FFTs selected (reduces bandwidth)


 total amount of memory used by VASP MPI-rank0    95678. kBytes
=======================================================================

   base      :      30000. kBytes
   nonl-proj :       6220. kBytes
   fftplans  :       3959. kBytes
   grid      :       9077. kBytes
   one-center:        342. kBytes
   wavefun   :      46080. kBytes
 
     INWAV:  cpu time      0.0000: real time      0.0006
 Broyden mixing: mesh for mixing (old mesh)
   NGX = 25   NGY = 25   NGZ = 83
  (NGX  = 80   NGY  = 80   NGZ  =252)
  gives a total of  51875 points

 initial charge density was supplied:
 charge density of overlapping atoms calculated
 number of electron     594.0000000 magnetization      54.0000000
 keeping initial charge density in first step


--------------------------------------------------------------------------------------------------------


 Maximum index for augmentation-charges          290 (set IRDMAX)


--------------------------------------------------------------------------------------------------------


 First call to EWALD:  gamma=   0.162
 Maximum number of real-space cells 4x 4x 1
 Maximum number of reciprocal cells 2x 2x 6

    FEWALD:  cpu time      0.0028: real time      0.0028


--------------------------------------- Iteration      1(   1)  ---------------------------------------


    POTLOK:  cpu time      0.1067: real time      0.1384
    SETDIJ:  cpu time      0.0193: real time      0.0194
     EDDAV:  cpu time     21.0099: real time     21.1606
       DOS:  cpu time      0.0027: real time      0.0027
    --------------------------------------------
      LOOP:  cpu time     21.1386: real time     21.3211

 eigenvalue-minimisations  :  4608
 total energy-change (2. order) : 0.5660437E+04  (-0.2121002E+05)
 number of electron     594.0000000 magnetization      54.0000000
 augmentation part      594.0000000 magnetization      54.0000000

 Free energy of the ion-electron system (eV)
  ---------------------------------------------------
  alpha Z        PSCENC =      1629.90573480
  Ewald energy   TEWEN  =    288368.47495906
  -Hartree energ DENC   =   -361843.13471163
  -exchange      EXHF   =         0.00000000
  -V(xc)+E(xc)   XCENC  =      2467.96067516
  PAW double counting   =     66317.26478664   -72031.73030235
  entropy T*S    EENTRO =        -0.00620388
  eigenvalues    EBANDS =      5639.98995853
  atomic energy  EATOM  =     75111.71257079
  Solvation  Ediel_sol  =         0.00000000
  ---------------------------------------------------
  free energy    TOTEN  =      5660.43746712 eV

  energy without entropy =     5660.44367100  energy(sigma->0) =     5660.43953508


--------------------------------------------------------------------------------------------------------




--------------------------------------- Iteration      1(   2)  ---------------------------------------


     EDDAV:  cpu time     20.8157: real time     20.9663
       DOS:  cpu time      0.0029: real time      0.0029
    --------------------------------------------
      LOOP:  cpu time     20.8186: real time     20.9693

 eigenvalue-minimisations  :  4608
 total energy-change (2. order) :-0.4911188E+04  (-0.4701271E+04)
 number of electron     594.0000000 magnetization      54.0000000
 augmentation part      594.0000000 magnetization      54.0000000

 Free energy of the ion-electron system (eV)
  ---------------------------------------------------
  alpha Z        PSCENC =      1629.90573480
  Ewald energy   TEWEN  =    288368.47495906
  -Hartree energ DENC   =   -361843.13471163
  -exchange      EXHF   =         0.00000000
  -V(xc)+E(xc)   XCENC  =      2467.96067516
  PAW double counting   =     66317.26478664   -72031.73030235
  entropy T*S    EENTRO =        -0.01621109
  eigenvalues    EBANDS =       728.81167324
  atomic energy  EATOM  =     75111.71257079
  Solvation  Ediel_sol  =         0.00000000
  ---------------------------------------------------
  free energy    TOTEN  =       749.24917462 eV

  energy without entropy =      749.26538571  energy(sigma->0) =      749.25457832


--------------------------------------------------------------------------------------------------------




--------------------------------------- Iteration      1(   3)  ---------------------------------------


     EDDAV:  cpu time     20.7440: real time     20.8908
       DOS:  cpu time      0.0032: real time      0.0032
    --------------------------------------------
      LOOP:  cpu time     20.7472: real time     20.8940

 eigenvalue-minimisations  :  4608
 total energy-change (2. order) :-0.9072687E+03  (-0.8206912E+03)
 number of electron     594.0000000 magnetization      54.0000000
 augmentation part      594.0000000 magnetization      54.0000000

 Free energy of the ion-electron system (eV)
  ---------------------------------------------------
  alpha Z        PSCENC =      1629.90573480
  Ewald energy   TEWEN  =    288368.47495906
  -Hartree energ DENC   =   -361843.13471163
  -exchange      EXHF   =         0.00000000
  -V(xc)+E(xc)   XCENC  =      2467.96067516
  PAW double counting   =     66317.26478664   -72031.73030235
  entropy T*S    EENTRO =        -0.04397070
  eigenvalues    EBANDS =      -178.42927460
  atomic energy  EATOM  =     75111.71257079
  Solvation  Ediel_sol  =         0.00000000
  ---------------------------------------------------
  free energy    TOTEN  =      -158.01953283 eV

  energy without entropy =     -157.97556213  energy(sigma->0) =     -158.00487593


--------------------------------------------------------------------------------------------------------




--------------------------------------- Iteration      1(   4)  ---------------------------------------


     EDDAV:  cpu time     22.3026: real time     22.4604
       DOS:  cpu time      0.0034: real time      0.0034
    --------------------------------------------
      LOOP:  cpu time     22.3060: real time     22.4638

 eigenvalue-minimisations  :  5072
 total energy-change (2. order) :-0.6977345E+02  (-0.6666525E+02)
 number of electron     594.0000000 magnetization      54.0000000
 augmentation part      594.0000000 magnetization      54.0000000

 Free energy of the ion-electron system (eV)
  ---------------------------------------------------
  alpha Z        PSCENC =      1629.90573480
  Ewald energy   TEWEN  =    288368.47495906
  -Hartree energ DENC   =   -361843.13471163
  -exchange      EXHF   =         0.00000000
  -V(xc)+E(xc)   XCENC  =      2467.96067516
  PAW double counting   =     66317.26478664   -72031.73030235
  entropy T*S    EENTRO =        -0.04745719
  eigenvalues    EBANDS =      -248.19924207
  atomic energy  EATOM  =     75111.71257079
  Solvation  Ediel_sol  =         0.00000000
  ---------------------------------------------------
  free energy    TOTEN  =      -227.79298680 eV

  energy without entropy =     -227.74552960  energy(sigma->0) =     -227.77716773


--------------------------------------------------------------------------------------------------------




--------------------------------------- Iteration      1(   5)  ---------------------------------------


     EDDAV:  cpu time     22.5002: real time     22.6624
       DOS:  cpu time      0.0035: real time      0.0035
    CHARGE:  cpu time      1.1988: real time      1.2043
    MIXING:  cpu time      0.0440: real time      0.0443
    --------------------------------------------
      LOOP:  cpu time     23.7465: real time     23.9145

 eigenvalue-minimisations  :  5136
 total energy-change (2. order) :-0.1740146E+01  (-0.1733057E+01)
 number of electron     594.0000328 magnetization      49.8556280
 augmentation part      350.4635317 magnetization      49.1473316

 Broyden mixing:
  rms(total) = 0.69299E+01    rms(broyden)= 0.69297E+01
  rms(prec ) = 0.71352E+01
  weight for this iteration     100.00

 Free energy of the ion-electron system (eV)
  ---------------------------------------------------
  alpha Z        PSCENC =      1629.90573480
  Ewald energy   TEWEN  =    288368.47495906
  -Hartree energ DENC   =   -361843.13471163
  -exchange      EXHF   =         0.00000000
  -V(xc)+E(xc)   XCENC  =      2467.96067516
  PAW double counting   =     66317.26478664   -72031.73030235
  entropy T*S    EENTRO =        -0.04600413
  eigenvalues    EBANDS =      -249.94084161
  atomic energy  EATOM  =     75111.71257079
  Solvation  Ediel_sol  =         0.00000000
  ---------------------------------------------------
  free energy    TOTEN  =      -229.53313327 eV

  energy without entropy =     -229.48712914  energy(sigma->0) =     -229.51779856


--------------------------------------------------------------------------------------------------------




--------------------------------------- Iteration      1(   6)  ---------------------------------------


    POTLOK:  cpu time      0.1092: real time      0.1110
    SETDIJ:  cpu time      0.0187: real time      0.0188
     EDDAV:  cpu time     22.3299: real time     22.4889
       DOS:  cpu time      0.0030: real time      0.0030
    CHARGE:  cpu time      1.1413: real time      1.1467
    MIXING:  cpu time      0.0425: real time      0.0427
    --------------------------------------------
      LOOP:  cpu time     23.6446: real time     23.8110

 eigenvalue-minimisations  :  5112
 total energy-change (2. order) : 0.3913520E+02  (-0.5470464E+02)
 number of electron     594.0000375 magnetization      47.1447491
 augmentation part      397.1871654 magnetization      36.0777002

 Broyden mixing:
  rms(total) = 0.36556E+01    rms(broyden)= 0.36554E+01
  rms(prec ) = 0.37777E+01
  weight for this iteration     100.00

 eigenvalues of (default mixing * dielectric matrix)
  average eigenvalue GAMMA=   0.7805
  0.7805

 Free energy of the ion-electron system (eV)
  ---------------------------------------------------
  alpha Z        PSCENC =      1629.90573480
  Ewald energy   TEWEN  =    288368.47495906
  -Hartree energ DENC   =   -360313.06346832
  -exchange      EXHF   =         0.00000000
  -V(xc)+E(xc)   XCENC  =      2402.29919738
  PAW double counting   =     67060.99633288   -72473.45426848
  entropy T*S    EENTRO =        -0.11827847
  eigenvalues    EBANDS =     -1977.15071537
  atomic energy  EATOM  =     75111.71257079
  Solvation  Ediel_sol  =         0.00000000
  ---------------------------------------------------
  free energy    TOTEN  =      -190.39793574 eV

  energy without entropy =     -190.27965726  energy(sigma->0) =     -190.35850958


--------------------------------------------------------------------------------------------------------




--------------------------------------- Iteration      1(   7)  ---------------------------------------


    POTLOK:  cpu time      0.1004: real time      0.1021
    SETDIJ:  cpu time      0.0183: real time      0.0184
     EDDAV:  cpu time     21.9634: real time     22.1380
       DOS:  cpu time      0.0030: real time      0.0031
    CHARGE:  cpu time      1.1189: real time      1.1246
    MIXING:  cpu time      0.0422: real time      0.0424
    --------------------------------------------
      LOOP:  cpu time     23.2462: real time     23.4284

 eigenvalue-minimisations  :  5008
 total energy-change (2. order) : 0.2810939E+02  (-0.1437288E+02)
 number of electron     594.0000362 magnetization      42.8812083
 augmentation part      379.6728229 magnetization      31.4018645

 Broyden mixing:
  rms(total) = 0.16525E+01    rms(broyden)= 0.16524E+01
  rms(prec ) = 0.16641E+01
  weight for this iteration     100.00

 eigenvalues of (default mixing * dielectric matrix)
  average eigenvalue GAMMA=   0.9053
  1.1594  0.6513

 Free energy of the ion-electron system (eV)
  ---------------------------------------------------
  alpha Z        PSCENC =      1629.90573480
  Ewald energy   TEWEN  =    288368.47495906
  -Hartree energ DENC   =   -361048.52463051
  -exchange      EXHF   =         0.00000000
  -V(xc)+E(xc)   XCENC  =      2434.82092783
  PAW double counting   =     68453.94687613   -74147.62311087
  entropy T*S    EENTRO =        -0.13448114
  eigenvalues    EBANDS =      -964.86738902
  atomic energy  EATOM  =     75111.71257079
  Solvation  Ediel_sol  =         0.00000000
  ---------------------------------------------------
  free energy    TOTEN  =      -162.28854294 eV

  energy without entropy =     -162.15406180  energy(sigma->0) =     -162.24371589


--------------------------------------------------------------------------------------------------------




--------------------------------------- Iteration      1(   8)  ---------------------------------------


    POTLOK:  cpu time      0.1004: real time      0.1040
    SETDIJ:  cpu time      0.0182: real time      0.0183
     EDDAV:  cpu time     23.9974: real time     24.1757
       DOS:  cpu time      0.0032: real time      0.0033
    CHARGE:  cpu time      1.1434: real time      1.1490
    MIXING:  cpu time      0.0433: real time      0.0434
    --------------------------------------------
      LOOP:  cpu time     25.3059: real time     25.4936

 eigenvalue-minimisations  :  5488
 total energy-change (2. order) : 0.6690616E+01  (-0.1807210E+01)
 number of electron     594.0000342 magnetization      40.3597503
 augmentation part      378.5243469 magnetization      27.9207610

 Broyden mixing:
  rms(total) = 0.15646E+01    rms(broyden)= 0.15646E+01
  rms(prec ) = 0.15892E+01
  weight for this iteration     100.00

 eigenvalues of (default mixing * dielectric matrix)
  average eigenvalue GAMMA=   0.7545
  1.1536  0.6196  0.4902

 Free energy of the ion-electron system (eV)
  ---------------------------------------------------
  alpha Z        PSCENC =      1629.90573480
  Ewald energy   TEWEN  =    288368.47495906
  -Hartree energ DENC   =   -361082.85819147
  -exchange      EXHF   =         0.00000000
  -V(xc)+E(xc)   XCENC  =      2438.84482173
  PAW double counting   =     69555.70620676   -75324.32784391
  entropy T*S    EENTRO =        -0.11651233
  eigenvalues    EBANDS =      -852.93967212
  atomic energy  EATOM  =     75111.71257079
  Solvation  Ediel_sol  =         0.00000000
  ---------------------------------------------------
  free energy    TOTEN  =      -155.59792669 eV

  energy without entropy =     -155.48141436  energy(sigma->0) =     -155.55908925


--------------------------------------------------------------------------------------------------------




--------------------------------------- Iteration      1(   9)  ---------------------------------------


    POTLOK:  cpu time      0.1011: real time      0.1030
    SETDIJ:  cpu time      0.0182: real time      0.0183
     EDDAV:  cpu time     25.2058: real time     25.6138
       DOS:  cpu time      0.0034: real time      0.0034
    CHARGE:  cpu time      1.1002: real time      1.1050
    MIXING:  cpu time      0.0131: real time      0.0132
    --------------------------------------------
      LOOP:  cpu time     26.4418: real time     26.8566

 eigenvalue-minimisations  :  5304
 total energy-change (2. order) :-0.4498219E+00  (-0.5881466E+00)
 number of electron     594.0000360 magnetization      28.0247376
 augmentation part      378.4452416 magnetization      15.9399067

 Broyden mixing:
  rms(total) = 0.13546E+01    rms(broyden)= 0.13546E+01
  rms(prec ) = 0.13638E+01
  weight for this iteration     100.00

 eigenvalues of (default mixing * dielectric matrix)
  average eigenvalue GAMMA=   1.0161
  1.4922  1.4922  0.6874  0.3926

 Free energy of the ion-electron system (eV)
  ---------------------------------------------------
  alpha Z        PSCENC =      1629.90573480
  Ewald energy   TEWEN  =    288368.47495906
  -Hartree energ DENC   =   -361123.03452885
  -exchange      EXHF   =         0.00000000
  -V(xc)+E(xc)   XCENC  =      2436.39672065
  PAW double counting   =     69956.12979051   -75746.23000724
  entropy T*S    EENTRO =        -0.13100880
  eigenvalues    EBANDS =      -789.27197944
  atomic energy  EATOM  =     75111.71257079
  Solvation  Ediel_sol  =         0.00000000
  ---------------------------------------------------
  free energy    TOTEN  =      -156.04774854 eV

  energy without entropy =     -155.91673973  energy(sigma->0) =     -156.00407894


--------------------------------------------------------------------------------------------------------




--------------------------------------- Iteration      1(  10)  ---------------------------------------


    POTLOK:  cpu time      0.1007: real time      0.1023
    SETDIJ:  cpu time      0.0253: real time      0.0255
     EDDAV:  cpu time     29.1457: real time     29.3284
       DOS:  cpu time      0.0033: real time      0.0033
    CHARGE:  cpu time      1.1134: real time      1.1182
    MIXING:  cpu time      0.0166: real time      0.0167
    --------------------------------------------
      LOOP:  cpu time     30.4050: real time     30.5943

 eigenvalue-minimisations  :  7136
 total energy-change (2. order) :-0.5253195E+01  (-0.7084443E+00)
 number of electron     594.0000358 magnetization      15.8387306
 augmentation part      380.4704668 magnetization       6.5670294

 Broyden mixing:
  rms(total) = 0.10424E+01    rms(broyden)= 0.10424E+01
  rms(prec ) = 0.10642E+01
  weight for this iteration     100.00

 eigenvalues of (default mixing * dielectric matrix)
  average eigenvalue GAMMA=   1.4885
  4.6192  1.1625  0.6283  0.6283  0.4039

 Free energy of the ion-electron system (eV)
  ---------------------------------------------------
  alpha Z        PSCENC =      1629.90573480
  Ewald energy   TEWEN  =    288368.47495906
  -Hartree energ DENC   =   -361188.88961733
  -exchange      EXHF   =         0.00000000
  -V(xc)+E(xc)   XCENC  =      2424.52617036
  PAW double counting   =     71319.16513598   -77164.44754986
  entropy T*S    EENTRO =        -0.05684708
  eigenvalues    EBANDS =      -661.69150035
  atomic energy  EATOM  =     75111.71257079
  Solvation  Ediel_sol  =         0.00000000
  ---------------------------------------------------
  free energy    TOTEN  =      -161.30094365 eV

  energy without entropy =     -161.24409657  energy(sigma->0) =     -161.28199462


--------------------------------------------------------------------------------------------------------




--------------------------------------- Iteration      1(  11)  ---------------------------------------


    POTLOK:  cpu time      0.1074: real time      0.1115
    SETDIJ:  cpu time      0.0181: real time      0.0182
     EDDAV:  cpu time     24.0098: real time     24.2610
       DOS:  cpu time      0.0032: real time      0.0032
    CHARGE:  cpu time      1.1164: real time      1.1211
    MIXING:  cpu time      0.0156: real time      0.0156
    --------------------------------------------
      LOOP:  cpu time     25.2704: real time     25.5306

 eigenvalue-minimisations  :  5608
 total energy-change (2. order) :-0.1145097E+01  (-0.4469851E+00)
 number of electron     594.0000360 magnetization      12.6090032
 augmentation part      380.8972304 magnetization       5.1349851

 Broyden mixing:
  rms(total) = 0.80654E+00    rms(broyden)= 0.80652E+00
  rms(prec ) = 0.93166E+00
  weight for this iteration     100.00

 eigenvalues of (default mixing * dielectric matrix)
  average eigenvalue GAMMA=   1.4649
  5.3287  1.1059  0.7493  0.7493  0.4705  0.3856

 Free energy of the ion-electron system (eV)
  ---------------------------------------------------
  alpha Z        PSCENC =      1629.90573480
  Ewald energy   TEWEN  =    288368.47495906
  -Hartree energ DENC   =   -361359.79196002
  -exchange      EXHF   =         0.00000000
  -V(xc)+E(xc)   XCENC  =      2421.83511824
  PAW double counting   =     72204.83227299   -78095.68621248
  entropy T*S    EENTRO =         0.01348644
  eigenvalues    EBANDS =      -443.74201025
  atomic energy  EATOM  =     75111.71257079
  Solvation  Ediel_sol  =         0.00000000
  ---------------------------------------------------
  free energy    TOTEN  =      -162.44604042 eV

  energy without entropy =     -162.45952686  energy(sigma->0) =     -162.45053590


--------------------------------------------------------------------------------------------------------




--------------------------------------- Iteration      1(  12)  ---------------------------------------


    POTLOK:  cpu time      0.1076: real time      0.1091
    SETDIJ:  cpu time      0.0182: real time      0.0183
     EDDAV:  cpu time     26.2148: real time     26.4000
       DOS:  cpu time      0.0035: real time      0.0035
    CHARGE:  cpu time      1.1293: real time      1.1347
    MIXING:  cpu time      0.0125: real time      0.0126
    --------------------------------------------
      LOOP:  cpu time     27.4859: real time     27.6783

 eigenvalue-minimisations  :  6240
 total energy-change (2. order) :-0.1823842E+01  (-0.1275763E+00)
 number of electron     594.0000359 magnetization       8.3201657
 augmentation part      380.7128032 magnetization       1.6088091

 Broyden mixing:
  rms(total) = 0.63286E+00    rms(broyden)= 0.63284E+00
  rms(prec ) = 0.70569E+00
  weight for this iteration     100.00

 eigenvalues of (default mixing * dielectric matrix)
  average eigenvalue GAMMA=   1.9070
  8.3887  1.7744  1.1072  0.7289  0.6383  0.3984  0.3131

 Free energy of the ion-electron system (eV)
  ---------------------------------------------------
  alpha Z        PSCENC =      1629.90573480
  Ewald energy   TEWEN  =    288368.47495906
  -Hartree energ DENC   =   -361334.25810539
  -exchange      EXHF   =         0.00000000
  -V(xc)+E(xc)   XCENC  =      2421.64272379
  PAW double counting   =     72110.93677373   -78001.13342614
  entropy T*S    EENTRO =         0.01660813
  eigenvalues    EBANDS =      -471.56772148
  atomic energy  EATOM  =     75111.71257079
  Solvation  Ediel_sol  =         0.00000000
  ---------------------------------------------------
  free energy    TOTEN  =      -164.26988272 eV

  energy without entropy =     -164.28649085  energy(sigma->0) =     -164.27541876


--------------------------------------------------------------------------------------------------------




--------------------------------------- Iteration      1(  13)  ---------------------------------------


    POTLOK:  cpu time      0.1011: real time      0.1025
    SETDIJ:  cpu time      0.0183: real time      0.0184
     EDDAV:  cpu time     29.0327: real time     29.3745
       DOS:  cpu time      0.1959: real time      0.2282
    CHARGE:  cpu time      1.4078: real time      1.4469
    MIXING:  cpu time      0.0189: real time      0.0190
    --------------------------------------------
      LOOP:  cpu time     30.7746: real time     31.1894

 eigenvalue-minimisations  :  6848
 total energy-change (2. order) :-0.9481804E+01  (-0.4393660E+00)
 number of electron     594.0000356 magnetization       3.9204785
 augmentation part      379.6275357 magnetization      -1.3074689

 Broyden mixing:
  rms(total) = 0.48137E+00    rms(broyden)= 0.48133E+00
  rms(prec ) = 0.67452E+00
  weight for this iteration     100.00

 eigenvalues of (default mixing * dielectric matrix)
  average eigenvalue GAMMA=   1.9571
 10.1213  1.9945  0.9617  0.8622  0.6854  0.3907  0.3907  0.2500

 Free energy of the ion-electron system (eV)
  ---------------------------------------------------
  alpha Z        PSCENC =      1629.90573480
  Ewald energy   TEWEN  =    288368.47495906
  -Hartree energ DENC   =   -361313.01069618
  -exchange      EXHF   =         0.00000000
  -V(xc)+E(xc)   XCENC  =      2418.49909583
  PAW double counting   =     71548.72799995   -77417.20249204
  entropy T*S    EENTRO =         0.02047886
  eigenvalues    EBANDS =      -520.87933743
  atomic energy  EATOM  =     75111.71257079
  Solvation  Ediel_sol  =         0.00000000
  ---------------------------------------------------
  free energy    TOTEN  =      -173.75168636 eV

  energy without entropy =     -173.77216522  energy(sigma->0) =     -173.75851265


--------------------------------------------------------------------------------------------------------




--------------------------------------- Iteration      1(  14)  ---------------------------------------


    POTLOK:  cpu time      0.1016: real time      0.1052
    SETDIJ:  cpu time      0.0184: real time      0.0185
     EDDAV:  cpu time     29.9724: real time     30.4702
       DOS:  cpu time      0.0032: real time      0.0032
    CHARGE:  cpu time      1.1193: real time      1.1264
    MIXING:  cpu time      0.0089: real time      0.0089
    --------------------------------------------
      LOOP:  cpu time     31.2238: real time     31.7324

 eigenvalue-minimisations  :  6976
 total energy-change (2. order) :-0.1063388E+02  (-0.1319139E+01)
 number of electron     594.0000358 magnetization       3.4659013
 augmentation part      378.2159701 magnetization       0.5658240

 Broyden mixing:
  rms(total) = 0.26200E+00    rms(broyden)= 0.26180E+00
  rms(prec ) = 0.29080E+00
  weight for this iteration     100.00

 eigenvalues of (default mixing * dielectric matrix)
  average eigenvalue GAMMA=   1.8835
 10.6641  2.2250  0.8430  0.8213  0.8213  0.5633  0.4008  0.3726  0.2397

 Free energy of the ion-electron system (eV)
  ---------------------------------------------------
  alpha Z        PSCENC =      1629.90573480
  Ewald energy   TEWEN  =    288368.47495906
  -Hartree energ DENC   =   -361364.50878553
  -exchange      EXHF   =         0.00000000
  -V(xc)+E(xc)   XCENC  =      2414.50191624
  PAW double counting   =     70843.07074331   -76679.63813697
  entropy T*S    EENTRO =         0.04311690
  eigenvalues    EBANDS =      -507.94768337
  atomic energy  EATOM  =     75111.71257079
  Solvation  Ediel_sol  =         0.00000000
  ---------------------------------------------------
  free energy    TOTEN  =      -184.38556477 eV

  energy without entropy =     -184.42868167  energy(sigma->0) =     -184.39993707


--------------------------------------------------------------------------------------------------------




--------------------------------------- Iteration      1(  15)  ---------------------------------------


    POTLOK:  cpu time      0.1010: real time      0.1023
    SETDIJ:  cpu time      0.0181: real time      0.0182
     EDDAV:  cpu time     24.1569: real time     24.3108
       DOS:  cpu time      0.0031: real time      0.0031
    CHARGE:  cpu time      1.1106: real time      1.1151
    MIXING:  cpu time      0.0224: real time      0.0224
    --------------------------------------------
      LOOP:  cpu time     25.4120: real time     25.5721

 eigenvalue-minimisations  :  5656
 total energy-change (2. order) :-0.1385862E+01  (-0.3119306E+00)
 number of electron     594.0000353 magnetization       3.3114340
 augmentation part      378.4903169 magnetization       1.1723987

 Broyden mixing:
  rms(total) = 0.21366E+00    rms(broyden)= 0.21362E+00
  rms(prec ) = 0.23266E+00
  weight for this iteration     100.00

 eigenvalues of (default mixing * dielectric matrix)
  average eigenvalue GAMMA=   1.7725
 10.7383  2.4044  0.8970  0.8970  0.7531  0.5578  0.4248  0.4248  0.3799  0.2476

 Free energy of the ion-electron system (eV)
  ---------------------------------------------------
  alpha Z        PSCENC =      1629.90573480
  Ewald energy   TEWEN  =    288368.47495906
  -Hartree energ DENC   =   -361312.77190679
  -exchange      EXHF   =         0.00000000
  -V(xc)+E(xc)   XCENC  =      2413.39654173
  PAW double counting   =     70669.56454768   -76492.22097122
  entropy T*S    EENTRO =         0.05665609
  eigenvalues    EBANDS =      -573.88955929
  atomic energy  EATOM  =     75111.71257079
  Solvation  Ediel_sol  =         0.00000000
  ---------------------------------------------------
  free energy    TOTEN  =      -185.77142717 eV

  energy without entropy =     -185.82808325  energy(sigma->0) =     -185.79031253


--------------------------------------------------------------------------------------------------------




--------------------------------------- Iteration      1(  16)  ---------------------------------------


    POTLOK:  cpu time      0.1007: real time      0.1014
    SETDIJ:  cpu time      0.0183: real time      0.0184
     EDDAV:  cpu time     22.2060: real time     22.3502
       DOS:  cpu time      0.0031: real time      0.0031
    CHARGE:  cpu time      1.1093: real time      1.1139
    MIXING:  cpu time      0.0093: real time      0.0094
    --------------------------------------------
      LOOP:  cpu time     23.4467: real time     23.5963

 eigenvalue-minimisations  :  5080
 total energy-change (2. order) :-0.9433269E+00  (-0.8915697E-01)
 number of electron     594.0000358 magnetization       3.0924349
 augmentation part      378.8644492 magnetization       1.4620868

 Broyden mixing:
  rms(total) = 0.16317E+00    rms(broyden)= 0.16315E+00
  rms(prec ) = 0.17827E+00
  weight for this iteration     100.00

 eigenvalues of (default mixing * dielectric matrix)
  average eigenvalue GAMMA=   1.7333
 10.8496  2.5651  0.9167  0.9167  0.8484  0.8484  0.6684  0.4644  0.3941  0.3498
  0.2448

 Free energy of the ion-electron system (eV)
  ---------------------------------------------------
  alpha Z        PSCENC =      1629.90573480
  Ewald energy   TEWEN  =    288368.47495906
  -Hartree energ DENC   =   -361269.83870308
  -exchange      EXHF   =         0.00000000
  -V(xc)+E(xc)   XCENC  =      2412.47861060
  PAW double counting   =     70549.93051608   -76362.68898937
  entropy T*S    EENTRO =         0.05342522
  eigenvalues    EBANDS =      -626.74287820
  atomic energy  EATOM  =     75111.71257079
  Solvation  Ediel_sol  =         0.00000000
  ---------------------------------------------------
  free energy    TOTEN  =      -186.71475410 eV

  energy without entropy =     -186.76817932  energy(sigma->0) =     -186.73256251


--------------------------------------------------------------------------------------------------------




--------------------------------------- Iteration      1(  17)  ---------------------------------------


    POTLOK:  cpu time      0.1009: real time      0.1052
    SETDIJ:  cpu time      0.0261: real time      0.0262
     EDDAV:  cpu time     25.1236: real time     25.2889
       DOS:  cpu time      0.0031: real time      0.0031
    CHARGE:  cpu time      1.1221: real time      1.1271
    MIXING:  cpu time      0.0113: real time      0.0114
    --------------------------------------------
      LOOP:  cpu time     26.3871: real time     26.5619

 eigenvalue-minimisations  :  5944
 total energy-change (2. order) :-0.9665091E+00  (-0.6953784E-01)
 number of electron     594.0000355 magnetization       2.5354128
 augmentation part      378.9769684 magnetization       1.3760368

 Broyden mixing:
  rms(total) = 0.12316E+00    rms(broyden)= 0.12314E+00
  rms(prec ) = 0.13921E+00
  weight for this iteration     100.00

 eigenvalues of (default mixing * dielectric matrix)
  average eigenvalue GAMMA=   1.8013
 11.2386  3.2865  1.7212  1.0242  1.0242  0.7313  0.6105  0.6105  0.4115  0.3876
  0.2445  0.3250

 Free energy of the ion-electron system (eV)
  ---------------------------------------------------
  alpha Z        PSCENC =      1629.90573480
  Ewald energy   TEWEN  =    288368.47495906
  -Hartree energ DENC   =   -361221.32743442
  -exchange      EXHF   =         0.00000000
  -V(xc)+E(xc)   XCENC  =      2411.84184404
  PAW double counting   =     70472.25403905   -76280.75110505
  entropy T*S    EENTRO =         0.03249964
  eigenvalues    EBANDS =      -679.82437112
  atomic energy  EATOM  =     75111.71257079
  Solvation  Ediel_sol  =         0.00000000
  ---------------------------------------------------
  free energy    TOTEN  =      -187.68126321 eV

  energy without entropy =     -187.71376285  energy(sigma->0) =     -187.69209642


--------------------------------------------------------------------------------------------------------




--------------------------------------- Iteration      1(  18)  ---------------------------------------


    POTLOK:  cpu time      0.1014: real time      0.1031
    SETDIJ:  cpu time      0.0228: real time      0.0229
     EDDAV:  cpu time     27.7010: real time     27.8777
       DOS:  cpu time      0.0031: real time      0.0031
    CHARGE:  cpu time      1.1110: real time      1.1183
    MIXING:  cpu time      0.0113: real time      0.0114
    --------------------------------------------
      LOOP:  cpu time     28.9506: real time     29.1365

 eigenvalue-minimisations  :  6672
 total energy-change (2. order) :-0.7676674E+00  (-0.8349555E-01)
 number of electron     594.0000356 magnetization       2.1332612
 augmentation part      379.2562514 magnetization       1.5106278

 Broyden mixing:
  rms(total) = 0.10772E+00    rms(broyden)= 0.10769E+00
  rms(prec ) = 0.11290E+00
  weight for this iteration     100.00

 eigenvalues of (default mixing * dielectric matrix)
  average eigenvalue GAMMA=   1.7486
 11.4331  2.6956  2.3643  1.0183  1.0183  0.7637  0.7637  0.7309  0.5941  0.2445
  0.4012  0.3702  0.3335

 Free energy of the ion-electron system (eV)
  ---------------------------------------------------
  alpha Z        PSCENC =      1629.90573480
  Ewald energy   TEWEN  =    288368.47495906
  -Hartree energ DENC   =   -361113.24847465
  -exchange      EXHF   =         0.00000000
  -V(xc)+E(xc)   XCENC  =      2411.09459080
  PAW double counting   =     70373.51759808   -76178.07541263
  entropy T*S    EENTRO =         0.00949893
  eigenvalues    EBANDS =      -791.83999578
  atomic energy  EATOM  =     75111.71257079
  Solvation  Ediel_sol  =         0.00000000
  ---------------------------------------------------
  free energy    TOTEN  =      -188.44893061 eV

  energy without entropy =     -188.45842954  energy(sigma->0) =     -188.45209692


--------------------------------------------------------------------------------------------------------




--------------------------------------- Iteration      1(  19)  ---------------------------------------


    POTLOK:  cpu time      0.1085: real time      0.1093
    SETDIJ:  cpu time      0.0182: real time      0.0183
     EDDAV:  cpu time     23.9453: real time     24.2706
       DOS:  cpu time      0.0031: real time      0.0031
    CHARGE:  cpu time      1.1050: real time      1.1109
    MIXING:  cpu time      0.0221: real time      0.0222
    --------------------------------------------
      LOOP:  cpu time     25.2023: real time     25.5345

 eigenvalue-minimisations  :  5392
 total energy-change (2. order) :-0.1143491E+01  (-0.2813566E-01)
 number of electron     594.0000356 magnetization       1.6980601
 augmentation part      379.0043592 magnetization       1.1230373

 Broyden mixing:
  rms(total) = 0.84235E-01    rms(broyden)= 0.84231E-01
  rms(prec ) = 0.95617E-01
  weight for this iteration     100.00

 eigenvalues of (default mixing * dielectric matrix)
  average eigenvalue GAMMA=   1.7868
 11.5906  3.7652  2.5454  1.0998  1.0998  0.8253  0.8253  0.7059  0.6071  0.6071
  0.2446  0.4017  0.3637  0.3330

 Free energy of the ion-electron system (eV)
  ---------------------------------------------------
  alpha Z        PSCENC =      1629.90573480
  Ewald energy   TEWEN  =    288368.47495906
  -Hartree energ DENC   =   -361113.48563869
  -exchange      EXHF   =         0.00000000
  -V(xc)+E(xc)   XCENC  =      2410.31627071
  PAW double counting   =     70476.99728805   -76289.88900343
  entropy T*S    EENTRO =         0.00612294
  eigenvalues    EBANDS =      -783.63072591
  atomic energy  EATOM  =     75111.71257079
  Solvation  Ediel_sol  =         0.00000000
  ---------------------------------------------------
  free energy    TOTEN  =      -189.59242169 eV

  energy without entropy =     -189.59854463  energy(sigma->0) =     -189.59446267


--------------------------------------------------------------------------------------------------------




--------------------------------------- Iteration      1(  20)  ---------------------------------------


    POTLOK:  cpu time      0.1054: real time      0.1094
    SETDIJ:  cpu time      0.0182: real time      0.0183
     EDDAV:  cpu time     27.2710: real time     27.5547
       DOS:  cpu time      0.0031: real time      0.0031
    CHARGE:  cpu time      1.1190: real time      1.1235
    MIXING:  cpu time      0.0191: real time      0.0192
    --------------------------------------------
      LOOP:  cpu time     28.5357: real time     28.8281

 eigenvalue-minimisations  :  6376
 total energy-change (2. order) :-0.7202837E+00  (-0.1329039E-01)
 number of electron     594.0000356 magnetization       1.1787619
 augmentation part      379.0408556 magnetization       0.8291275

 Broyden mixing:
  rms(total) = 0.57531E-01    rms(broyden)= 0.57524E-01
  rms(prec ) = 0.60066E-01
  weight for this iteration     100.00

 eigenvalues of (default mixing * dielectric matrix)
  average eigenvalue GAMMA=   1.7984
 11.6810  4.1517  2.9231  1.4629  0.8978  0.8978  0.8897  0.7617  0.7617  0.6034
  0.6034  0.2446  0.4009  0.3631  0.3338

 Free energy of the ion-electron system (eV)
  ---------------------------------------------------
  alpha Z        PSCENC =      1629.90573480
  Ewald energy   TEWEN  =    288368.47495906
  -Hartree energ DENC   =   -361052.25074563
  -exchange      EXHF   =         0.00000000
  -V(xc)+E(xc)   XCENC  =      2409.62561380
  PAW double counting   =     70450.09498445   -76262.92243173
  entropy T*S    EENTRO =        -0.00123762
  eigenvalues    EBANDS =      -844.95215326
  atomic energy  EATOM  =     75111.71257079
  Solvation  Ediel_sol  =         0.00000000
  ---------------------------------------------------
  free energy    TOTEN  =      -190.31270534 eV

  energy without entropy =     -190.31146772  energy(sigma->0) =     -190.31229280


--------------------------------------------------------------------------------------------------------




--------------------------------------- Iteration      1(  21)  ---------------------------------------


    POTLOK:  cpu time      0.1002: real time      0.1022
    SETDIJ:  cpu time      0.0181: real time      0.0182
     EDDAV:  cpu time     25.7663: real time     26.1760
       DOS:  cpu time      0.0031: real time      0.0031
    CHARGE:  cpu time      1.1106: real time      1.1153
    MIXING:  cpu time      0.0172: real time      0.0172
    --------------------------------------------
      LOOP:  cpu time     27.0155: real time     27.4320

 eigenvalue-minimisations  :  5744
 total energy-change (2. order) :-0.1256740E+01  (-0.8419165E-02)
 number of electron     594.0000357 magnetization       0.9740311
 augmentation part      378.9918565 magnetization       0.6932709

 Broyden mixing:
  rms(total) = 0.61208E-01    rms(broyden)= 0.61207E-01
  rms(prec ) = 0.65820E-01
  weight for this iteration     100.00

 eigenvalues of (default mixing * dielectric matrix)
  average eigenvalue GAMMA=   1.7909
 11.7015  4.7582  3.0291  1.7167  0.9346  0.9346  0.9028  0.9028  0.7126  0.6320
[...]
  0.000  -0.000  -0.000  -0.000  -0.000   0.000   0.000  -0.000   0.000  -0.000  -0.000  -0.000  -0.000   0.000  -0.000   0.000
  0.000  -0.000   0.000   0.000  -0.000   0.000  -0.000   0.000   0.000  -0.000   0.000  -0.000  -0.000  -0.000   0.000   0.000
 -0.000  -0.000   0.000  -0.000  -0.000  -0.000   0.000   0.000   0.000  -0.000   0.000   0.000  -0.000  -0.000  -0.000   0.000
 -0.000  -0.000  -0.000  -0.000  -0.000  -0.000  -0.000  -0.000  -0.000  -0.000   0.000  -0.000  -0.000  -0.000  -0.000   0.000
 -0.000  -0.000   0.000   0.000   0.000  -0.000   0.000   0.000   0.000   0.000  -0.000   0.000   0.000  -0.000   0.000  -0.000
 -0.000   0.000   0.000   0.000   0.000   0.000   0.000  -0.000   0.000  -0.000   0.000  -0.000  -0.000   0.000   0.000  -0.000
  0.000  -0.000  -0.000  -0.000  -0.000   0.000  -0.000  -0.000  -0.000  -0.000   0.000  -0.000  -0.000  -0.000  -0.000   0.000
  0.000   0.000  -0.000  -0.000  -0.000   0.000  -0.000  -0.000   0.000  -0.000  -0.000   0.000   0.000  -0.000   0.000  -0.000
 -0.000  -0.000   0.000  -0.000  -0.000  -0.000  -0.000   0.000  -0.000  -0.000  -0.000   0.000  -0.000   0.000  -0.000   0.000
 -0.000   0.000   0.000   0.000   0.000  -0.000   0.000   0.000   0.000   0.000   0.000  -0.000   0.000  -0.000   0.000  -0.000
 -0.000   0.000   0.000   0.000   0.000   0.000   0.000  -0.000   0.000  -0.000   0.000  -0.000   0.000   0.000  -0.000  -0.000
  0.000   0.000  -0.000   0.000   0.000   0.000   0.000  -0.000   0.000   0.000  -0.000  -0.000   0.000   0.000   0.000  -0.000


------------------------ aborting loop because EDIFF is reached ----------------------------------------



 DIPCOR: dipole corrections for dipol
 direction  3 min pos   182,
 dipolmoment           0.000000      0.000000     -0.018467 electrons x Angstroem
 Tr[quadrupol]     -5788.941515

 energy correction for charged system         0.000000 eV
 dipol+quadrupol energy correction            0.000024 eV
 added-field ion interaction          0.000000 eV  (added to PSCEN)

 
  *************** adding dipol energy to TOTEN NOW **************** 
    CHARGE:  cpu time      1.1144: real time      1.1199
    FORLOC:  cpu time      0.0275: real time      0.0276
    FORNL :  cpu time     22.1514: real time     22.2486
    STRESS:  cpu time     19.1409: real time     19.4238
    FORCOR:  cpu time      0.1217: real time      0.1224
    FORHAR:  cpu time      0.0319: real time      0.0320
    MIXING:  cpu time      0.0036: real time      0.0036
    OFIELD:  cpu time      0.0000: real time      0.0000

 ---------------------------------------------------------------------------------------------

         DFTD3 V3.0 Rev 1        
 Edisp (eV)  -21.59196

 E6    (eV) :    -8.8468
 E8    (eV) :   -12.7451
 % E8        : 59.03
    FORVDW:  cpu time      0.3113: real time      0.3127

  FORCE on cell =-STRESS in cart. coord.  units (eV):
  Direction    XX          YY          ZZ          XY          YZ          ZX
  --------------------------------------------------------------------------------------
  Alpha Z  1629.90573  1629.90573  1629.90573
  Ewald  339714.43256339714.43256************     0.00000     0.00000     0.00000
  Hartree360374.24150360374.24150************     0.00000     0.00000    -0.00000
  E(xc)   -3470.28940 -3470.28874 -3474.87626    -0.00057     0.00001     0.00002
  Local  ************************720282.09016     0.02683    -0.00001    -0.00002
  n-local -1165.21783 -1157.05287 -1167.36595     7.07500     0.28332    -0.49334
  augment  5108.78868  5108.80958  5124.01096    -0.01810     0.00027     0.00046
  Kinetic  4840.58826  4837.76672  4869.48435    -2.44272     1.74162    -3.01608
  Fock        0.00000     0.00000     0.00000     0.00000     0.00000     0.00000
  vdW       -26.48208   -26.48208   -20.18384    -0.00000     0.00000     0.00000
  -------------------------------------------------------------------------------------
  Total     -33.77273   -33.77273    -8.07978    -0.00000     0.00000    -0.00000
  in kB     -41.35610   -41.35610    -9.89402    -0.00000     0.00000    -0.00000
  external pressure =      -30.87 kB  Pullay stress =        0.00 kB


 VOLUME and BASIS-vectors are now :
 -----------------------------------------------------------------------------
  energy-cutoff  :      400.00
  volume of cell :     1308.39
      direct lattice vectors                 reciprocal lattice vectors
     7.700393200  0.000000000  0.000000000     0.129863498 -0.074976726  0.000000000
     3.850196600  6.668736130  0.000000000     0.000000000  0.149953452  0.000000000
     0.000000000  0.000000000 25.478908539     0.000000000  0.000000000  0.039248149

  length of vectors
     7.700393200  7.700393200 25.478908539     0.149953452  0.149953452  0.039248149


 FORCES acting on ions
    electron-ion (+dipol)            ewald-force                    non-local-force                 convergence-correction
 -----------------------------------------------------------------------------------------------
   -.119E-07 -.640E-08 0.491E+04   0.804E-07 -.216E-06 -.491E+04   -.781E-17 0.564E-17 -.208E+01   -.594E-08 -.342E-08 -.821E-02
   0.171E-04 0.391E-04 0.491E+04   -.200E-06 0.441E-06 -.491E+04   -.260E-17 -.651E-17 -.208E+01   -.561E-08 -.347E-08 -.821E-02
   -.200E-04 -.361E-04 0.491E+04   0.279E-06 -.310E-06 -.491E+04   -.113E-16 0.173E-17 -.208E+01   -.590E-08 -.362E-08 -.821E-02
   0.427E-04 -.279E-05 0.491E+04   0.189E-06 -.194E-06 -.491E+04   -.217E-17 0.997E-17 -.208E+01   -.580E-08 -.314E-08 -.821E-02
   0.164E-05 0.267E-05 0.491E+04   0.338E-07 0.441E-06 -.491E+04   -.390E-17 0.134E-16 -.208E+01   -.606E-08 -.353E-08 -.821E-02
   0.216E-04 -.366E-04 0.491E+04   -.239E-06 -.235E-06 -.491E+04   -.564E-17 0.130E-16 -.208E+01   -.614E-08 -.357E-08 -.821E-02
   -.430E-04 -.643E-06 0.491E+04   -.248E-06 -.117E-06 -.491E+04   0.824E-17 -.434E-18 -.208E+01   -.607E-08 -.328E-08 -.821E-02
   -.188E-04 0.397E-04 0.491E+04   0.189E-06 0.444E-06 -.491E+04   0.477E-17 0.304E-17 -.208E+01   -.619E-08 -.357E-08 -.821E-02
   -.171E-05 -.135E-05 0.491E+04   -.167E-07 -.286E-06 -.491E+04   0.113E-16 0.000E+00 -.208E+01   -.585E-08 -.337E-08 -.821E-02
   0.304E-04 0.188E-04 0.298E+04   -.916E-07 -.262E-06 -.298E+04   0.678E-18 0.163E-18 -.482E+00   0.212E-07 0.122E-07 -.793E-01
   0.366E-05 -.252E-06 0.298E+04   -.155E-06 0.548E-06 -.298E+04   0.922E-18 0.217E-18 -.482E+00   0.215E-07 0.132E-07 -.793E-01
   0.132E-05 -.377E-04 0.298E+04   0.253E-06 -.298E-06 -.298E+04   -.108E-18 0.271E-18 -.482E+00   0.220E-07 0.139E-07 -.793E-01
   0.833E-06 0.715E-05 0.298E+04   0.821E-07 -.109E-06 -.298E+04   -.623E-18 -.108E-18 -.482E+00   0.220E-07 0.120E-07 -.793E-01
   -.519E-05 0.108E-07 0.298E+04   -.432E-07 0.603E-06 -.298E+04   0.000E+00 0.379E-18 -.482E+00   0.228E-07 0.132E-07 -.793E-01
   0.238E-04 -.175E-04 0.298E+04   -.404E-06 -.322E-06 -.298E+04   0.163E-18 0.271E-19 -.482E+00   0.225E-07 0.127E-07 -.793E-01
   -.348E-04 0.206E-04 0.298E+04   -.902E-08 -.790E-07 -.298E+04   -.163E-17 0.651E-18 -.482E+00   0.233E-07 0.123E-07 -.793E-01
   -.222E-05 0.339E-04 0.298E+04   0.132E-06 0.410E-06 -.298E+04   -.813E-18 0.271E-18 -.482E+00   0.221E-07 0.131E-07 -.793E-01
   -.292E-04 -.159E-04 0.298E+04   -.404E-07 -.494E-06 -.298E+04   -.130E-17 0.271E-18 -.482E+00   0.217E-07 0.123E-07 -.793E-01
   0.346E-04 0.204E-04 0.999E+03   -.720E-07 -.212E-07 -.998E+03   0.542E-19 0.000E+00 -.228E+00   0.949E-06 0.548E-06 0.252E-01
   0.177E-05 -.357E-04 0.999E+03   -.140E-06 0.881E-06 -.998E+03   0.949E-19 0.271E-19 -.228E+00   0.949E-06 0.548E-06 0.252E-01
   0.434E-04 -.245E-04 0.999E+03   -.436E-06 -.471E-06 -.998E+03   0.678E-19 -.190E-18 -.228E+00   0.953E-06 0.546E-06 0.252E-01
   -.301E-04 0.219E-04 0.999E+03   0.241E-06 0.374E-06 -.998E+03   -.122E-18 0.000E+00 -.228E+00   0.949E-06 0.548E-06 0.252E-01
   0.761E-05 0.651E-05 0.999E+03   -.123E-06 0.436E-06 -.998E+03   0.637E-18 0.271E-19 -.228E+00   0.948E-06 0.547E-06 0.252E-01
   -.839E-06 -.866E-05 0.999E+03   -.918E-06 -.340E-06 -.998E+03   0.203E-18 0.461E-18 -.228E+00   0.949E-06 0.549E-06 0.252E-01
   -.158E-05 0.492E-04 0.999E+03   -.209E-06 -.354E-06 -.998E+03   -.163E-18 0.542E-19 -.228E+00   0.949E-06 0.552E-06 0.252E-01
   -.615E-05 0.680E-05 0.999E+03   0.222E-06 -.280E-07 -.998E+03   0.379E-18 0.108E-18 -.228E+00   0.950E-06 0.547E-06 0.252E-01
   -.282E-04 -.228E-04 0.999E+03   0.178E-05 -.384E-06 -.998E+03   0.217E-18 -.217E-18 -.228E+00   0.945E-06 0.546E-06 0.252E-01
   0.593E-08 0.342E-08 -.987E+03   0.657E-07 -.435E-06 0.987E+03   0.108E-18 -.271E-19 0.250E+00   -.779E-06 -.449E-06 -.236E+00
   0.162E-04 0.321E-04 -.987E+03   -.210E-06 0.405E-06 0.987E+03   0.699E-19 -.847E-21 0.250E+00   -.778E-06 -.454E-06 -.236E+00
   -.149E-04 -.319E-04 -.987E+03   0.546E-06 -.295E-06 0.987E+03   0.949E-19 0.313E-19 0.250E+00   -.775E-06 -.447E-06 -.236E+00
   0.363E-04 -.774E-07 -.987E+03   0.309E-07 -.327E-06 0.987E+03   0.169E-19 0.186E-19 0.250E+00   -.782E-06 -.446E-06 -.236E+00
   0.170E-05 0.269E-05 -.987E+03   -.135E-07 0.559E-06 0.987E+03   0.737E-19 -.339E-19 0.250E+00   -.779E-06 -.450E-06 -.236E+00
   0.164E-04 -.329E-04 -.987E+03   -.329E-06 -.819E-07 0.987E+03   0.271E-19 0.136E-19 0.250E+00   -.783E-06 -.448E-06 -.236E+00
   -.367E-04 0.170E-05 -.987E+03   -.219E-06 -.437E-07 0.987E+03   0.949E-19 0.000E+00 0.250E+00   -.775E-06 -.447E-06 -.236E+00
   -.181E-04 0.333E-04 -.987E+03   0.228E-06 0.436E-06 0.987E+03   0.610E-19 -.229E-19 0.250E+00   -.779E-06 -.454E-06 -.236E+00
   -.204E-05 -.154E-05 -.987E+03   -.165E-06 -.310E-06 0.987E+03   0.678E-19 -.136E-19 0.250E+00   -.778E-06 -.449E-06 -.236E+00
   0.266E-04 0.166E-04 -.297E+04   -.108E-06 -.290E-06 0.297E+04   -.651E-18 -.542E-18 0.514E+00   -.213E-05 -.123E-05 -.432E+00
   0.364E-05 -.529E-06 -.297E+04   -.149E-06 0.557E-06 0.297E+04   -.114E-17 -.325E-18 0.514E+00   -.214E-05 -.122E-05 -.432E+00
   0.138E-05 -.335E-04 -.297E+04   0.267E-06 -.282E-06 0.297E+04   -.596E-18 -.130E-17 0.514E+00   -.213E-05 -.122E-05 -.432E+00
   0.586E-06 0.727E-05 -.297E+04   0.668E-07 -.114E-06 0.297E+04   0.922E-18 0.000E+00 0.514E+00   -.213E-05 -.124E-05 -.432E+00
   -.541E-05 -.122E-06 -.297E+04   -.462E-07 0.626E-06 0.297E+04   -.293E-17 -.542E-18 0.514E+00   -.212E-05 -.123E-05 -.432E+00
   0.192E-04 -.152E-04 -.297E+04   -.436E-06 -.312E-06 0.297E+04   -.195E-17 0.108E-18 0.514E+00   -.213E-05 -.123E-05 -.432E+00
   -.311E-04 0.185E-04 -.297E+04   0.204E-07 -.918E-07 0.297E+04   -.325E-17 0.976E-18 0.514E+00   -.212E-05 -.123E-05 -.432E+00
   -.250E-05 0.288E-04 -.297E+04   0.127E-06 0.400E-06 0.297E+04   -.119E-17 0.108E-18 0.514E+00   -.213E-05 -.123E-05 -.432E+00
   -.254E-04 -.137E-04 -.297E+04   -.267E-07 -.494E-06 0.297E+04   0.651E-18 0.867E-18 0.514E+00   -.213E-05 -.123E-05 -.432E+00
   0.334E-04 0.197E-04 -.494E+04   -.112E-06 -.886E-07 0.494E+04   -.173E-17 0.173E-17 0.241E+01   -.158E-05 -.912E-06 -.378E+00
   0.154E-05 -.345E-04 -.494E+04   -.145E-06 0.853E-06 0.494E+04   0.867E-18 -.173E-17 0.241E+01   -.158E-05 -.910E-06 -.378E+00
   0.402E-04 -.225E-04 -.494E+04   -.427E-06 -.389E-06 0.494E+04   0.160E-16 0.173E-17 0.241E+01   -.158E-05 -.909E-06 -.378E+00
   -.291E-04 0.211E-04 -.494E+04   0.261E-06 0.302E-06 0.494E+04   -.113E-16 0.173E-17 0.241E+01   -.158E-05 -.911E-06 -.378E+00
   0.570E-05 0.543E-05 -.494E+04   -.152E-06 0.452E-06 0.494E+04   -.867E-18 0.173E-17 0.241E+01   -.158E-05 -.911E-06 -.378E+00
   -.101E-05 -.683E-05 -.494E+04   -.911E-06 -.317E-06 0.494E+04   0.000E+00 -.867E-17 0.241E+01   -.158E-05 -.912E-06 -.378E+00
   -.143E-05 0.453E-04 -.494E+04   -.212E-06 -.471E-06 0.494E+04   0.781E-17 0.347E-17 0.241E+01   -.158E-05 -.917E-06 -.378E+00
   -.462E-05 0.577E-05 -.494E+04   0.233E-06 -.295E-08 0.494E+04   -.130E-17 0.173E-17 0.241E+01   -.158E-05 -.911E-06 -.378E+00
   -.248E-04 -.209E-04 -.494E+04   0.167E-05 -.303E-06 0.494E+04   0.121E-16 0.347E-17 0.241E+01   -.157E-05 -.909E-06 -.378E+00
 -----------------------------------------------------------------------------------------------
   0.144E-04 0.503E-04 0.670E+01   0.728E-13 0.204E-12 -.218E-10   0.171E-17 0.468E-16 0.345E+01   -.317E-04 -.183E-04 -.997E+01
 
 
 POSITION                                       TOTAL-FORCE (eV/Angst)
 -----------------------------------------------------------------------------------
      0.00000      0.00000      0.00000         0.000000     -0.000000      0.206891
      1.28340      2.22291      0.00000         0.000000     -0.000000      0.206891
     10.26719      4.44582      0.00000         0.000000     -0.000000      0.206891
      2.56680      0.00000      0.00000         0.000000     -0.000000      0.206891
      3.85020      2.22291      0.00000         0.000000     -0.000000      0.206891
      5.13360      4.44582      0.00000         0.000000     -0.000000      0.206891
      5.13360      0.00000      0.00000         0.000000     -0.000000      0.206891
      6.41699      2.22291      0.00000         0.000000     -0.000000      0.206891
      7.70039      4.44582      0.00000         0.000000     -0.000000      0.206891
      1.28340      0.74097      2.09578         0.000000      0.000000     -0.192566
      2.56680      2.96388      2.09578         0.000000      0.000000     -0.192566
      3.85020      5.18679      2.09578        -0.000000      0.000000     -0.192566
      3.85020      0.74097      2.09578         0.000000      0.000000     -0.192566
      5.13360      2.96388      2.09578        -0.000000      0.000000     -0.192566
      6.41699      5.18679      2.09578        -0.000000      0.000000     -0.192566
      6.41699      0.74097      2.09578         0.000000      0.000000     -0.192566
      7.70039      2.96388      2.09578         0.000000      0.000000     -0.192566
      8.98379      5.18679      2.09578         0.000000      0.000000     -0.192566
      2.56680      1.48194      4.14617         0.000000      0.000000      0.001327
      3.85020      3.70485      4.14617        -0.000000      0.000000      0.001327
      5.13360      5.92777      4.14617        -0.000000      0.000000      0.001327
      5.13360      1.48194      4.14617         0.000000     -0.000000      0.001327
      6.41699      3.70485      4.14617        -0.000000     -0.000000      0.001327
      7.70039      5.92777      4.14617        -0.000000      0.000000      0.001327
      7.70039      1.48194      4.14617        -0.000000      0.000000      0.001327
      8.98379      3.70485      4.14617        -0.000000      0.000000      0.001327
     10.26719      5.92777      4.14617         0.000000      0.000000      0.001327
      0.00000     -0.00000      6.19508         0.000000     -0.000000     -0.004539
      1.28340      2.22291      6.19508        -0.000000     -0.000000     -0.004539
     10.26719      4.44582      6.19508        -0.000000     -0.000000     -0.004539
      2.56680     -0.00000      6.19508        -0.000000     -0.000000     -0.004539
      3.85020      2.22291      6.19508        -0.000000     -0.000000     -0.004539
      5.13360      4.44582      6.19508        -0.000000     -0.000000     -0.004539
      5.13360      0.00000      6.19508         0.000000     -0.000000     -0.004539
      6.41699      2.22291      6.19508        -0.000000     -0.000000     -0.004539
      7.70039      4.44582      6.19508        -0.000000      0.000000     -0.004539
      1.28340      0.74097      8.25098        -0.000000      0.000000      0.004148
      2.56680      2.96388      8.25098        -0.000000      0.000000      0.004148
      3.85020      5.18679      8.25098        -0.000000      0.000000      0.004148
      3.85020      0.74097      8.25098        -0.000000      0.000000      0.004148
      5.13360      2.96388      8.25098        -0.000000      0.000000      0.004148
      6.41699      5.18679      8.25098        -0.000000     -0.000000      0.004148
      6.41699      0.74097      8.25098        -0.000000      0.000000      0.004148
      7.70039      2.96388      8.25098        -0.000000     -0.000000      0.004148
      8.98379      5.18679      8.25098        -0.000000     -0.000000      0.004148
      2.56680      1.48194     10.29902        -0.000000      0.000000     -0.015261
      3.85020      3.70485     10.29902         0.000000      0.000000     -0.015261
      5.13360      5.92777     10.29902         0.000000     -0.000000     -0.015261
      5.13360      1.48194     10.29902         0.000000      0.000000     -0.015261
      6.41699      3.70485     10.29902         0.000000     -0.000000     -0.015261
      7.70039      5.92777     10.29902         0.000000      0.000000     -0.015261
      7.70039      1.48194     10.29902         0.000000      0.000000     -0.015261
      8.98379      3.70485     10.29902         0.000000      0.000000     -0.015261
     10.26719      5.92777     10.29902         0.000000      0.000000     -0.015261
 -----------------------------------------------------------------------------------
    total drift:                               -0.000017      0.000032      0.178901


--------------------------------------------------------------------------------------------------------



  FREE ENERGIE OF THE ION-ELECTRON SYSTEM (eV)
  ---------------------------------------------------
  free  energy   TOTEN  =      -215.22279592 eV

  energy  without entropy=     -215.20709905  energy(sigma->0) =     -215.21756363
 
 d Force = 0.1374684E-02[ 0.636E-03, 0.211E-02]  d Energy = 0.1776834E-02-0.402E-03
 d Force =-0.3890942E+03[-0.389E+03,-0.389E+03]  d Ewald  =-0.3890942E+03 0.760E-05


--------------------------------------------------------------------------------------------------------


    POTLOK:  cpu time      0.1211: real time      0.1218


--------------------------------------------------------------------------------------------------------


 stress matrix after NEB project (eV)
    -33.77273     -0.00000     -0.00000
     -0.00000    -33.77273      0.00000
     -0.00000      0.00000     -8.07978
  FORCES: max atom, RMS     0.015261    0.006739
  FORCE total and by dimension    0.049519    0.015261
  Stress total and by dimension   48.440456   33.772733
 Conjugate gradient step on ions:
 trial-energy change:   -0.001777  1 .order   -0.001375   -0.002113   -0.000636
  (g-gl).g = 0.872E-03      g.g   = 0.861E-03  gl.gl    = 0.202E-02
 g(Force)  = 0.861E-03   g(Stress)= 0.000E+00 ortho     =-0.692E-04
 gamma     =   0.43243
 trial     =   2.54446
 opt step  =   3.63962  (harmonic =   3.63962) maximal distance =0.00343487
 next E    =  -215.222531   (d E  =  -0.00151)


--------------------------------------------------------------------------------------------------------


  
 reached required accuracy - stopping structural energy minimisation
     LOOP+:  cpu time    137.9491: real time    139.2835
    4ORBIT:  cpu time      0.0000: real time      0.0000

 total amount of memory used by VASP MPI-rank0    95678. kBytes
=======================================================================

   base      :      30000. kBytes
   nonl-proj :       6220. kBytes
   fftplans  :       3959. kBytes
   grid      :       9077. kBytes
   one-center:        342. kBytes
   wavefun   :      46080. kBytes
 
  
  
 General timing and accounting informations for this job:
 ========================================================
  
                  Total CPU time used (sec):     4402.625
                            User time (sec):     4323.657
                          System time (sec):       78.968
                         Elapsed time (sec):     4446.273
  
                   Maximum memory used (kb):      386040.
                   Average memory used (kb):          N/A
  
                          Minor page faults:      2711254
                          Major page faults:         6838
                 Voluntary context switches:        47859
