  12  12   0   0
  0.2643616E+02  0.3630000E-09  0.3630000E-09  0.2407500E-08  0.5000000E-15
  1.000000000000000E-004
  CAR 
 unknown system                          
     12.39415491    -10.25993417  301      1.25190318      1.00000000
    -10.260  0.0000E+00  0.0000E+00  0.0000E+00  0.0000E+00
    -10.184  0.0000E+00  0.0000E+00  0.0000E+00  0.0000E+00
    -10.109  0.0000E+00  0.0000E+00  0.0000E+00  0.0000E+00
    -10.033  0.0000E+00  0.0000E+00  0.0000E+00  0.0000E+00
     -9.958  0.0000E+00  0.0000E+00  0.0000E+00  0.0000E+00
     -9.882 -0.1108E-30 -0.1108E-30 -0.8366E-32 -0.8366E-32
     -9.807 -0.4180E-28 -0.4180E-28 -0.3165E-29 -0.3165E-29
     -9.731 -0.1185E-25 -0.1185E-25 -0.8979E-27 -0.8979E-27
     -9.656 -0.2518E-23 -0.2518E-23 -0.1911E-24 -0.1911E-24
     -9.580 -0.4011E-21 -0.4011E-21 -0.3048E-22 -0.3048E-22
     -9.505 -0.4786E-19 -0.4786E-19 -0.3645E-20 -0.3645E-20
     -9.429 -0.4173E-17 -0.4173E-17 -0.3188E-18 -0.3188E-18
     -9.354 -0.2763E-15 -0.2763E-15 -0.2118E-16 -0.2118E-16
     -9.278 -0.1372E-13 -0.1372E-13 -0.1057E-14 -0.1057E-14
     -9.203 -0.5082E-12 -0.5082E-12 -0.3944E-13 -0.3944E-13
     -9.127 -0.1400E-10 -0.1400E-10 -0.1097E-11 -0.1097E-11
     -9.052 -0.2862E-09 -0.2862E-09 -0.2271E-10 -0.2271E-10
     -8.976 -0.4322E-08 -0.4322E-08 -0.3490E-09 -0.3490E-09
     -8.901 -0.4792E-07 -0.4792E-07 -0.3968E-08 -0.3968E-08
     -8.825 -0.3866E-06 -0.3866E-06 -0.3316E-07 -0.3316E-07
     -8.750 -0.2232E-05 -0.2232E-05 -0.2017E-06 -0.2017E-06
     -8.674 -0.8938E-05 -0.8938E-05 -0.8766E-06 -0.8766E-06
     -8.599 -0.2303E-04 -0.2303E-04 -0.2615E-05 -0.2615E-05
     -8.523 -0.2850E-04 -0.2850E-04 -0.4768E-05 -0.4768E-05
     -8.448  0.3097E-04  0.3097E-04 -0.2429E-05 -0.2429E-05
     -8.372  0.2131E-03  0.2131E-03  0.1366E-04  0.1366E-04
     -8.297  0.4588E-03  0.4588E-03  0.4830E-04  0.4830E-04
     -8.221  0.5762E-03  0.5762E-03  0.9182E-04  0.9182E-04
     -8.146  0.4523E-03  0.4523E-03  0.1260E-03  0.1260E-03
     -8.070  0.2061E-03  0.2061E-03  0.1415E-03  0.1415E-03
     -7.995  0.2757E-04  0.2757E-04  0.1436E-03  0.1436E-03
     -7.919 -0.2909E-04 -0.2909E-04  0.1414E-03  0.1414E-03
     -7.843 -0.2380E-04 -0.2380E-04  0.1396E-03  0.1396E-03
     -7.768 -0.1428E-04 -0.1428E-04  0.1385E-03  0.1385E-03
     -7.692 -0.1948E-04 -0.1948E-04  0.1371E-03  0.1371E-03
     -7.617 -0.3072E-04 -0.3072E-04  0.1348E-03  0.1348E-03
     -7.541 -0.4572E-05 -0.4572E-05  0.1344E-03  0.1344E-03
     -7.466  0.1237E-03  0.1237E-03  0.1438E-03  0.1438E-03
     -7.390  0.3374E-03  0.3374E-03  0.1692E-03  0.1692E-03
     -7.315  0.4685E-03  0.4685E-03  0.2046E-03  0.2046E-03
     -7.239  0.4079E-03  0.4079E-03  0.2354E-03  0.2354E-03
     -7.164  0.4173E-03  0.4173E-03  0.2669E-03  0.2669E-03
     -7.088  0.9243E-03  0.9243E-03  0.3367E-03  0.3367E-03
     -7.013  0.1810E-02  0.1810E-02  0.4734E-03  0.4734E-03
     -6.937  0.2277E-02  0.2277E-02  0.6454E-03  0.6454E-03
     -6.862  0.1802E-02  0.1802E-02  0.7814E-03  0.7814E-03
     -6.786  0.8261E-03  0.8261E-03  0.8438E-03  0.8438E-03
     -6.711  0.1118E-03  0.1118E-03  0.8523E-03  0.8523E-03
     -6.635 -0.1190E-03 -0.1190E-03  0.8433E-03  0.8433E-03
     -6.560 -0.1083E-03 -0.1083E-03  0.8351E-03  0.8351E-03
     -6.484 -0.9439E-04 -0.9439E-04  0.8280E-03  0.8280E-03
     -6.409 -0.1315E-03 -0.1315E-03  0.8180E-03  0.8180E-03
     -6.333 -0.8465E-04 -0.8465E-04  0.8116E-03  0.8116E-03
     -6.258  0.3265E-03  0.3265E-03  0.8363E-03  0.8363E-03
     -6.182  0.1217E-02  0.1217E-02  0.9282E-03  0.9282E-03
     -6.107  0.2179E-02  0.2179E-02  0.1093E-02  0.1093E-02
     -6.031  0.2646E-02  0.2646E-02  0.1293E-02  0.1293E-02
     -5.956  0.2672E-02  0.2672E-02  0.1494E-02  0.1494E-02
     -5.880  0.2674E-02  0.2674E-02  0.1696E-02  0.1696E-02
     -5.805  0.2540E-02  0.2540E-02  0.1888E-02  0.1888E-02
     -5.729  0.1870E-02  0.1870E-02  0.2029E-02  0.2029E-02
     -5.654  0.8592E-03  0.8592E-03  0.2094E-02  0.2094E-02
     -5.578  0.9805E-04  0.9805E-04  0.2102E-02  0.2102E-02
     -5.503 -0.2052E-03 -0.2052E-03  0.2086E-02  0.2086E-02
     -5.427 -0.2254E-03 -0.2254E-03  0.2069E-02  0.2069E-02
     -5.352 -0.2378E-05 -0.2381E-05  0.2069E-02  0.2069E-02
     -5.276  0.6357E-03  0.6357E-03  0.2117E-02  0.2117E-02
     -5.201  0.1571E-02  0.1571E-02  0.2236E-02  0.2236E-02
     -5.125  0.2210E-02  0.2210E-02  0.2402E-02  0.2402E-02
     -5.049  0.2242E-02  0.2242E-02  0.2572E-02  0.2572E-02
     -4.974  0.2138E-02  0.2138E-02  0.2733E-02  0.2733E-02
     -4.898  0.2240E-02  0.2240E-02  0.2902E-02  0.2902E-02
     -4.823  0.2097E-02  0.2097E-02  0.3061E-02  0.3061E-02
     -4.747  0.1373E-02  0.1373E-02  0.3164E-02  0.3164E-02
     -4.672  0.5488E-03  0.5488E-03  0.3206E-02  0.3206E-02
     -4.596  0.2627E-03  0.2627E-03  0.3226E-02  0.3226E-02
     -4.521  0.7484E-03  0.7484E-03  0.3282E-02  0.3282E-02
     -4.445  0.1994E-02  0.1994E-02  0.3433E-02  0.3433E-02
     -4.370  0.3545E-02  0.3545E-02  0.3700E-02  0.3700E-02
     -4.294  0.4290E-02  0.4290E-02  0.4024E-02  0.4024E-02
     -4.219  0.3419E-02  0.3419E-02  0.4283E-02  0.4283E-02
     -4.143  0.1521E-02  0.1521E-02  0.4397E-02  0.4397E-02
     -4.068  0.9471E-04  0.9471E-04  0.4405E-02  0.4405E-02
     -3.992  0.3869E-03  0.3869E-03  0.4434E-02  0.4434E-02
     -3.917  0.3058E-02  0.3058E-02  0.4665E-02  0.4665E-02
     -3.841  0.7922E-02  0.7922E-02  0.5263E-02  0.5263E-02
     -3.766  0.1302E-01  0.1302E-01  0.6246E-02  0.6246E-02
     -3.690  0.1502E-01  0.1502E-01  0.7380E-02  0.7380E-02
     -3.615  0.1248E-01  0.1248E-01  0.8322E-02  0.8322E-02
     -3.539  0.8113E-02  0.8113E-02  0.8935E-02  0.8935E-02
     -3.464  0.5947E-02  0.5947E-02  0.9384E-02  0.9384E-02
     -3.388  0.7359E-02  0.7359E-02  0.9940E-02  0.9940E-02
     -3.313  0.1126E-01  0.1126E-01  0.1079E-01  0.1079E-01
     -3.237  0.1628E-01  0.1628E-01  0.1202E-01  0.1202E-01
     -3.162  0.2069E-01  0.2069E-01  0.1358E-01  0.1358E-01
     -3.086  0.2216E-01  0.2216E-01  0.1526E-01  0.1526E-01
     -3.011  0.1984E-01  0.1984E-01  0.1675E-01  0.1675E-01
     -2.935  0.1514E-01  0.1514E-01  0.1790E-01  0.1790E-01
     -2.860  0.1016E-01  0.1016E-01  0.1866E-01  0.1866E-01
     -2.784  0.7327E-02  0.7327E-02  0.1922E-01  0.1922E-01
     -2.709  0.8944E-02  0.8944E-02  0.1989E-01  0.1989E-01
     -2.633  0.1454E-01  0.1454E-01  0.2099E-01  0.2099E-01
     -2.558  0.1992E-01  0.1992E-01  0.2250E-01  0.2250E-01
     -2.482  0.2096E-01  0.2096E-01  0.2408E-01  0.2408E-01
     -2.407  0.1792E-01  0.1792E-01  0.2543E-01  0.2543E-01
     -2.331  0.1506E-01  0.1506E-01  0.2657E-01  0.2657E-01
     -2.255  0.1578E-01  0.1578E-01  0.2776E-01  0.2776E-01
     -2.180  0.1958E-01  0.1958E-01  0.2924E-01  0.2924E-01
     -2.104  0.2430E-01  0.2430E-01  0.3107E-01  0.3107E-01
     -2.029  0.2852E-01  0.2852E-01  0.3323E-01  0.3323E-01
     -1.953  0.3134E-01  0.3134E-01  0.3559E-01  0.3559E-01
     -1.878  0.3188E-01  0.3188E-01  0.3800E-01  0.3800E-01
     -1.802  0.2946E-01  0.2946E-01  0.4023E-01  0.4023E-01
     -1.727  0.2480E-01  0.2480E-01  0.4210E-01  0.4210E-01
     -1.651  0.2068E-01  0.2068E-01  0.4366E-01  0.4366E-01
     -1.576  0.1996E-01  0.1996E-01  0.4517E-01  0.4517E-01
     -1.500  0.2281E-01  0.2281E-01  0.4689E-01  0.4689E-01
     -1.425  0.2658E-01  0.2658E-01  0.4890E-01  0.4890E-01
     -1.349  0.2806E-01  0.2806E-01  0.5102E-01  0.5102E-01
     -1.274  0.2659E-01  0.2659E-01  0.5302E-01  0.5302E-01
     -1.198  0.2504E-01  0.2504E-01  0.5491E-01  0.5491E-01
     -1.123  0.2649E-01  0.2649E-01  0.5691E-01  0.5691E-01
     -1.047  0.3096E-01  0.3096E-01  0.5925E-01  0.5925E-01
     -0.972  0.3562E-01  0.3562E-01  0.6194E-01  0.6194E-01
     -0.896  0.3711E-01  0.3711E-01  0.6474E-01  0.6474E-01
     -0.821  0.3474E-01  0.3474E-01  0.6737E-01  0.6737E-01
     -0.745  0.3185E-01  0.3185E-01  0.6977E-01  0.6977E-01
     -0.670  0.3156E-01  0.3156E-01  0.7216E-01  0.7216E-01
     -0.594  0.3211E-01  0.3211E-01  0.7458E-01  0.7458E-01
     -0.519  0.2905E-01  0.2905E-01  0.7678E-01  0.7678E-01
     -0.443  0.2112E-01  0.2112E-01  0.7837E-01  0.7837E-01
     -0.368  0.1157E-01  0.1157E-01  0.7924E-01  0.7924E-01
     -0.292  0.4394E-02  0.4394E-02  0.7958E-01  0.7958E-01
     -0.217  0.8280E-03  0.8280E-03  0.7964E-01  0.7964E-01
     -0.141 -0.1727E-03 -0.1727E-03  0.7962E-01  0.7962E-01
     -0.066  0.2109E-03  0.2109E-03  0.7964E-01  0.7964E-01
      0.010  0.1218E-02  0.1218E-02  0.7973E-01  0.7973E-01
      0.085  0.2098E-02  0.2098E-02  0.7989E-01  0.7989E-01
      0.161  0.2500E-02  0.2500E-02  0.8008E-01  0.8008E-01
      0.236  0.2837E-02  0.2837E-02  0.8029E-01  0.8029E-01
      0.312  0.3433E-02  0.3433E-02  0.8055E-01  0.8055E-01
      0.387  0.3779E-02  0.3779E-02  0.8084E-01  0.8084E-01
      0.463  0.3214E-02  0.3214E-02  0.8108E-01  0.8108E-01
      0.539  0.1874E-02  0.1874E-02  0.8122E-01  0.8122E-01
      0.614  0.5215E-03  0.5215E-03  0.8126E-01  0.8126E-01
      0.690 -0.2608E-03 -0.2608E-03  0.8124E-01  0.8124E-01
      0.765 -0.2645E-03 -0.2645E-03  0.8122E-01  0.8122E-01
      0.841  0.7169E-03  0.7169E-03  0.8128E-01  0.8128E-01
      0.916  0.2585E-02  0.2585E-02  0.8147E-01  0.8147E-01
      0.992  0.4169E-02  0.4169E-02  0.8179E-01  0.8179E-01
      1.067  0.4015E-02  0.4015E-02  0.8209E-01  0.8209E-01
      1.143  0.2460E-02  0.2460E-02  0.8228E-01  0.8228E-01
      1.218  0.1758E-02  0.1758E-02  0.8241E-01  0.8241E-01
      1.294  0.3478E-02  0.3478E-02  0.8267E-01  0.8267E-01
      1.369  0.6461E-02  0.6461E-02  0.8316E-01  0.8316E-01
      1.445  0.8010E-02  0.8010E-02  0.8376E-01  0.8376E-01
      1.520  0.6852E-02  0.6852E-02  0.8428E-01  0.8428E-01
      1.596  0.4090E-02  0.4090E-02  0.8459E-01  0.8459E-01
      1.671  0.1510E-02  0.1510E-02  0.8470E-01  0.8470E-01
      1.747  0.2284E-03  0.2283E-03  0.8472E-01  0.8472E-01
      1.822  0.7015E-03  0.7015E-03  0.8477E-01  0.8477E-01
      1.898  0.2615E-02  0.2615E-02  0.8497E-01  0.8497E-01
      1.973  0.4647E-02  0.4647E-02  0.8532E-01  0.8532E-01
      2.049  0.5367E-02  0.5367E-02  0.8573E-01  0.8573E-01
      2.124  0.4529E-02  0.4529E-02  0.8607E-01  0.8607E-01
      2.200  0.2916E-02  0.2916E-02  0.8629E-01  0.8629E-01
      2.275  0.1341E-02  0.1341E-02  0.8639E-01  0.8639E-01
      2.351  0.2720E-03  0.2720E-03  0.8641E-01  0.8641E-01
      2.426 -0.1578E-03 -0.1578E-03  0.8640E-01  0.8640E-01
      2.502 -0.9270E-04 -0.9271E-04  0.8639E-01  0.8639E-01
      2.577  0.2541E-03  0.2541E-03  0.8641E-01  0.8641E-01
      2.653  0.7122E-03  0.7122E-03  0.8647E-01  0.8647E-01
      2.728  0.1091E-02  0.1091E-02  0.8655E-01  0.8655E-01
      2.804  0.1247E-02  0.1247E-02  0.8664E-01  0.8664E-01
      2.879  0.1376E-02  0.1376E-02  0.8675E-01  0.8675E-01
      2.955  0.2008E-02  0.2008E-02  0.8690E-01  0.8690E-01
      3.030  0.3224E-02  0.3224E-02  0.8714E-01  0.8714E-01
      3.106  0.4111E-02  0.4111E-02  0.8745E-01  0.8745E-01
      3.181  0.3687E-02  0.3687E-02  0.8773E-01  0.8773E-01
      3.257  0.2171E-02  0.2171E-02  0.8789E-01  0.8789E-01
      3.333  0.6754E-03  0.6754E-03  0.8795E-01  0.8795E-01
      3.408 -0.9484E-04 -0.9484E-04  0.8794E-01  0.8794E-01
      3.484 -0.2761E-03 -0.2761E-03  0.8792E-01  0.8792E-01
      3.559 -0.2209E-03 -0.2209E-03  0.8790E-01  0.8790E-01
      3.635  0.6647E-04  0.6647E-04  0.8791E-01  0.8791E-01
      3.710  0.7960E-03  0.7960E-03  0.8797E-01  0.8797E-01
      3.786  0.1785E-02  0.1785E-02  0.8810E-01  0.8810E-01
      3.861  0.2286E-02  0.2286E-02  0.8827E-01  0.8827E-01
      3.937  0.1806E-02  0.1806E-02  0.8841E-01  0.8841E-01
      4.012  0.8135E-03  0.8135E-03  0.8847E-01  0.8847E-01
      4.088  0.1859E-03  0.1859E-03  0.8849E-01  0.8849E-01
      4.163  0.2661E-03  0.2661E-03  0.8851E-01  0.8851E-01
      4.239  0.6791E-03  0.6791E-03  0.8856E-01  0.8856E-01
      4.314  0.8687E-03  0.8687E-03  0.8862E-01  0.8862E-01
      4.390  0.8501E-03  0.8501E-03  0.8869E-01  0.8869E-01
      4.465  0.1383E-02  0.1383E-02  0.8879E-01  0.8879E-01
      4.541  0.3014E-02  0.3014E-02  0.8902E-01  0.8902E-01
      4.616  0.5063E-02  0.5063E-02  0.8940E-01  0.8940E-01
      4.692  0.6178E-02  0.6178E-02  0.8987E-01  0.8987E-01
      4.767  0.5939E-02  0.5939E-02  0.9032E-01  0.9032E-01
      4.843  0.5138E-02  0.5138E-02  0.9070E-01  0.9070E-01
      4.918  0.4388E-02  0.4388E-02  0.9104E-01  0.9104E-01
      4.994  0.3666E-02  0.3666E-02  0.9131E-01  0.9131E-01
      5.069  0.3368E-02  0.3367E-02  0.9157E-01  0.9157E-01
      5.145  0.4068E-02  0.4067E-02  0.9187E-01  0.9187E-01
      5.220  0.5009E-02  0.5009E-02  0.9225E-01  0.9225E-01
      5.296  0.4689E-02  0.4689E-02  0.9261E-01  0.9261E-01
      5.371  0.2997E-02  0.2997E-02  0.9283E-01  0.9283E-01
      5.447  0.1211E-02  0.1212E-02  0.9292E-01  0.9292E-01
      5.522  0.2120E-03  0.2127E-03  0.9294E-01  0.9294E-01
      5.598 -0.1003E-03 -0.9975E-04  0.9293E-01  0.9293E-01
      5.673 -0.1244E-03 -0.1242E-03  0.9292E-01  0.9292E-01
      5.749 -0.9920E-04 -0.9922E-04  0.9292E-01  0.9292E-01
      5.824 -0.9238E-04 -0.9242E-04  0.9291E-01  0.9291E-01
      5.900 -0.4541E-04 -0.4542E-04  0.9291E-01  0.9291E-01
      5.975  0.1677E-03  0.1678E-03  0.9292E-01  0.9292E-01
      6.051  0.5723E-03  0.5725E-03  0.9296E-01  0.9296E-01
      6.127  0.1015E-02  0.1015E-02  0.9304E-01  0.9304E-01
      6.202  0.1422E-02  0.1422E-02  0.9314E-01  0.9315E-01
      6.278  0.2029E-02  0.2029E-02  0.9330E-01  0.9330E-01
      6.353  0.3202E-02  0.3198E-02  0.9354E-01  0.9354E-01
      6.429  0.5119E-02  0.5113E-02  0.9393E-01  0.9393E-01
      6.504  0.7457E-02  0.7451E-02  0.9449E-01  0.9449E-01
      6.580  0.9161E-02  0.9161E-02  0.9518E-01  0.9518E-01
      6.655  0.9022E-02  0.9026E-02  0.9586E-01  0.9586E-01
      6.731  0.7001E-02  0.7007E-02  0.9639E-01  0.9639E-01
      6.806  0.4708E-02  0.4712E-02  0.9675E-01  0.9675E-01
      6.882  0.3754E-02  0.3756E-02  0.9703E-01  0.9703E-01
      6.957  0.3845E-02  0.3845E-02  0.9732E-01  0.9732E-01
      7.033  0.3495E-02  0.3494E-02  0.9758E-01  0.9758E-01
      7.108  0.2189E-02  0.2189E-02  0.9775E-01  0.9775E-01
      7.184  0.7519E-03  0.7519E-03  0.9781E-01  0.9781E-01
      7.259 -0.4229E-04 -0.4224E-04  0.9780E-01  0.9780E-01
      7.335 -0.2322E-03 -0.2320E-03  0.9779E-01  0.9779E-01
      7.410 -0.2343E-03 -0.2340E-03  0.9777E-01  0.9777E-01
      7.486 -0.2798E-03 -0.2796E-03  0.9775E-01  0.9775E-01
      7.561 -0.2238E-03 -0.2251E-03  0.9773E-01  0.9773E-01
      7.637  0.4732E-03  0.4686E-03  0.9777E-01  0.9777E-01
      7.712  0.2448E-02  0.2440E-02  0.9795E-01  0.9795E-01
      7.788  0.5517E-02  0.5509E-02  0.9837E-01  0.9837E-01
      7.863  0.8021E-02  0.8020E-02  0.9897E-01  0.9897E-01
      7.939  0.8066E-02  0.8072E-02  0.9958E-01  0.9958E-01
      8.014  0.5802E-02  0.5811E-02  0.1000E+00  0.1000E+00
      8.090  0.3345E-02  0.3351E-02  0.1003E+00  0.1003E+00
      8.165  0.2103E-02  0.2104E-02  0.1004E+00  0.1004E+00
      8.241  0.1614E-02  0.1614E-02  0.1006E+00  0.1006E+00
      8.316  0.1292E-02  0.1291E-02  0.1007E+00  0.1007E+00
      8.392  0.1586E-02  0.1586E-02  0.1008E+00  0.1008E+00
      8.467  0.3017E-02  0.3016E-02  0.1010E+00  0.1010E+00
      8.543  0.5398E-02  0.5398E-02  0.1014E+00  0.1014E+00
      8.618  0.8068E-02  0.8068E-02  0.1020E+00  0.1020E+00
      8.694  0.9842E-02  0.9839E-02  0.1028E+00  0.1028E+00
      8.770  0.9420E-02  0.9416E-02  0.1035E+00  0.1035E+00
      8.845  0.6778E-02  0.6776E-02  0.1040E+00  0.1040E+00
      8.921  0.3422E-02  0.3424E-02  0.1042E+00  0.1042E+00
      8.996  0.1040E-02  0.1044E-02  0.1043E+00  0.1043E+00
      9.072  0.4787E-03  0.4792E-03  0.1044E+00  0.1044E+00
      9.147  0.1570E-02  0.1568E-02  0.1045E+00  0.1045E+00
      9.223  0.3305E-02  0.3304E-02  0.1047E+00  0.1047E+00
      9.298  0.4457E-02  0.4458E-02  0.1051E+00  0.1051E+00
      9.374  0.4377E-02  0.4379E-02  0.1054E+00  0.1054E+00
      9.449  0.3223E-02  0.3225E-02  0.1056E+00  0.1056E+00
      9.525  0.1722E-02  0.1722E-02  0.1058E+00  0.1058E+00
      9.600  0.8725E-03  0.8732E-03  0.1058E+00  0.1058E+00
      9.676  0.1379E-02  0.1380E-02  0.1059E+00  0.1059E+00
      9.751  0.2905E-02  0.2903E-02  0.1062E+00  0.1062E+00
      9.827  0.4160E-02  0.4149E-02  0.1065E+00  0.1065E+00
      9.902  0.4218E-02  0.4187E-02  0.1068E+00  0.1068E+00
      9.978  0.3463E-02  0.3429E-02  0.1070E+00  0.1070E+00
     10.053  0.2969E-02  0.3029E-02  0.1073E+00  0.1073E+00
     10.129  0.3575E-02  0.3888E-02  0.1075E+00  0.1076E+00
     10.204  0.5493E-02  0.6046E-02  0.1080E+00  0.1080E+00
     10.280  0.7791E-02  0.8211E-02  0.1085E+00  0.1086E+00
     10.355  0.8595E-02  0.8489E-02  0.1092E+00  0.1093E+00
     10.431  0.6857E-02  0.6331E-02  0.1097E+00  0.1098E+00
     10.506  0.3646E-02  0.3159E-02  0.1100E+00  0.1100E+00
     10.582  0.9772E-03  0.7746E-03  0.1101E+00  0.1101E+00
     10.657 -0.2070E-03 -0.2151E-03  0.1100E+00  0.1100E+00
     10.733 -0.3445E-03 -0.3095E-03  0.1100E+00  0.1100E+00
     10.808 -0.1781E-03 -0.1583E-03  0.1100E+00  0.1100E+00
     10.884 -0.5692E-04 -0.5096E-04  0.1100E+00  0.1100E+00
     10.959 -0.1257E-04 -0.1142E-04  0.1100E+00  0.1100E+00
     11.035 -0.1997E-05 -0.1843E-05  0.1100E+00  0.1100E+00
     11.110 -0.2321E-06 -0.2177E-06  0.1100E+00  0.1100E+00
     11.186 -0.1992E-07 -0.1898E-07  0.1100E+00  0.1100E+00
     11.261 -0.1270E-08 -0.1227E-08  0.1100E+00  0.1100E+00
     11.337 -0.6035E-10 -0.5896E-10  0.1100E+00  0.1100E+00
     11.412 -0.2140E-11 -0.2112E-11  0.1100E+00  0.1100E+00
     11.488 -0.5676E-13 -0.5649E-13  0.1100E+00  0.1100E+00
     11.564 -0.1126E-14 -0.1127E-14  0.1100E+00  0.1100E+00
     11.639 -0.1634E-16 -0.1797E-16  0.1100E+00  0.1100E+00
     11.715  0.0000E+00  0.0000E+00  0.1100E+00  0.1100E+00
     11.790  0.0000E+00  0.0000E+00  0.1100E+00  0.1100E+00
     11.866  0.0000E+00  0.0000E+00  0.1100E+00  0.1100E+00
     11.941  0.0000E+00  0.0000E+00  0.1100E+00  0.1100E+00
     12.017  0.0000E+00  0.0000E+00  0.1100E+00  0.1100E+00
     12.092  0.0000E+00  0.0000E+00  0.1100E+00  0.1100E+00
     12.168  0.0000E+00  0.0000E+00  0.1100E+00  0.1100E+00
     12.243  0.0000E+00  0.0000E+00  0.1100E+00  0.1100E+00
     12.319  0.0000E+00  0.0000E+00  0.1100E+00  0.1100E+00
     12.394  0.0000E+00  0.0000E+00  0.1100E+00  0.1100E+00
