 vasp.6.3.2 27Jun22 (build Aug 17 2022 15:43:34) complex                        
  
 executed on           tv2STDVTST date 2025.01.21  12:30:36
 running   20 mpi-ranks, with    1 threads/rank
 distrk:  each k-point on   20 cores,    1 groups
 distr:  one band on NCORE=   5 cores,    4 groups


--------------------------------------------------------------------------------------------------------


 -----------------------------------------------------------------------------
|                                                                             |
|           W    W    AA    RRRRR   N    N  II  N    N   GGGG   !!!           |
|           W    W   A  A   R    R  NN   N  II  NN   N  G    G  !!!           |
|           W    W  A    A  R    R  N N  N  II  N N  N  G       !!!           |
|           W WW W  AAAAAA  RRRRR   N  N N  II  N  N N  G  GGG   !            |
|           WW  WW  A    A  R   R   N   NN  II  N   NN  G    G                |
|           W    W  A    A  R    R  N    N  II  N    N   GGGG   !!!           |
|                                                                             |
|     Found issues when parsing the INCAR file                                |
|     In line 64: Tagname --- R W I G S contains invalid characters.          |
|     Please check if the interpretation in the OUTCAR file is correct.       |
|                                                                             |
 -----------------------------------------------------------------------------

 INCAR:
    = \=\=\=\=\=\=\=\=\=\=\=\=\=\=\=\=\=\=\=\=\=\=\=\=\=\=\=\=\=\=\=\=\=\=\=\=\=\=\=\=\=\=\=\=\=\=\=\=\=\=\=\=\=\=\=\=\=\=\=\=\=\=\=\=\=\=\=\=\=\=\=\=
    = \=\=\=\=\=\=\=\=\=\=\=\=\=\=\=\=\=\=\=\=\=\=\=\=\=\=\=\=\=\=\=\=\=\=\=\=\=\=\=\=\=\=\=\=\=\=\=\=\=\=\=\=\=\=\=\=\=\=\=\=\=\=\=\=\=\=\=\=\=\=\=\=
   ISTART = 0
   ICHARG = 2
   IPIPOL = 3
   IVDW = 11
   IDIPOL = 3
   IVDW = 11
    = \=\=\=\=\=\=\=\=\=\=\=\=\=\=\=\=\=\=\=\=\=\=\=\=\=\=\=\=\=\=\=\=\=\=\=\=\=\=\=\=\=\=\=\=\=\=\=\=\=\=\=\=\=\=\=\=\=\=\=\=\=\=\=\=\=\=\=\=\=\=\=\=
    = \=\=\=\=\=\=\=\=\=\=\=\=\=\=\=\=\=\=\=\=\=\=\=\=\=\=\=\=\=\=\=\=\=\=\=\=\=\=\=\=\=\=\=\=\=\=\=\=\=\=\=\=\=\=\=\=\=\=\=\=\=\=\=\=\=\=\=\=\=\=\=\=
   ISPIN = 2
    = \=\=\=\=\=\=\=\=\=\=\=\=\=\=\=\=\=\=\=\=\=\=\=\=\=\=\=\=\=\=\=\=\=\=\=\=\=\=\=\=\=\=\=\=\=\=\=\=\=\=\=\=\=\=\=\=\=\=\=\=\=\=\=\=\=\=\=\=\=\=\=\=
    = \=\=\=\=\=\=\=\=\=\=\=\=\=\=\=\=\=\=\=\=\=\=\=\=\=\=\=\=\=\=\=\=\=\=\=\=\=\=\=\=\=\=\=\=\=\=\=\=\=\=\=\=\=\=\=\=\=\=\=\=\=\=\=\=\=\=\=\=\=\=\=\=
   ENCUT = 400
   PREC = Normal
   EDIFF = 2E-04
   GGA = PE
   ISMEAR = 1
   SIGMA = 0.2
   LREAL = .FALSE.
    = \=\=\=\=\=\=\=\=\=\=\=\=\=\=\=\=\=\=\=\=\=\=\=\=\=\=\=\=\=\=\=\=\=\=\=\=\=\=\=\=\=\=\=\=\=\=\=\=\=\=\=\=\=\=\=\=\=\=\=\=\=\=\=\=\=\=\=\=\=\=\=\=
    = \=\=\=\=\=\=\=\=\=\=\=\=\=\=\=\=\=\=\=\=\=\=\=\=\=\=\=\=\=\=\=\=\=\=\=\=\=\=\=\=\=\=\=\=\=\=\=\=\=\=\=\=\=\=\=\=\=\=\=\=\=\=\=\=\=\=\=\=\=\=\=\=
   ISYM = 1
   NSW = 800
   IBRION = 2
   POTIM = 0.5
   ISIF = 2
   EDIFFG = -.03
    = \=\=\=\=\=\=\=\=\=\=\=\=\=\=\=\=\=\=\=\=\=\=\=\=\=\=\=\=\=\=\=\=\=\=\=\=\=\=\=\=\=\=\=\=\=\=\=\=\=\=\=\=\=\=\=\=\=\=\=\=\=\=\=\=\=\=\=\=\=\=\=\=
    = \=\=\=\=\=\=\=\=\=\=\=\=\=\=\=\=\=\=\=\=\=\=\=\=\=\=\=\=\=\=\=\=\=\=\=\=\=\=\=\=\=\=\=\=\=\=\=\=\=\=\=\=\=\=\=\=\=\=\=\=\=\=\=\=\=\=\=\=\=\=\=\=
   NPAR = 4
   LWAVE = .FALSE.
   LCHARG = .FALSE.

 POTCAR:    PAW_PBE Cu 22Jun2005                  
 -----------------------------------------------------------------------------
|                                                                             |
|           W    W    AA    RRRRR   N    N  II  N    N   GGGG   !!!           |
|           W    W   A  A   R    R  NN   N  II  NN   N  G    G  !!!           |
|           W    W  A    A  R    R  N N  N  II  N N  N  G       !!!           |
|           W WW W  AAAAAA  RRRRR   N  N N  II  N  N N  G  GGG   !            |
|           WW  WW  A    A  R   R   N   NN  II  N   NN  G    G                |
|           W    W  A    A  R    R  N    N  II  N    N   GGGG   !!!           |
|                                                                             |
|     You use a magnetic or noncollinear calculation, but did not specify     |
|     the initial magnetic moment with the MAGMOM tag. Note that a            |
|     default of 1 will be used for all atoms. This ferromagnetic setup       |
|     may break the symmetry of the crystal, in particular it may rule        |
|     out finding an antiferromagnetic solution. Thence, we recommend         |
|     setting the initial magnetic moment manually or verifying carefully     |
|     that this magnetic setup is desired.                                    |
|                                                                             |
 -----------------------------------------------------------------------------

 POTCAR:    PAW_PBE Cu 22Jun2005                  
   SHA256 =  0e71e558f37a4e8407882b4609ceaae59938afaad9ced71dfe8490308a0ab630 Cu/POTCAR             
   COPYR  = (c) Copyright 22Jun2005 Georg Kresse                                                    
   COPYR  = This file is part of the software VASP. Any use, copying, and all other rights are regul
   COPYR  = If you do not have a valid VASP license, you may not use, copy or distribute this file. 
   VRHFIN =Cu: d10 p1                                                                               
   LEXCH  = PE                                                                                      
   EATOM  =  1390.9808 eV,  102.2342 Ry                                                             
                                                                                                    
   TITEL  = PAW_PBE Cu 22Jun2005                                                                    
   LULTRA =        F    use ultrasoft PP ?                                                          
   IUNSCR =        1    unscreen: 0-lin 1-nonlin 2-no                                               
   RPACOR =    2.000    partial core radius                                                         
   POMASS =   63.546; ZVAL   =   11.000    mass and valenz                                          
   RCORE  =    2.300    outmost cutoff radius                                                       
   RWIGS  =    2.200; RWIGS  =    1.164    wigner-seitz radius (au A)                               
   ENMAX  =  295.446; ENMIN  =  221.585 eV                                                          
   ICORE  =        3    local potential                                                             
   LCOR   =        T    correct aug charges                                                         
   LPAW   =        T    paw PP                                                                      
   EAUG   =  586.980                                                                                
   DEXC   =    0.000                                                                                
   RMAX   =    2.344    core radius for proj-oper                                                   
   RAUG   =    1.300    factor for augmentation sphere                                              
   RDEP   =    2.302    radius for radial grids                                                     
   RDEPT  =    1.771    core radius for aug-charge                                                  
                                                                                                    
   Atomic configuration                                                                             
    9 entries                                                                                       
     n  l   j            E        occ.                                                              
     1  0  0.50     -8850.2468   2.0000                                                             
     2  0  0.50     -1062.3498   2.0000                                                             
     2  1  1.50      -916.8226   6.0000                                                             
     3  0  0.50      -114.6929   2.0000                                                             
     3  1  1.50       -72.1325   6.0000                                                             
     3  2  2.50        -5.0394  10.0000                                                             
     4  0  0.50        -4.6097   1.0000                                                             
     4  1  0.50        -4.0817   0.0000                                                             
     4  3  2.50        -1.3606   0.0000                                                             
   Description                                                                                      
     l       E           TYP  RCUT    TYP  RCUT                                                     
     2     -5.0393973     23  2.200                                                                 
     2     10.8846608     23  2.200                                                                 
     0     -4.6097109     23  2.200                                                                 
     0      8.2520465     23  2.200                                                                 
     1     -2.7211652     23  2.200                                                                 
     1     21.7055443     23  2.200                                                                 
     3      2.7211652     23  2.300                                                                 
  local pseudopotential read in
  partial core-charges read in
  partial kinetic energy density read in
  atomic valenz-charges read in
  non local Contribution for L=           2  read in
    real space projection operators read in
  non local Contribution for L=           2  read in
    real space projection operators read in
  non local Contribution for L=           0  read in
    real space projection operators read in
  non local Contribution for L=           0  read in
    real space projection operators read in
  non local Contribution for L=           1  read in
    real space projection operators read in
  non local Contribution for L=           1  read in
    real space projection operators read in
    PAW grid and wavefunctions read in
 
   number of l-projection  operators is LMAX  =           6
   number of lm-projection operators is LMMAX =          18
 
  PAW_PBE Cu 22Jun2005                  :
 energy of atom  1       EATOM=-1390.9808
 kinetic energy error for atom=    0.0232 (will be added to EATOM!!)
 
 
 POSCAR: FCC Cu
  positions in cartesian coordinates
  velocities in cartesian coordinates
  No initial velocities read in
 exchange correlation table for  LEXCH =        8
   RHO(1)=    0.500       N(1)  =     2000
   RHO(2)=  100.500       N(2)  =     4000

 VTST: version 4.2, (08/11/21)

 CHAIN: initializing optimizer
 
 OPT: Using VASP Conjugate-Gradient optimizer
 CHAIN: Read ICHAIN            0
 
 POSCAR: FCC Cu
  positions in cartesian coordinates
  velocities in cartesian coordinates
  No initial velocities read in
 


--------------------------------------------------------------------------------------------------------


 ion  position               nearest neighbor table
   1  0.000  0.000  0.000-   3 2.57   4 2.57   3 2.57   4 2.57   2 2.57   2 2.57   2 2.57   2 2.57

   2  0.500  0.500  0.000-   3 2.57   4 2.57   3 2.57   4 2.57   1 2.57   1 2.57   1 2.57   1 2.57

   3  0.000  0.500  0.075-   5 2.57   6 2.57   5 2.57   6 2.57   2 2.57   1 2.57   2 2.57   1 2.57
                             4 2.57   4 2.57   4 2.57   4 2.57
   4  0.500  0.000  0.075-   5 2.57   6 2.57   5 2.57   6 2.57   2 2.57   1 2.57   2 2.57   1 2.57
                             3 2.57   3 2.57   3 2.57   3 2.57
   5  0.000  0.000  0.151-   3 2.57   4 2.57   3 2.57   4 2.57   7 2.57   8 2.57   7 2.57   8 2.57
                             6 2.57   6 2.57   6 2.57   6 2.57
   6  0.500  0.500  0.151-   3 2.57   4 2.57   3 2.57   4 2.57   7 2.57   8 2.57   7 2.57   8 2.57
                             5 2.57   5 2.57   5 2.57   5 2.57
   7  0.000  0.500  0.226-   9 2.57  10 2.57   9 2.57  10 2.57   6 2.57   5 2.57   6 2.57   5 2.57
                             8 2.57   8 2.57   8 2.57   8 2.57
   8  0.500  0.000  0.226-   9 2.57  10 2.57   9 2.57  10 2.57   6 2.57   5 2.57   6 2.57   5 2.57
                             7 2.57   7 2.57   7 2.57   7 2.57
   9  0.000  0.000  0.302-   7 2.57   8 2.57  11 2.57  12 2.57   7 2.57   8 2.57  11 2.57  12 2.57
                            10 2.57  10 2.57  10 2.57  10 2.57
  10  0.500  0.500  0.302-   7 2.57   8 2.57  11 2.57  12 2.57   7 2.57   8 2.57  11 2.57  12 2.57
                             9 2.57   9 2.57   9 2.57   9 2.57
  11  0.000  0.500  0.377-   9 2.57  10 2.57   9 2.57  10 2.57  12 2.57  12 2.57  12 2.57  12 2.57

  12  0.500  0.000  0.377-   9 2.57  10 2.57   9 2.57  10 2.57  11 2.57  11 2.57  11 2.57  11 2.57

 
  LATTYP: Found a simple tetragonal cell.
 ALAT       =     3.6300001144
 C/A-ratio  =     6.6322311959
  
  Lattice vectors:
  
 A1 = (   3.6300001144,   0.0000000000,   0.0000000000)
 A2 = (   0.0000000000,   3.6300001144,   0.0000000000)
 A3 = (   0.0000000000,   0.0000000000,  24.0750000000)


Analysis of symmetry for initial positions (statically):
=====================================================================
 Subroutine PRICEL returns following result:
 
  LATTYP: Found a simple tetragonal cell.
 ALAT       =     2.5667976966
 C/A-ratio  =     9.3793913061
  
  Lattice vectors:
  
 A1 = (   1.8150000570,  -1.8150000574,   0.0000000000)
 A2 = (   1.8150000570,   1.8150000570,   0.0000000000)
 A3 = (   0.0000000000,   0.0000000000,  24.0750000000)
 
   2 primitive cells build up your supercell.
 

 Routine SETGRP: Setting up the symmetry group for a 
 simple tetragonal supercell.


 Subroutine GETGRP returns: Found 16 space group operations
 (whereof  8 operations were pure point group operations)
 out of a pool of 16 trial point group operations.


The static configuration has the point symmetry C_4v.
 The point group associated with its full space group is D_4h.


Analysis of symmetry for dynamics (positions and initial velocities):
=====================================================================
 Subroutine PRICEL returns following result:
 
  LATTYP: Found a simple tetragonal cell.
 ALAT       =     2.5667976966
 C/A-ratio  =     9.3793913061
  
  Lattice vectors:
  
 A1 = (   1.8150000570,  -1.8150000574,   0.0000000000)
 A2 = (   1.8150000570,   1.8150000570,   0.0000000000)
 A3 = (   0.0000000000,   0.0000000000,  24.0750000000)
 
   2 primitive cells build up your supercell.
 

 Routine SETGRP: Setting up the symmetry group for a 
 simple tetragonal supercell.


 Subroutine GETGRP returns: Found 16 space group operations
 (whereof  8 operations were pure point group operations)
 out of a pool of 16 trial point group operations.


The dynamic configuration has the point symmetry C_4v.
 The point group associated with its full space group is D_4h.


Analysis of constrained symmetry for selective dynamics:
=====================================================================
 Subroutine PRICEL returns following result:
 
  LATTYP: Found a simple tetragonal cell.
 ALAT       =     2.5667976966
 C/A-ratio  =     9.3793913061
  
  Lattice vectors:
  
 A1 = (   1.8150000570,  -1.8150000574,   0.0000000000)
 A2 = (   1.8150000570,   1.8150000570,   0.0000000000)
 A3 = (   0.0000000000,   0.0000000000,  24.0750000000)
 
   2 primitive cells build up your supercell.
 

 Routine SETGRP: Setting up the symmetry group for a 
 simple tetragonal supercell.


 Subroutine GETGRP returns: Found  8 space group operations
 (whereof  8 operations were pure point group operations)
 out of a pool of 16 trial point group operations.


The constrained configuration has the point symmetry C_4v.


Analysis of structural, dynamic, and magnetic symmetry:
=====================================================================
 Subroutine PRICEL returns following result:
 
  LATTYP: Found a simple tetragonal cell.
 ALAT       =     2.5667976966
 C/A-ratio  =     9.3793913061
  
  Lattice vectors:
  
 A1 = (   1.8150000570,  -1.8150000574,   0.0000000000)
 A2 = (   1.8150000570,   1.8150000570,   0.0000000000)
 A3 = (   0.0000000000,   0.0000000000,  24.0750000000)
 
   2 primitive cells build up your supercell.
 

 Routine SETGRP: Setting up the symmetry group for a 
 simple tetragonal supercell.


 Subroutine GETGRP returns: Found  8 space group operations
 (whereof  8 operations were pure point group operations)
 out of a pool of 16 trial point group operations.


The overall configuration has the point symmetry C_4v.


 Subroutine INISYM returns: Found  8 space group operations
 (whereof  8 operations are pure point group operations),
 and found     2 'primitive' translations


----------------------------------------------------------------------------------------

                                     Primitive cell                                     

  volume of cell :     158.6169

  direct lattice vectors                    reciprocal lattice vectors
     1.815000057 -1.815000057  0.000000000     0.275482085 -0.275482085  0.000000000
     1.815000057  1.815000057  0.000000000     0.275482085  0.275482085  0.000000000
     0.000000000  0.000000000 24.075000000     0.000000000  0.000000000  0.041536864

  length of vectors
     2.566797697  2.566797696 24.075000000     0.389590501  0.389590501  0.041536864

  position of ions in fractional coordinates (direct lattice)
     0.000000000  0.000000000  0.000000000
     0.500000000  0.500000000  0.075389409
     0.000000000  0.000000000  0.150778818
     0.500000000  0.500000000  0.226168228
     0.000000000  0.000000000  0.301557637
     0.500000000  0.500000000  0.376947046

  ion indices of the primitive-cell ions
   primitive index   ion index
                 1           1
                 2           3
                 3           5
                 4           7
                 5           9
                 6          11

----------------------------------------------------------------------------------------

 
 
 KPOINTS: Auto-mesh                               

Automatic generation of k-mesh.
 Grid dimensions read from file:
 generate k-points for:    3    3    1

 Generating k-lattice:

  Cartesian coordinates                     Fractional coordinates (reciprocal lattice)
     0.091827362  0.000000000  0.000000000     0.333333333  0.000000000  0.000000000
     0.000000000  0.091827362  0.000000000     0.000000000  0.333333333  0.000000000
     0.000000000  0.000000000  0.041536864     0.000000000  0.000000000  1.000000000

  Length of vectors
     0.091827362  0.091827362  0.041536864

  Shift w.r.t. Gamma in fractional coordinates (k-lattice)
     0.000000000  0.000000000  0.000000000

 
 Subroutine IBZKPT returns following result:
 ===========================================
 
 Found      3 irreducible k-points:
 
 Following reciprocal coordinates:
            Coordinates               Weight
  0.000000  0.000000  0.000000      1.000000
  0.333333  0.000000  0.000000      4.000000
  0.333333  0.333333  0.000000      4.000000
 
 Following cartesian coordinates:
            Coordinates               Weight
  0.000000  0.000000  0.000000      1.000000
  0.091827  0.000000  0.000000      4.000000
  0.091827  0.091827  0.000000      4.000000
 


--------------------------------------------------------------------------------------------------------




 Dimension of arrays:
   k-points           NKPTS =      3   k-points in BZ     NKDIM =      3   number of bands    NBANDS=     88
   number of dos      NEDOS =    301   number of ions     NIONS =     12
   non local maximal  LDIM  =      6   non local SUM 2l+1 LMDIM =     18
   total plane-waves  NPLWV =  38880
   max r-space proj   IRMAX =      1   max aug-charges    IRDMAX=   3749
   dimension x,y,z NGX =    18 NGY =   18 NGZ =  120
   dimension x,y,z NGXF=    36 NGYF=   36 NGZF=  240
   support grid    NGXF=    36 NGYF=   36 NGZF=  240
   ions per type =              12
   NGX,Y,Z   is equivalent  to a cutoff of   8.24,  8.24,  8.29 a.u.
   NGXF,Y,Z  is equivalent  to a cutoff of  16.49, 16.49, 16.57 a.u.

 SYSTEM =  unknown system                          
 POSCAR =  FCC Cu                                  

 Startparameter for this run:
   NWRITE =      2    write-flag & timer
   PREC   = normal    normal or accurate (medium, high low for compatibility)
   ISTART =      0    job   : 0-new  1-cont  2-samecut
   ICHARG =      2    charge: 1-file 2-atom 10-const
   ISPIN  =      2    spin polarized calculation?
   LNONCOLLINEAR =      F non collinear calculations
   LSORBIT =      F    spin-orbit coupling
   INIWAV =      1    electr: 0-lowe 1-rand  2-diag
   LASPH  =      F    aspherical Exc in radial PAW
 Electronic Relaxation 1
   ENCUT  =  400.0 eV  29.40 Ry    5.42 a.u.   5.92  5.92 39.26*2*pi/ulx,y,z
   ENINI  =  400.0     initial cutoff
   ENAUG  =  587.0 eV  augmentation charge cutoff
   NELM   =     60;   NELMIN=  2; NELMDL= -5     # of ELM steps 
   EDIFF  = 0.2E-03   stopping-criterion for ELM
   LREAL  =      F    real-space projection
   NLSPLINE    = F    spline interpolate recip. space projectors
   LCOMPAT=      F    compatible to vasp.4.4
   GGA_COMPAT  = T    GGA compatible to vasp.4.4-vasp.4.6
   LMAXPAW     = -100 max onsite density
   LMAXMIX     =    2 max onsite mixed and CHGCAR
   VOSKOWN=      0    Vosko Wilk Nusair interpolation
   ROPT   =    0.00000
 Ionic relaxation
   EDIFFG = -.3E-01   stopping-criterion for IOM
   NSW    =    800    number of steps for IOM
   NBLOCK =      1;   KBLOCK =    800    inner block; outer block 
   IBRION =      2    ionic relax: 0-MD 1-quasi-New 2-CG
   NFREE  =      1    steps in history (QN), initial steepest desc. (CG)
   ISIF   =      2    stress and relaxation
   IWAVPR =     11    prediction:  0-non 1-charg 2-wave 3-comb
   ISYM   =      1    0-nonsym 1-usesym 2-fastsym
   LCORR  =      T    Harris-Foulkes like correction to forces

   POTIM  = 0.5000    time-step for ionic-motion
   TEIN   =    0.0    initial temperature
   TEBEG  =    0.0;   TEEND  =   0.0 temperature during run
   SMASS  =  -3.00    Nose mass-parameter (am)
   estimated Nose-frequenzy (Omega)   =  0.10E-29 period in steps = 0.13E+47 mass=  -0.301E-27a.u.
   SCALEE = 1.0000    scale energy and forces
   NPACO  =    256;   APACO  = 10.0  distance and # of slots for P.C.
   PSTRESS=    0.0 pullay stress

  Mass of Ions in am
   POMASS =  63.55
  Ionic Valenz
   ZVAL   =  11.00
  Atomic Wigner-Seitz radii
   RWIGS  =  -1.00
  virtual crystal weights 
   VCA    =   1.00
   NELECT =     132.0000    total number of electrons
   NUPDOWN=      -1.0000    fix difference up-down

 DOS related values:
   EMIN   =  10.00;   EMAX   =-10.00  energy-range for DOS
   EFERMI =   0.00
   ISMEAR =     1;   SIGMA  =   0.20  broadening in eV -4-tet -1-fermi 0-gaus

 Electronic relaxation 2 (details)
   IALGO  =     38    algorithm
   LDIAG  =      T    sub-space diagonalisation (order eigenvalues)
   LSUBROT=      F    optimize rotation matrix (better conditioning)
   TURBO    =      0    0=normal 1=particle mesh
   IRESTART =      0    0=no restart 2=restart with 2 vectors
   NREBOOT  =      0    no. of reboots
   NMIN     =      0    reboot dimension
   EREF     =   0.00    reference energy to select bands
   IMIX   =      4    mixing-type and parameters
     AMIX     =   0.40;   BMIX     =  1.00
     AMIX_MAG =   1.60;   BMIX_MAG =  1.00
     AMIN     =   0.10
     WC   =   100.;   INIMIX=   1;  MIXPRE=   1;  MAXMIX= -45

 Intra band minimization:
   WEIMIN = 0.0010     energy-eigenvalue tresh-hold
   EBREAK =  0.57E-06  absolut break condition
   DEPER  =   0.30     relativ break condition  

   TIME   =   0.40     timestep for ELM

  volume/ion in A,a.u.               =      26.44       178.40
  Fermi-wavevector in a.u.,A,eV,Ry     =   1.222193  2.309609 20.323764  1.493755
  Thomas-Fermi vector in A             =   2.357348
 
 Write flags
   LWAVE        =      F    write WAVECAR
   LDOWNSAMPLE  =      F    k-point downsampling of WAVECAR
   LCHARG       =      F    write CHGCAR
   LVTOT        =      F    write LOCPOT, total local potential
   LVHAR        =      F    write LOCPOT, Hartree potential only
   LELF         =      F    write electronic localiz. function (ELF)
   LORBIT       =      0    0 simple, 1 ext, 2 COOP (PROOUT), +10 PAW based schemes


 Dipole corrections
   LMONO  =      F    monopole corrections only (constant potential shift)
   LDIPOL =      F    correct potential (dipole corrections)
   IDIPOL =      3    1-x, 2-y, 3-z, 4-all directions 
   EPSILON=  1.0000000 bulk dielectric constant

 Exchange correlation treatment:
   GGA     =    PE    GGA type
   LEXCH   =     8    internal setting for exchange type
   LIBXC   =     F    Libxc                    
   VOSKOWN =     0    Vosko Wilk Nusair interpolation
   LHFCALC =     F    Hartree Fock is set to
   LHFONE  =     F    Hartree Fock one center treatment
   AEXX    =    0.0000 exact exchange contribution

 Linear response parameters
   LEPSILON=     F    determine dielectric tensor
   LRPA    =     F    only Hartree local field effects (RPA)
   LNABLA  =     F    use nabla operator in PAW spheres
   LVEL    =     F    velocity operator in full k-point grid
   CSHIFT  =0.1000    complex shift for real part using Kramers Kronig
   OMEGAMAX=  -1.0    maximum frequency
   DEG_THRESHOLD= 0.2000000E-02 threshold for treating states as degnerate
   RTIME   =   -0.100 relaxation time in fs
  (WPLASMAI=    0.000 imaginary part of plasma frequency in eV, 0.658/RTIME)
   DFIELD  = 0.0000000 0.0000000 0.0000000 field for delta impulse in time
 
  Optional k-point grid parameters
   LKPOINTS_OPT  =     F    use optional k-point grid
   KPOINTS_OPT_MODE=     1    mode for optional k-point grid
 
 Orbital magnetization related:
   ORBITALMAG=     F  switch on orbital magnetization
   LCHIMAG   =     F  perturbation theory with respect to B field
   DQ        =  0.001000  dq finite difference perturbation B field
   LLRAUG    =     F  two centre corrections for induced B field



--------------------------------------------------------------------------------------------------------


 conjugate gradient relaxation of ions
   using selective dynamics as specified on POSCAR
   WARNING: If single coordinates had been selected the selection of coordinates
            is made according to the corresponding   d i r e c t   coordinates!
            Don't support selection of single cartesian coordinates -- sorry ...
  !
 charge density and potential will be updated during run
 spin polarized calculation
 Variant of blocked Davidson
 Davidson routine will perform the subspace rotation
 perform sub-space diagonalisation
    after iterative eigenvector-optimisation
 modified Broyden-mixing scheme, WC =      100.0
 initial mixing is a Kerker type mixing with AMIX =  0.4000 and BMIX =      1.0000
 Hartree-type preconditioning will be used
 using additional bands           22
 reciprocal scheme for non local part
 use partial core corrections
 calculate Harris-corrections to forces 
   (improved forces if not selfconsistent)
 use gradient corrections 
 use of overlap-Matrix (Vanderbilt PP)
 Methfessel and Paxton  Order N= 1 SIGMA  =   0.20


--------------------------------------------------------------------------------------------------------


  energy-cutoff  :      400.00
  volume of cell :      317.23
      direct lattice vectors                 reciprocal lattice vectors
     3.630000114  0.000000000  0.000000000     0.275482085  0.000000000  0.000000000
     0.000000000  3.630000114  0.000000000     0.000000000  0.275482085  0.000000000
     0.000000000  0.000000000 24.075000000     0.000000000  0.000000000  0.041536864

  length of vectors
     3.630000114  3.630000114 24.075000000     0.275482085  0.275482085  0.041536864


 
 k-points in units of 2pi/SCALE and weight: Auto-mesh                               
   0.00000000  0.00000000  0.00000000       0.111
   0.09182736  0.00000000  0.00000000       0.444
   0.09182736  0.09182736  0.00000000       0.444
 
 k-points in reciprocal lattice and weights: Auto-mesh                               
   0.00000000  0.00000000  0.00000000       0.111
   0.33333333  0.00000000  0.00000000       0.444
   0.33333333  0.33333333  0.00000000       0.444
 
 position of ions in fractional coordinates (direct lattice) 
   0.00000000  0.00000000  0.00000000
   0.50000000  0.50000000  0.00000000
   0.00000000  0.50000000  0.07538941
   0.50000000  0.00000000  0.07538941
   0.00000000  0.00000000  0.15077882
   0.50000000  0.50000000  0.15077882
   0.00000000  0.50000000  0.22616823
   0.50000000  0.00000000  0.22616823
   0.00000000  0.00000000  0.30155764
   0.50000000  0.50000000  0.30155764
   0.00000000  0.50000000  0.37694705
   0.50000000  0.00000000  0.37694705
 
 position of ions in cartesian coordinates  (Angst):
   0.00000000  0.00000000  0.00000000
   1.81500006  1.81500006  0.00000000
   0.00000000  1.81500006  1.81500003
   1.81500006  0.00000000  1.81500003
   0.00000000  0.00000000  3.63000005
   1.81500006  1.81500006  3.63000005
   0.00000000  1.81500006  5.44500008
   1.81500006  0.00000000  5.44500008
   0.00000000  0.00000000  7.26000010
   1.81500006  1.81500006  7.26000010
   0.00000000  1.81500006  9.07500013
   1.81500006  0.00000000  9.07500013
 


--------------------------------------------------------------------------------------------------------


 k-point   1 :   0.0000 0.0000 0.0000  plane waves:    5755
 k-point   2 :   0.3333 0.0000 0.0000  plane waves:    5736
 k-point   3 :   0.3333 0.3333 0.0000  plane waves:    5786

 maximum and minimum number of plane-waves per node :      1163     1139

 maximum number of plane-waves:      5786
 maximum index in each direction: 
   IXMAX=    5   IYMAX=    5   IZMAX=   39
   IXMIN=   -6   IYMIN=   -6   IZMIN=  -39


 parallel 3D FFT for wavefunctions:
    minimum data exchange during FFTs selected (reduces bandwidth)
 parallel 3D FFT for charge:
    minimum data exchange during FFTs selected (reduces bandwidth)


 total amount of memory used by VASP MPI-rank0    36165. kBytes
=======================================================================

   base      :      30000. kBytes
   nonl-proj :        723. kBytes
   fftplans  :        836. kBytes
   grid      :       1945. kBytes
   one-center:         93. kBytes
   wavefun   :       2568. kBytes
 
     INWAV:  cpu time      0.0000: real time      0.0006
 Broyden mixing: mesh for mixing (old mesh)
   NGX = 11   NGY = 11   NGZ = 79
  (NGX  = 36   NGY  = 36   NGZ  =240)
  gives a total of   9559 points

 initial charge density was supplied:
 charge density of overlapping atoms calculated
 number of electron     132.0000000 magnetization      12.0000000
 keeping initial charge density in first step


--------------------------------------------------------------------------------------------------------


 Maximum index for augmentation-charges          281 (set IRDMAX)


--------------------------------------------------------------------------------------------------------


 First call to EWALD:  gamma=   0.260
 Maximum number of real-space cells 5x 5x 1
 Maximum number of reciprocal cells 2x 2x 8

    FEWALD:  cpu time      0.0018: real time      0.0018


--------------------------------------- Iteration      1(   1)  ---------------------------------------


    POTLOK:  cpu time      0.0233: real time      0.0236
    SETDIJ:  cpu time      0.0066: real time      0.0066
     EDDAV:  cpu time      0.4885: real time      0.4936
       DOS:  cpu time      0.0012: real time      0.0012
    --------------------------------------------
      LOOP:  cpu time      0.5195: real time      0.5250

 eigenvalue-minimisations  :  1056
 total energy-change (2. order) : 0.1178356E+04  (-0.4806607E+04)
 number of electron     132.0000000 magnetization      12.0000000
 augmentation part      132.0000000 magnetization      12.0000000

 Free energy of the ion-electron system (eV)
  ---------------------------------------------------
  alpha Z        PSCENC =       331.96717463
  Ewald energy   TEWEN  =     60494.36950923
  -Hartree energ DENC   =    -76724.37128352
  -exchange      EXHF   =         0.00000000
  -V(xc)+E(xc)   XCENC  =       547.91763564
  PAW double counting   =     14737.16995259   -16007.05117830
  entropy T*S    EENTRO =        -0.00368808
  eigenvalues    EBANDS =      1106.86646984
  atomic energy  EATOM  =     16691.49168240
  Solvation  Ediel_sol  =         0.00000000
  ---------------------------------------------------
  free energy    TOTEN  =      1178.35627442 eV

  energy without entropy =     1178.35996250  energy(sigma->0) =     1178.35750378


--------------------------------------------------------------------------------------------------------




--------------------------------------- Iteration      1(   2)  ---------------------------------------


     EDDAV:  cpu time      0.4753: real time      0.4796
       DOS:  cpu time      0.0009: real time      0.0009
    --------------------------------------------
      LOOP:  cpu time      0.4762: real time      0.4805

 eigenvalue-minimisations  :  1056
 total energy-change (2. order) :-0.1064294E+04  (-0.1019649E+04)
 number of electron     132.0000000 magnetization      12.0000000
 augmentation part      132.0000000 magnetization      12.0000000

 Free energy of the ion-electron system (eV)
  ---------------------------------------------------
  alpha Z        PSCENC =       331.96717463
  Ewald energy   TEWEN  =     60494.36950923
  -Hartree energ DENC   =    -76724.37128352
  -exchange      EXHF   =         0.00000000
  -V(xc)+E(xc)   XCENC  =       547.91763564
  PAW double counting   =     14737.16995259   -16007.05117830
  entropy T*S    EENTRO =         0.00640795
  eigenvalues    EBANDS =        42.56205927
  atomic energy  EATOM  =     16691.49168240
  Solvation  Ediel_sol  =         0.00000000
  ---------------------------------------------------
  free energy    TOTEN  =       114.06195988 eV

  energy without entropy =      114.05555193  energy(sigma->0) =      114.05982390


--------------------------------------------------------------------------------------------------------




--------------------------------------- Iteration      1(   3)  ---------------------------------------


     EDDAV:  cpu time      0.5052: real time      0.5096
       DOS:  cpu time      0.0010: real time      0.0010
    --------------------------------------------
      LOOP:  cpu time      0.5062: real time      0.5105

 eigenvalue-minimisations  :  1088
 total energy-change (2. order) :-0.1557210E+03  (-0.1419225E+03)
 number of electron     132.0000000 magnetization      12.0000000
 augmentation part      132.0000000 magnetization      12.0000000

 Free energy of the ion-electron system (eV)
  ---------------------------------------------------
  alpha Z        PSCENC =       331.96717463
  Ewald energy   TEWEN  =     60494.36950923
  -Hartree energ DENC   =    -76724.37128352
  -exchange      EXHF   =         0.00000000
  -V(xc)+E(xc)   XCENC  =       547.91763564
  PAW double counting   =     14737.16995259   -16007.05117830
  entropy T*S    EENTRO =        -0.00985063
  eigenvalues    EBANDS =      -113.14263504
  atomic energy  EATOM  =     16691.49168240
  Solvation  Ediel_sol  =         0.00000000
  ---------------------------------------------------
  free energy    TOTEN  =       -41.65899301 eV

  energy without entropy =      -41.64914238  energy(sigma->0) =      -41.65570947


--------------------------------------------------------------------------------------------------------




--------------------------------------- Iteration      1(   4)  ---------------------------------------


     EDDAV:  cpu time      0.5091: real time      0.5130
       DOS:  cpu time      0.0009: real time      0.0009
    --------------------------------------------
      LOOP:  cpu time      0.5100: real time      0.5140

 eigenvalue-minimisations  :  1168
 total energy-change (2. order) :-0.7993781E+01  (-0.7883605E+01)
 number of electron     132.0000000 magnetization      12.0000000
 augmentation part      132.0000000 magnetization      12.0000000

 Free energy of the ion-electron system (eV)
  ---------------------------------------------------
  alpha Z        PSCENC =       331.96717463
  Ewald energy   TEWEN  =     60494.36950923
  -Hartree energ DENC   =    -76724.37128352
  -exchange      EXHF   =         0.00000000
  -V(xc)+E(xc)   XCENC  =       547.91763564
  PAW double counting   =     14737.16995259   -16007.05117830
  entropy T*S    EENTRO =        -0.00489099
  eigenvalues    EBANDS =      -121.14137573
  atomic energy  EATOM  =     16691.49168240
  Solvation  Ediel_sol  =         0.00000000
  ---------------------------------------------------
  free energy    TOTEN  =       -49.65277406 eV

  energy without entropy =      -49.64788307  energy(sigma->0) =      -49.65114373


--------------------------------------------------------------------------------------------------------




--------------------------------------- Iteration      1(   5)  ---------------------------------------


     EDDAV:  cpu time      0.5242: real time      0.5291
       DOS:  cpu time      0.0010: real time      0.0010
    CHARGE:  cpu time      0.1019: real time      0.1023
    MIXING:  cpu time      0.0012: real time      0.0012
    --------------------------------------------
      LOOP:  cpu time      0.6283: real time      0.6336

 eigenvalue-minimisations  :  1200
 total energy-change (2. order) :-0.1576287E+00  (-0.1575226E+00)
 number of electron     132.0001729 magnetization      11.0043806
 augmentation part       78.1940071 magnetization      10.8035868

 Broyden mixing:
  rms(total) = 0.31437E+01    rms(broyden)= 0.31432E+01
  rms(prec ) = 0.32496E+01
  weight for this iteration     100.00

 Free energy of the ion-electron system (eV)
  ---------------------------------------------------
  alpha Z        PSCENC =       331.96717463
  Ewald energy   TEWEN  =     60494.36950923
  -Hartree energ DENC   =    -76724.37128352
  -exchange      EXHF   =         0.00000000
  -V(xc)+E(xc)   XCENC  =       547.91763564
  PAW double counting   =     14737.16995259   -16007.05117830
  entropy T*S    EENTRO =        -0.00469267
  eigenvalues    EBANDS =      -121.29920272
  atomic energy  EATOM  =     16691.49168240
  Solvation  Ediel_sol  =         0.00000000
  ---------------------------------------------------
  free energy    TOTEN  =       -49.81040273 eV

  energy without entropy =      -49.80571006  energy(sigma->0) =      -49.80883851


--------------------------------------------------------------------------------------------------------




--------------------------------------- Iteration      1(   6)  ---------------------------------------


    POTLOK:  cpu time      0.0217: real time      0.0220
    SETDIJ:  cpu time      0.0060: real time      0.0060
     EDDAV:  cpu time      0.5097: real time      0.5139
       DOS:  cpu time      0.0009: real time      0.0009
    CHARGE:  cpu time      0.0967: real time      0.0971
    MIXING:  cpu time      0.0014: real time      0.0014
    --------------------------------------------
      LOOP:  cpu time      0.6365: real time      0.6414

 eigenvalue-minimisations  :  1168
 total energy-change (2. order) : 0.8991330E+01  (-0.1122869E+02)
 number of electron     132.0001924 magnetization      10.4207565
 augmentation part       88.1708367 magnetization       7.2111996

 Broyden mixing:
  rms(total) = 0.16163E+01    rms(broyden)= 0.16154E+01
  rms(prec ) = 0.16815E+01
  weight for this iteration     100.00

 eigenvalues of (default mixing * dielectric matrix)
  average eigenvalue GAMMA=   0.7802
  0.7802

 Free energy of the ion-electron system (eV)
  ---------------------------------------------------
  alpha Z        PSCENC =       331.96717463
  Ewald energy   TEWEN  =     60494.36950923
  -Hartree energ DENC   =    -76413.11001527
  -exchange      EXHF   =         0.00000000
  -V(xc)+E(xc)   XCENC  =       534.06158580
  PAW double counting   =     14895.78337675   -16101.20830228
  entropy T*S    EENTRO =        -0.00954673
  eigenvalues    EBANDS =      -474.16453705
  atomic energy  EATOM  =     16691.49168240
  Solvation  Ediel_sol  =         0.00000000
  ---------------------------------------------------
  free energy    TOTEN  =       -40.81907253 eV

  energy without entropy =      -40.80952580  energy(sigma->0) =      -40.81589028


--------------------------------------------------------------------------------------------------------




--------------------------------------- Iteration      1(   7)  ---------------------------------------


    POTLOK:  cpu time      0.0201: real time      0.0204
    SETDIJ:  cpu time      0.0058: real time      0.0059
     EDDAV:  cpu time      0.5236: real time      0.5275
       DOS:  cpu time      0.0009: real time      0.0009
    CHARGE:  cpu time      0.0936: real time      0.0940
    MIXING:  cpu time      0.0014: real time      0.0014
    --------------------------------------------
      LOOP:  cpu time      0.6455: real time      0.6501

 eigenvalue-minimisations  :  1160
 total energy-change (2. order) : 0.5446119E+01  (-0.2778841E+01)
 number of electron     132.0001848 magnetization       9.6137658
 augmentation part       84.3687361 magnetization       6.8501525

 Broyden mixing:
  rms(total) = 0.74842E+00    rms(broyden)= 0.74820E+00
  rms(prec ) = 0.75530E+00
  weight for this iteration     100.00

 eigenvalues of (default mixing * dielectric matrix)
  average eigenvalue GAMMA=   0.8556
  1.0862  0.6249

 Free energy of the ion-electron system (eV)
  ---------------------------------------------------
  alpha Z        PSCENC =       331.96717463
  Ewald energy   TEWEN  =     60494.36950923
  -Hartree energ DENC   =    -76573.49258000
  -exchange      EXHF   =         0.00000000
  -V(xc)+E(xc)   XCENC  =       540.68432373
  PAW double counting   =     15208.68679840   -16474.40963680
  entropy T*S    EENTRO =        -0.00949869
  eigenvalues    EBANDS =      -254.66072635
  atomic energy  EATOM  =     16691.49168240
  Solvation  Ediel_sol  =         0.00000000
  ---------------------------------------------------
  free energy    TOTEN  =       -35.37295345 eV

  energy without entropy =      -35.36345477  energy(sigma->0) =      -35.36978722


--------------------------------------------------------------------------------------------------------




--------------------------------------- Iteration      1(   8)  ---------------------------------------


    POTLOK:  cpu time      0.0210: real time      0.0213
    SETDIJ:  cpu time      0.0060: real time      0.0060
     EDDAV:  cpu time      0.5215: real time      0.5261
       DOS:  cpu time      0.0009: real time      0.0009
    CHARGE:  cpu time      0.0933: real time      0.0937
    MIXING:  cpu time      0.0014: real time      0.0014
    --------------------------------------------
      LOOP:  cpu time      0.6441: real time      0.6494

 eigenvalue-minimisations  :  1208
 total energy-change (2. order) : 0.1222839E+01  (-0.5592139E+00)
 number of electron     132.0001841 magnetization       9.0550223
 augmentation part       84.0858808 magnetization       6.1281807

 Broyden mixing:
  rms(total) = 0.73949E+00    rms(broyden)= 0.73939E+00
  rms(prec ) = 0.75968E+00
  weight for this iteration     100.00

 eigenvalues of (default mixing * dielectric matrix)
  average eigenvalue GAMMA=   0.7228
  1.1440  0.6125  0.4118

 Free energy of the ion-electron system (eV)
  ---------------------------------------------------
  alpha Z        PSCENC =       331.96717463
  Ewald energy   TEWEN  =     60494.36950923
  -Hartree energ DENC   =    -76581.65761144
  -exchange      EXHF   =         0.00000000
  -V(xc)+E(xc)   XCENC  =       541.43312836
  PAW double counting   =     15402.78820451   -16682.46759653
  entropy T*S    EENTRO =        -0.01629682
  eigenvalues    EBANDS =      -232.05830912
  atomic energy  EATOM  =     16691.49168240
  Solvation  Ediel_sol  =         0.00000000
  ---------------------------------------------------
  free energy    TOTEN  =       -34.15011479 eV

  energy without entropy =      -34.13381797  energy(sigma->0) =      -34.14468252


--------------------------------------------------------------------------------------------------------




--------------------------------------- Iteration      1(   9)  ---------------------------------------


    POTLOK:  cpu time      0.0198: real time      0.0201
    SETDIJ:  cpu time      0.0058: real time      0.0058
     EDDAV:  cpu time      0.5796: real time      0.5844
       DOS:  cpu time      0.0010: real time      0.0010
    CHARGE:  cpu time      0.0928: real time      0.0932
    MIXING:  cpu time      0.0014: real time      0.0014
    --------------------------------------------
      LOOP:  cpu time      0.7004: real time      0.7059

 eigenvalue-minimisations  :  1376
 total energy-change (2. order) : 0.3497478E+00  (-0.1771517E+00)
 number of electron     132.0001842 magnetization       7.0087091
 augmentation part       84.1164066 magnetization       4.1162996

 Broyden mixing:
  rms(total) = 0.58648E+00    rms(broyden)= 0.58644E+00
  rms(prec ) = 0.59438E+00
  weight for this iteration     100.00

 eigenvalues of (default mixing * dielectric matrix)
  average eigenvalue GAMMA=   1.1277
  2.0560  1.4142  0.6765  0.3640

 Free energy of the ion-electron system (eV)
  ---------------------------------------------------
  alpha Z        PSCENC =       331.96717463
  Ewald energy   TEWEN  =     60494.36950923
  -Hartree energ DENC   =    -76577.83312738
  -exchange      EXHF   =         0.00000000
  -V(xc)+E(xc)   XCENC  =       541.10136858
  PAW double counting   =     15499.40895154   -16784.57458510
  entropy T*S    EENTRO =        -0.00768241
  eigenvalues    EBANDS =      -229.72365849
  atomic energy  EATOM  =     16691.49168240
  Solvation  Ediel_sol  =         0.00000000
  ---------------------------------------------------
  free energy    TOTEN  =       -33.80036700 eV

  energy without entropy =      -33.79268460  energy(sigma->0) =      -33.79780620


--------------------------------------------------------------------------------------------------------




--------------------------------------- Iteration      1(  10)  ---------------------------------------


    POTLOK:  cpu time      0.0199: real time      0.0202
    SETDIJ:  cpu time      0.0059: real time      0.0059
     EDDAV:  cpu time      0.7061: real time      0.7113
       DOS:  cpu time      0.0009: real time      0.0009
    CHARGE:  cpu time      0.0932: real time      0.0938
    MIXING:  cpu time      0.0013: real time      0.0013
    --------------------------------------------
      LOOP:  cpu time      0.8273: real time      0.8335

 eigenvalue-minimisations  :  1752
 total energy-change (2. order) :-0.1057259E+01  (-0.2322381E+00)
 number of electron     132.0001847 magnetization       5.1300023
 augmentation part       84.3272807 magnetization       2.4896837

 Broyden mixing:
  rms(total) = 0.50153E+00    rms(broyden)= 0.50151E+00
  rms(prec ) = 0.56495E+00
  weight for this iteration     100.00

 eigenvalues of (default mixing * dielectric matrix)
  average eigenvalue GAMMA=   1.0562
  2.6624  1.2540  0.6710  0.4002  0.2931

 Free energy of the ion-electron system (eV)
  ---------------------------------------------------
  alpha Z        PSCENC =       331.96717463
  Ewald energy   TEWEN  =     60494.36950923
  -Hartree energ DENC   =    -76614.56248312
  -exchange      EXHF   =         0.00000000
  -V(xc)+E(xc)   XCENC  =       538.92018754
  PAW double counting   =     15721.51536533   -17015.17272471
  entropy T*S    EENTRO =        -0.01133231
  eigenvalues    EBANDS =      -183.37500479
  atomic energy  EATOM  =     16691.49168240
  Solvation  Ediel_sol  =         0.00000000
  ---------------------------------------------------
  free energy    TOTEN  =       -34.85762579 eV

  energy without entropy =      -34.84629349  energy(sigma->0) =      -34.85384836


--------------------------------------------------------------------------------------------------------




--------------------------------------- Iteration      1(  11)  ---------------------------------------


    POTLOK:  cpu time      0.0197: real time      0.0200
    SETDIJ:  cpu time      0.0058: real time      0.0058
     EDDAV:  cpu time      0.6478: real time      0.6528
       DOS:  cpu time      0.0009: real time      0.0009
    CHARGE:  cpu time      0.0966: real time      0.0970
    MIXING:  cpu time      0.0018: real time      0.0018
    --------------------------------------------
      LOOP:  cpu time      0.7727: real time      0.7784

 eigenvalue-minimisations  :  1536
 total energy-change (2. order) :-0.5085186E-01  (-0.2243099E+00)
 number of electron     132.0001849 magnetization       3.6971996
 augmentation part       84.6783676 magnetization       1.5707642

 Broyden mixing:
  rms(total) = 0.41858E+00    rms(broyden)= 0.41849E+00
  rms(prec ) = 0.46127E+00
  weight for this iteration     100.00

 eigenvalues of (default mixing * dielectric matrix)
  average eigenvalue GAMMA=   1.2371
  4.3011  1.1082  0.6193  0.6193  0.4444  0.3304

 Free energy of the ion-electron system (eV)
  ---------------------------------------------------
  alpha Z        PSCENC =       331.96717463
  Ewald energy   TEWEN  =     60494.36950923
  -Hartree energ DENC   =    -76603.15726047
  -exchange      EXHF   =         0.00000000
  -V(xc)+E(xc)   XCENC  =       537.99130299
  PAW double counting   =     15877.53047064   -17178.16251912
  entropy T*S    EENTRO =        -0.01721434
  eigenvalues    EBANDS =      -186.92162361
  atomic energy  EATOM  =     16691.49168240
  Solvation  Ediel_sol  =         0.00000000
  ---------------------------------------------------
  free energy    TOTEN  =       -34.90847765 eV

  energy without entropy =      -34.89126331  energy(sigma->0) =      -34.90273954


--------------------------------------------------------------------------------------------------------




--------------------------------------- Iteration      1(  12)  ---------------------------------------


    POTLOK:  cpu time      0.0208: real time      0.0210
    SETDIJ:  cpu time      0.0059: real time      0.0060
     EDDAV:  cpu time      0.6536: real time      0.6589
       DOS:  cpu time      0.0009: real time      0.0009
    CHARGE:  cpu time      0.0954: real time      0.0958
    MIXING:  cpu time      0.0015: real time      0.0015
    --------------------------------------------
      LOOP:  cpu time      0.7780: real time      0.7841

 eigenvalue-minimisations  :  1600
 total energy-change (2. order) :-0.6528945E+00  (-0.3688360E+00)
 number of electron     132.0001859 magnetization       3.0596772
 augmentation part       84.6638852 magnetization       1.3902763

 Broyden mixing:
  rms(total) = 0.43119E+00    rms(broyden)= 0.43103E+00
  rms(prec ) = 0.60296E+00
  weight for this iteration     100.00

 eigenvalues of (default mixing * dielectric matrix)
  average eigenvalue GAMMA=   1.1836
  4.8483  1.0795  0.6411  0.6411  0.5278  0.3393  0.2078

 Free energy of the ion-electron system (eV)
  ---------------------------------------------------
  alpha Z        PSCENC =       331.96717463
  Ewald energy   TEWEN  =     60494.36950923
  -Hartree energ DENC   =    -76616.75401782
  -exchange      EXHF   =         0.00000000
  -V(xc)+E(xc)   XCENC  =       537.56681472
  PAW double counting   =     15947.92135487   -17253.15498744
  entropy T*S    EENTRO =         0.00643962
  eigenvalues    EBANDS =      -168.97534236
  atomic energy  EATOM  =     16691.49168240
  Solvation  Ediel_sol  =         0.00000000
  ---------------------------------------------------
  free energy    TOTEN  =       -35.56137217 eV

  energy without entropy =      -35.56781178  energy(sigma->0) =      -35.56351871


--------------------------------------------------------------------------------------------------------




--------------------------------------- Iteration      1(  13)  ---------------------------------------


    POTLOK:  cpu time      0.0199: real time      0.0202
    SETDIJ:  cpu time      0.0058: real time      0.0058
     EDDAV:  cpu time      0.7089: real time      0.7151
       DOS:  cpu time      0.0010: real time      0.0010
    CHARGE:  cpu time      0.0929: real time      0.0934
    MIXING:  cpu time      0.0014: real time      0.0015
    --------------------------------------------
      LOOP:  cpu time      0.8298: real time      0.8369

 eigenvalue-minimisations  :  1752
 total energy-change (2. order) :-0.8696004E-01  (-0.2370482E+00)
 number of electron     132.0001852 magnetization       1.1741048
 augmentation part       84.6553761 magnetization      -0.5088604

 Broyden mixing:
  rms(total) = 0.29196E+00    rms(broyden)= 0.29184E+00
  rms(prec ) = 0.31958E+00
  weight for this iteration     100.00

 eigenvalues of (default mixing * dielectric matrix)
  average eigenvalue GAMMA=   1.7208
  8.7535  1.6879  0.8902  0.8902  0.6375  0.4131  0.3298  0.1641

 Free energy of the ion-electron system (eV)
  ---------------------------------------------------
  alpha Z        PSCENC =       331.96717463
  Ewald energy   TEWEN  =     60494.36950923
  -Hartree energ DENC   =    -76624.36169891
  -exchange      EXHF   =         0.00000000
  -V(xc)+E(xc)   XCENC  =       537.45678470
  PAW double counting   =     15959.66707583   -17266.29718049
  entropy T*S    EENTRO =        -0.01535287
  eigenvalues    EBANDS =      -159.92632671
  atomic energy  EATOM  =     16691.49168240
  Solvation  Ediel_sol  =         0.00000000
  ---------------------------------------------------
  free energy    TOTEN  =       -35.64833221 eV

  energy without entropy =      -35.63297933  energy(sigma->0) =      -35.64321458


--------------------------------------------------------------------------------------------------------




--------------------------------------- Iteration      1(  14)  ---------------------------------------


    POTLOK:  cpu time      0.0198: real time      0.0200
    SETDIJ:  cpu time      0.0059: real time      0.0059
     EDDAV:  cpu time      0.6107: real time      0.6157
       DOS:  cpu time      0.0010: real time      0.0010
    CHARGE:  cpu time      0.0937: real time      0.0941
    MIXING:  cpu time      0.0016: real time      0.0017
    --------------------------------------------
      LOOP:  cpu time      0.7327: real time      0.7384

 eigenvalue-minimisations  :  1480
 total energy-change (2. order) :-0.3252324E+01  (-0.3398242E+00)
 number of electron     132.0001844 magnetization       0.9952088
 augmentation part       84.0988081 magnetization       0.0154396

 Broyden mixing:
  rms(total) = 0.14897E+00    rms(broyden)= 0.14879E+00
  rms(prec ) = 0.23242E+00
  weight for this iteration     100.00

 eigenvalues of (default mixing * dielectric matrix)
  average eigenvalue GAMMA=   1.7901
 10.1164  2.0464  0.8932  0.7799  0.7799  0.6013  0.4064  0.3305  0.1567

 Free energy of the ion-electron system (eV)
  ---------------------------------------------------
  alpha Z        PSCENC =       331.96717463
  Ewald energy   TEWEN  =     60494.36950923
  -Hartree energ DENC   =    -76638.13041087
  -exchange      EXHF   =         0.00000000
  -V(xc)+E(xc)   XCENC  =       536.46534513
  PAW double counting   =     15775.19056173   -17076.19830773
  entropy T*S    EENTRO =         0.00023081
  eigenvalues    EBANDS =      -154.05644189
  atomic energy  EATOM  =     16691.49168240
  Solvation  Ediel_sol  =         0.00000000
  ---------------------------------------------------
  free energy    TOTEN  =       -38.90065658 eV

  energy without entropy =      -38.90088739  energy(sigma->0) =      -38.90073351


--------------------------------------------------------------------------------------------------------




--------------------------------------- Iteration      1(  15)  ---------------------------------------


    POTLOK:  cpu time      0.0197: real time      0.0200
    SETDIJ:  cpu time      0.0058: real time      0.0058
     EDDAV:  cpu time      0.5990: real time      0.6036
       DOS:  cpu time      0.0009: real time      0.0009
    CHARGE:  cpu time      0.0948: real time      0.0952
    MIXING:  cpu time      0.0020: real time      0.0020
    --------------------------------------------
      LOOP:  cpu time      0.7224: real time      0.7276

 eigenvalue-minimisations  :  1448
 total energy-change (2. order) :-0.1268166E+01  (-0.1566212E+00)
 number of electron     132.0001840 magnetization       0.8786086
 augmentation part       84.1135929 magnetization       0.1015361

 Broyden mixing:
  rms(total) = 0.12127E+00    rms(broyden)= 0.12113E+00
  rms(prec ) = 0.16595E+00
  weight for this iteration     100.00

 eigenvalues of (default mixing * dielectric matrix)
  average eigenvalue GAMMA=   1.7732
 10.6965  2.4416  1.0450  0.7980  0.7980  0.6137  0.4503  0.4028  0.3296  0.1559

 Free energy of the ion-electron system (eV)
  ---------------------------------------------------
  alpha Z        PSCENC =       331.96717463
  Ewald energy   TEWEN  =     60494.36950923
  -Hartree energ DENC   =    -76621.63471151
  -exchange      EXHF   =         0.00000000
  -V(xc)+E(xc)   XCENC  =       535.66078105
  PAW double counting   =     15674.98168841   -16969.51575366
  entropy T*S    EENTRO =         0.00802022
  eigenvalues    EBANDS =      -177.49721305
  atomic energy  EATOM  =     16691.49168240
  Solvation  Ediel_sol  =         0.00000000
  ---------------------------------------------------
  free energy    TOTEN  =       -40.16882230 eV

  energy without entropy =      -40.17684252  energy(sigma->0) =      -40.17149571


--------------------------------------------------------------------------------------------------------




--------------------------------------- Iteration      1(  16)  ---------------------------------------


    POTLOK:  cpu time      0.0198: real time      0.0200
    SETDIJ:  cpu time      0.0058: real time      0.0059
     EDDAV:  cpu time      0.5509: real time      0.5561
       DOS:  cpu time      0.0010: real time      0.0010
    CHARGE:  cpu time      0.0976: real time      0.0981
    MIXING:  cpu time      0.0021: real time      0.0021
    --------------------------------------------
      LOOP:  cpu time      0.6772: real time      0.6832

 eigenvalue-minimisations  :  1248
 total energy-change (2. order) :-0.6873767E+00  (-0.5843830E-01)
 number of electron     132.0001844 magnetization       0.8386370
 augmentation part       84.2017970 magnetization       0.2017027

 Broyden mixing:
  rms(total) = 0.64727E-01    rms(broyden)= 0.64666E-01
  rms(prec ) = 0.82755E-01
  weight for this iteration     100.00

 eigenvalues of (default mixing * dielectric matrix)
  average eigenvalue GAMMA=   1.7399
 10.9100  2.7999  1.0582  0.8806  0.8806  0.6484  0.5361  0.5361  0.4040  0.3290
  0.1561

 Free energy of the ion-electron system (eV)
  ---------------------------------------------------
  alpha Z        PSCENC =       331.96717463
  Ewald energy   TEWEN  =     60494.36950923
  -Hartree energ DENC   =    -76607.10864820
  -exchange      EXHF   =         0.00000000
  -V(xc)+E(xc)   XCENC  =       535.13077548
  PAW double counting   =     15622.88324164   -16913.62153492
  entropy T*S    EENTRO =         0.01411793
  eigenvalues    EBANDS =      -195.98251718
  atomic energy  EATOM  =     16691.49168240
  Solvation  Ediel_sol  =         0.00000000
  ---------------------------------------------------
  free energy    TOTEN  =       -40.85619898 eV

  energy without entropy =      -40.87031692  energy(sigma->0) =      -40.86090496


--------------------------------------------------------------------------------------------------------




--------------------------------------- Iteration      1(  17)  ---------------------------------------


    POTLOK:  cpu time      0.0209: real time      0.0212
    SETDIJ:  cpu time      0.0059: real time      0.0060
     EDDAV:  cpu time      0.5702: real time      0.5749
       DOS:  cpu time      0.0010: real time      0.0010
    CHARGE:  cpu time      0.0949: real time      0.0953
    MIXING:  cpu time      0.0019: real time      0.0019
    --------------------------------------------
      LOOP:  cpu time      0.6948: real time      0.7003

 eigenvalue-minimisations  :  1352
 total energy-change (2. order) :-0.3590599E+00  (-0.2817410E-01)
 number of electron     132.0001846 magnetization       0.7856262
 augmentation part       84.2851002 magnetization       0.2569339

 Broyden mixing:
  rms(total) = 0.53355E-01    rms(broyden)= 0.53303E-01
  rms(prec ) = 0.57982E-01
  weight for this iteration     100.00

 eigenvalues of (default mixing * dielectric matrix)
  average eigenvalue GAMMA=   1.7222
 11.2214  3.1204  1.1728  0.9862  0.9862  0.7350  0.5859  0.5859  0.3299  0.4038
  0.3823  0.1561

 Free energy of the ion-electron system (eV)
  ---------------------------------------------------
  alpha Z        PSCENC =       331.96717463
  Ewald energy   TEWEN  =     60494.36950923
  -Hartree energ DENC   =    -76593.27125983
  -exchange      EXHF   =         0.00000000
  -V(xc)+E(xc)   XCENC  =       534.80237799
  PAW double counting   =     15593.35500662   -16881.93174290
  entropy T*S    EENTRO =         0.01356812
  eigenvalues    EBANDS =      -212.01157514
  atomic energy  EATOM  =     16691.49168240
  Solvation  Ediel_sol  =         0.00000000
  ---------------------------------------------------
  free energy    TOTEN  =       -41.21525887 eV

  energy without entropy =      -41.22882699  energy(sigma->0) =      -41.21978158


--------------------------------------------------------------------------------------------------------




--------------------------------------- Iteration      1(  18)  ---------------------------------------


    POTLOK:  cpu time      0.0197: real time      0.0199
    SETDIJ:  cpu time      0.0058: real time      0.0058
     EDDAV:  cpu time      0.5532: real time      0.5574
       DOS:  cpu time      0.0009: real time      0.0009
    CHARGE:  cpu time      0.0949: real time      0.0955
    MIXING:  cpu time      0.0020: real time      0.0020
    --------------------------------------------
      LOOP:  cpu time      0.6765: real time      0.6816

 eigenvalue-minimisations  :  1312
 total energy-change (2. order) :-0.1141892E+00  (-0.9455220E-02)
 number of electron     132.0001846 magnetization       0.6319227
 augmentation part       84.3135560 magnetization       0.1952082

 Broyden mixing:
  rms(total) = 0.41161E-01    rms(broyden)= 0.41138E-01
  rms(prec ) = 0.44234E-01
  weight for this iteration     100.00

 eigenvalues of (default mixing * dielectric matrix)
  average eigenvalue GAMMA=   1.7400
 11.6749  3.2120  1.9031  0.9728  0.9728  0.7171  0.7171  0.6893  0.5346  0.1561
  0.4062  0.3283  0.3355

 Free energy of the ion-electron system (eV)
  ---------------------------------------------------
  alpha Z        PSCENC =       331.96717463
  Ewald energy   TEWEN  =     60494.36950923
  -Hartree energ DENC   =    -76582.96801131
  -exchange      EXHF   =         0.00000000
  -V(xc)+E(xc)   XCENC  =       534.68863885
  PAW double counting   =     15589.27374129   -16877.85312741
  entropy T*S    EENTRO =         0.00739582
  eigenvalues    EBANDS =      -222.30645160
  atomic energy  EATOM  =     16691.49168240
  Solvation  Ediel_sol  =         0.00000000
  ---------------------------------------------------
  free energy    TOTEN  =       -41.32944812 eV

  energy without entropy =      -41.33684394  energy(sigma->0) =      -41.33191339


--------------------------------------------------------------------------------------------------------




--------------------------------------- Iteration      1(  19)  ---------------------------------------


    POTLOK:  cpu time      0.0197: real time      0.0199
    SETDIJ:  cpu time      0.0060: real time      0.0060
     EDDAV:  cpu time      0.5489: real time      0.5533
       DOS:  cpu time      0.0009: real time      0.0009
    CHARGE:  cpu time      0.0955: real time      0.0959
    MIXING:  cpu time      0.0021: real time      0.0021
    --------------------------------------------
      LOOP:  cpu time      0.6731: real time      0.6782

 eigenvalue-minimisations  :  1288
 total energy-change (2. order) :-0.5103209E-01  (-0.3144443E-02)
 number of electron     132.0001846 magnetization       0.5346003
 augmentation part       84.2669992 magnetization       0.1970153

 Broyden mixing:
  rms(total) = 0.28778E-01    rms(broyden)= 0.28759E-01
  rms(prec ) = 0.35167E-01
  weight for this iteration     100.00

 eigenvalues of (default mixing * dielectric matrix)
  average eigenvalue GAMMA=   1.7138
 11.9370  3.3593  2.2618  1.0181  1.0181  0.7662  0.7662  0.6497  0.5007  0.5007
  0.1561  0.4019  0.3284  0.3284

 Free energy of the ion-electron system (eV)
  ---------------------------------------------------
  alpha Z        PSCENC =       331.96717463
  Ewald energy   TEWEN  =     60494.36950923
  -Hartree energ DENC   =    -76576.18083255
  -exchange      EXHF   =         0.00000000
  -V(xc)+E(xc)   XCENC  =       534.65327220
  PAW double counting   =     15609.22651746   -16899.85934071
  entropy T*S    EENTRO =        -0.00135722
  eigenvalues    EBANDS =      -227.04710564
  atomic energy  EATOM  =     16691.49168240
  Solvation  Ediel_sol  =         0.00000000
  ---------------------------------------------------
  free energy    TOTEN  =       -41.38048021 eV

  energy without entropy =      -41.37912299  energy(sigma->0) =      -41.38002780


--------------------------------------------------------------------------------------------------------




--------------------------------------- Iteration      1(  20)  ---------------------------------------


    POTLOK:  cpu time      0.0197: real time      0.0199
    SETDIJ:  cpu time      0.0059: real time      0.0060
     EDDAV:  cpu time      0.5614: real time      0.5661
       DOS:  cpu time      0.0010: real time      0.0010
    CHARGE:  cpu time      0.0919: real time      0.0923
    MIXING:  cpu time      0.0024: real time      0.0024
    --------------------------------------------
      LOOP:  cpu time      0.6823: real time      0.6878

 eigenvalue-minimisations  :  1336
 total energy-change (2. order) :-0.2259509E-01  (-0.1306954E-02)
 number of electron     132.0001845 magnetization       0.4066073
 augmentation part       84.2490831 magnetization       0.1379195

 Broyden mixing:
  rms(total) = 0.20610E-01    rms(broyden)= 0.20595E-01
  rms(prec ) = 0.23294E-01
  weight for this iteration     100.00

 eigenvalues of (default mixing * dielectric matrix)
  average eigenvalue GAMMA=   1.7337
 12.3299  3.6912  2.6776  1.1347  1.1347  0.8384  0.8384  0.6120  0.5855  0.5855
  0.1561  0.3977  0.3734  0.3312  0.3184

 Free energy of the ion-electron system (eV)
  ---------------------------------------------------
  alpha Z        PSCENC =       331.96717463
  Ewald energy   TEWEN  =     60494.36950923
  -Hartree energ DENC   =    -76570.12188314
  -exchange      EXHF   =         0.00000000
  -V(xc)+E(xc)   XCENC  =       534.62087965
  PAW double counting   =     15617.51696799   -16909.08367171
  entropy T*S    EENTRO =        -0.00488870
  eigenvalues    EBANDS =      -232.15884564
  atomic energy  EATOM  =     16691.49168240
  Solvation  Ediel_sol  =         0.00000000
  ---------------------------------------------------
  free energy    TOTEN  =       -41.40307530 eV

  energy without entropy =      -41.39818659  energy(sigma->0) =      -41.40144573


--------------------------------------------------------------------------------------------------------




--------------------------------------- Iteration      1(  21)  ---------------------------------------


    POTLOK:  cpu time      0.0198: real time      0.0200
    SETDIJ:  cpu time      0.0058: real time      0.0058
     EDDAV:  cpu time      0.5174: real time      0.5214
       DOS:  cpu time      0.0010: real time      0.0010
    CHARGE:  cpu time      0.0919: real time      0.0923
    MIXING:  cpu time      0.0024: real time      0.0024
    --------------------------------------------
      LOOP:  cpu time      0.6383: real time      0.6429

 eigenvalue-minimisations  :  1200
 total energy-change (2. order) :-0.4210059E-01  (-0.1144034E-02)
 number of electron     132.0001845 magnetization       0.2719292
 augmentation part       84.2472664 magnetization       0.0893619

 Broyden mixing:
  rms(total) = 0.16253E-01    rms(broyden)= 0.16242E-01
  rms(prec ) = 0.17494E-01
  weight for this iteration     100.00

 eigenvalues of (default mixing * dielectric matrix)
  average eigenvalue GAMMA=   1.7556
 12.6306  3.4562  3.4562  1.5567  1.0924  0.8908  0.8908  0.6891  0.6355  0.6355
  0.5853  0.1561  0.4043  0.3622  0.3304  0.3179

 Free energy of the ion-electron system (eV)
  ---------------------------------------------------
  alpha Z        PSCENC =       331.96717463
  Ewald energy   TEWEN  =     60494.36950923
  -Hartree energ DENC   =    -76561.20176958
  -exchange      EXHF   =         0.00000000
  -V(xc)+E(xc)   XCENC  =       534.54618156
  PAW double counting   =     15622.39947895   -16914.56500923
  entropy T*S    EENTRO =        -0.00741195
  eigenvalues    EBANDS =      -240.44501188
  atomic energy  EATOM  =     16691.49168240
  Solvation  Ediel_sol  =         0.00000000
  ---------------------------------------------------
  free energy    TOTEN  =       -41.44517588 eV

  energy without entropy =      -41.43776393  energy(sigma->0) =      -41.44270523


--------------------------------------------------------------------------------------------------------




--------------------------------------- Iteration      1(  22)  ---------------------------------------


    POTLOK:  cpu time      0.0196: real time      0.0199
    SETDIJ:  cpu time      0.0058: real time      0.0058
     EDDAV:  cpu time      0.5323: real time      0.5365
       DOS:  cpu time      0.0009: real time      0.0009
    CHARGE:  cpu time      0.0926: real time      0.0930
    MIXING:  cpu time      0.0024: real time      0.0024
    --------------------------------------------
      LOOP:  cpu time      0.6536: real time      0.6585

 eigenvalue-minimisations  :  1248
 total energy-change (2. order) :-0.7237785E-01  (-0.4361615E-03)
 number of electron     132.0001845 magnetization       0.1657625
 augmentation part       84.2452617 magnetization       0.0349739

 Broyden mixing:
  rms(total) = 0.14995E-01    rms(broyden)= 0.14989E-01
  rms(prec ) = 0.18486E-01
  weight for this iteration     100.00

 eigenvalues of (default mixing * dielectric matrix)
  average eigenvalue GAMMA=   1.7866
 12.8866  4.4331  2.8930  2.2020  0.9957  0.9957  1.0102  0.8915  0.6145  0.6145
  0.6730  0.5896  0.1561  0.4053  0.3623  0.3299  0.3184

 Free energy of the ion-electron system (eV)
  ---------------------------------------------------
  alpha Z        PSCENC =       331.96717463
  Ewald energy   TEWEN  =     60494.36950923
  -Hartree energ DENC   =    -76556.86050916
  -exchange      EXHF   =         0.00000000
  -V(xc)+E(xc)   XCENC  =       534.44843130
  PAW double counting   =     15625.96893469   -16918.24674989
  entropy T*S    EENTRO =        -0.00995214
  eigenvalues    EBANDS =      -244.64607479
  atomic energy  EATOM  =     16691.49168240
  Solvation  Ediel_sol  =         0.00000000
  ---------------------------------------------------
  free energy    TOTEN  =       -41.51755373 eV

  energy without entropy =      -41.50760159  energy(sigma->0) =      -41.51423635


--------------------------------------------------------------------------------------------------------




--------------------------------------- Iteration      1(  23)  ---------------------------------------


    POTLOK:  cpu time      0.0197: real time      0.0199
    SETDIJ:  cpu time      0.0058: real time      0.0058
     EDDAV:  cpu time      0.5740: real time      0.5789
       DOS:  cpu time      0.0009: real time      0.0009
    CHARGE:  cpu time      0.0917: real time      0.0921
    MIXING:  cpu time      0.0026: real time      0.0026
    --------------------------------------------
      LOOP:  cpu time      0.6947: real time      0.7003

 eigenvalue-minimisations  :  1376
 total energy-change (2. order) :-0.6265630E-01  (-0.9793841E-03)
 number of electron     132.0001846 magnetization       0.1436916
 augmentation part       84.2880229 magnetization       0.0939716

 Broyden mixing:
  rms(total) = 0.15743E-01    rms(broyden)= 0.15727E-01
  rms(prec ) = 0.19163E-01
  weight for this iteration     100.00

 eigenvalues of (default mixing * dielectric matrix)
  average eigenvalue GAMMA=   1.8310
 13.1209  4.9346  3.7039  2.5085  1.1372  1.1372  0.9089  0.9089  0.6185  0.6185
  0.6632  0.6274  0.1561  0.4961  0.4074  0.3618  0.3297  0.3186

 Free energy of the ion-electron system (eV)
  ---------------------------------------------------
  alpha Z        PSCENC =       331.96717463
  Ewald energy   TEWEN  =     60494.36950923
  -Hartree energ DENC   =    -76546.24993290
  -exchange      EXHF   =         0.00000000
  -V(xc)+E(xc)   XCENC  =       534.34282178
  PAW double counting   =     15617.24377471   -16908.68799935
  entropy T*S    EENTRO =        -0.00808385
  eigenvalues    EBANDS =      -256.04915667
  atomic energy  EATOM  =     16691.49168240
  Solvation  Ediel_sol  =         0.00000000
  ---------------------------------------------------
  free energy    TOTEN  =       -41.58021003 eV

  energy without entropy =      -41.57212618  energy(sigma->0) =      -41.57751541


--------------------------------------------------------------------------------------------------------




--------------------------------------- Iteration      1(  24)  ---------------------------------------


    POTLOK:  cpu time      0.0275: real time      0.0278
    SETDIJ:  cpu time      0.0061: real time      0.0061
     EDDAV:  cpu time      0.5016: real time      0.5055
       DOS:  cpu time      0.0010: real time      0.0010
    CHARGE:  cpu time      0.0958: real time      0.0964
    MIXING:  cpu time      0.0026: real time      0.0027
    --------------------------------------------
      LOOP:  cpu time      0.6346: real time      0.6393

 eigenvalue-minimisations  :  1128
 total energy-change (2. order) :-0.5806746E-01  (-0.1646101E-03)
 number of electron     132.0001846 magnetization       0.0935581
 augmentation part       84.2690697 magnetization       0.0383921

 Broyden mixing:
  rms(total) = 0.90011E-02    rms(broyden)= 0.89979E-02
  rms(prec ) = 0.10634E-01
  weight for this iteration     100.00

 eigenvalues of (default mixing * dielectric matrix)
  average eigenvalue GAMMA=   1.8541
 13.3055  5.5254  4.0316  2.6078  1.4543  0.9530  0.9530  0.9091  0.9091  0.7036
  0.5998  0.5998  0.6100  0.1561  0.4928  0.4075  0.3615  0.3297  0.3185

 Free energy of the ion-electron system (eV)
  ---------------------------------------------------
  alpha Z        PSCENC =       331.96717463
  Ewald energy   TEWEN  =     60494.36950923
  -Hartree energ DENC   =    -76547.77475597
  -exchange      EXHF   =         0.00000000
  -V(xc)+E(xc)   XCENC  =       534.31794978
  PAW double counting   =     15617.19448636   -16908.55142491
  entropy T*S    EENTRO =        -0.00989114
  eigenvalues    EBANDS =      -254.64300786
  atomic energy  EATOM  =     16691.49168240
  Solvation  Ediel_sol  =         0.00000000
  ---------------------------------------------------
  free energy    TOTEN  =       -41.63827749 eV

  energy without entropy =      -41.62838635  energy(sigma->0) =      -41.63498044


--------------------------------------------------------------------------------------------------------




--------------------------------------- Iteration      1(  25)  ---------------------------------------


    POTLOK:  cpu time      0.0204: real time      0.0207
    SETDIJ:  cpu time      0.0058: real time      0.0058
     EDDAV:  cpu time      0.4910: real time      0.4950
       DOS:  cpu time      0.0009: real time      0.0009
    CHARGE:  cpu time      0.0921: real time      0.0925
    MIXING:  cpu time      0.0029: real time      0.0029
    --------------------------------------------
      LOOP:  cpu time      0.6133: real time      0.6180

 eigenvalue-minimisations  :  1112
 total energy-change (2. order) :-0.4654319E-01  (-0.1996390E-03)
 number of electron     132.0001846 magnetization       0.0428904
 augmentation part       84.2593322 magnetization       0.0090295

 Broyden mixing:
  rms(total) = 0.59012E-02    rms(broyden)= 0.58962E-02
  rms(prec ) = 0.78051E-02
  weight for this iteration     100.00

 eigenvalues of (default mixing * dielectric matrix)
  average eigenvalue GAMMA=   1.9373
 13.6497  6.8594  4.2134  2.5129  2.1758  1.0740  1.0740  0.9386  0.9386  0.7698
  0.6897  0.5870  0.5870  0.6174  0.1561  0.4843  0.4078  0.3615  0.3297  0.3186

 Free energy of the ion-electron system (eV)
  ---------------------------------------------------
  alpha Z        PSCENC =       331.96717463
  Ewald energy   TEWEN  =     60494.36950923
  -Hartree energ DENC   =    -76545.03201689
  -exchange      EXHF   =         0.00000000
  -V(xc)+E(xc)   XCENC  =       534.28545258
  PAW double counting   =     15617.59785413   -16909.04914116
  entropy T*S    EENTRO =        -0.01005779
  eigenvalues    EBANDS =      -257.30527782
  atomic energy  EATOM  =     16691.49168240
  Solvation  Ediel_sol  =         0.00000000
  ---------------------------------------------------
  free energy    TOTEN  =       -41.68482069 eV

  energy without entropy =      -41.67476290  energy(sigma->0) =      -41.68146809


--------------------------------------------------------------------------------------------------------




--------------------------------------- Iteration      1(  26)  ---------------------------------------


    POTLOK:  cpu time      0.0200: real time      0.0202
    SETDIJ:  cpu time      0.0058: real time      0.0059
     EDDAV:  cpu time      0.4523: real time      0.4561
       DOS:  cpu time      0.0009: real time      0.0009
    CHARGE:  cpu time      0.0940: real time      0.0944
    MIXING:  cpu time      0.0030: real time      0.0030
    --------------------------------------------
      LOOP:  cpu time      0.5760: real time      0.5805

 eigenvalue-minimisations  :   984
 total energy-change (2. order) :-0.2833252E-01  (-0.1219069E-03)
 number of electron     132.0001845 magnetization       0.0228553
 augmentation part       84.2475125 magnetization       0.0032975

 Broyden mixing:
  rms(total) = 0.58300E-02    rms(broyden)= 0.58282E-02
  rms(prec ) = 0.68362E-02
  weight for this iteration     100.00

 eigenvalues of (default mixing * dielectric matrix)
  average eigenvalue GAMMA=   2.0575
 14.4218  8.9461  4.1030  2.9493  2.5823  1.1568  1.1568  0.9459  0.9459  0.7662
  0.7662  0.5910  0.5910  0.6224  0.6224  0.1561  0.4659  0.4081  0.3616  0.3297
  0.3186

 Free energy of the ion-electron system (eV)
  ---------------------------------------------------
  alpha Z        PSCENC =       331.96717463
  Ewald energy   TEWEN  =     60494.36950923
  -Hartree energ DENC   =    -76543.25087380
[...]
     83       9.3736      0.00000
     84       9.7655      0.00000
     85       9.8436      0.00000
     86      10.2179      0.00000
     87      10.3234      0.00000
     88      10.3942      0.00000

 k-point     3 :       0.3333    0.3333    0.0000
  band No.  band energies     occupation 
      1      -5.8337      1.00000
      2      -5.1512      1.00000
      3      -4.3647      1.00000
      4      -3.7947      1.00000
      5      -3.7852      1.00000
      6      -3.7204      1.00000
      7      -3.7096      1.00000
      8      -3.6381      1.00000
      9      -3.2953      1.00000
     10      -3.2583      1.00000
     11      -3.1895      1.00000
     12      -3.0873      1.00000
     13      -2.9035      1.00000
     14      -2.6580      1.00000
     15      -2.6552      1.00000
     16      -2.5263      1.00000
     17      -2.5186      1.00000
     18      -2.4881      1.00000
     19      -2.3687      1.00000
     20      -2.2841      1.00000
     21      -2.2459      1.00000
     22      -2.1990      1.00000
     23      -2.1864      1.00000
     24      -2.0822      1.00000
     25      -2.0689      1.00000
     26      -2.0389      1.00000
     27      -2.0330      1.00000
     28      -1.9818      1.00000
     29      -1.9703      1.00000
     30      -1.9683      1.00000
     31      -1.8686      1.00000
     32      -1.8486      1.00000
     33      -1.8068      1.00000
     34      -1.7989      1.00000
     35      -1.7839      1.00000
     36      -1.7627      1.00000
     37      -1.6740      1.00000
     38      -1.6647      1.00000
     39      -1.5902      1.00000
     40      -1.5779      1.00000
     41      -1.5119      1.00000
     42      -1.4407      1.00000
     43      -1.4358      1.00000
     44      -1.4160      1.00000
     45      -1.3971      1.00000
     46      -1.3550      1.00000
     47      -1.1040      1.00000
     48      -1.0666      1.00000
     49      -1.0539      1.00000
     50      -0.9308      1.00000
     51      -0.9236      1.00000
     52      -0.9010      1.00000
     53      -0.8744      1.00000
     54      -0.8422      1.00000
     55      -0.7227      1.00000
     56      -0.7061      1.00000
     57      -0.6891      1.00000
     58      -0.6544      1.00000
     59      -0.6537      1.00000
     60      -0.5915      1.00000
     61      -0.5800      1.00000
     62      -0.5522      1.00000
     63      -0.5400      1.00000
     64       0.2886      1.00000
     65       0.9871      1.03413
     66       0.9967      1.03508
     67       1.3821      0.05837
     68       1.3858      0.05124
     69       1.9588     -0.00000
     70       1.9712     -0.00000
     71       2.1364     -0.00000
     72       3.8261     -0.00000
     73       4.5651     -0.00000
     74       4.6577     -0.00000
     75       4.8605     -0.00000
     76       5.2245     -0.00000
     77       6.4861     -0.00000
     78       6.6154     -0.00000
     79       6.6844     -0.00000
     80       6.8970      0.00000
     81       7.7997      0.00000
     82       7.8942      0.00000
     83       8.4752      0.00000
     84       8.6347      0.00000
     85       8.6693      0.00000
     86       9.2054      0.00000
     87      10.0273      0.00000
     88      10.2833      0.00000


--------------------------------------------------------------------------------------------------------


 soft charge-density along one line, spin component           1
         0         1         2         3         4         5         6         7         8         9
 total charge-density along one line
 
 soft charge-density along one line, spin component           2
         0         1         2         3         4         5         6         7         8         9
 total charge-density along one line
 
 pseudopotential strength for first ion, spin component:           1
 -7.532  -0.000  -0.000  -0.000   0.000  -1.230   0.000   0.000
 -0.000  -7.478  -0.000   0.000   0.000   0.000  -1.272   0.000
 -0.000  -0.000  -7.457  -0.000   0.000   0.000   0.000  -1.288
 -0.000   0.000  -0.000  -7.478  -0.000   0.000  -0.000   0.000
  0.000   0.000   0.000  -0.000  -7.511  -0.000  -0.000  -0.000
 -1.230   0.000   0.000   0.000  -0.000   7.855  -0.000  -0.000
  0.000  -1.272   0.000  -0.000  -0.000  -0.000   7.885  -0.000
  0.000   0.000  -1.288   0.000  -0.000  -0.000  -0.000   7.897
  0.000  -0.000   0.000  -1.272   0.000  -0.000   0.000  -0.000
 -0.000  -0.000  -0.000   0.000  -1.245   0.000   0.000   0.000
 -0.000   0.000  -0.009   0.000   0.000  -0.000   0.000   0.003
 -0.000   0.000  -0.016   0.000   0.000  -0.000   0.000   0.006
  0.000  -0.014  -0.000   0.000  -0.000  -0.000   0.012   0.000
  0.000   0.000  -0.015   0.000  -0.000   0.000  -0.000   0.012
  0.000   0.000  -0.000  -0.014   0.000  -0.000   0.000   0.000
  0.000  -0.016  -0.000  -0.000  -0.000   0.000   0.014  -0.000
 -0.000   0.000  -0.017   0.000   0.000   0.000   0.000   0.014
  0.000  -0.000  -0.000  -0.016   0.000   0.000   0.000  -0.000
 pseudopotential strength for first ion, spin component:           2
 -7.532  -0.000  -0.000  -0.000   0.000  -1.230   0.000   0.000
 -0.000  -7.478  -0.000   0.000   0.000   0.000  -1.272   0.000
 -0.000  -0.000  -7.457  -0.000   0.000   0.000   0.000  -1.288
 -0.000   0.000  -0.000  -7.478  -0.000   0.000  -0.000   0.000
  0.000   0.000   0.000  -0.000  -7.511  -0.000  -0.000  -0.000
 -1.230   0.000   0.000   0.000  -0.000   7.855  -0.000  -0.000
  0.000  -1.272   0.000  -0.000  -0.000  -0.000   7.885  -0.000
  0.000   0.000  -1.288   0.000  -0.000  -0.000  -0.000   7.897
  0.000  -0.000   0.000  -1.272   0.000  -0.000   0.000  -0.000
 -0.000  -0.000  -0.000   0.000  -1.245   0.000   0.000   0.000
 -0.000   0.000  -0.009   0.000   0.000  -0.000   0.000   0.003
 -0.000   0.000  -0.016   0.000   0.000  -0.000   0.000   0.006
  0.000  -0.014  -0.000  -0.000  -0.000  -0.000   0.012   0.000
 -0.000   0.000  -0.015   0.000  -0.000  -0.000  -0.000   0.012
  0.000  -0.000  -0.000  -0.014   0.000  -0.000  -0.000   0.000
  0.000  -0.016  -0.000   0.000  -0.000   0.000   0.014  -0.000
  0.000   0.000  -0.017   0.000   0.000  -0.000   0.000   0.014
  0.000   0.000  -0.000  -0.016   0.000   0.000  -0.000  -0.000
 total augmentation occupancy for first ion, spin component:           1
  1.904   0.000   0.000   0.000   0.000  -0.005   0.000   0.000   0.000   0.000   0.000   0.000   0.000   0.000   0.000   0.000
  0.000   1.929   0.000   0.000  -0.000  -0.000  -0.025  -0.000  -0.000  -0.000   0.000  -0.000   0.028  -0.000   0.000  -0.016
  0.000  -0.000   1.942   0.000   0.000   0.000   0.000  -0.035   0.000  -0.000   0.015   0.008   0.000   0.040  -0.000   0.000
  0.000   0.000  -0.000   1.929   0.000   0.000   0.000   0.000  -0.025  -0.000   0.000   0.000   0.000   0.000   0.028  -0.000
  0.000   0.000   0.000   0.000   1.921   0.000  -0.000   0.000  -0.000  -0.030   0.000   0.000  -0.000   0.000   0.000   0.000
 -0.005  -0.000   0.000   0.000   0.000   0.012   0.000   0.000  -0.000  -0.000   0.000   0.000   0.000   0.000  -0.000   0.000
  0.000  -0.025  -0.000   0.000   0.000  -0.000   0.010   0.000   0.000  -0.000   0.000   0.000   0.022   0.000  -0.000  -0.001
  0.000   0.000  -0.035   0.000   0.000   0.000  -0.000   0.011   0.000  -0.000  -0.034   0.002   0.000   0.018   0.000   0.000
  0.000   0.000   0.000  -0.025   0.000   0.000   0.000  -0.000   0.010   0.000   0.000   0.000  -0.000   0.000   0.022   0.000
 -0.000  -0.000   0.000   0.000  -0.030  -0.000   0.000   0.000   0.000   0.011   0.000   0.000   0.000   0.000   0.000  -0.000
  0.000  -0.000   0.015  -0.000   0.000   0.000   0.000  -0.034   0.000   0.000   1.630  -0.124  -0.000   0.157   0.000  -0.000
  0.000   0.000   0.008  -0.000   0.000   0.000   0.000   0.002   0.000   0.000  -0.124   0.015   0.000  -0.024  -0.000   0.000
  0.000   0.028  -0.000   0.000   0.000   0.000   0.022   0.000   0.000   0.000  -0.000   0.000   0.177   0.000   0.000  -0.011
  0.000   0.000   0.040   0.000  -0.000   0.000   0.000   0.018   0.000   0.000   0.157  -0.024   0.000   0.111   0.000  -0.000
  0.000  -0.000  -0.000   0.028   0.000  -0.000   0.000  -0.000   0.022  -0.000   0.000   0.000   0.000   0.000   0.177  -0.000
  0.000  -0.016   0.000   0.000   0.000  -0.000  -0.001  -0.000   0.000  -0.000   0.000  -0.000  -0.011   0.000   0.000   0.001
  0.000   0.000  -0.019   0.000   0.000   0.000   0.000  -0.001   0.000   0.000  -0.022   0.003  -0.000  -0.008   0.000   0.000
  0.000  -0.000   0.000  -0.016   0.000   0.000   0.000  -0.000  -0.001   0.000  -0.000  -0.000   0.000   0.000  -0.011   0.000
 total augmentation occupancy for first ion, spin component:           2
 -0.000   0.000  -0.000   0.000  -0.000  -0.000   0.000   0.000   0.000  -0.000  -0.000   0.000   0.000   0.000   0.000   0.000
  0.000   0.000  -0.000   0.000   0.000   0.000   0.000   0.000   0.000   0.000   0.000  -0.000  -0.000   0.000  -0.000   0.000
 -0.000   0.000   0.000  -0.000  -0.000   0.000   0.000   0.000  -0.000   0.000  -0.000  -0.000  -0.000  -0.000   0.000  -0.000
  0.000   0.000   0.000   0.000   0.000   0.000   0.000  -0.000   0.000   0.000  -0.000   0.000  -0.000  -0.000  -0.000   0.000
  0.000   0.000  -0.000   0.000   0.000   0.000   0.000   0.000   0.000   0.000   0.000   0.000   0.000   0.000   0.000   0.000
 -0.000   0.000   0.000   0.000   0.000  -0.000   0.000   0.000   0.000   0.000   0.000   0.000   0.000   0.000   0.000   0.000
  0.000   0.000   0.000   0.000   0.000   0.000  -0.000   0.000   0.000  -0.000   0.000  -0.000   0.000   0.000   0.000   0.000
  0.000  -0.000   0.000   0.000   0.000   0.000   0.000   0.000   0.000   0.000  -0.000   0.000   0.000   0.000   0.000   0.000
 -0.000   0.000   0.000   0.000   0.000   0.000   0.000   0.000  -0.000   0.000   0.000  -0.000   0.000   0.000   0.000   0.000
  0.000   0.000   0.000   0.000   0.000   0.000   0.000   0.000   0.000  -0.000  -0.000   0.000  -0.000   0.000   0.000   0.000
 -0.000   0.000  -0.000   0.000   0.000   0.000  -0.000  -0.000   0.000  -0.000  -0.000   0.000  -0.000  -0.000  -0.000   0.000
  0.000   0.000  -0.000   0.000   0.000   0.000  -0.000   0.000   0.000   0.000   0.000  -0.000   0.000   0.000   0.000  -0.000
  0.000  -0.000   0.000  -0.000   0.000   0.000   0.000   0.000   0.000   0.000   0.000   0.000  -0.000   0.000   0.000   0.000
  0.000  -0.000  -0.000  -0.000   0.000   0.000   0.000   0.000   0.000   0.000  -0.000   0.000   0.000  -0.000   0.000  -0.000
  0.000  -0.000   0.000  -0.000  -0.000   0.000   0.000   0.000   0.000  -0.000  -0.000   0.000   0.000  -0.000  -0.000   0.000
  0.000   0.000  -0.000   0.000   0.000   0.000   0.000  -0.000   0.000   0.000   0.000  -0.000   0.000   0.000   0.000  -0.000
  0.000   0.000   0.000  -0.000   0.000   0.000   0.000  -0.000   0.000   0.000   0.000  -0.000  -0.000   0.000   0.000   0.000
  0.000   0.000  -0.000   0.000   0.000  -0.000   0.000  -0.000   0.000  -0.000   0.000  -0.000   0.000  -0.000   0.000   0.000


------------------------ aborting loop because EDIFF is reached ----------------------------------------



 DIPCOR: dipole corrections for dipol
 direction  3 min pos   159,
 dipolmoment           0.000000      0.000000     -0.003043 electrons x Angstroem
 Tr[quadrupol]      -433.499986

 energy correction for charged system         0.000000 eV
 dipol+quadrupol energy correction            0.000003 eV
 added-field ion interaction          0.000000 eV  (added to PSCEN)

 
  *************** adding dipol energy to TOTEN NOW **************** 
    CHARGE:  cpu time      0.0961: real time      0.0969
    FORLOC:  cpu time      0.0020: real time      0.0020
    FORNL :  cpu time      0.2894: real time      0.2908
    STRESS:  cpu time      0.2726: real time      0.2742
    FORCOR:  cpu time      0.0201: real time      0.0202
    FORHAR:  cpu time      0.0033: real time      0.0033
    MIXING:  cpu time      0.0005: real time      0.0005
    OFIELD:  cpu time      0.0000: real time      0.0000

 ---------------------------------------------------------------------------------------------

         DFTD3 V3.0 Rev 1        
 Edisp (eV)   -4.75143

 E6    (eV) :    -1.8870
 E8    (eV) :    -2.8644
 % E8        : 60.29
    FORVDW:  cpu time      0.0499: real time      0.0504

  FORCE on cell =-STRESS in cart. coord.  units (eV):
  Direction    XX          YY          ZZ          XY          YZ          ZX
  --------------------------------------------------------------------------------------
  Alpha Z   331.96717   331.96717   331.96717
  Ewald   75052.71719 75052.71719-83828.03048    -0.00000    -0.00000     0.00000
  Hartree 79577.35655 79577.35655-76821.94479    -0.00000    -0.00000    -0.00000
  E(xc)    -771.59565  -771.59565  -772.54665    -0.00000     0.00000     0.00000
  Local  ************************159133.02350     0.00000    -0.00000    -0.00000
  n-local  -247.18343  -258.73103  -256.99200     3.22570     0.00000     0.00000
  augment  1135.60662  1135.60662  1136.88202     0.00000    -0.00000     0.00000
  Kinetic  1089.91203  1068.93006  1079.59587    -4.92060    -0.00000    -0.00000
  Fock        0.00000     0.00000     0.00000     0.00000     0.00000     0.00000
  vdW        -5.81079    -5.81079    -4.09597    -0.00000     0.00000     0.00000
  -------------------------------------------------------------------------------------
  Total      -1.70800    -1.70800    -2.14133     0.00000    -0.00000     0.00000
  in kB      -8.62619    -8.62619   -10.81471     0.00000    -0.00000     0.00000
  external pressure =       -9.36 kB  Pullay stress =        0.00 kB


 VOLUME and BASIS-vectors are now :
 -----------------------------------------------------------------------------
  energy-cutoff  :      400.00
  volume of cell :      317.23
      direct lattice vectors                 reciprocal lattice vectors
     3.630000114  0.000000000  0.000000000     0.275482085  0.000000000  0.000000000
     0.000000000  3.630000114  0.000000000     0.000000000  0.275482085  0.000000000
     0.000000000  0.000000000 24.075000000     0.000000000  0.000000000  0.041536864

  length of vectors
     3.630000114  3.630000114 24.075000000     0.275482085  0.275482085  0.041536864


 FORCES acting on ions
    electron-ion (+dipol)            ewald-force                    non-local-force                 convergence-correction
 -----------------------------------------------------------------------------------------------
   -.763E-13 -.168E-13 0.464E+04   -.924E-07 -.924E-07 -.463E+04   -.331E-23 -.165E-22 -.348E+01   0.171E-11 0.165E-11 -.330E+00
   0.774E-06 0.774E-06 0.464E+04   0.924E-07 0.924E-07 -.463E+04   0.165E-23 0.000E+00 -.348E+01   -.293E-10 -.290E-10 -.330E+00
   -.339E-13 0.751E-06 0.286E+04   -.130E-06 0.130E-06 -.286E+04   -.331E-23 -.491E-23 -.173E+01   0.326E-10 -.103E-09 0.196E+00
   0.751E-06 -.582E-12 0.286E+04   0.130E-06 -.130E-06 -.286E+04   0.000E+00 -.165E-23 -.173E+01   -.103E-09 0.327E-10 0.196E+00
   -.100E-13 -.608E-12 0.966E+03   -.138E-06 -.138E-06 -.968E+03   -.165E-23 0.000E+00 0.588E+00   0.794E-11 0.798E-11 0.103E+01
   0.747E-06 0.747E-06 0.966E+03   0.138E-06 0.138E-06 -.968E+03   0.000E+00 0.000E+00 0.588E+00   -.174E-09 -.174E-09 0.103E+01
   -.176E-13 0.747E-06 -.943E+03   -.138E-06 0.138E-06 0.942E+03   0.529E-22 0.000E+00 -.587E+00   0.851E-10 -.130E-09 0.166E+01
   0.747E-06 0.220E-12 -.943E+03   0.138E-06 -.138E-06 0.942E+03   0.000E+00 0.000E+00 -.587E+00   -.130E-09 0.843E-10 0.166E+01
   -.264E-13 -.202E-12 -.285E+04   -.135E-06 -.135E-06 0.285E+04   -.347E-22 -.132E-21 0.131E+01   -.541E-11 -.550E-11 0.104E+01
   0.747E-06 0.747E-06 -.285E+04   0.135E-06 0.135E-06 0.285E+04   0.000E+00 0.529E-22 0.131E+01   0.154E-09 0.154E-09 0.104E+01
   -.507E-13 0.771E-06 -.467E+04   -.978E-07 0.978E-07 0.467E+04   0.265E-22 -.529E-22 0.371E+01   -.116E-09 0.228E-09 0.157E+00
   0.771E-06 -.207E-12 -.467E+04   0.978E-07 -.978E-07 0.467E+04   -.265E-22 0.000E+00 0.371E+01   0.228E-09 -.116E-09 0.157E+00
 -----------------------------------------------------------------------------------------------
   0.454E-05 0.454E-05 -.727E+01   -.119E-13 -.355E-13 0.182E-11   0.116E-22 -.155E-21 -.402E+00   -.493E-10 -.489E-10 0.750E+01
 
 
 POSITION                                       TOTAL-FORCE (eV/Angst)
 -----------------------------------------------------------------------------------
      0.00000      0.00000      0.00000         0.000000      0.000000      0.360579
      1.81500      1.81500      0.00000         0.000000     -0.000000      0.360579
      0.00000      1.81500      1.81500         0.000000      0.000000     -0.316689
      1.81500      0.00000      1.81500         0.000000      0.000000     -0.316689
      0.00000     -0.00000      3.52290         0.000000      0.000000     -0.028554
      1.81500      1.81500      3.52290        -0.000000      0.000000     -0.028554
      0.00000      1.81500      5.22955         0.000000     -0.000000      0.010877
      1.81500      0.00000      5.22955         0.000000     -0.000000      0.010877
     -0.00000     -0.00000      6.93612         0.000000      0.000000      0.000121
      1.81500      1.81500      6.93612        -0.000000      0.000000      0.000121
      0.00000      1.81500      8.66232         0.000000     -0.000000     -0.026334
      1.81500      0.00000      8.66232        -0.000000      0.000000     -0.026334
 -----------------------------------------------------------------------------------
    total drift:                                0.000005      0.000005     -0.170832


--------------------------------------------------------------------------------------------------------



  FREE ENERGIE OF THE ION-ELECTRON SYSTEM (eV)
  ---------------------------------------------------
  free  energy   TOTEN  =       -46.44121661 eV

  energy  without entropy=      -46.46564560  energy(sigma->0) =      -46.44935961
 
 d Force = 0.2236740E-05[-0.576E-05, 0.102E-04]  d Energy = 0.4883072E-04-0.466E-04
 d Force = 0.4103048E+01[ 0.410E+01, 0.410E+01]  d Ewald  = 0.4103048E+01 0.153E-07


--------------------------------------------------------------------------------------------------------


    POTLOK:  cpu time      0.0285: real time      0.0286


--------------------------------------------------------------------------------------------------------


 stress matrix after NEB project (eV)
     -1.70800      0.00000      0.00000
      0.00000     -1.70800      0.00000
      0.00000     -0.00000     -2.14133
  FORCES: max atom, RMS     0.028554    0.016468
  FORCE total and by dimension    0.057046    0.028554
  Stress total and by dimension    3.227976    2.141331


--------------------------------------------------------------------------------------------------------


  
 reached required accuracy - stopping structural energy minimisation
     LOOP+:  cpu time      1.8503: real time      1.8813
    4ORBIT:  cpu time      0.0000: real time      0.0000

 total amount of memory used by VASP MPI-rank0    36165. kBytes
=======================================================================

   base      :      30000. kBytes
   nonl-proj :        723. kBytes
   fftplans  :        836. kBytes
   grid      :       1945. kBytes
   one-center:         93. kBytes
   wavefun   :       2568. kBytes
 
  
  
 General timing and accounting informations for this job:
 ========================================================
  
                  Total CPU time used (sec):      126.966
                            User time (sec):      124.083
                          System time (sec):        2.882
                         Elapsed time (sec):      129.300
  
                   Maximum memory used (kb):      234720.
                   Average memory used (kb):          N/A
  
                          Minor page faults:       131626
                          Major page faults:         6489
                 Voluntary context switches:         3146
