<?xml version="1.0" encoding="ISO-8859-1"?>
<modeling>
 <generator>
  <i name="program" type="string">vasp </i>
  <i name="version" type="string">6.3.2  </i>
  <i name="subversion" type="string">27Jun22 (build Aug 17 2022 15:43:34) complex                          parallel </i>
  <i name="platform" type="string">tv2STDVTST </i>
  <i name="date" type="string">2025 01 21 </i>
  <i name="time" type="string">12:30:36 </i>
 </generator>
 <incar>
  <i type="int" name="ISTART">     0</i>
  <i type="string" name="PREC">Normal</i>
  <i type="int" name="ISPIN">     2</i>
  <i type="int" name="ICHARG">     2</i>
  <i type="int" name="IBRION">     2</i>
  <i name="EDIFF">      0.00020000</i>
  <i name="EDIFFG">     -0.03000000</i>
  <i type="int" name="NSW">   800</i>
  <i type="int" name="ISIF">     2</i>
  <i type="int" name="ISYM">     1</i>
  <i name="ENCUT">    400.00000000</i>
  <i name="POTIM">      0.50000000</i>
  <i type="logical" name="LREAL"> F  </i>
  <i type="int" name="ISMEAR">     1</i>
  <i name="SIGMA">      0.20000000</i>
  <i type="logical" name="LWAVE"> F  </i>
  <i type="logical" name="LCHARG"> F  </i>
  <i type="string" name="GGA">PE</i>
  <i type="int" name="IDIPOL">     3</i>
  <i type="int" name="IVDW">    11</i>
 </incar>
 <primitive_cell>
  <structure name="primitive_cell" >
   <crystal>
    <varray name="basis" >
     <v>       1.81500006      -1.81500006       0.00000000 </v>
     <v>       1.81500006       1.81500006       0.00000000 </v>
     <v>       0.00000000       0.00000000      24.07500000 </v>
    </varray>
    <i name="volume">    158.61694373 </i>
    <varray name="rec_basis" >
     <v>       0.27548208      -0.27548208       0.00000000 </v>
     <v>       0.27548209       0.27548208       0.00000000 </v>
     <v>       0.00000000       0.00000000       0.04153686 </v>
    </varray>
   </crystal>
   <varray name="positions" >
    <v>       0.00000000       0.00000000       0.00000000 </v>
    <v>       0.50000000       0.50000000       0.07538941 </v>
    <v>       0.00000000       0.00000000       0.15077882 </v>
    <v>       0.50000000       0.50000000       0.22616823 </v>
    <v>       0.00000000       0.00000000       0.30155764 </v>
    <v>       0.50000000       0.50000000       0.37694705 </v>
   </varray>
  </structure>
  <varray name="primitive_index" >
   <v type="int" >        1 </v>
   <v type="int" >        3 </v>
   <v type="int" >        5 </v>
   <v type="int" >        7 </v>
   <v type="int" >        9 </v>
   <v type="int" >       11 </v>
  </varray>
 </primitive_cell>
 <kpoints>
  <generation param="Monkhorst-Pack">
   <v type="int" name="divisions">       3        3        1 </v>
   <v name="usershift">      0.00000000       0.00000000       0.00000000 </v>
   <v name="genvec1">      0.33333333       0.00000000       0.00000000 </v>
   <v name="genvec2">      0.00000000       0.33333333       0.00000000 </v>
   <v name="genvec3">      0.00000000       0.00000000       1.00000000 </v>
   <v name="shift">      0.00000000       0.00000000       0.00000000 </v>
  </generation>
  <varray name="kpointlist" >
   <v>       0.00000000       0.00000000       0.00000000 </v>
   <v>       0.33333333       0.00000000       0.00000000 </v>
   <v>       0.33333333       0.33333333       0.00000000 </v>
  </varray>
  <varray name="weights" >
   <v>       0.11111111 </v>
   <v>       0.44444444 </v>
   <v>       0.44444444 </v>
  </varray>
 </kpoints>
 <parameters>
  <separator name="general" >
   <i type="string" name="SYSTEM">unknown system</i>
   <i type="logical" name="LCOMPAT"> F  </i>
  </separator>
  <separator name="electronic" >
   <i type="string" name="PREC">normal</i>
   <i name="ENMAX">    400.00000000</i>
   <i name="ENAUG">    586.98000000</i>
   <i name="EDIFF">      0.00020000</i>
   <i type="int" name="IALGO">    38</i>
   <i type="int" name="IWAVPR">    11</i>
   <i type="int" name="NBANDS">    88</i>
   <i type="int" name="NBANDSLOW">    -1</i>
   <i type="int" name="NBANDSHIGH">    -1</i>
   <i name="NELECT">    132.00000000</i>
   <i type="int" name="TURBO">     0</i>
   <i type="int" name="IRESTART">     0</i>
   <i type="int" name="NREBOOT">     0</i>
   <i type="int" name="NMIN">     0</i>
   <i name="EREF">      0.00000000</i>
   <separator name="electronic smearing" >
    <i type="int" name="ISMEAR">     1</i>
    <i name="SIGMA">      0.20000000</i>
    <i name="KSPACING">      0.50000000</i>
    <i type="logical" name="KGAMMA"> T  </i>
    <i type="logical" name="KBLOWUP"> T  </i>
   </separator>
   <separator name="electronic projectors" >
    <i type="logical" name="LREAL"> F  </i>
    <v name="ROPT">      0.00000000</v>
    <i type="int" name="LMAXPAW">  -100</i>
    <i type="int" name="LMAXMIX">     2</i>
    <i type="logical" name="NLSPLINE"> F  </i>
   </separator>
   <separator name="electronic startup" >
    <i type="int" name="ISTART">     0</i>
    <i type="int" name="ICHARG">     2</i>
    <i type="int" name="INIWAV">     1</i>
   </separator>
   <separator name="electronic spin" >
    <i type="int" name="ISPIN">     2</i>
    <i type="logical" name="LNONCOLLINEAR"> F  </i>
    <v name="MAGMOM">      1.00000000      1.00000000      1.00000000      1.00000000      1.00000000      1.00000000      1.00000000      1.00000000      1.00000000      1.00000000      1.00000000      1.00000000</v>
    <i name="NUPDOWN">     -1.00000000</i>
    <i type="logical" name="LSORBIT"> F  </i>
    <v name="SAXIS">      0.00000000      0.00000000      1.00000000</v>
    <i type="logical" name="LSPIRAL"> F  </i>
    <v name="QSPIRAL">      0.00000000      0.00000000      0.00000000</v>
    <i type="logical" name="LZEROZ"> F  </i>
   </separator>
   <separator name="electronic exchange-correlation" >
    <i type="logical" name="LASPH"> F  </i>
    <i type="logical" name="LMETAGGA"> F  </i>
   </separator>
   <separator name="electronic convergence" >
    <i type="int" name="NELM">    60</i>
    <i type="int" name="NELMDL">    -5</i>
    <i type="int" name="NELMIN">     2</i>
    <i name="ENINI">    400.00000000</i>
    <separator name="electronic convergence detail" >
     <i type="logical" name="LDIAG"> T  </i>
     <i type="logical" name="LSUBROT"> F  </i>
     <i name="WEIMIN">      0.00100000</i>
     <i name="EBREAK">      0.00000057</i>
     <i name="DEPER">      0.30000000</i>
     <i type="int" name="NRMM">     4</i>
     <i name="TIME">      0.40000000</i>
    </separator>
   </separator>
   <separator name="electronic mixer" >
    <i name="AMIX">      0.40000000</i>
    <i name="BMIX">      1.00000000</i>
    <i name="AMIN">      0.10000000</i>
    <i name="AMIX_MAG">      1.60000000</i>
    <i name="BMIX_MAG">      1.00000000</i>
    <separator name="electronic mixer details" >
     <i type="int" name="IMIX">     4</i>
     <i type="logical" name="MIXFIRST"> F  </i>
     <i type="int" name="MAXMIX">   -45</i>
     <i name="WC">    100.00000000</i>
     <i type="int" name="INIMIX">     1</i>
     <i type="int" name="MIXPRE">     1</i>
     <i type="int" name="MREMOVE">     5</i>
    </separator>
   </separator>
   <separator name="electronic dipolcorrection" >
    <i type="logical" name="LDIPOL"> F  </i>
    <i type="logical" name="LMONO"> F  </i>
    <i type="int" name="IDIPOL">     3</i>
    <i name="EPSILON">      1.00000000</i>
    <v name="DIPOL">   -100.00000000   -100.00000000   -100.00000000</v>
    <i name="EFIELD">      0.00000000</i>
   </separator>
  </separator>
  <separator name="grids" >
   <i type="int" name="NGX">    18</i>
   <i type="int" name="NGY">    18</i>
   <i type="int" name="NGZ">   120</i>
   <i type="int" name="NGXF">    36</i>
   <i type="int" name="NGYF">    36</i>
   <i type="int" name="NGZF">   240</i>
   <i type="logical" name="ADDGRID"> F  </i>
  </separator>
  <separator name="ionic" >
   <i type="int" name="NSW">   800</i>
   <i type="int" name="IBRION">     2</i>
   <i type="int" name="MDALGO">     0</i>
   <i type="int" name="ISIF">     2</i>
   <i name="PSTRESS">      0.00000000</i>
   <i name="EDIFFG">     -0.03000000</i>
   <i type="int" name="NFREE">     1</i>
   <i name="POTIM">      0.50000000</i>
   <i name="SMASS">     -3.00000000</i>
   <i name="SCALEE">      1.00000000</i>
  </separator>
  <separator name="ionic md" >
   <i name="TEBEG">      0.00010000</i>
   <i name="TEEND">      0.00010000</i>
   <i type="int" name="NBLOCK">     1</i>
   <i type="int" name="KBLOCK">   800</i>
   <i type="int" name="NPACO">   256</i>
   <i name="APACO">     10.00000000</i>
  </separator>
  <separator name="symmetry" >
   <i type="int" name="ISYM">     1</i>
   <i name="SYMPREC">      0.00001000</i>
  </separator>
  <separator name="dos" >
   <i type="int" name="LORBIT">     0</i>
   <v name="RWIGS">     -1.00000000</v>
   <i type="int" name="NEDOS">   301</i>
   <i name="EMIN">     10.00000000</i>
   <i name="EMAX">    -10.00000000</i>
   <i name="EFERMI">      0.00000000</i>
  </separator>
  <separator name="writing" >
   <i type="int" name="NWRITE">     2</i>
   <i type="logical" name="LWAVE"> F  </i>
   <i type="logical" name="LDOWNSAMPLE"> F  </i>
   <i type="logical" name="LCHARG"> F  </i>
   <i type="logical" name="LPARD"> F  </i>
   <i type="logical" name="LVTOT"> F  </i>
   <i type="logical" name="LVHAR"> F  </i>
   <i type="logical" name="LELF"> F  </i>
   <i type="logical" name="LOPTICS"> F  </i>
   <v name="STM">      0.00000000      0.00000000      0.00000000      0.00000000      0.00000000      0.00000000      0.00000000</v>
  </separator>
  <separator name="performance" >
   <i type="int" name="NPAR">     4</i>
   <i type="int" name="NSIM">     4</i>
   <i type="int" name="NBLK">    -1</i>
   <i type="logical" name="LPLANE"> T  </i>
   <i type="logical" name="LSCALAPACK"> T  </i>
   <i type="logical" name="LSCAAWARE"> F  </i>
   <i type="logical" name="LSCALU"> F  </i>
   <i type="logical" name="LASYNC"> F  </i>
   <i type="logical" name="LORBITALREAL"> F  </i>
  </separator>
  <separator name="miscellaneous" >
   <i type="int" name="IDIOT">     3</i>
   <i type="int" name="PHON_NSTRUCT">    -1</i>
   <i type="logical" name="LMUSIC"> F  </i>
   <v name="POMASS">     63.54600000</v>
   <v name="DARWINR">      0.00000000</v>
   <v name="DARWINV">      1.00000000</v>
   <i type="logical" name="LCORR"> T  </i>
  </separator>
  <i type="logical" name="GGA_COMPAT"> T  </i>
  <i type="logical" name="LBERRY"> F  </i>
  <i type="int" name="ICORELEVEL">     0</i>
  <i type="logical" name="LDAU"> F  </i>
  <i type="int" name="I_CONSTRAINED_M">     0</i>
  <separator name="electronic exchange-correlation" >
   <i type="string" name="GGA">PE</i>
   <i type="int" name="VOSKOWN">     0</i>
   <i type="logical" name="LHFCALC"> F  </i>
   <i type="string" name="PRECFOCK"></i>
   <i type="logical" name="LSYMGRAD"> F  </i>
   <i type="logical" name="LHFONE"> F  </i>
   <i type="logical" name="LRHFCALC"> F  </i>
   <i type="logical" name="LTHOMAS"> F  </i>
   <i type="logical" name="LMODELHF"> F  </i>
   <i type="logical" name="LFOCKACE"> F  </i>
   <i name="ENCUT4O">     -1.00000000</i>
   <i type="int" name="EXXOEP">     0</i>
   <i type="int" name="FOURORBIT">     0</i>
   <i name="AEXX">      0.00000000</i>
   <i name="HFALPHA">      0.00000000</i>
   <i name="MCALPHA">      0.00000000</i>
   <i name="ALDAX">      1.00000000</i>
   <i name="AGGAX">      1.00000000</i>
   <i name="ALDAC">      1.00000000</i>
   <i name="AGGAC">      1.00000000</i>
   <i type="int" name="NKREDX">     1</i>
   <i type="int" name="NKREDY">     1</i>
   <i type="int" name="NKREDZ">     1</i>
   <i type="logical" name="SHIFTRED"> F  </i>
   <i type="logical" name="ODDONLY"> F  </i>
   <i type="logical" name="EVENONLY"> F  </i>
   <i type="int" name="LMAXFOCK">     0</i>
   <i type="int" name="NMAXFOCKAE">     0</i>
   <i type="logical" name="LFOCKAEDFT"> F  </i>
   <i name="HFSCREEN">      0.00000000</i>
   <i name="HFSCREENC">      0.00000000</i>
   <i type="int" name="NBANDSGWLOW">     0</i>
  </separator>
  <separator name="vdW DFT" >
   <i type="logical" name="LUSE_VDW"> F  </i>
   <i name="Zab_VDW">     -0.84910000</i>
   <i name="PARAM1">      0.12340000</i>
   <i name="PARAM2">      1.00000000</i>
   <i name="PARAM3">      0.00000000</i>
  </separator>
  <separator name="model GW" >
   <i type="int" name="MODEL_GW">     0</i>
   <i name="MODEL_EPS0">     15.86169437</i>
   <i name="MODEL_ALPHA">      1.00000000</i>
  </separator>
  <separator name="linear response parameters" >
   <i type="logical" name="LEPSILON"> F  </i>
   <i type="logical" name="LRPA"> F  </i>
   <i type="logical" name="LNABLA"> F  </i>
   <i type="logical" name="LVEL"> F  </i>
   <i name="CSHIFT">      0.10000000</i>
   <i name="OMEGAMAX">     -1.00000000</i>
   <i name="DEG_THRESHOLD">      0.00200000</i>
   <i name="RTIME">     -0.10000000</i>
   <i name="WPLASMAI">      0.00000000</i>
   <v name="DFIELD">      0.00000000      0.00000000      0.00000000</v>
   <v name="WPLASMA">      0.00000000      0.00000000      0.00000000      0.00000000      0.00000000      0.00000000      0.00000000      0.00000000      0.00000000</v>
  </separator>
  <separator name="orbital magnetization" >
   <i type="logical" name="NUCIND"> F  </i>
   <v name="MAGPOS">      0.00000000      0.00000000      0.00000000</v>
   <i type="logical" name="LNICSALL"> T  </i>
   <i type="logical" name="ORBITALMAG"> F  </i>
   <i type="logical" name="LMAGBLOCH"> F  </i>
   <i type="logical" name="LCHIMAG"> F  </i>
   <i type="logical" name="LGAUGE"> T  </i>
   <i type="int" name="MAGATOM">     0</i>
   <v name="MAGDIPOL">      0.00000000      0.00000000      0.00000000</v>
   <v name="AVECCONST">      0.00000000      0.00000000      0.00000000</v>
  </separator>
  <separator name="response functions" >
   <i type="logical" name="LFINITE_TEMPERATURE"> F  </i>
   <i type="logical" name="LADDER"> F  </i>
   <i type="logical" name="LRPAFORCE"> F  </i>
   <i type="logical" name="LFXC"> F  </i>
   <i type="logical" name="LHARTREE"> T  </i>
   <i type="int" name="IBSE">     0</i>
   <v type="int" name="KPOINT">    -1     0     0     0</v>
   <i type="logical" name="LTCTC"> F  </i>
   <i type="logical" name="LTCTE"> F  </i>
   <i type="logical" name="LTETE"> F  </i>
   <i type="logical" name="LTRIPLET"> F  </i>
   <i type="logical" name="LFXCEPS"> F  </i>
   <i type="logical" name="LFXHEG"> F  </i>
   <i type="int" name="NATURALO">     2</i>
   <i type="logical" name="LHOLEGF"> F  </i>
   <i type="logical" name="L2ORDER"> F  </i>
   <i type="logical" name="LDMP1"> F  </i>
   <i type="logical" name="LMP2LT"> F  </i>
   <i type="logical" name="LSMP2LT"> F  </i>
   <i type="logical" name="LGWLF"> F  </i>
   <i name="ENCUTGW">     -2.00000000</i>
   <i name="ENCUTGWSOFT">     -2.00000000</i>
   <i name="ENCUTLF">     -1.00000000</i>
   <i type="logical" name="LESF_SPLINES"> F  </i>
   <i type="int" name="LMAXMP2">    -1</i>
   <i name="SCISSOR">      0.00000000</i>
   <i type="int" name="NOMEGA">     0</i>
   <i type="int" name="NOMEGAR">     0</i>
   <i type="int" name="NBANDSGW">    -1</i>
   <i type="int" name="NBANDSO">    -1</i>
   <i type="int" name="NBANDSV">    -1</i>
   <i type="int" name="NELMGW">     1</i>
   <i type="int" name="NELMHF">     1</i>
   <i type="int" name="DIM">     3</i>
   <i type="int" name="IESPILON">     4</i>
   <i type="int" name="ANTIRES">     0</i>
   <i name="OMEGAMAX">    -30.00000000</i>
   <i name="OMEGAMIN">    -30.00000000</i>
   <i name="OMEGATL">   -200.00000000</i>
   <i type="int" name="OMEGAGRID">     0</i>
   <i name="CSHIFT">     -0.10000000</i>
   <i type="logical" name="LSELFENERGY"> F  </i>
   <i type="logical" name="LSPECTRAL"> F  </i>
   <i type="logical" name="LSPECTRALGW"> F  </i>
   <i type="logical" name="LSINGLES"> F  </i>
   <i type="logical" name="LFERMIGW"> F  </i>
   <i type="logical" name="ODDONLYGW"> F  </i>
   <i type="logical" name="EVENONLYGW"> F  </i>
   <i type="int" name="NKREDLFX">     1</i>
   <i type="int" name="NKREDLFY">     1</i>
   <i type="int" name="NKREDLFZ">     1</i>
   <i type="int" name="MAXMEM">  2800</i>
   <i type="int" name="TELESCOPE">     0</i>
   <i type="int" name="NTAUPAR">    -1</i>
   <i type="int" name="NOMEGAPAR">    -1</i>
   <i name="DAMP_NEWTON">      0.80000001</i>
   <i name="LAMBDA">      1.00000000</i>
  </separator>
  <separator name="External order field" >
   <i name="OFIELD_KAPPA">      0.00000000</i>
   <v name="OFIELD_K">      0.00000000      0.00000000      0.00000000</v>
   <i name="OFIELD_Q6_NEAR">      0.00000000</i>
   <i name="OFIELD_Q6_FAR">      0.00000000</i>
   <i name="OFIELD_A">      0.00000000</i>
  </separator>
  <separator name="optional k-points parameters" >
   <i type="int" name="KPOINTS_OPT_MODE">     1</i>
   <i type="logical" name="LKPOINTS_OPT"> F  </i>
  </separator>
 </parameters>
 <atominfo>
  <atoms>      12 </atoms>
  <types>       1 </types>
  <array name="atoms" >
   <dimension dim="1">ion</dimension>
   <field type="string">element</field>
   <field type="int">atomtype</field>
   <set>
    <rc><c>Cu</c><c>   1</c></rc>
    <rc><c>Cu</c><c>   1</c></rc>
    <rc><c>Cu</c><c>   1</c></rc>
    <rc><c>Cu</c><c>   1</c></rc>
    <rc><c>Cu</c><c>   1</c></rc>
    <rc><c>Cu</c><c>   1</c></rc>
    <rc><c>Cu</c><c>   1</c></rc>
    <rc><c>Cu</c><c>   1</c></rc>
    <rc><c>Cu</c><c>   1</c></rc>
    <rc><c>Cu</c><c>   1</c></rc>
    <rc><c>Cu</c><c>   1</c></rc>
    <rc><c>Cu</c><c>   1</c></rc>
   </set>
  </array>
  <array name="atomtypes" >
   <dimension dim="1">type</dimension>
   <field type="int">atomspertype</field>
   <field type="string">element</field>
   <field>mass</field>
   <field>valence</field>
   <field type="string">pseudopotential</field>
   <set>
    <rc><c>  12</c><c>Cu</c><c>     63.54600000</c><c>     11.00000000</c><c>  PAW_PBE Cu 22Jun2005                  </c></rc>
   </set>
  </array>
 </atominfo>
 <structure name="initialpos" >
  <crystal>
   <varray name="basis" >
    <v>       3.63000011       0.00000000       0.00000000 </v>
    <v>       0.00000000       3.63000011       0.00000000 </v>
    <v>       0.00000000       0.00000000      24.07500000 </v>
   </varray>
   <i name="volume">    317.23388750 </i>
   <varray name="rec_basis" >
    <v>       0.27548208       0.00000000       0.00000000 </v>
    <v>       0.00000000       0.27548208       0.00000000 </v>
    <v>       0.00000000       0.00000000       0.04153686 </v>
   </varray>
  </crystal>
  <varray name="positions" >
   <v>       0.00000000       0.00000000       0.00000000 </v>
   <v>       0.50000000       0.50000000       0.00000000 </v>
   <v>       0.00000000       0.50000000       0.07538941 </v>
   <v>       0.50000000       0.00000000       0.07538941 </v>
   <v>       0.00000000       0.00000000       0.15077882 </v>
   <v>       0.50000000       0.50000000       0.15077882 </v>
   <v>       0.00000000       0.50000000       0.22616823 </v>
   <v>       0.50000000       0.00000000       0.22616823 </v>
   <v>       0.00000000       0.00000000       0.30155764 </v>
   <v>       0.50000000       0.50000000       0.30155764 </v>
   <v>       0.00000000       0.50000000       0.37694705 </v>
   <v>       0.50000000       0.00000000       0.37694705 </v>
  </varray>
  <varray name="selective"  type="logical" >
   <v type="logical" >  F  F  F </v>
   <v type="logical" >  F  F  F </v>
   <v type="logical" >  F  F  F </v>
   <v type="logical" >  F  F  F </v>
   <v type="logical" >  T  T  T </v>
   <v type="logical" >  T  T  T </v>
   <v type="logical" >  T  T  T </v>
   <v type="logical" >  T  T  T </v>
   <v type="logical" >  T  T  T </v>
   <v type="logical" >  T  T  T </v>
   <v type="logical" >  T  T  T </v>
   <v type="logical" >  T  T  T </v>
  </varray>
  <nose>
   <v>      -3.00000000       0.00000000       0.00010000       0.00010000 </v>
  </nose>
 </structure>
 <calculation>
  <scstep>
   <time name="dav">    0.49    0.49</time>
   <time name="total">    0.52    0.52</time>
   <energy>
    <i name="alphaZ">    331.96717463 </i>
    <i name="ewald">  60494.36950923 </i>
    <i name="hartreedc"> -76724.37128352 </i>
    <i name="XCdc">    547.91763564 </i>
    <i name="pawpsdc">  14737.16995259 </i>
    <i name="pawaedc"> -16007.05117830 </i>
    <i name="eentropy">     -0.00368808 </i>
    <i name="bandstr">   1106.86646984 </i>
    <i name="atom">  16691.49168240 </i>
    <i name="e_fr_energy">   1178.35627442 </i>
    <i name="e_wo_entrp">   1178.35996250 </i>
    <i name="e_0_energy">   1178.35750378 </i>
   </energy>
  </scstep>
  <scstep>
   <time name="dav">    0.48    0.48</time>
   <time name="total">    0.48    0.48</time>
   <energy>
    <i name="e_fr_energy">    114.06195988 </i>
    <i name="e_wo_entrp">    114.05555193 </i>
    <i name="e_0_energy">    114.05982390 </i>
   </energy>
  </scstep>
  <scstep>
   <time name="dav">    0.51    0.51</time>
   <time name="total">    0.51    0.51</time>
   <energy>
    <i name="e_fr_energy">    -41.65899301 </i>
    <i name="e_wo_entrp">    -41.64914238 </i>
    <i name="e_0_energy">    -41.65570947 </i>
   </energy>
  </scstep>
  <scstep>
   <time name="dav">    0.51    0.51</time>
   <time name="total">    0.51    0.51</time>
   <energy>
    <i name="e_fr_energy">    -49.65277406 </i>
    <i name="e_wo_entrp">    -49.64788307 </i>
    <i name="e_0_energy">    -49.65114373 </i>
   </energy>
  </scstep>
  <scstep>
   <time name="dav">    0.52    0.53</time>
   <time name="total">    0.63    0.63</time>
   <energy>
    <i name="e_fr_energy">    -49.81040273 </i>
    <i name="e_wo_entrp">    -49.80571006 </i>
    <i name="e_0_energy">    -49.80883851 </i>
   </energy>
  </scstep>
  <scstep>
   <time name="dav">    0.51    0.51</time>
   <time name="total">    0.64    0.64</time>
   <energy>
    <i name="e_fr_energy">    -40.81907253 </i>
    <i name="e_wo_entrp">    -40.80952580 </i>
    <i name="e_0_energy">    -40.81589028 </i>
   </energy>
  </scstep>
  <scstep>
   <time name="dav">    0.52    0.53</time>
   <time name="total">    0.65    0.65</time>
   <energy>
    <i name="e_fr_energy">    -35.37295345 </i>
    <i name="e_wo_entrp">    -35.36345477 </i>
    <i name="e_0_energy">    -35.36978722 </i>
   </energy>
  </scstep>
  <scstep>
   <time name="dav">    0.52    0.53</time>
   <time name="total">    0.64    0.65</time>
   <energy>
    <i name="e_fr_energy">    -34.15011479 </i>
    <i name="e_wo_entrp">    -34.13381797 </i>
    <i name="e_0_energy">    -34.14468252 </i>
   </energy>
  </scstep>
  <scstep>
   <time name="dav">    0.58    0.58</time>
   <time name="total">    0.70    0.71</time>
   <energy>
    <i name="e_fr_energy">    -33.80036700 </i>
    <i name="e_wo_entrp">    -33.79268460 </i>
    <i name="e_0_energy">    -33.79780620 </i>
   </energy>
  </scstep>
  <scstep>
   <time name="dav">    0.71    0.71</time>
   <time name="total">    0.83    0.83</time>
   <energy>
    <i name="e_fr_energy">    -34.85762579 </i>
    <i name="e_wo_entrp">    -34.84629349 </i>
    <i name="e_0_energy">    -34.85384836 </i>
   </energy>
  </scstep>
  <scstep>
   <time name="dav">    0.65    0.65</time>
   <time name="total">    0.77    0.78</time>
   <energy>
    <i name="e_fr_energy">    -34.90847765 </i>
    <i name="e_wo_entrp">    -34.89126331 </i>
    <i name="e_0_energy">    -34.90273954 </i>
   </energy>
  </scstep>
  <scstep>
   <time name="dav">    0.65    0.66</time>
   <time name="total">    0.78    0.78</time>
   <energy>
    <i name="e_fr_energy">    -35.56137217 </i>
    <i name="e_wo_entrp">    -35.56781178 </i>
    <i name="e_0_energy">    -35.56351871 </i>
   </energy>
  </scstep>
  <scstep>
   <time name="dav">    0.71    0.72</time>
   <time name="total">    0.83    0.84</time>
   <energy>
    <i name="e_fr_energy">    -35.64833221 </i>
    <i name="e_wo_entrp">    -35.63297933 </i>
    <i name="e_0_energy">    -35.64321458 </i>
   </energy>
  </scstep>
  <scstep>
   <time name="dav">    0.61    0.62</time>
   <time name="total">    0.73    0.74</time>
   <energy>
    <i name="e_fr_energy">    -38.90065658 </i>
    <i name="e_wo_entrp">    -38.90088739 </i>
    <i name="e_0_energy">    -38.90073351 </i>
   </energy>
  </scstep>
  <scstep>
   <time name="dav">    0.60    0.60</time>
   <time name="total">    0.72    0.73</time>
   <energy>
    <i name="e_fr_energy">    -40.16882230 </i>
    <i name="e_wo_entrp">    -40.17684252 </i>
    <i name="e_0_energy">    -40.17149571 </i>
   </energy>
  </scstep>
  <scstep>
   <time name="dav">    0.55    0.56</time>
   <time name="total">    0.68    0.68</time>
   <energy>
    <i name="e_fr_energy">    -40.85619898 </i>
    <i name="e_wo_entrp">    -40.87031692 </i>
    <i name="e_0_energy">    -40.86090496 </i>
   </energy>
  </scstep>
  <scstep>
   <time name="dav">    0.57    0.57</time>
   <time name="total">    0.69    0.70</time>
   <energy>
    <i name="e_fr_energy">    -41.21525887 </i>
    <i name="e_wo_entrp">    -41.22882699 </i>
    <i name="e_0_energy">    -41.21978158 </i>
   </energy>
  </scstep>
  <scstep>
   <time name="dav">    0.55    0.56</time>
   <time name="total">    0.68    0.68</time>
   <energy>
    <i name="e_fr_energy">    -41.32944812 </i>
    <i name="e_wo_entrp">    -41.33684394 </i>
    <i name="e_0_energy">    -41.33191339 </i>
   </energy>
  </scstep>
  <scstep>
   <time name="dav">    0.55    0.55</time>
   <time name="total">    0.67    0.68</time>
   <energy>
    <i name="e_fr_energy">    -41.38048021 </i>
    <i name="e_wo_entrp">    -41.37912299 </i>
    <i name="e_0_energy">    -41.38002780 </i>
   </energy>
  </scstep>
  <scstep>
   <time name="dav">    0.56    0.57</time>
   <time name="total">    0.68    0.69</time>
   <energy>
    <i name="e_fr_energy">    -41.40307530 </i>
    <i name="e_wo_entrp">    -41.39818659 </i>
    <i name="e_0_energy">    -41.40144573 </i>
   </energy>
  </scstep>
  <scstep>
   <time name="dav">    0.52    0.52</time>
   <time name="total">    0.64    0.64</time>
   <energy>
    <i name="e_fr_energy">    -41.44517588 </i>
    <i name="e_wo_entrp">    -41.43776393 </i>
    <i name="e_0_energy">    -41.44270523 </i>
   </energy>
  </scstep>
  <scstep>
   <time name="dav">    0.53    0.54</time>
   <time name="total">    0.65    0.66</time>
   <energy>
    <i name="e_fr_energy">    -41.51755373 </i>
    <i name="e_wo_entrp">    -41.50760159 </i>
    <i name="e_0_energy">    -41.51423635 </i>
   </energy>
  </scstep>
  <scstep>
   <time name="dav">    0.57    0.58</time>
   <time name="total">    0.69    0.70</time>
   <energy>
    <i name="e_fr_energy">    -41.58021003 </i>
    <i name="e_wo_entrp">    -41.57212618 </i>
    <i name="e_0_energy">    -41.57751541 </i>
   </energy>
  </scstep>
  <scstep>
   <time name="dav">    0.50    0.51</time>
   <time name="total">    0.63    0.64</time>
   <energy>
    <i name="e_fr_energy">    -41.63827749 </i>
    <i name="e_wo_entrp">    -41.62838635 </i>
    <i name="e_0_energy">    -41.63498044 </i>
   </energy>
  </scstep>
  <scstep>
   <time name="dav">    0.49    0.50</time>
   <time name="total">    0.61    0.62</time>
   <energy>
    <i name="e_fr_energy">    -41.68482069 </i>
    <i name="e_wo_entrp">    -41.67476290 </i>
    <i name="e_0_energy">    -41.68146809 </i>
   </energy>
  </scstep>
  <scstep>
   <time name="dav">    0.45    0.46</time>
   <time name="total">    0.58    0.58</time>
   <energy>
    <i name="e_fr_energy">    -41.71315321 </i>
    <i name="e_wo_entrp">    -41.70259838 </i>
    <i name="e_0_energy">    -41.70963493 </i>
   </energy>
  </scstep>
  <scstep>
   <time name="dav">    0.39    0.39</time>
   <time name="total">    0.51    0.51</time>
   <energy>
    <i name="e_fr_energy">    -41.71701463 </i>
    <i name="e_wo_entrp">    -41.70696763 </i>
    <i name="e_0_energy">    -41.71366563 </i>
   </energy>
  </scstep>
  <scstep>
   <time name="dav">    0.37    0.38</time>
   <time name="total">    0.50    0.50</time>
   <energy>
    <i name="e_fr_energy">    -41.71837710 </i>
    <i name="e_wo_entrp">    -41.70838560 </i>
    <i name="e_0_energy">    -41.71504660 </i>
   </energy>
  </scstep>
  <scstep>
   <time name="dav">    0.38    0.38</time>
   <time name="total">    0.50    0.51</time>
   <energy>
    <i name="e_fr_energy">    -41.71895286 </i>
    <i name="e_wo_entrp">    -41.70905846 </i>
    <i name="e_0_energy">    -41.71565472 </i>
   </energy>
  </scstep>
  <scstep>
   <time name="dav">    0.36    0.37</time>
   <time name="total">    0.39    0.39</time>
   <energy>
    <i name="alphaZ">    331.96717463 </i>
    <i name="ewald">  60494.36950923 </i>
    <i name="hartreedc"> -76541.83673222 </i>
    <i name="XCdc">    534.23696979 </i>
    <i name="pawpsdc">  15618.48244068 </i>
    <i name="pawaedc"> -16910.08225645 </i>
    <i name="eentropy">     -0.00997693 </i>
    <i name="bandstr">   -260.33788902 </i>
    <i name="atom">  16691.49168240 </i>
    <i name="e_fr_energy">    -41.71907790 </i>
    <i name="e_wo_entrp">    -41.70910097 </i>
    <i name="e_0_energy">    -41.71575226 </i>
   </energy>
  </scstep>
  <dipole>
   <v name="dipole">      0.00000000       0.00000000       0.00581038 </v>
   <i name="Tr[quadrupol]">   -433.09707651 </i>
   <i name="Echarged">      0.00000000 </i>
   <i name="Edipol_quadrupol">      0.00000000 </i>
   <i name="Eion">      0.00000000 </i>
  </dipole>
  <structure>
   <crystal>
    <varray name="basis" >
     <v>       3.63000011       0.00000000       0.00000000 </v>
     <v>       0.00000000       3.63000011       0.00000000 </v>
     <v>       0.00000000       0.00000000      24.07500000 </v>
    </varray>
    <i name="volume">    317.23388750 </i>
    <varray name="rec_basis" >
     <v>       0.27548208       0.00000000       0.00000000 </v>
     <v>       0.00000000       0.27548208       0.00000000 </v>
     <v>       0.00000000       0.00000000       0.04153686 </v>
    </varray>
   </crystal>
   <varray name="positions" >
    <v>       0.00000000       0.00000000       0.00000000 </v>
    <v>       0.50000000       0.50000000       0.00000000 </v>
    <v>       0.00000000       0.50000000       0.07538941 </v>
    <v>       0.50000000       0.00000000       0.07538941 </v>
    <v>       0.00000000       0.00000000       0.15077882 </v>
    <v>       0.50000000       0.50000000       0.15077882 </v>
    <v>       0.00000000       0.50000000       0.22616823 </v>
    <v>       0.50000000       0.00000000       0.22616823 </v>
    <v>       0.00000000       0.00000000       0.30155764 </v>
    <v>       0.50000000       0.50000000       0.30155764 </v>
    <v>       0.00000000       0.50000000       0.37694705 </v>
    <v>       0.50000000       0.00000000       0.37694705 </v>
   </varray>
  </structure>
  <varray name="forces" >
   <v>       0.00000000       0.00000000       0.28903314 </v>
   <v>       0.00000000       0.00000000       0.28903314 </v>
   <v>      -0.00000000      -0.00000000       0.12632764 </v>
   <v>      -0.00000000       0.00000000       0.12632764 </v>
   <v>       0.00000000       0.00000000      -0.03306423 </v>
   <v>      -0.00000000       0.00000000      -0.03306423 </v>
   <v>       0.00000000       0.00000000       0.01921762 </v>
   <v>       0.00000000       0.00000000       0.01921762 </v>
   <v>       0.00000000      -0.00000000      -0.12844458 </v>
   <v>       0.00000000      -0.00000000      -0.12844458 </v>
   <v>       0.00000000       0.00000000      -0.27306958 </v>
   <v>       0.00000000       0.00000000      -0.27306958 </v>
  </varray>
  <varray name="stress" >
   <v>     -35.69910477       0.00000000       0.00000000 </v>
   <v>       0.00000000     -35.69910477       0.00000000 </v>
   <v>       0.00000000       0.00000000     -35.41248873 </v>
  </varray>
  <energy>
   <i name="e_fr_energy">    -46.26320243 </i>
   <i name="e_wo_entrp">    -46.25322550 </i>
   <i name="e_0_energy">    -46.25987679 </i>
  </energy>
  <time name="totalsc">   19.87   20.05</time>
 </calculation>
 <calculation>
  <scstep>
   <time name="dav">    0.50    0.50</time>
   <time name="total">    0.63    0.63</time>
   <energy>
    <i name="alphaZ">    331.96717463 </i>
    <i name="ewald">  60641.91406312 </i>
    <i name="hartreedc"> -76689.14612652 </i>
    <i name="XCdc">    534.28334120 </i>
    <i name="pawpsdc">  15618.25488656 </i>
    <i name="pawaedc"> -16909.85614903 </i>
    <i name="eentropy">     -0.00854145 </i>
    <i name="bandstr">   -260.61979953 </i>
    <i name="atom">  16691.49168240 </i>
    <i name="e_fr_energy">    -41.71946863 </i>
    <i name="e_wo_entrp">    -41.71092718 </i>
    <i name="e_0_energy">    -41.71662148 </i>
   </energy>
  </scstep>
  <scstep>
   <time name="dav">    0.65    0.65</time>
   <time name="total">    0.77    0.78</time>
   <energy>
    <i name="e_fr_energy">    -41.72393312 </i>
    <i name="e_wo_entrp">    -41.71285734 </i>
    <i name="e_0_energy">    -41.72024119 </i>
   </energy>
  </scstep>
  <scstep>
   <time name="dav">    0.53    0.54</time>
   <time name="total">    0.66    0.67</time>
   <energy>
    <i name="e_fr_energy">    -41.72372810 </i>
    <i name="e_wo_entrp">    -41.71435079 </i>
    <i name="e_0_energy">    -41.72060233 </i>
   </energy>
  </scstep>
  <scstep>
   <time name="dav">    0.48    0.48</time>
   <time name="total">    0.60    0.61</time>
   <energy>
    <i name="e_fr_energy">    -41.72334168 </i>
    <i name="e_wo_entrp">    -41.71453364 </i>
    <i name="e_0_energy">    -41.72040567 </i>
   </energy>
  </scstep>
  <scstep>
   <time name="dav">    0.37    0.37</time>
   <time name="total">    0.40    0.40</time>
   <energy>
    <i name="alphaZ">    331.96717463 </i>
    <i name="ewald">  60641.91406312 </i>
    <i name="hartreedc"> -76689.64685138 </i>
    <i name="XCdc">    534.27247399 </i>
    <i name="pawpsdc">  15621.21294148 </i>
    <i name="pawaedc"> -16912.79711397 </i>
    <i name="eentropy">     -0.00950927 </i>
    <i name="bandstr">   -260.12814085 </i>
    <i name="atom">  16691.49168240 </i>
    <i name="e_fr_energy">    -41.72327985 </i>
    <i name="e_wo_entrp">    -41.71377058 </i>
    <i name="e_0_energy">    -41.72011010 </i>
   </energy>
  </scstep>
  <dipole>
   <v name="dipole">      0.00000000       0.00000000       0.00263125 </v>
   <i name="Tr[quadrupol]">   -433.10747432 </i>
   <i name="Echarged">      0.00000000 </i>
   <i name="Edipol_quadrupol">      0.00000000 </i>
   <i name="Eion">      0.00000000 </i>
  </dipole>
  <structure>
   <crystal>
    <varray name="basis" >
     <v>       3.63000011       0.00000000       0.00000000 </v>
     <v>       0.00000000       3.63000011       0.00000000 </v>
     <v>       0.00000000       0.00000000      24.07500000 </v>
    </varray>
    <i name="volume">    317.23388750 </i>
    <varray name="rec_basis" >
     <v>       0.27548208       0.00000000       0.00000000 </v>
     <v>       0.00000000       0.27548208       0.00000000 </v>
     <v>       0.00000000       0.00000000       0.04153686 </v>
    </varray>
   </crystal>
   <varray name="positions" >
    <v>       0.00000000       0.00000000       0.00000000 </v>
    <v>       0.50000000       0.50000000       0.00000000 </v>
    <v>       0.00000000       0.50000000       0.07538941 </v>
    <v>       0.50000000       0.00000000       0.07538941 </v>
    <v>       0.00000000       0.00000000       0.15071256 </v>
    <v>       0.50000000       0.50000000       0.15071256 </v>
    <v>       0.00000000       0.50000000       0.22620674 </v>
    <v>       0.50000000       0.00000000       0.22620674 </v>
    <v>       0.00000000      -0.00000000       0.30130025 </v>
    <v>       0.50000000       0.50000000       0.30130025 </v>
    <v>       0.00000000       0.50000000       0.37639986 </v>
    <v>       0.50000000       0.00000000       0.37639986 </v>
   </varray>
  </structure>
  <varray name="forces" >
   <v>       0.00000000      -0.00000000       0.29164121 </v>
   <v>       0.00000000      -0.00000000       0.29164121 </v>
   <v>       0.00000000       0.00000000       0.11815938 </v>
   <v>      -0.00000000       0.00000000       0.11815938 </v>
   <v>       0.00000000      -0.00000000      -0.01905511 </v>
   <v>       0.00000000      -0.00000000      -0.01905511 </v>
   <v>       0.00000000       0.00000000      -0.02197009 </v>
   <v>      -0.00000000      -0.00000000      -0.02197009 </v>
   <v>      -0.00000000      -0.00000000      -0.12208900 </v>
   <v>      -0.00000000       0.00000000      -0.12208900 </v>
   <v>       0.00000000       0.00000000      -0.24668639 </v>
   <v>       0.00000000      -0.00000000      -0.24668639 </v>
  </varray>
  <varray name="stress" >
   <v>     -33.01034768       0.00000000       0.00000000 </v>
   <v>       0.00000000     -33.01034768       0.00000000 </v>
   <v>       0.00000000       0.00000000     -32.81292660 </v>
  </varray>
  <energy>
   <i name="e_fr_energy">    -46.27257886 </i>
   <i name="e_wo_entrp">    -46.26306959 </i>
   <i name="e_0_energy">    -46.26940911 </i>
  </energy>
  <time name="totalsc">    3.88    3.96</time>
 </calculation>
 <calculation>
  <scstep>
   <time name="dav">    0.50    0.50</time>
   <time name="total">    0.62    0.63</time>
   <energy>
    <i name="alphaZ">    331.96717463 </i>
    <i name="ewald">  61085.83357597 </i>
    <i name="hartreedc"> -77132.72612903 </i>
    <i name="XCdc">    534.41095927 </i>
    <i name="pawpsdc">  15621.93164891 </i>
    <i name="pawaedc"> -16913.56272311 </i>
    <i name="eentropy">     -0.00445158 </i>
    <i name="bandstr">   -261.03554335 </i>
    <i name="atom">  16691.49168240 </i>
    <i name="e_fr_energy">    -41.69380590 </i>
    <i name="e_wo_entrp">    -41.68935432 </i>
    <i name="e_0_energy">    -41.69232204 </i>
   </energy>
  </scstep>
  <scstep>
   <time name="dav">    0.65    0.66</time>
   <time name="total">    0.78    0.78</time>
   <energy>
    <i name="e_fr_energy">    -41.74073773 </i>
    <i name="e_wo_entrp">    -41.72621566 </i>
    <i name="e_0_energy">    -41.73589704 </i>
   </energy>
  </scstep>
  <scstep>
   <time name="dav">    0.61    0.62</time>
   <time name="total">    0.74    0.74</time>
   <energy>
    <i name="e_fr_energy">    -41.73801021 </i>
    <i name="e_wo_entrp">    -41.73293577 </i>
    <i name="e_0_energy">    -41.73631873 </i>
   </energy>
  </scstep>
  <scstep>
   <time name="dav">    0.59    0.59</time>
   <time name="total">    0.71    0.71</time>
   <energy>
    <i name="e_fr_energy">    -41.73386760 </i>
    <i name="e_wo_entrp">    -41.72832911 </i>
    <i name="e_0_energy">    -41.73202144 </i>
   </energy>
  </scstep>
  <scstep>
   <time name="dav">    0.60    0.61</time>
   <time name="total">    0.73    0.73</time>
   <energy>
    <i name="e_fr_energy">    -41.73285487 </i>
    <i name="e_wo_entrp">    -41.72484470 </i>
    <i name="e_0_energy">    -41.73018482 </i>
   </energy>
  </scstep>
  <scstep>
   <time name="dav">    0.57    0.57</time>
   <time name="total">    0.69    0.70</time>
   <energy>
    <i name="e_fr_energy">    -41.73212196 </i>
    <i name="e_wo_entrp">    -41.72607595 </i>
    <i name="e_0_energy">    -41.73010662 </i>
   </energy>
  </scstep>
  <scstep>
   <time name="dav">    0.61    0.61</time>
   <time name="total">    0.73    0.74</time>
   <energy>
    <i name="e_fr_energy">    -41.73159238 </i>
    <i name="e_wo_entrp">    -41.72437667 </i>
    <i name="e_0_energy">    -41.72918714 </i>
   </energy>
  </scstep>
  <scstep>
   <time name="dav">    0.48    0.48</time>
   <time name="total">    0.51    0.51</time>
   <energy>
    <i name="alphaZ">    331.96717463 </i>
    <i name="ewald">  61085.83357597 </i>
    <i name="hartreedc"> -77134.16393116 </i>
    <i name="XCdc">    534.37673872 </i>
    <i name="pawpsdc">  15639.84530416 </i>
    <i name="pawaedc"> -16931.87065960 </i>
    <i name="eentropy">     -0.00660132 </i>
    <i name="bandstr">   -259.20475666 </i>
    <i name="atom">  16691.49168240 </i>
    <i name="e_fr_energy">    -41.73147286 </i>
    <i name="e_wo_entrp">    -41.72487154 </i>
    <i name="e_0_energy">    -41.72927242 </i>
   </energy>
  </scstep>
  <dipole>
   <v name="dipole">      0.00000000       0.00000000       0.00061519 </v>
   <i name="Tr[quadrupol]">   -433.14952724 </i>
   <i name="Echarged">      0.00000000 </i>
   <i name="Edipol_quadrupol">      0.00000000 </i>
   <i name="Eion">      0.00000000 </i>
  </dipole>
  <structure>
   <crystal>
    <varray name="basis" >
     <v>       3.63000011       0.00000000       0.00000000 </v>
     <v>       0.00000000       3.63000011       0.00000000 </v>
     <v>       0.00000000       0.00000000      24.07500000 </v>
    </varray>
    <i name="volume">    317.23388750 </i>
    <varray name="rec_basis" >
     <v>       0.27548208       0.00000000       0.00000000 </v>
     <v>       0.00000000       0.27548208       0.00000000 </v>
     <v>       0.00000000       0.00000000       0.04153686 </v>
    </varray>
   </crystal>
   <varray name="positions" >
    <v>       0.00000000       0.00000000       0.00000000 </v>
    <v>       0.50000000       0.50000000       0.00000000 </v>
    <v>       0.00000000       0.50000000       0.07538941 </v>
    <v>       0.50000000       0.00000000       0.07538941 </v>
    <v>       0.00000000       0.00000000       0.15051380 </v>
    <v>       0.50000000       0.50000000       0.15051380 </v>
    <v>       0.00000000       0.50000000       0.22632226 </v>
    <v>       0.50000000       0.00000000       0.22632226 </v>
    <v>       0.00000000      -0.00000000       0.30052810 </v>
    <v>       0.50000000       0.50000000       0.30052810 </v>
    <v>       0.00000000       0.50000000       0.37475829 </v>
    <v>       0.50000000       0.00000000       0.37475829 </v>
   </varray>
  </structure>
  <varray name="forces" >
   <v>      -0.00000000      -0.00000000       0.30082204 </v>
   <v>       0.00000000       0.00000000       0.30082204 </v>
   <v>      -0.00000000      -0.00000000       0.10114497 </v>
   <v>      -0.00000000      -0.00000000       0.10114497 </v>
   <v>      -0.00000000      -0.00000000       0.02291772 </v>
   <v>      -0.00000000       0.00000000       0.02291772 </v>
   <v>      -0.00000000       0.00000000      -0.11660096 </v>
   <v>      -0.00000000       0.00000000      -0.11660096 </v>
   <v>       0.00000000       0.00000000      -0.11530477 </v>
   <v>       0.00000000       0.00000000      -0.11530477 </v>
   <v>      -0.00000000      -0.00000000      -0.19297900 </v>
   <v>      -0.00000000      -0.00000000      -0.19297900 </v>
  </varray>
  <varray name="stress" >
   <v>     -36.08360517       0.00000000       0.00000000 </v>
   <v>       0.00000000     -36.08360517       0.00000000 </v>
   <v>       0.00000000       0.00000000     -36.44794238 </v>
  </varray>
  <energy>
   <i name="e_fr_energy">    -46.29624901 </i>
   <i name="e_wo_entrp">    -46.28964769 </i>
   <i name="e_0_energy">    -46.29404857 </i>
  </energy>
  <time name="totalsc">    6.32    6.40</time>
 </calculation>
 <calculation>
  <scstep>
   <time name="dav">    0.53    0.53</time>
   <time name="total">    0.66    0.66</time>
   <energy>
    <i name="alphaZ">    331.96717463 </i>
    <i name="ewald">  61979.42086797 </i>
    <i name="hartreedc"> -78026.36197812 </i>
    <i name="XCdc">    534.67053228 </i>
    <i name="pawpsdc">  15639.67487495 </i>
    <i name="pawaedc"> -16931.67593305 </i>
    <i name="eentropy">      0.00207005 </i>
    <i name="bandstr">   -260.75678909 </i>
    <i name="atom">  16691.49168240 </i>
    <i name="e_fr_energy">    -41.56749798 </i>
    <i name="e_wo_entrp">    -41.56956803 </i>
    <i name="e_0_energy">    -41.56818800 </i>
   </energy>
  </scstep>
  <scstep>
   <time name="dav">    0.67    0.68</time>
   <time name="total">    0.80    0.81</time>
   <energy>
    <i name="e_fr_energy">    -41.76789869 </i>
    <i name="e_wo_entrp">    -41.74950855 </i>
    <i name="e_0_energy">    -41.76176865 </i>
   </energy>
  </scstep>
  <scstep>
   <time name="dav">    0.62    0.62</time>
   <time name="total">    0.74    0.75</time>
   <energy>
    <i name="e_fr_energy">    -41.75444964 </i>
    <i name="e_wo_entrp">    -41.76137598 </i>
    <i name="e_0_energy">    -41.75675842 </i>
   </energy>
  </scstep>
  <scstep>
   <time name="dav">    0.61    0.61</time>
   <time name="total">    0.73    0.74</time>
   <energy>
    <i name="e_fr_energy">    -41.73366856 </i>
    <i name="e_wo_entrp">    -41.73415711 </i>
    <i name="e_0_energy">    -41.73383141 </i>
   </energy>
  </scstep>
  <scstep>
   <time name="dav">    0.59    0.60</time>
   <time name="total">    0.72    0.73</time>
   <energy>
    <i name="e_fr_energy">    -41.73019283 </i>
    <i name="e_wo_entrp">    -41.72539108 </i>
    <i name="e_0_energy">    -41.72859225 </i>
   </energy>
  </scstep>
  <scstep>
   <time name="dav">    0.52    0.52</time>
   <time name="total">    0.65    0.65</time>
   <energy>
    <i name="e_fr_energy">    -41.72856902 </i>
    <i name="e_wo_entrp">    -41.72773908 </i>
    <i name="e_0_energy">    -41.72829237 </i>
   </energy>
  </scstep>
  <scstep>
   <time name="dav">    0.65    0.65</time>
   <time name="total">    0.77    0.78</time>
   <energy>
    <i name="e_fr_energy">    -41.72624266 </i>
    <i name="e_wo_entrp">    -41.72304324 </i>
    <i name="e_0_energy">    -41.72517619 </i>
   </energy>
  </scstep>
  <scstep>
   <time name="dav">    0.63    0.63</time>
   <time name="total">    0.75    0.76</time>
   <energy>
    <i name="e_fr_energy">    -41.72573073 </i>
    <i name="e_wo_entrp">    -41.72396714 </i>
    <i name="e_0_energy">    -41.72514287 </i>
   </energy>
  </scstep>
  <scstep>
   <time name="dav">    0.43    0.43</time>
   <time name="total">    0.45    0.46</time>
   <energy>
    <i name="alphaZ">    331.96717463 </i>
    <i name="ewald">  61979.42086797 </i>
    <i name="hartreedc"> -78029.28928840 </i>
    <i name="XCdc">    534.58642069 </i>
    <i name="pawpsdc">  15674.32455484 </i>
    <i name="pawaedc"> -16966.91475083 </i>
    <i name="eentropy">     -0.00185474 </i>
    <i name="bandstr">   -257.31035348 </i>
    <i name="atom">  16691.49168240 </i>
    <i name="e_fr_energy">    -41.72554692 </i>
    <i name="e_wo_entrp">    -41.72369218 </i>
    <i name="e_0_energy">    -41.72492867 </i>
   </energy>
  </scstep>
  <dipole>
   <v name="dipole">      0.00000000       0.00000000      -0.00134350 </v>
   <i name="Tr[quadrupol]">   -433.25892879 </i>
   <i name="Echarged">      0.00000000 </i>
   <i name="Edipol_quadrupol">      0.00000000 </i>
   <i name="Eion">      0.00000000 </i>
  </dipole>
  <structure>
   <crystal>
    <varray name="basis" >
     <v>       3.63000011       0.00000000       0.00000000 </v>
     <v>       0.00000000       3.63000011       0.00000000 </v>
     <v>       0.00000000       0.00000000      24.07500000 </v>
    </varray>
    <i name="volume">    317.23388750 </i>
    <varray name="rec_basis" >
     <v>       0.27548208       0.00000000       0.00000000 </v>
     <v>       0.00000000       0.27548208       0.00000000 </v>
     <v>       0.00000000       0.00000000       0.04153686 </v>
    </varray>
   </crystal>
   <varray name="positions" >
    <v>       0.00000000       0.00000000       0.00000000 </v>
    <v>       0.50000000       0.50000000       0.00000000 </v>
    <v>       0.00000000       0.50000000       0.07538941 </v>
    <v>       0.50000000       0.00000000       0.07538941 </v>
    <v>       0.00000000       0.00000000       0.15011626 </v>
    <v>       0.50000000       0.50000000       0.15011626 </v>
    <v>       0.00000000       0.50000000       0.22655332 </v>
    <v>       0.50000000       0.00000000       0.22655332 </v>
    <v>       0.00000000      -0.00000000       0.29898380 </v>
    <v>       0.50000000       0.50000000       0.29898380 </v>
    <v>       0.00000000       0.50000000       0.37147515 </v>
    <v>       0.50000000       0.00000000       0.37147515 </v>
   </varray>
  </structure>
  <varray name="forces" >
   <v>      -0.00000000      -0.00000000       0.31362797 </v>
   <v>      -0.00000000      -0.00000000       0.31362797 </v>
   <v>      -0.00000000      -0.00000000       0.05881387 </v>
   <v>      -0.00000000       0.00000000       0.05881387 </v>
   <v>      -0.00000000      -0.00000000       0.10579662 </v>
   <v>       0.00000000      -0.00000000       0.10579662 </v>
   <v>       0.00000000      -0.00000000      -0.32994182 </v>
   <v>       0.00000000      -0.00000000      -0.32994182 </v>
   <v>      -0.00000000      -0.00000000      -0.07159971 </v>
   <v>      -0.00000000      -0.00000000      -0.07159971 </v>
   <v>       0.00000000       0.00000000      -0.07669692 </v>
   <v>       0.00000000       0.00000000      -0.07669692 </v>
  </varray>
  <varray name="stress" >
   <v>     -29.18839799       0.00000000       0.00000000 </v>
   <v>       0.00000000     -29.18839799      -0.00000000 </v>
   <v>       0.00000000       0.00000000     -31.11625607 </v>
  </varray>
  <energy>
   <i name="e_fr_energy">    -46.32128194 </i>
   <i name="e_wo_entrp">    -46.31942719 </i>
   <i name="e_0_energy">    -46.32066369 </i>
  </energy>
  <time name="totalsc">    7.10    7.26</time>
 </calculation>
 <calculation>
  <scstep>
   <time name="dav">    0.50    0.51</time>
   <time name="total">    0.63    0.63</time>
   <energy>
    <i name="alphaZ">    331.96717463 </i>
    <i name="ewald">  62203.30480073 </i>
    <i name="hartreedc"> -78252.84081196 </i>
    <i name="XCdc">    534.63434091 </i>
    <i name="pawpsdc">  15674.07065441 </i>
    <i name="pawaedc"> -16966.63306260 </i>
    <i name="eentropy">      0.00236593 </i>
    <i name="bandstr">   -257.71757220 </i>
    <i name="atom">  16691.49168240 </i>
    <i name="e_fr_energy">    -41.72042775 </i>
    <i name="e_wo_entrp">    -41.72279368 </i>
    <i name="e_0_energy">    -41.72121639 </i>
   </energy>
  </scstep>
  <scstep>
   <time name="dav">    0.66    0.67</time>
   <time name="total">    0.79    0.79</time>
   <energy>
    <i name="e_fr_energy">    -41.73117379 </i>
    <i name="e_wo_entrp">    -41.72839595 </i>
    <i name="e_0_energy">    -41.73024784 </i>
   </energy>
  </scstep>
  <scstep>
   <time name="dav">    0.60    0.61</time>
   <time name="total">    0.73    0.74</time>
   <energy>
    <i name="e_fr_energy">    -41.73101853 </i>
    <i name="e_wo_entrp">    -41.73114961 </i>
    <i name="e_0_energy">    -41.73106222 </i>
   </energy>
  </scstep>
  <scstep>
   <time name="dav">    0.51    0.51</time>
   <time name="total">    0.63    0.64</time>
   <energy>
    <i name="e_fr_energy">    -41.72970733 </i>
    <i name="e_wo_entrp">    -41.73160183 </i>
    <i name="e_0_energy">    -41.73033883 </i>
   </energy>
  </scstep>
  <scstep>
   <time name="dav">    0.46    0.46</time>
   <time name="total">    0.48    0.49</time>
   <energy>
    <i name="alphaZ">    331.96717463 </i>
    <i name="ewald">  62203.30480073 </i>
    <i name="hartreedc"> -78253.60051089 </i>
    <i name="XCdc">    534.61702561 </i>
    <i name="pawpsdc">  15677.61398838 </i>
    <i name="pawaedc"> -16970.11667287 </i>
    <i name="eentropy">      0.00022482 </i>
    <i name="bandstr">   -257.00731025 </i>
    <i name="atom">  16691.49168240 </i>
    <i name="e_fr_energy">    -41.72959745 </i>
    <i name="e_wo_entrp">    -41.72982227 </i>
    <i name="e_0_energy">    -41.72967239 </i>
   </energy>
  </scstep>
  <dipole>
   <v name="dipole">      0.00000000       0.00000000      -0.00222875 </v>
   <i name="Tr[quadrupol]">   -433.28670372 </i>
   <i name="Echarged">      0.00000000 </i>
   <i name="Edipol_quadrupol">      0.00000000 </i>
   <i name="Eion">      0.00000000 </i>
  </dipole>
  <structure>
   <crystal>
    <varray name="basis" >
     <v>       3.63000011       0.00000000       0.00000000 </v>
     <v>       0.00000000       3.63000011       0.00000000 </v>
     <v>       0.00000000       0.00000000      24.07500000 </v>
    </varray>
    <i name="volume">    317.23388750 </i>
    <varray name="rec_basis" >
     <v>       0.27548208       0.00000000       0.00000000 </v>
     <v>       0.00000000       0.27548208       0.00000000 </v>
     <v>       0.00000000       0.00000000       0.04153686 </v>
    </varray>
   </crystal>
   <varray name="positions" >
    <v>       0.00000000       0.00000000       0.00000000 </v>
    <v>       0.50000000       0.50000000       0.00000000 </v>
    <v>       0.00000000       0.50000000       0.07538941 </v>
    <v>       0.50000000       0.00000000       0.07538941 </v>
    <v>       0.00000000       0.00000000       0.15022635 </v>
    <v>       0.50000000       0.50000000       0.15022635 </v>
    <v>       0.00000000       0.50000000       0.22604301 </v>
    <v>       0.50000000       0.00000000       0.22604301 </v>
    <v>       0.00000000      -0.00000000       0.29860913 </v>
    <v>       0.50000000       0.50000000       0.29860913 </v>
    <v>       0.00000000       0.50000000       0.37080416 </v>
    <v>       0.50000000       0.00000000       0.37080416 </v>
   </varray>
  </structure>
  <varray name="forces" >
   <v>      -0.00000000      -0.00000000       0.31457166 </v>
   <v>       0.00000000       0.00000000       0.31457166 </v>
   <v>      -0.00000000       0.00000000       0.07048477 </v>
   <v>       0.00000000       0.00000000       0.07048477 </v>
   <v>      -0.00000000      -0.00000000       0.04607198 </v>
   <v>      -0.00000000      -0.00000000       0.04607198 </v>
   <v>      -0.00000000      -0.00000000      -0.27609012 </v>
   <v>       0.00000000       0.00000000      -0.27609012 </v>
   <v>      -0.00000000      -0.00000000      -0.12007582 </v>
   <v>       0.00000000       0.00000000      -0.12007582 </v>
   <v>      -0.00000000       0.00000000      -0.03496246 </v>
   <v>      -0.00000000      -0.00000000      -0.03496246 </v>
  </varray>
  <varray name="stress" >
   <v>     -21.55975856       0.00000000       0.00000000 </v>
   <v>       0.00000000     -21.55975856       0.00000000 </v>
   <v>       0.00000000       0.00000000     -23.99343999 </v>
  </varray>
  <energy>
   <i name="e_fr_energy">    -46.33319735 </i>
   <i name="e_wo_entrp">    -46.33342217 </i>
   <i name="e_0_energy">    -46.33327229 </i>
  </energy>
  <time name="totalsc">    4.08    4.15</time>
 </calculation>
 <calculation>
  <scstep>
   <time name="dav">    0.50    0.51</time>
   <time name="total">    0.64    0.65</time>
   <energy>
    <i name="alphaZ">    331.96717463 </i>
    <i name="ewald">  62877.39545565 </i>
    <i name="hartreedc"> -78926.93484839 </i>
    <i name="XCdc">    534.80249637 </i>
    <i name="pawpsdc">  15678.63722335 </i>
    <i name="pawaedc"> -16971.23962204 </i>
    <i name="eentropy">      0.01313903 </i>
    <i name="bandstr">   -257.77367126 </i>
    <i name="atom">  16691.49168240 </i>
    <i name="e_fr_energy">    -41.64097027 </i>
    <i name="e_wo_entrp">    -41.65410930 </i>
    <i name="e_0_energy">    -41.64534995 </i>
   </energy>
  </scstep>
  <scstep>
   <time name="dav">    0.70    0.71</time>
   <time name="total">    0.83    0.83</time>
   <energy>
    <i name="e_fr_energy">    -41.76218173 </i>
    <i name="e_wo_entrp">    -41.76881754 </i>
    <i name="e_0_energy">    -41.76439367 </i>
   </energy>
  </scstep>
  <scstep>
   <time name="dav">    0.74    0.75</time>
   <time name="total">    0.87    0.88</time>
   <energy>
    <i name="e_fr_energy">    -41.74632208 </i>
    <i name="e_wo_entrp">    -41.75354680 </i>
    <i name="e_0_energy">    -41.74873032 </i>
   </energy>
  </scstep>
  <scstep>
   <time name="dav">    0.58    0.58</time>
   <time name="total">    0.71    0.71</time>
   <energy>
    <i name="e_fr_energy">    -41.73250857 </i>
    <i name="e_wo_entrp">    -41.74470552 </i>
    <i name="e_0_energy">    -41.73657422 </i>
   </energy>
  </scstep>
  <scstep>
   <time name="dav">    0.56    0.56</time>
   <time name="total">    0.68    0.69</time>
   <energy>
    <i name="e_fr_energy">    -41.73148256 </i>
    <i name="e_wo_entrp">    -41.73897745 </i>
    <i name="e_0_energy">    -41.73398086 </i>
   </energy>
  </scstep>
  <scstep>
   <time name="dav">    0.56    0.56</time>
   <time name="total">    0.68    0.69</time>
   <energy>
    <i name="e_fr_energy">    -41.72914002 </i>
    <i name="e_wo_entrp">    -41.73822254 </i>
    <i name="e_0_energy">    -41.73216753 </i>
   </energy>
  </scstep>
  <scstep>
   <time name="dav">    0.59    0.59</time>
   <time name="total">    0.72    0.72</time>
   <energy>
    <i name="e_fr_energy">    -41.72822651 </i>
    <i name="e_wo_entrp">    -41.73598128 </i>
    <i name="e_0_energy">    -41.73081143 </i>
   </energy>
  </scstep>
  <scstep>
   <time name="dav">    0.56    0.56</time>
   <time name="total">    0.68    0.69</time>
   <energy>
    <i name="e_fr_energy">    -41.72796358 </i>
    <i name="e_wo_entrp">    -41.73770005 </i>
    <i name="e_0_energy">    -41.73120907 </i>
   </energy>
  </scstep>
  <scstep>
   <time name="dav">    0.38    0.38</time>
   <time name="total">    0.41    0.41</time>
   <energy>
    <i name="alphaZ">    331.96717463 </i>
    <i name="ewald">  62877.39545565 </i>
    <i name="hartreedc"> -78927.93839323 </i>
    <i name="XCdc">    534.74329463 </i>
    <i name="pawpsdc">  15700.02758312 </i>
    <i name="pawaedc"> -16993.07107728 </i>
    <i name="eentropy">      0.00951716 </i>
    <i name="bandstr">   -256.35318519 </i>
    <i name="atom">  16691.49168240 </i>
    <i name="e_fr_energy">    -41.72794812 </i>
    <i name="e_wo_entrp">    -41.73746528 </i>
    <i name="e_0_energy">    -41.73112051 </i>
   </energy>
  </scstep>
  <dipole>
   <v name="dipole">      0.00000000       0.00000000      -0.00513970 </v>
   <i name="Tr[quadrupol]">   -433.34261529 </i>
   <i name="Echarged">      0.00000000 </i>
   <i name="Edipol_quadrupol">      0.00000000 </i>
   <i name="Eion">      0.00000000 </i>
  </dipole>
  <structure>
   <crystal>
    <varray name="basis" >
     <v>       3.63000011       0.00000000       0.00000000 </v>
     <v>       0.00000000       3.63000011       0.00000000 </v>
     <v>       0.00000000       0.00000000      24.07500000 </v>
    </varray>
    <i name="volume">    317.23388750 </i>
    <varray name="rec_basis" >
     <v>       0.27548208       0.00000000       0.00000000 </v>
     <v>       0.00000000       0.27548208       0.00000000 </v>
     <v>       0.00000000       0.00000000       0.04153686 </v>
    </varray>
   </crystal>
   <varray name="positions" >
    <v>       0.00000000       0.00000000       0.00000000 </v>
    <v>       0.50000000       0.50000000       0.00000000 </v>
    <v>       0.00000000       0.50000000       0.07538941 </v>
    <v>       0.50000000       0.00000000       0.07538941 </v>
    <v>       0.00000000       0.00000000       0.15055662 </v>
    <v>       0.50000000       0.50000000       0.15055662 </v>
    <v>       0.00000000       0.50000000       0.22451210 </v>
    <v>       0.50000000       0.00000000       0.22451210 </v>
    <v>       0.00000000      -0.00000000       0.29748511 </v>
    <v>       0.50000000       0.50000000       0.29748511 </v>
    <v>       0.00000000       0.50000000       0.36879122 </v>
    <v>       0.50000000       0.00000000       0.36879122 </v>
   </varray>
  </structure>
  <varray name="forces" >
   <v>      -0.00000000      -0.00000000       0.32999980 </v>
   <v>       0.00000000      -0.00000000       0.32999980 </v>
   <v>      -0.00000000       0.00000000       0.09108892 </v>
   <v>      -0.00000000       0.00000000       0.09108892 </v>
   <v>      -0.00000000       0.00000000      -0.13140926 </v>
   <v>       0.00000000      -0.00000000      -0.13140926 </v>
   <v>       0.00000000       0.00000000      -0.05890442 </v>
   <v>      -0.00000000       0.00000000      -0.05890442 </v>
   <v>      -0.00000000       0.00000000      -0.26148402 </v>
   <v>      -0.00000000      -0.00000000      -0.26148402 </v>
   <v>      -0.00000000       0.00000000       0.03070897 </v>
   <v>      -0.00000000      -0.00000000       0.03070897 </v>
  </varray>
  <varray name="stress" >
   <v>     -25.41960340       0.00000000       0.00000000 </v>
   <v>       0.00000000     -25.41960340       0.00000000 </v>
   <v>      -0.00000000       0.00000000     -28.42760538 </v>
  </varray>
  <energy>
   <i name="e_fr_energy">    -46.35534434 </i>
   <i name="e_wo_entrp">    -46.36486150 </i>
   <i name="e_0_energy">    -46.35851672 </i>
  </energy>
  <time name="totalsc">    7.05    7.16</time>
 </calculation>
 <calculation>
  <scstep>
   <time name="dav">    0.54    0.55</time>
   <time name="total">    0.67    0.68</time>
   <energy>
    <i name="alphaZ">    331.96717463 </i>
    <i name="ewald">  64236.33268546 </i>
    <i name="hartreedc"> -80285.65270314 </i>
    <i name="XCdc">    535.16048875 </i>
    <i name="pawpsdc">  15699.98849239 </i>
    <i name="pawaedc"> -16993.01222858 </i>
    <i name="eentropy">      0.02595634 </i>
    <i name="bandstr">   -257.65754077 </i>
    <i name="atom">  16691.49168240 </i>
    <i name="e_fr_energy">    -41.35599254 </i>
    <i name="e_wo_entrp">    -41.38194888 </i>
    <i name="e_0_energy">    -41.36464465 </i>
   </energy>
  </scstep>
  <scstep>
   <time name="dav">    0.71    0.72</time>
   <time name="total">    0.84    0.85</time>
   <energy>
    <i name="e_fr_energy">    -41.83146518 </i>
    <i name="e_wo_entrp">    -41.85710916 </i>
    <i name="e_0_energy">    -41.84001317 </i>
   </energy>
  </scstep>
  <scstep>
   <time name="dav">    0.67    0.68</time>
   <time name="total">    0.80    0.81</time>
   <energy>
    <i name="e_fr_energy">    -41.73394983 </i>
    <i name="e_wo_entrp">    -41.76054389 </i>
    <i name="e_0_energy">    -41.74281452 </i>
   </energy>
  </scstep>
  <scstep>
   <time name="dav">    0.67    0.67</time>
   <time name="total">    0.80    0.80</time>
   <energy>
    <i name="e_fr_energy">    -41.68019156 </i>
    <i name="e_wo_entrp">    -41.70615368 </i>
    <i name="e_0_energy">    -41.68884560 </i>
   </energy>
  </scstep>
  <scstep>
   <time name="dav">    0.54    0.55</time>
   <time name="total">    0.67    0.67</time>
   <energy>
    <i name="e_fr_energy">    -41.67729942 </i>
    <i name="e_wo_entrp">    -41.69865229 </i>
    <i name="e_0_energy">    -41.68441705 </i>
   </energy>
  </scstep>
  <scstep>
   <time name="dav">    0.51    0.51</time>
   <time name="total">    0.64    0.64</time>
   <energy>
    <i name="e_fr_energy">    -41.67284073 </i>
    <i name="e_wo_entrp">    -41.69612508 </i>
    <i name="e_0_energy">    -41.68060218 </i>
   </energy>
  </scstep>
  <scstep>
   <time name="dav">    0.68    0.68</time>
   <time name="total">    0.80    0.81</time>
   <energy>
    <i name="e_fr_energy">    -41.66877331 </i>
    <i name="e_wo_entrp">    -41.69036205 </i>
    <i name="e_0_energy">    -41.67596956 </i>
   </energy>
  </scstep>
  <scstep>
   <time name="dav">    0.70    0.70</time>
   <time name="total">    0.82    0.83</time>
   <energy>
    <i name="e_fr_energy">    -41.66776210 </i>
    <i name="e_wo_entrp">    -41.69143039 </i>
    <i name="e_0_energy">    -41.67565153 </i>
   </energy>
  </scstep>
  <scstep>
   <time name="dav">    0.47    0.48</time>
   <time name="total">    0.50    0.50</time>
   <energy>
    <i name="alphaZ">    331.96717463 </i>
    <i name="ewald">  64236.33268546 </i>
    <i name="hartreedc"> -80286.41196471 </i>
    <i name="XCdc">    535.01066101 </i>
    <i name="pawpsdc">  15745.84203894 </i>
    <i name="pawaedc"> -17039.64873114 </i>
    <i name="eentropy">      0.02332939 </i>
    <i name="bandstr">   -256.27458667 </i>
    <i name="atom">  16691.49168240 </i>
    <i name="e_fr_energy">    -41.66771070 </i>
    <i name="e_wo_entrp">    -41.69104009 </i>
    <i name="e_0_energy">    -41.67548716 </i>
   </energy>
  </scstep>
  <dipole>
   <v name="dipole">      0.00000000       0.00000000      -0.00693571 </v>
   <i name="Tr[quadrupol]">   -433.43249094 </i>
   <i name="Echarged">      0.00000000 </i>
   <i name="Edipol_quadrupol">      0.00000000 </i>
   <i name="Eion">      0.00000000 </i>
  </dipole>
  <structure>
   <crystal>
    <varray name="basis" >
     <v>       3.63000011       0.00000000       0.00000000 </v>
     <v>       0.00000000       3.63000011       0.00000000 </v>
     <v>       0.00000000       0.00000000      24.07500000 </v>
    </varray>
    <i name="volume">    317.23388750 </i>
    <varray name="rec_basis" >
     <v>       0.27548208       0.00000000       0.00000000 </v>
     <v>       0.00000000       0.27548208       0.00000000 </v>
     <v>       0.00000000       0.00000000       0.04153686 </v>
    </varray>
   </crystal>
   <varray name="positions" >
    <v>       0.00000000       0.00000000       0.00000000 </v>
    <v>       0.50000000       0.50000000       0.00000000 </v>
    <v>       0.00000000       0.50000000       0.07538941 </v>
    <v>       0.50000000       0.00000000       0.07538941 </v>
    <v>       0.00000000      -0.00000000       0.15121716 </v>
    <v>       0.50000000       0.50000000       0.15121716 </v>
    <v>       0.00000000       0.50000000       0.22145027 </v>
    <v>       0.50000000       0.00000000       0.22145027 </v>
    <v>       0.00000000      -0.00000000       0.29523708 </v>
    <v>       0.50000000       0.50000000       0.29523708 </v>
    <v>       0.00000000       0.50000000       0.36476533 </v>
    <v>       0.50000000       0.00000000       0.36476533 </v>
   </varray>
  </structure>
  <varray name="forces" >
   <v>      -0.00000000      -0.00000000       0.34431801 </v>
   <v>      -0.00000000       0.00000000       0.34431801 </v>
   <v>      -0.00000000      -0.00000000       0.12874949 </v>
   <v>       0.00000000      -0.00000000       0.12874949 </v>
   <v>      -0.00000000       0.00000000      -0.55682730 </v>
   <v>       0.00000000      -0.00000000      -0.55682730 </v>
   <v>      -0.00000000       0.00000000       0.36390671 </v>
   <v>      -0.00000000      -0.00000000       0.36390671 </v>
   <v>      -0.00000000       0.00000000      -0.49356129 </v>
   <v>      -0.00000000      -0.00000000      -0.49356129 </v>
   <v>      -0.00000000       0.00000000       0.21341438 </v>
   <v>       0.00000000       0.00000000       0.21341438 </v>
  </varray>
  <varray name="stress" >
   <v>     -17.10293941       0.00000000       0.00000000 </v>
   <v>       0.00000000     -17.10293941       0.00000000 </v>
   <v>       0.00000000       0.00000000     -20.97567696 </v>
  </varray>
  <energy>
   <i name="e_fr_energy">    -46.34375648 </i>
   <i name="e_wo_entrp">    -46.36708588 </i>
   <i name="e_0_energy">    -46.35153295 </i>
  </energy>
  <time name="totalsc">    7.36    7.43</time>
 </calculation>
 <calculation>
  <scstep>
   <time name="dav">    0.54    0.55</time>
   <time name="total">    0.68    0.68</time>
   <energy>
    <i name="alphaZ">    331.96717463 </i>
    <i name="ewald">  63299.44454616 </i>
    <i name="hartreedc"> -79352.28285735 </i>
    <i name="XCdc">    534.80254015 </i>
    <i name="pawpsdc">  15745.93689612 </i>
    <i name="pawaedc"> -17039.73392337 </i>
    <i name="eentropy">      0.00961835 </i>
    <i name="bandstr">   -253.20500775 </i>
    <i name="atom">  16691.49168240 </i>
    <i name="e_fr_energy">    -41.56933067 </i>
    <i name="e_wo_entrp">    -41.57894902 </i>
    <i name="e_0_energy">    -41.57253678 </i>
   </energy>
  </scstep>
  <scstep>
   <time name="dav">    0.63    0.63</time>
   <time name="total">    0.75    0.76</time>
   <energy>
    <i name="e_fr_energy">    -41.73589353 </i>
    <i name="e_wo_entrp">    -41.75939631 </i>
    <i name="e_0_energy">    -41.74372779 </i>
   </energy>
  </scstep>
  <scstep>
   <time name="dav">    0.53    0.54</time>
   <time name="total">    0.66    0.66</time>
   <energy>
    <i name="e_fr_energy">    -41.72908782 </i>
    <i name="e_wo_entrp">    -41.74288408 </i>
    <i name="e_0_energy">    -41.73368657 </i>
   </energy>
  </scstep>
  <scstep>
   <time name="dav">    0.56    0.57</time>
   <time name="total">    0.69    0.69</time>
   <energy>
    <i name="e_fr_energy">    -41.72722917 </i>
    <i name="e_wo_entrp">    -41.74250970 </i>
    <i name="e_0_energy">    -41.73232268 </i>
   </energy>
  </scstep>
  <scstep>
   <time name="dav">    0.58    0.59</time>
   <time name="total">    0.71    0.71</time>
   <energy>
    <i name="e_fr_energy">    -41.72439734 </i>
    <i name="e_wo_entrp">    -41.74166104 </i>
    <i name="e_0_energy">    -41.73015191 </i>
   </energy>
  </scstep>
  <scstep>
   <time name="dav">    0.72    0.73</time>
   <time name="total">    0.85    0.86</time>
   <energy>
    <i name="e_fr_energy">    -41.72017517 </i>
    <i name="e_wo_entrp">    -41.73359745 </i>
    <i name="e_0_energy">    -41.72464926 </i>
   </energy>
  </scstep>
  <scstep>
   <time name="dav">    0.58    0.59</time>
   <time name="total">    0.71    0.71</time>
   <energy>
    <i name="e_fr_energy">    -41.71878473 </i>
    <i name="e_wo_entrp">    -41.73367445 </i>
    <i name="e_0_energy">    -41.72374797 </i>
   </energy>
  </scstep>
  <scstep>
   <time name="dav">    0.62    0.62</time>
   <time name="total">    0.75    0.75</time>
   <energy>
    <i name="e_fr_energy">    -41.71837038 </i>
    <i name="e_wo_entrp">    -41.73302047 </i>
    <i name="e_0_energy">    -41.72325375 </i>
   </energy>
  </scstep>
  <scstep>
   <time name="dav">    0.39    0.40</time>
   <time name="total">    0.42    0.42</time>
   <energy>
    <i name="alphaZ">    331.96717463 </i>
    <i name="ewald">  63299.44454616 </i>
    <i name="hartreedc"> -79350.46889214 </i>
    <i name="XCdc">    534.82432232 </i>
    <i name="pawpsdc">  15713.56935673 </i>
    <i name="pawaedc"> -17006.83540174 </i>
    <i name="eentropy">      0.01441340 </i>
    <i name="bandstr">   -255.72551447 </i>
    <i name="atom">  16691.49168240 </i>
    <i name="e_fr_energy">    -41.71831271 </i>
    <i name="e_wo_entrp">    -41.73272611 </i>
    <i name="e_0_energy">    -41.72311717 </i>
   </energy>
  </scstep>
  <dipole>
   <v name="dipole">      0.00000000       0.00000000      -0.00623951 </v>
   <i name="Tr[quadrupol]">   -433.38029270 </i>
   <i name="Echarged">      0.00000000 </i>
   <i name="Edipol_quadrupol">      0.00000000 </i>
   <i name="Eion">      0.00000000 </i>
  </dipole>
  <structure>
   <crystal>
    <varray name="basis" >
     <v>       3.63000011       0.00000000       0.00000000 </v>
     <v>       0.00000000       3.63000011       0.00000000 </v>
     <v>       0.00000000       0.00000000      24.07500000 </v>
    </varray>
    <i name="volume">    317.23388750 </i>
    <varray name="rec_basis" >
     <v>       0.27548208       0.00000000       0.00000000 </v>
     <v>       0.00000000       0.27548208       0.00000000 </v>
     <v>       0.00000000       0.00000000       0.04153686 </v>
    </varray>
   </crystal>
   <varray name="positions" >
    <v>       0.00000000       0.00000000       0.00000000 </v>
    <v>       0.50000000       0.50000000       0.00000000 </v>
    <v>       0.00000000       0.50000000       0.07538941 </v>
    <v>       0.50000000       0.00000000       0.07538941 </v>
    <v>       0.00000000      -0.00000000       0.15076250 </v>
    <v>       0.50000000       0.50000000       0.15076250 </v>
    <v>       0.00000000       0.50000000       0.22355775 </v>
    <v>       0.50000000       0.00000000       0.22355775 </v>
    <v>       0.00000000      -0.00000000       0.29678442 </v>
    <v>       0.50000000       0.50000000       0.29678442 </v>
    <v>       0.00000000       0.50000000       0.36753637 </v>
    <v>       0.50000000       0.00000000       0.36753637 </v>
   </varray>
  </structure>
  <varray name="forces" >
   <v>       0.00000000      -0.00000000       0.33540671 </v>
   <v>      -0.00000000      -0.00000000       0.33540671 </v>
   <v>       0.00000000       0.00000000       0.11506819 </v>
   <v>      -0.00000000       0.00000000       0.11506819 </v>
   <v>       0.00000000      -0.00000000      -0.25068250 </v>
   <v>      -0.00000000       0.00000000      -0.25068250 </v>
   <v>       0.00000000      -0.00000000       0.07301299 </v>
   <v>       0.00000000       0.00000000       0.07301299 </v>
   <v>       0.00000000      -0.00000000      -0.34997814 </v>
   <v>      -0.00000000      -0.00000000      -0.34997814 </v>
   <v>       0.00000000      -0.00000000       0.07717276 </v>
   <v>      -0.00000000       0.00000000       0.07717276 </v>
  </varray>
  <varray name="stress" >
   <v>     -22.42917047       0.00000000      -0.00000000 </v>
   <v>       0.00000000     -22.42917047       0.00000000 </v>
   <v>      -0.00000000       0.00000000     -25.95926869 </v>
  </varray>
  <energy>
   <i name="e_fr_energy">    -46.36071032 </i>
   <i name="e_wo_entrp">    -46.37512372 </i>
   <i name="e_0_energy">    -46.36551479 </i>
  </energy>
  <time name="totalsc">    7.03    7.14</time>
 </calculation>
 <calculation>
  <scstep>
   <time name="dav">    0.50    0.50</time>
   <time name="total">    0.62    0.63</time>
   <energy>
    <i name="alphaZ">    331.96717463 </i>
    <i name="ewald">  63519.56903596 </i>
    <i name="hartreedc"> -79570.29615028 </i>
    <i name="XCdc">    534.86973148 </i>
    <i name="pawpsdc">  15713.57767318 </i>
    <i name="pawaedc"> -17006.83893985 </i>
    <i name="eentropy">      0.01755092 </i>
    <i name="bandstr">   -256.06809865 </i>
    <i name="atom">  16691.49168240 </i>
    <i name="e_fr_energy">    -41.71034022 </i>
    <i name="e_wo_entrp">    -41.72789114 </i>
    <i name="e_0_energy">    -41.71619053 </i>
   </energy>
  </scstep>
  <scstep>
   <time name="dav">    0.66    0.67</time>
   <time name="total">    0.79    0.79</time>
   <energy>
    <i name="e_fr_energy">    -41.72249444 </i>
    <i name="e_wo_entrp">    -41.73852745 </i>
    <i name="e_0_energy">    -41.72783877 </i>
   </energy>
  </scstep>
  <scstep>
   <time name="dav">    0.62    0.63</time>
   <time name="total">    0.75    0.75</time>
   <energy>
    <i name="e_fr_energy">    -41.72006160 </i>
    <i name="e_wo_entrp">    -41.73556897 </i>
    <i name="e_0_energy">    -41.72523072 </i>
   </energy>
  </scstep>
  <scstep>
   <time name="dav">    0.48    0.48</time>
   <time name="total">    0.60    0.61</time>
   <energy>
    <i name="e_fr_energy">    -41.71964896 </i>
    <i name="e_wo_entrp">    -41.73673785 </i>
    <i name="e_0_energy">    -41.72534525 </i>
   </energy>
  </scstep>
  <scstep>
   <time name="dav">    0.46    0.46</time>
   <time name="total">    0.49    0.49</time>
   <energy>
    <i name="alphaZ">    331.96717463 </i>
    <i name="ewald">  63519.56903596 </i>
    <i name="hartreedc"> -79570.67030789 </i>
    <i name="XCdc">    534.85103017 </i>
    <i name="pawpsdc">  15716.32128730 </i>
    <i name="pawaedc"> -17009.50425669 </i>
    <i name="eentropy">      0.01596555 </i>
    <i name="bandstr">   -255.76120727 </i>
    <i name="atom">  16691.49168240 </i>
    <i name="e_fr_energy">    -41.71959584 </i>
    <i name="e_wo_entrp">    -41.73556139 </i>
    <i name="e_0_energy">    -41.72491769 </i>
   </energy>
  </scstep>
  <dipole>
   <v name="dipole">      0.00000000       0.00000000      -0.00655305 </v>
   <i name="Tr[quadrupol]">   -433.38987723 </i>
   <i name="Echarged">      0.00000000 </i>
   <i name="Edipol_quadrupol">      0.00000000 </i>
   <i name="Eion">      0.00000000 </i>
  </dipole>
  <structure>
   <crystal>
    <varray name="basis" >
     <v>       3.63000011       0.00000000       0.00000000 </v>
     <v>       0.00000000       3.63000011       0.00000000 </v>
     <v>       0.00000000       0.00000000      24.07500000 </v>
    </varray>
    <i name="volume">    317.23388750 </i>
    <varray name="rec_basis" >
     <v>       0.27548208       0.00000000       0.00000000 </v>
     <v>       0.00000000       0.27548208       0.00000000 </v>
     <v>       0.00000000       0.00000000       0.04153686 </v>
    </varray>
   </crystal>
   <varray name="positions" >
    <v>       0.00000000       0.00000000       0.00000000 </v>
    <v>       0.50000000       0.50000000       0.00000000 </v>
    <v>       0.00000000       0.50000000       0.07538941 </v>
    <v>       0.50000000       0.00000000       0.07538941 </v>
    <v>       0.00000000      -0.00000000       0.15064413 </v>
    <v>       0.50000000       0.50000000       0.15064413 </v>
    <v>       0.00000000       0.50000000       0.22315473 </v>
    <v>       0.50000000       0.00000000       0.22315473 </v>
    <v>       0.00000000      -0.00000000       0.29613580 </v>
    <v>       0.50000000       0.50000000       0.29613580 </v>
    <v>       0.00000000       0.50000000       0.36699001 </v>
    <v>       0.50000000       0.00000000       0.36699001 </v>
   </varray>
  </structure>
  <varray name="forces" >
   <v>      -0.00000000      -0.00000000       0.33982979 </v>
   <v>      -0.00000000      -0.00000000       0.33982979 </v>
   <v>       0.00000000       0.00000000       0.10525831 </v>
   <v>      -0.00000000       0.00000000       0.10525831 </v>
   <v>       0.00000000       0.00000000      -0.26255376 </v>
   <v>      -0.00000000       0.00000000      -0.26255376 </v>
   <v>       0.00000000       0.00000000       0.06787671 </v>
   <v>       0.00000000      -0.00000000       0.06787671 </v>
   <v>       0.00000000       0.00000000      -0.31722588 </v>
   <v>      -0.00000000      -0.00000000      -0.31722588 </v>
   <v>       0.00000000      -0.00000000       0.06681483 </v>
   <v>      -0.00000000       0.00000000       0.06681483 </v>
  </varray>
  <varray name="stress" >
   <v>     -15.72677989       0.00000000       0.00000000 </v>
   <v>       0.00000000     -15.72677989      -0.00000000 </v>
   <v>       0.00000000       0.00000000     -19.49011340 </v>
  </varray>
  <energy>
   <i name="e_fr_energy">    -46.37000165 </i>
   <i name="e_wo_entrp">    -46.38596720 </i>
   <i name="e_0_energy">    -46.37532350 </i>
  </energy>
  <time name="totalsc">    4.07    4.16</time>
 </calculation>
 <calculation>
  <scstep>
   <time name="dav">    0.50    0.51</time>
   <time name="total">    0.63    0.63</time>
   <energy>
    <i name="alphaZ">    331.96717463 </i>
    <i name="ewald">  64182.08809866 </i>
    <i name="hartreedc"> -80232.61451877 </i>
    <i name="XCdc">    535.02025546 </i>
    <i name="pawpsdc">  15718.54528139 </i>
    <i name="pawaedc"> -17011.95378405 </i>
    <i name="eentropy">      0.02413169 </i>
    <i name="bandstr">   -256.19380961 </i>
    <i name="atom">  16691.49168240 </i>
    <i name="e_fr_energy">    -41.62548821 </i>
    <i name="e_wo_entrp">    -41.64961990 </i>
    <i name="e_0_energy">    -41.63353211 </i>
   </energy>
  </scstep>
  <scstep>
   <time name="dav">    0.71    0.72</time>
   <time name="total">    0.84    0.85</time>
   <energy>
    <i name="e_fr_energy">    -41.77385933 </i>
    <i name="e_wo_entrp">    -41.80185836 </i>
    <i name="e_0_energy">    -41.78319234 </i>
   </energy>
  </scstep>
  <scstep>
   <time name="dav">    0.79    0.79</time>
   <time name="total">    0.91    0.92</time>
   <energy>
    <i name="e_fr_energy">    -41.72461584 </i>
    <i name="e_wo_entrp">    -41.74544281 </i>
    <i name="e_0_energy">    -41.73155816 </i>
   </energy>
  </scstep>
  <scstep>
   <time name="dav">    0.64    0.65</time>
   <time name="total">    0.77    0.77</time>
   <energy>
    <i name="e_fr_energy">    -41.71900362 </i>
    <i name="e_wo_entrp">    -41.74326400 </i>
    <i name="e_0_energy">    -41.72709041 </i>
   </energy>
  </scstep>
  <scstep>
   <time name="dav">    0.55    0.56</time>
   <time name="total">    0.68    0.69</time>
   <energy>
    <i name="e_fr_energy">    -41.71839698 </i>
    <i name="e_wo_entrp">    -41.73956760 </i>
    <i name="e_0_energy">    -41.72545385 </i>
   </energy>
[...]
       <r>     7.6368     0.3786    78.2128 </r>
       <r>     7.7123     1.9585    78.3607 </r>
       <r>     7.7878     4.4136    78.6940 </r>
       <r>     7.8633     6.4167    79.1786 </r>
       <r>     7.9389     6.4524    79.6658 </r>
       <r>     8.0144     4.6414    80.0163 </r>
       <r>     8.0899     2.6763    80.2184 </r>
       <r>     8.1654     1.6823    80.3454 </r>
       <r>     8.2409     1.2913    80.4429 </r>
       <r>     8.3164     1.0332    80.5209 </r>
       <r>     8.3919     1.2691    80.6168 </r>
       <r>     8.4674     2.4132    80.7990 </r>
       <r>     8.5430     4.3184    81.1251 </r>
       <r>     8.6185     6.4545    81.6125 </r>
       <r>     8.6940     7.8736    82.2071 </r>
       <r>     8.7695     7.5360    82.7761 </r>
       <r>     8.8450     5.4220    83.1856 </r>
       <r>     8.9205     2.7374    83.3923 </r>
       <r>     8.9960     0.8323    83.4551 </r>
       <r>     9.0716     0.3829    83.4841 </r>
       <r>     9.1471     1.2558    83.5789 </r>
       <r>     9.2226     2.6437    83.7785 </r>
       <r>     9.2981     3.5653    84.0478 </r>
       <r>     9.3736     3.5019    84.3122 </r>
       <r>     9.4491     2.5788    84.5069 </r>
       <r>     9.5246     1.3775    84.6109 </r>
       <r>     9.6002     0.6980    84.6637 </r>
       <r>     9.6757     1.1033    84.7470 </r>
       <r>     9.7512     2.3242    84.9225 </r>
       <r>     9.8267     3.3283    85.1738 </r>
       <r>     9.9022     3.3740    85.4286 </r>
       <r>     9.9777     2.7706    85.6378 </r>
       <r>    10.0532     2.3755    85.8172 </r>
       <r>    10.1287     2.8604    86.0332 </r>
       <r>    10.2043     4.3945    86.3650 </r>
       <r>    10.2798     6.2326    86.8357 </r>
       <r>    10.3553     6.8756    87.3549 </r>
       <r>    10.4308     5.4854    87.7691 </r>
       <r>    10.5063     2.9169    87.9894 </r>
       <r>    10.5818     0.7818    88.0484 </r>
       <r>    10.6573    -0.1656    88.0359 </r>
       <r>    10.7329    -0.2756    88.0151 </r>
       <r>    10.8084    -0.1425    88.0043 </r>
       <r>    10.8839    -0.0455    88.0009 </r>
       <r>    10.9594    -0.0101    88.0001 </r>
       <r>    11.0349    -0.0016    88.0000 </r>
       <r>    11.1104    -0.0002    88.0000 </r>
       <r>    11.1859    -0.0000    88.0000 </r>
       <r>    11.2615    -0.0000    88.0000 </r>
       <r>    11.3370    -0.0000    88.0000 </r>
       <r>    11.4125    -0.0000    88.0000 </r>
       <r>    11.4880    -0.0000    88.0000 </r>
       <r>    11.5635    -0.0000    88.0000 </r>
       <r>    11.6390    -0.0000    88.0000 </r>
       <r>    11.7145     0.0000    88.0000 </r>
       <r>    11.7900     0.0000    88.0000 </r>
       <r>    11.8656     0.0000    88.0000 </r>
       <r>    11.9411     0.0000    88.0000 </r>
       <r>    12.0166     0.0000    88.0000 </r>
       <r>    12.0921     0.0000    88.0000 </r>
       <r>    12.1676     0.0000    88.0000 </r>
       <r>    12.2431     0.0000    88.0000 </r>
       <r>    12.3186     0.0000    88.0000 </r>
       <r>    12.3942     0.0000    88.0000 </r>
      </set>
      <set comment="spin 2">
       <r>   -10.2599     0.0000     0.0000 </r>
       <r>   -10.1844     0.0000     0.0000 </r>
       <r>   -10.1089     0.0000     0.0000 </r>
       <r>   -10.0334     0.0000     0.0000 </r>
       <r>    -9.9579     0.0000     0.0000 </r>
       <r>    -9.8824    -0.0000    -0.0000 </r>
       <r>    -9.8069    -0.0000    -0.0000 </r>
       <r>    -9.7313    -0.0000    -0.0000 </r>
       <r>    -9.6558    -0.0000    -0.0000 </r>
       <r>    -9.5803    -0.0000    -0.0000 </r>
       <r>    -9.5048    -0.0000    -0.0000 </r>
       <r>    -9.4293    -0.0000    -0.0000 </r>
       <r>    -9.3538    -0.0000    -0.0000 </r>
       <r>    -9.2783    -0.0000    -0.0000 </r>
       <r>    -9.2027    -0.0000    -0.0000 </r>
       <r>    -9.1272    -0.0000    -0.0000 </r>
       <r>    -9.0517    -0.0000    -0.0000 </r>
       <r>    -8.9762    -0.0000    -0.0000 </r>
       <r>    -8.9007    -0.0000    -0.0000 </r>
       <r>    -8.8252    -0.0003    -0.0000 </r>
       <r>    -8.7497    -0.0018    -0.0002 </r>
       <r>    -8.6741    -0.0072    -0.0007 </r>
       <r>    -8.5986    -0.0184    -0.0021 </r>
       <r>    -8.5231    -0.0228    -0.0038 </r>
       <r>    -8.4476     0.0248    -0.0019 </r>
       <r>    -8.3721     0.1705     0.0109 </r>
       <r>    -8.2966     0.3670     0.0386 </r>
       <r>    -8.2211     0.4610     0.0735 </r>
       <r>    -8.1456     0.3619     0.1008 </r>
       <r>    -8.0700     0.1649     0.1132 </r>
       <r>    -7.9945     0.0221     0.1149 </r>
       <r>    -7.9190    -0.0233     0.1131 </r>
       <r>    -7.8435    -0.0190     0.1117 </r>
       <r>    -7.7680    -0.0114     0.1108 </r>
       <r>    -7.6925    -0.0156     0.1097 </r>
       <r>    -7.6170    -0.0246     0.1078 </r>
       <r>    -7.5414    -0.0037     0.1075 </r>
       <r>    -7.4659     0.0990     0.1150 </r>
       <r>    -7.3904     0.2699     0.1354 </r>
       <r>    -7.3149     0.3748     0.1637 </r>
       <r>    -7.2394     0.3263     0.1883 </r>
       <r>    -7.1639     0.3339     0.2135 </r>
       <r>    -7.0884     0.7394     0.2694 </r>
       <r>    -7.0128     1.4483     0.3787 </r>
       <r>    -6.9373     1.8217     0.5163 </r>
       <r>    -6.8618     1.4412     0.6251 </r>
       <r>    -6.7863     0.6609     0.6750 </r>
       <r>    -6.7108     0.0894     0.6818 </r>
       <r>    -6.6353    -0.0952     0.6746 </r>
       <r>    -6.5598    -0.0867     0.6681 </r>
       <r>    -6.4843    -0.0755     0.6624 </r>
       <r>    -6.4087    -0.1052     0.6544 </r>
       <r>    -6.3332    -0.0677     0.6493 </r>
       <r>    -6.2577     0.2612     0.6690 </r>
       <r>    -6.1822     0.9739     0.7426 </r>
       <r>    -6.1067     1.7429     0.8742 </r>
       <r>    -6.0312     2.1167     1.0340 </r>
       <r>    -5.9557     2.1376     1.1955 </r>
       <r>    -5.8801     2.1395     1.3570 </r>
       <r>    -5.8046     2.0322     1.5105 </r>
       <r>    -5.7291     1.4962     1.6234 </r>
       <r>    -5.6536     0.6874     1.6754 </r>
       <r>    -5.5781     0.0784     1.6813 </r>
       <r>    -5.5026    -0.1641     1.6689 </r>
       <r>    -5.4271    -0.1803     1.6553 </r>
       <r>    -5.3515    -0.0019     1.6551 </r>
       <r>    -5.2760     0.5086     1.6935 </r>
       <r>    -5.2005     1.2569     1.7884 </r>
       <r>    -5.1250     1.7676     1.9219 </r>
       <r>    -5.0495     1.7936     2.0574 </r>
       <r>    -4.9740     1.7104     2.1865 </r>
       <r>    -4.8985     1.7923     2.3219 </r>
       <r>    -4.8230     1.6779     2.4486 </r>
       <r>    -4.7474     1.0980     2.5315 </r>
       <r>    -4.6719     0.4390     2.5646 </r>
       <r>    -4.5964     0.2101     2.5805 </r>
       <r>    -4.5209     0.5987     2.6257 </r>
       <r>    -4.4454     1.5949     2.7462 </r>
       <r>    -4.3699     2.8360     2.9603 </r>
       <r>    -4.2944     3.4321     3.2195 </r>
       <r>    -4.2188     2.7353     3.4260 </r>
       <r>    -4.1433     1.2168     3.5179 </r>
       <r>    -4.0678     0.0758     3.5236 </r>
       <r>    -3.9923     0.3095     3.5470 </r>
       <r>    -3.9168     2.4462     3.7317 </r>
       <r>    -3.8413     6.3375     4.2103 </r>
       <r>    -3.7658    10.4132     4.9966 </r>
       <r>    -3.6902    12.0130     5.9038 </r>
       <r>    -3.6147     9.9869     6.6579 </r>
       <r>    -3.5392     6.4906     7.1480 </r>
       <r>    -3.4637     4.7574     7.5073 </r>
       <r>    -3.3882     5.8873     7.9519 </r>
       <r>    -3.3127     9.0115     8.6324 </r>
       <r>    -3.2372    13.0272     9.6161 </r>
       <r>    -3.1617    16.5484    10.8657 </r>
       <r>    -3.0861    17.7297    12.2046 </r>
       <r>    -3.0106    15.8747    13.4033 </r>
       <r>    -2.9351    12.1088    14.3177 </r>
       <r>    -2.8596     8.1307    14.9317 </r>
       <r>    -2.7841     5.8613    15.3743 </r>
       <r>    -2.7086     7.1553    15.9146 </r>
       <r>    -2.6331    11.6349    16.7932 </r>
       <r>    -2.5575    15.9384    17.9968 </r>
       <r>    -2.4820    16.7644    19.2627 </r>
       <r>    -2.4065    14.3340    20.3451 </r>
       <r>    -2.3310    12.0515    21.2552 </r>
       <r>    -2.2555    12.6226    22.2084 </r>
       <r>    -2.1800    15.6665    23.3914 </r>
       <r>    -2.1045    19.4399    24.8594 </r>
       <r>    -2.0289    22.8129    26.5820 </r>
       <r>    -1.9534    25.0737    28.4755 </r>
       <r>    -1.8779    25.5004    30.4011 </r>
       <r>    -1.8024    23.5711    32.1810 </r>
       <r>    -1.7269    19.8379    33.6791 </r>
       <r>    -1.6514    16.5422    34.9282 </r>
       <r>    -1.5759    15.9707    36.1342 </r>
       <r>    -1.5004    18.2453    37.5120 </r>
       <r>    -1.4248    21.2646    39.1178 </r>
       <r>    -1.3493    22.4506    40.8131 </r>
       <r>    -1.2738    21.2734    42.4195 </r>
       <r>    -1.1983    20.0285    43.9319 </r>
       <r>    -1.1228    21.1883    45.5319 </r>
       <r>    -1.0473    24.7669    47.4022 </r>
       <r>    -0.9718    28.4962    49.5540 </r>
       <r>    -0.8962    29.6863    51.7957 </r>
       <r>    -0.8207    27.7943    53.8946 </r>
       <r>    -0.7452    25.4771    55.8185 </r>
       <r>    -0.6697    25.2496    57.7251 </r>
       <r>    -0.5942    25.6906    59.6651 </r>
       <r>    -0.5187    23.2431    61.4203 </r>
       <r>    -0.4432    16.8935    62.6960 </r>
       <r>    -0.3676     9.2556    63.3949 </r>
       <r>    -0.2921     3.5154    63.6604 </r>
       <r>    -0.2166     0.6624    63.7104 </r>
       <r>    -0.1411    -0.1382    63.7000 </r>
       <r>    -0.0656     0.1688    63.7127 </r>
       <r>     0.0099     0.9743    63.7863 </r>
       <r>     0.0854     1.6784    63.9130 </r>
       <r>     0.1609     1.9997    64.0640 </r>
       <r>     0.2365     2.2693    64.2354 </r>
       <r>     0.3120     2.7461    64.4428 </r>
       <r>     0.3875     3.0229    64.6710 </r>
       <r>     0.4630     2.5715    64.8652 </r>
       <r>     0.5385     1.4994    64.9784 </r>
       <r>     0.6140     0.4172    65.0099 </r>
       <r>     0.6895    -0.2086    64.9942 </r>
       <r>     0.7651    -0.2116    64.9782 </r>
       <r>     0.8406     0.5736    65.0215 </r>
       <r>     0.9161     2.0678    65.1777 </r>
       <r>     0.9916     3.3355    65.4295 </r>
       <r>     1.0671     3.2124    65.6721 </r>
       <r>     1.1426     1.9684    65.8207 </r>
       <r>     1.2181     1.4066    65.9270 </r>
       <r>     1.2937     2.7821    66.1370 </r>
       <r>     1.3692     5.1691    66.5274 </r>
       <r>     1.4447     6.4080    67.0113 </r>
       <r>     1.5202     5.4813    67.4252 </r>
       <r>     1.5957     3.2719    67.6723 </r>
       <r>     1.6712     1.2077    67.7635 </r>
       <r>     1.7467     0.1827    67.7773 </r>
       <r>     1.8222     0.5612    67.8196 </r>
       <r>     1.8978     2.0922    67.9776 </r>
       <r>     1.9733     3.7179    68.2584 </r>
       <r>     2.0488     4.2934    68.5826 </r>
       <r>     2.1243     3.6234    68.8562 </r>
       <r>     2.1998     2.3332    69.0324 </r>
       <r>     2.2753     1.0728    69.1134 </r>
       <r>     2.3508     0.2176    69.1298 </r>
       <r>     2.4264    -0.1262    69.1203 </r>
       <r>     2.5019    -0.0742    69.1147 </r>
       <r>     2.5774     0.2033    69.1300 </r>
       <r>     2.6529     0.5698    69.1731 </r>
       <r>     2.7284     0.8731    69.2390 </r>
       <r>     2.8039     0.9977    69.3143 </r>
       <r>     2.8794     1.1009    69.3975 </r>
       <r>     2.9550     1.6065    69.5188 </r>
       <r>     3.0305     2.5796    69.7136 </r>
       <r>     3.1060     3.2892    69.9620 </r>
       <r>     3.1815     2.9499    70.1847 </r>
       <r>     3.2570     1.7367    70.3159 </r>
       <r>     3.3325     0.5403    70.3567 </r>
       <r>     3.4080    -0.0759    70.3509 </r>
       <r>     3.4835    -0.2209    70.3343 </r>
       <r>     3.5591    -0.1767    70.3209 </r>
       <r>     3.6346     0.0532    70.3249 </r>
       <r>     3.7101     0.6368    70.3730 </r>
       <r>     3.7856     1.4280    70.4809 </r>
       <r>     3.8611     1.8287    70.6189 </r>
       <r>     3.9366     1.4451    70.7281 </r>
       <r>     4.0121     0.6508    70.7772 </r>
       <r>     4.0877     0.1487    70.7884 </r>
       <r>     4.1632     0.2128    70.8045 </r>
       <r>     4.2387     0.5433    70.8455 </r>
       <r>     4.3142     0.6949    70.8980 </r>
       <r>     4.3897     0.6801    70.9494 </r>
       <r>     4.4652     1.1066    71.0329 </r>
       <r>     4.5407     2.4113    71.2150 </r>
       <r>     4.6163     4.0505    71.5209 </r>
       <r>     4.6918     4.9426    71.8941 </r>
       <r>     4.7673     4.7509    72.2529 </r>
       <r>     4.8428     4.1103    72.5633 </r>
       <r>     4.9183     3.5107    72.8284 </r>
       <r>     4.9938     2.9328    73.0498 </r>
       <r>     5.0693     2.6936    73.2532 </r>
       <r>     5.1448     3.2533    73.4989 </r>
       <r>     5.2204     4.0073    73.8015 </r>
       <r>     5.2959     3.7512    74.0848 </r>
       <r>     5.3714     2.3977    74.2658 </r>
       <r>     5.4469     0.9693    74.3390 </r>
       <r>     5.5224     0.1702    74.3519 </r>
       <r>     5.5979    -0.0798    74.3459 </r>
       <r>     5.6734    -0.0994    74.3384 </r>
       <r>     5.7490    -0.0794    74.3324 </r>
       <r>     5.8245    -0.0739    74.3268 </r>
       <r>     5.9000    -0.0363    74.3240 </r>
       <r>     5.9755     0.1342    74.3342 </r>
       <r>     6.0510     0.4580    74.3688 </r>
       <r>     6.1265     0.8123    74.4301 </r>
       <r>     6.2020     1.1378    74.5160 </r>
       <r>     6.2776     1.6229    74.6386 </r>
       <r>     6.3531     2.5584    74.8318 </r>
       <r>     6.4286     4.0902    75.1406 </r>
       <r>     6.5041     5.9612    75.5908 </r>
       <r>     6.5796     7.3286    76.1442 </r>
       <r>     6.6551     7.2208    76.6895 </r>
       <r>     6.7306     5.6053    77.1127 </r>
       <r>     6.8061     3.7700    77.3974 </r>
       <r>     6.8817     3.0048    77.6243 </r>
       <r>     6.9572     3.0763    77.8566 </r>
       <r>     7.0327     2.7955    78.0677 </r>
       <r>     7.1082     1.7514    78.2000 </r>
       <r>     7.1837     0.6015    78.2454 </r>
       <r>     7.2592    -0.0338    78.2428 </r>
       <r>     7.3347    -0.1856    78.2288 </r>
       <r>     7.4103    -0.1872    78.2147 </r>
       <r>     7.4858    -0.2237    78.1978 </r>
       <r>     7.5613    -0.1801    78.1842 </r>
       <r>     7.6368     0.3748    78.2125 </r>
       <r>     7.7123     1.9519    78.3599 </r>
       <r>     7.7878     4.4075    78.6927 </r>
       <r>     7.8633     6.4158    79.1772 </r>
       <r>     7.9389     6.4579    79.6649 </r>
       <r>     8.0144     4.6487    80.0159 </r>
       <r>     8.0899     2.6809    80.2184 </r>
       <r>     8.1654     1.6836    80.3455 </r>
       <r>     8.2409     1.2909    80.4430 </r>
       <r>     8.3164     1.0325    80.5209 </r>
       <r>     8.3919     1.2685    80.6167 </r>
       <r>     8.4674     2.4131    80.7990 </r>
       <r>     8.5430     4.3186    81.1251 </r>
       <r>     8.6185     6.4541    81.6124 </r>
       <r>     8.6940     7.8715    82.2068 </r>
       <r>     8.7695     7.5329    82.7757 </r>
       <r>     8.8450     5.4207    83.1850 </r>
       <r>     8.9205     2.7392    83.3919 </r>
       <r>     8.9960     0.8349    83.4549 </r>
       <r>     9.0716     0.3834    83.4839 </r>
       <r>     9.1471     1.2542    83.5786 </r>
       <r>     9.2226     2.6428    83.7781 </r>
       <r>     9.2981     3.5664    84.0475 </r>
       <r>     9.3736     3.5036    84.3120 </r>
       <r>     9.4491     2.5797    84.5068 </r>
       <r>     9.5246     1.3779    84.6109 </r>
       <r>     9.6002     0.6985    84.6636 </r>
       <r>     9.6757     1.1037    84.7470 </r>
       <r>     9.7512     2.3226    84.9223 </r>
       <r>     9.8267     3.3192    85.1730 </r>
       <r>     9.9022     3.3498    85.4260 </r>
       <r>     9.9777     2.7431    85.6331 </r>
       <r>    10.0532     2.4228    85.8161 </r>
       <r>    10.1287     3.1103    86.0509 </r>
       <r>    10.2043     4.8371    86.4162 </r>
       <r>    10.2798     6.5691    86.9122 </r>
       <r>    10.3553     6.7909    87.4251 </r>
       <r>    10.4308     5.0647    87.8075 </r>
       <r>    10.5063     2.5273    87.9984 </r>
       <r>    10.5818     0.6197    88.0452 </r>
       <r>    10.6573    -0.1721    88.0322 </r>
       <r>    10.7329    -0.2476    88.0135 </r>
       <r>    10.8084    -0.1266    88.0039 </r>
       <r>    10.8839    -0.0408    88.0008 </r>
       <r>    10.9594    -0.0091    88.0001 </r>
       <r>    11.0349    -0.0015    88.0000 </r>
       <r>    11.1104    -0.0002    88.0000 </r>
       <r>    11.1859    -0.0000    88.0000 </r>
       <r>    11.2615    -0.0000    88.0000 </r>
       <r>    11.3370    -0.0000    88.0000 </r>
       <r>    11.4125    -0.0000    88.0000 </r>
       <r>    11.4880    -0.0000    88.0000 </r>
       <r>    11.5635    -0.0000    88.0000 </r>
       <r>    11.6390    -0.0000    88.0000 </r>
       <r>    11.7145     0.0000    88.0000 </r>
       <r>    11.7900     0.0000    88.0000 </r>
       <r>    11.8656     0.0000    88.0000 </r>
       <r>    11.9411     0.0000    88.0000 </r>
       <r>    12.0166     0.0000    88.0000 </r>
       <r>    12.0921     0.0000    88.0000 </r>
       <r>    12.1676     0.0000    88.0000 </r>
       <r>    12.2431     0.0000    88.0000 </r>
       <r>    12.3186     0.0000    88.0000 </r>
       <r>    12.3942     0.0000    88.0000 </r>
      </set>
     </set>
    </array>
   </total>
  </dos>
 </calculation>
 <structure name="finalpos" >
  <crystal>
   <varray name="basis" >
    <v>       3.63000011       0.00000000       0.00000000 </v>
    <v>       0.00000000       3.63000011       0.00000000 </v>
    <v>       0.00000000       0.00000000      24.07500000 </v>
   </varray>
   <i name="volume">    317.23388750 </i>
   <varray name="rec_basis" >
    <v>       0.27548208       0.00000000       0.00000000 </v>
    <v>       0.00000000       0.27548208       0.00000000 </v>
    <v>       0.00000000       0.00000000       0.04153686 </v>
   </varray>
  </crystal>
  <varray name="positions" >
   <v>       0.00000000       0.00000000       0.00000000 </v>
   <v>       0.50000000       0.50000000       0.00000000 </v>
   <v>       0.00000000       0.50000000       0.07538941 </v>
   <v>       0.50000000       0.00000000       0.07538941 </v>
   <v>       0.00000000      -0.00000000       0.14633039 </v>
   <v>       0.50000000       0.50000000       0.14633039 </v>
   <v>       0.00000000       0.50000000       0.21721924 </v>
   <v>       0.50000000       0.00000000       0.21721924 </v>
   <v>      -0.00000000      -0.00000000       0.28810470 </v>
   <v>       0.50000000       0.50000000       0.28810470 </v>
   <v>       0.00000000       0.50000000       0.35980567 </v>
   <v>       0.50000000       0.00000000       0.35980567 </v>
  </varray>
  <varray name="selective"  type="logical" >
   <v type="logical" >  F  F  F </v>
   <v type="logical" >  F  F  F </v>
   <v type="logical" >  F  F  F </v>
   <v type="logical" >  F  F  F </v>
   <v type="logical" >  T  T  T </v>
   <v type="logical" >  T  T  T </v>
   <v type="logical" >  T  T  T </v>
   <v type="logical" >  T  T  T </v>
   <v type="logical" >  T  T  T </v>
   <v type="logical" >  T  T  T </v>
   <v type="logical" >  T  T  T </v>
   <v type="logical" >  T  T  T </v>
  </varray>
  <nose>
   <v>      -3.00000000       0.00000000       0.00010000       0.00010000 </v>
  </nose>
 </structure>
</modeling>
