unknown system                          
           1
     3.630000    0.000000    0.000000
     0.000000    3.630000    0.000000
     0.000000    0.000000   24.075000
   Cu
    12
Direct configuration=     1
   0.00000000  0.00000000  0.00000000
   0.50000000  0.50000000  0.00000000
   0.00000000  0.50000000  0.07538941
   0.50000000  0.00000000  0.07538941
   0.00000000  0.00000000  0.15077882
   0.50000000  0.50000000  0.15077882
   0.00000000  0.50000000  0.22616823
   0.50000000  0.00000000  0.22616823
   0.00000000  0.00000000  0.30155764
   0.50000000  0.50000000  0.30155764
   0.00000000  0.50000000  0.37694705
   0.50000000  0.00000000  0.37694705
Direct configuration=     2
   0.00000000  0.00000000  0.00000000
   0.50000000  0.50000000  0.00000000
   0.00000000  0.50000000  0.07538941
   0.50000000  0.00000000  0.07538941
   0.00000000  0.00000000  0.15071256
   0.50000000  0.50000000  0.15071256
   0.00000000  0.50000000  0.22620674
   0.50000000  0.00000000  0.22620674
   0.00000000 -0.00000000  0.30130025
   0.50000000  0.50000000  0.30130025
   0.00000000  0.50000000  0.37639986
   0.50000000  0.00000000  0.37639986
Direct configuration=     3
   0.00000000  0.00000000  0.00000000
   0.50000000  0.50000000  0.00000000
   0.00000000  0.50000000  0.07538941
   0.50000000  0.00000000  0.07538941
   0.00000000  0.00000000  0.15051380
   0.50000000  0.50000000  0.15051380
   0.00000000  0.50000000  0.22632226
   0.50000000  0.00000000  0.22632226
   0.00000000 -0.00000000  0.30052810
   0.50000000  0.50000000  0.30052810
   0.00000000  0.50000000  0.37475829
   0.50000000  0.00000000  0.37475829
Direct configuration=     4
   0.00000000  0.00000000  0.00000000
   0.50000000  0.50000000  0.00000000
   0.00000000  0.50000000  0.07538941
   0.50000000  0.00000000  0.07538941
   0.00000000  0.00000000  0.15011626
   0.50000000  0.50000000  0.15011626
   0.00000000  0.50000000  0.22655332
   0.50000000  0.00000000  0.22655332
   0.00000000 -0.00000000  0.29898380
   0.50000000  0.50000000  0.29898380
   0.00000000  0.50000000  0.37147515
   0.50000000  0.00000000  0.37147515
Direct configuration=     5
   0.00000000  0.00000000  0.00000000
   0.50000000  0.50000000  0.00000000
   0.00000000  0.50000000  0.07538941
   0.50000000  0.00000000  0.07538941
   0.00000000  0.00000000  0.15022635
   0.50000000  0.50000000  0.15022635
   0.00000000  0.50000000  0.22604301
   0.50000000  0.00000000  0.22604301
   0.00000000 -0.00000000  0.29860913
   0.50000000  0.50000000  0.29860913
   0.00000000  0.50000000  0.37080416
   0.50000000  0.00000000  0.37080416
Direct configuration=     6
   0.00000000  0.00000000  0.00000000
   0.50000000  0.50000000  0.00000000
   0.00000000  0.50000000  0.07538941
   0.50000000  0.00000000  0.07538941
   0.00000000  0.00000000  0.15055662
   0.50000000  0.50000000  0.15055662
   0.00000000  0.50000000  0.22451210
   0.50000000  0.00000000  0.22451210
   0.00000000 -0.00000000  0.29748511
   0.50000000  0.50000000  0.29748511
   0.00000000  0.50000000  0.36879122
   0.50000000  0.00000000  0.36879122
Direct configuration=     7
   0.00000000  0.00000000  0.00000000
   0.50000000  0.50000000  0.00000000
   0.00000000  0.50000000  0.07538941
   0.50000000  0.00000000  0.07538941
   0.00000000 -0.00000000  0.15121716
   0.50000000  0.50000000  0.15121716
   0.00000000  0.50000000  0.22145027
   0.50000000  0.00000000  0.22145027
   0.00000000 -0.00000000  0.29523708
   0.50000000  0.50000000  0.29523708
   0.00000000  0.50000000  0.36476533
   0.50000000  0.00000000  0.36476533
Direct configuration=     8
   0.00000000  0.00000000  0.00000000
   0.50000000  0.50000000  0.00000000
   0.00000000  0.50000000  0.07538941
   0.50000000  0.00000000  0.07538941
   0.00000000 -0.00000000  0.15076250
   0.50000000  0.50000000  0.15076250
   0.00000000  0.50000000  0.22355775
   0.50000000  0.00000000  0.22355775
   0.00000000 -0.00000000  0.29678442
   0.50000000  0.50000000  0.29678442
   0.00000000  0.50000000  0.36753637
   0.50000000  0.00000000  0.36753637
Direct configuration=     9
   0.00000000  0.00000000  0.00000000
   0.50000000  0.50000000  0.00000000
   0.00000000  0.50000000  0.07538941
   0.50000000  0.00000000  0.07538941
   0.00000000 -0.00000000  0.15064413
   0.50000000  0.50000000  0.15064413
   0.00000000  0.50000000  0.22315473
   0.50000000  0.00000000  0.22315473
   0.00000000 -0.00000000  0.29613580
   0.50000000  0.50000000  0.29613580
   0.00000000  0.50000000  0.36699001
   0.50000000  0.00000000  0.36699001
Direct configuration=    10
   0.00000000  0.00000000  0.00000000
   0.50000000  0.50000000  0.00000000
   0.00000000  0.50000000  0.07538941
   0.50000000  0.00000000  0.07538941
   0.00000000 -0.00000000  0.15028900
   0.50000000  0.50000000  0.15028900
   0.00000000  0.50000000  0.22194569
   0.50000000  0.00000000  0.22194569
   0.00000000 -0.00000000  0.29418996
   0.50000000  0.50000000  0.29418996
   0.00000000  0.50000000  0.36535091
   0.50000000  0.00000000  0.36535091
Direct configuration=    11
   0.00000000  0.00000000  0.00000000
   0.50000000  0.50000000  0.00000000
   0.00000000  0.50000000  0.07538941
   0.50000000  0.00000000  0.07538941
   0.00000000 -0.00000000  0.14957874
   0.50000000  0.50000000  0.14957874
   0.00000000  0.50000000  0.21952760
   0.50000000  0.00000000  0.21952760
  -0.00000000 -0.00000000  0.29029828
   0.50000000  0.50000000  0.29029828
   0.00000000  0.50000000  0.36207272
   0.50000000  0.00000000  0.36207272
Direct configuration=    12
   0.00000000  0.00000000  0.00000000
   0.50000000  0.50000000  0.00000000
   0.00000000  0.50000000  0.07538941
   0.50000000  0.00000000  0.07538941
   0.00000000 -0.00000000  0.14833567
   0.50000000  0.50000000  0.14833567
   0.00000000  0.50000000  0.21922112
   0.50000000  0.00000000  0.21922112
  -0.00000000 -0.00000000  0.28943432
   0.50000000  0.50000000  0.28943432
   0.00000000  0.50000000  0.36120511
   0.50000000  0.00000000  0.36120511
Direct configuration=    13
   0.00000000  0.00000000  0.00000000
   0.50000000  0.50000000  0.00000000
   0.00000000  0.50000000  0.07538941
   0.50000000  0.00000000  0.07538941
   0.00000000 -0.00000000  0.14717820
   0.50000000  0.50000000  0.14717820
   0.00000000  0.50000000  0.21893573
   0.50000000  0.00000000  0.21893573
  -0.00000000 -0.00000000  0.28862986
   0.50000000  0.50000000  0.28862986
   0.00000000  0.50000000  0.36039725
   0.50000000  0.00000000  0.36039725
Direct configuration=    14
   0.00000000  0.00000000  0.00000000
   0.50000000  0.50000000  0.00000000
   0.00000000  0.50000000  0.07538941
   0.50000000  0.00000000  0.07538941
   0.00000000 -0.00000000  0.14662611
   0.50000000  0.50000000  0.14662611
   0.00000000  0.50000000  0.21824717
   0.50000000  0.00000000  0.21824717
  -0.00000000 -0.00000000  0.28871888
   0.50000000  0.50000000  0.28871888
   0.00000000  0.50000000  0.35997772
   0.50000000  0.00000000  0.35997772
Direct configuration=    15
   0.00000000  0.00000000  0.00000000
   0.50000000  0.50000000  0.00000000
   0.00000000  0.50000000  0.07538941
   0.50000000  0.00000000  0.07538941
   0.00000000 -0.00000000  0.14627880
   0.50000000  0.50000000  0.14627880
   0.00000000  0.50000000  0.21781400
   0.50000000  0.00000000  0.21781400
  -0.00000000 -0.00000000  0.28877489
   0.50000000  0.50000000  0.28877489
   0.00000000  0.50000000  0.35971380
   0.50000000  0.00000000  0.35971380
Direct configuration=    16
   0.00000000  0.00000000  0.00000000
   0.50000000  0.50000000  0.00000000
   0.00000000  0.50000000  0.07538941
   0.50000000  0.00000000  0.07538941
   0.00000000 -0.00000000  0.14631963
   0.50000000  0.50000000  0.14631963
   0.00000000  0.50000000  0.21786492
   0.50000000  0.00000000  0.21786492
  -0.00000000 -0.00000000  0.28876830
   0.50000000  0.50000000  0.28876830
   0.00000000  0.50000000  0.35974483
   0.50000000  0.00000000  0.35974483
Direct configuration=    17
   0.00000000  0.00000000  0.00000000
   0.50000000  0.50000000  0.00000000
   0.00000000  0.50000000  0.07538941
   0.50000000  0.00000000  0.07538941
   0.00000000 -0.00000000  0.14636227
   0.50000000  0.50000000  0.14636227
   0.00000000  0.50000000  0.21754866
   0.50000000  0.00000000  0.21754866
  -0.00000000 -0.00000000  0.28858169
   0.50000000  0.50000000  0.28858169
   0.00000000  0.50000000  0.35977074
   0.50000000  0.00000000  0.35977074
Direct configuration=    18
   0.00000000  0.00000000  0.00000000
   0.50000000  0.50000000  0.00000000
   0.00000000  0.50000000  0.07538941
   0.50000000  0.00000000  0.07538941
   0.00000000 -0.00000000  0.14637391
   0.50000000  0.50000000  0.14637391
   0.00000000  0.50000000  0.21746239
   0.50000000  0.00000000  0.21746239
  -0.00000000 -0.00000000  0.28853078
   0.50000000  0.50000000  0.28853078
   0.00000000  0.50000000  0.35977780
   0.50000000  0.00000000  0.35977780
Direct configuration=    19
   0.00000000  0.00000000  0.00000000
   0.50000000  0.50000000  0.00000000
   0.00000000  0.50000000  0.07538941
   0.50000000  0.00000000  0.07538941
   0.00000000  0.00000000  0.14639718
   0.50000000  0.50000000  0.14639718
   0.00000000  0.50000000  0.21728984
   0.50000000  0.00000000  0.21728984
  -0.00000000 -0.00000000  0.28842897
   0.50000000  0.50000000  0.28842897
   0.00000000  0.50000000  0.35979194
   0.50000000  0.00000000  0.35979194
Direct configuration=    20
   0.00000000  0.00000000  0.00000000
   0.50000000  0.50000000  0.00000000
   0.00000000  0.50000000  0.07538941
   0.50000000  0.00000000  0.07538941
   0.00000000  0.00000000  0.14644372
   0.50000000  0.50000000  0.14644372
   0.00000000  0.50000000  0.21694473
   0.50000000  0.00000000  0.21694473
  -0.00000000 -0.00000000  0.28822534
   0.50000000  0.50000000  0.28822534
   0.00000000  0.50000000  0.35982021
   0.50000000  0.00000000  0.35982021
Direct configuration=    21
   0.00000000  0.00000000  0.00000000
   0.50000000  0.50000000  0.00000000
   0.00000000  0.50000000  0.07538941
   0.50000000  0.00000000  0.07538941
   0.00000000  0.00000000  0.14640520
   0.50000000  0.50000000  0.14640520
   0.00000000  0.50000000  0.21723034
   0.50000000  0.00000000  0.21723034
  -0.00000000 -0.00000000  0.28839386
   0.50000000  0.50000000  0.28839386
   0.00000000  0.50000000  0.35979681
   0.50000000  0.00000000  0.35979681
Direct configuration=    22
   0.00000000  0.00000000  0.00000000
   0.50000000  0.50000000  0.00000000
   0.00000000  0.50000000  0.07538941
   0.50000000  0.00000000  0.07538941
   0.00000000  0.00000000  0.14640032
   0.50000000  0.50000000  0.14640032
   0.00000000  0.50000000  0.21726654
   0.50000000  0.00000000  0.21726654
  -0.00000000 -0.00000000  0.28841522
   0.50000000  0.50000000  0.28841522
   0.00000000  0.50000000  0.35979385
   0.50000000  0.00000000  0.35979385
Direct configuration=    23
   0.00000000  0.00000000  0.00000000
   0.50000000  0.50000000  0.00000000
   0.00000000  0.50000000  0.07538941
   0.50000000  0.00000000  0.07538941
   0.00000000 -0.00000000  0.14632301
   0.50000000  0.50000000  0.14632301
   0.00000000  0.50000000  0.21721425
   0.50000000  0.00000000  0.21721425
  -0.00000000 -0.00000000  0.28807190
   0.50000000  0.50000000  0.28807190
   0.00000000  0.50000000  0.35980692
   0.50000000  0.00000000  0.35980692
Direct configuration=    24
   0.00000000  0.00000000  0.00000000
   0.50000000  0.50000000  0.00000000
   0.00000000  0.50000000  0.07538941
   0.50000000  0.00000000  0.07538941
   0.00000000 -0.00000000  0.14633039
   0.50000000  0.50000000  0.14633039
   0.00000000  0.50000000  0.21721924
   0.50000000  0.00000000  0.21721924
  -0.00000000 -0.00000000  0.28810470
   0.50000000  0.50000000  0.28810470
   0.00000000  0.50000000  0.35980567
   0.50000000  0.00000000  0.35980567
