  34  34   0   0
  0.2629040E+02  0.7260000E-09  0.5133596E-09  0.2398379E-08  0.5000000E-15
  1.000000000000000E-004
  CAR 
 unknown system                          
     11.82287216    -10.24032698  301      0.79026402      1.00000000
    -10.240  0.0000E+00  0.0000E+00  0.0000E+00  0.0000E+00
    -10.167  0.0000E+00  0.0000E+00  0.0000E+00  0.0000E+00
    -10.093  0.0000E+00  0.0000E+00  0.0000E+00  0.0000E+00
    -10.020  0.0000E+00  0.0000E+00  0.0000E+00  0.0000E+00
     -9.946  0.0000E+00  0.0000E+00  0.0000E+00  0.0000E+00
     -9.873 -0.5136E-31 -0.5136E-31 -0.3777E-32 -0.3777E-32
     -9.799 -0.1727E-28 -0.1727E-28 -0.1274E-29 -0.1274E-29
     -9.726 -0.4431E-26 -0.4431E-26 -0.3271E-27 -0.3271E-27
     -9.652 -0.8649E-24 -0.8649E-24 -0.6394E-25 -0.6394E-25
     -9.578 -0.1284E-21 -0.1284E-21 -0.9510E-23 -0.9510E-23
     -9.505 -0.1450E-19 -0.1450E-19 -0.1076E-20 -0.1076E-20
     -9.431 -0.1244E-17 -0.1244E-17 -0.9259E-19 -0.9259E-19
     -9.358 -0.7847E-16 -0.7847E-16 -0.5864E-17 -0.5864E-17
     -9.284 -0.3865E-14 -0.3865E-14 -0.2901E-15 -0.2901E-15
     -9.211 -0.1440E-12 -0.1440E-12 -0.1088E-13 -0.1088E-13
     -9.137 -0.4057E-11 -0.4057E-11 -0.3092E-12 -0.3092E-12
     -9.064 -0.8617E-10 -0.8617E-10 -0.6647E-11 -0.6647E-11
     -8.990 -0.1376E-08 -0.1376E-08 -0.1078E-09 -0.1078E-09
     -8.917 -0.1643E-07 -0.1643E-07 -0.1316E-08 -0.1316E-08
     -8.843 -0.1458E-06 -0.1458E-06 -0.1204E-07 -0.1204E-07
     -8.769 -0.9498E-06 -0.9498E-06 -0.8189E-07 -0.8189E-07
     -8.696 -0.4453E-05 -0.4453E-05 -0.4094E-06 -0.4094E-06
     -8.622 -0.1441E-04 -0.1441E-04 -0.1469E-05 -0.1469E-05
     -8.549 -0.2873E-04 -0.2873E-04 -0.3582E-05 -0.3582E-05
     -8.475 -0.1842E-04 -0.1842E-04 -0.4936E-05 -0.4936E-05
     -8.402  0.7715E-04  0.7715E-04  0.7374E-06  0.7374E-06
     -8.328  0.2788E-03  0.2788E-03  0.2124E-04  0.2124E-04
     -8.255  0.4738E-03  0.4738E-03  0.5609E-04  0.5609E-04
     -8.181  0.5058E-03  0.5058E-03  0.9328E-04  0.9328E-04
     -8.108  0.4298E-03  0.4298E-03  0.1249E-03  0.1249E-03
     -8.034  0.5112E-03  0.5112E-03  0.1625E-03  0.1625E-03
     -7.960  0.8248E-03  0.8248E-03  0.2232E-03  0.2232E-03
     -7.887  0.1056E-02  0.1056E-02  0.3009E-03  0.3009E-03
     -7.813  0.9427E-03  0.9427E-03  0.3702E-03  0.3702E-03
     -7.740  0.7063E-03  0.7063E-03  0.4221E-03  0.4221E-03
     -7.666  0.7174E-03  0.7174E-03  0.4749E-03  0.4749E-03
     -7.593  0.8992E-03  0.8992E-03  0.5410E-03  0.5410E-03
     -7.519  0.9279E-03  0.9279E-03  0.6093E-03  0.6093E-03
     -7.446  0.9388E-03  0.9388E-03  0.6783E-03  0.6783E-03
     -7.372  0.1427E-02  0.1427E-02  0.7833E-03  0.7833E-03
     -7.299  0.2294E-02  0.2294E-02  0.9520E-03  0.9520E-03
     -7.225  0.2691E-02  0.2691E-02  0.1150E-02  0.1150E-02
     -7.151  0.2240E-02  0.2240E-02  0.1315E-02  0.1315E-02
     -7.078  0.1689E-02  0.1689E-02  0.1439E-02  0.1439E-02
     -7.004  0.1764E-02  0.1764E-02  0.1569E-02  0.1569E-02
     -6.931  0.2071E-02  0.2071E-02  0.1721E-02  0.1721E-02
     -6.857  0.1847E-02  0.1847E-02  0.1857E-02  0.1857E-02
     -6.784  0.1185E-02  0.1185E-02  0.1944E-02  0.1944E-02
     -6.710  0.7447E-03  0.7447E-03  0.1999E-02  0.1999E-02
     -6.637  0.7474E-03  0.7474E-03  0.2054E-02  0.2054E-02
     -6.563  0.1057E-02  0.1057E-02  0.2131E-02  0.2131E-02
     -6.490  0.1858E-02  0.1858E-02  0.2268E-02  0.2268E-02
     -6.416  0.3237E-02  0.3237E-02  0.2506E-02  0.2506E-02
     -6.342  0.4324E-02  0.4324E-02  0.2824E-02  0.2824E-02
     -6.269  0.4055E-02  0.4055E-02  0.3122E-02  0.3122E-02
     -6.195  0.2753E-02  0.2753E-02  0.3325E-02  0.3325E-02
     -6.122  0.1879E-02  0.1879E-02  0.3463E-02  0.3463E-02
     -6.048  0.2394E-02  0.2394E-02  0.3639E-02  0.3639E-02
     -5.975  0.3968E-02  0.3968E-02  0.3931E-02  0.3931E-02
     -5.901  0.5329E-02  0.5329E-02  0.4323E-02  0.4323E-02
     -5.828  0.5318E-02  0.5318E-02  0.4714E-02  0.4714E-02
     -5.754  0.4173E-02  0.4173E-02  0.5021E-02  0.5021E-02
     -5.681  0.3487E-02  0.3487E-02  0.5277E-02  0.5277E-02
     -5.607  0.4349E-02  0.4349E-02  0.5597E-02  0.5597E-02
     -5.534  0.5854E-02  0.5854E-02  0.6028E-02  0.6028E-02
     -5.460  0.6088E-02  0.6088E-02  0.6475E-02  0.6475E-02
     -5.386  0.4443E-02  0.4443E-02  0.6802E-02  0.6802E-02
     -5.313  0.2255E-02  0.2255E-02  0.6968E-02  0.6968E-02
     -5.239  0.1226E-02  0.1226E-02  0.7058E-02  0.7058E-02
     -5.166  0.2115E-02  0.2115E-02  0.7214E-02  0.7214E-02
     -5.092  0.4649E-02  0.4649E-02  0.7556E-02  0.7556E-02
     -5.019  0.7572E-02  0.7572E-02  0.8112E-02  0.8112E-02
     -4.945  0.9140E-02  0.9140E-02  0.8785E-02  0.8785E-02
     -4.872  0.8526E-02  0.8526E-02  0.9412E-02  0.9412E-02
     -4.798  0.6345E-02  0.6345E-02  0.9878E-02  0.9878E-02
     -4.725  0.3655E-02  0.3655E-02  0.1015E-01  0.1015E-01
     -4.651  0.1320E-02  0.1320E-02  0.1024E-01  0.1024E-01
     -4.577  0.1995E-03  0.1995E-03  0.1026E-01  0.1026E-01
     -4.504  0.1017E-02  0.1017E-02  0.1033E-01  0.1033E-01
     -4.430  0.3833E-02  0.3833E-02  0.1062E-01  0.1062E-01
     -4.357  0.7704E-02  0.7704E-02  0.1118E-01  0.1118E-01
     -4.283  0.1093E-01  0.1093E-01  0.1199E-01  0.1199E-01
     -4.210  0.1216E-01  0.1216E-01  0.1288E-01  0.1288E-01
     -4.136  0.1180E-01  0.1180E-01  0.1375E-01  0.1375E-01
     -4.063  0.1191E-01  0.1191E-01  0.1462E-01  0.1462E-01
     -3.989  0.1407E-01  0.1407E-01  0.1566E-01  0.1566E-01
     -3.916  0.1753E-01  0.1753E-01  0.1695E-01  0.1695E-01
     -3.842  0.2011E-01  0.2011E-01  0.1843E-01  0.1843E-01
     -3.768  0.2128E-01  0.2128E-01  0.1999E-01  0.1999E-01
     -3.695  0.2250E-01  0.2250E-01  0.2165E-01  0.2165E-01
     -3.621  0.2438E-01  0.2438E-01  0.2344E-01  0.2344E-01
     -3.548  0.2582E-01  0.2582E-01  0.2534E-01  0.2534E-01
     -3.474  0.2696E-01  0.2696E-01  0.2732E-01  0.2732E-01
     -3.401  0.3012E-01  0.3012E-01  0.2954E-01  0.2954E-01
     -3.327  0.3617E-01  0.3617E-01  0.3220E-01  0.3220E-01
     -3.254  0.4188E-01  0.4188E-01  0.3528E-01  0.3528E-01
     -3.180  0.4340E-01  0.4340E-01  0.3847E-01  0.3847E-01
     -3.107  0.4107E-01  0.4107E-01  0.4149E-01  0.4149E-01
     -3.033  0.3819E-01  0.3819E-01  0.4430E-01  0.4430E-01
     -2.959  0.3630E-01  0.3630E-01  0.4697E-01  0.4697E-01
     -2.886  0.3493E-01  0.3493E-01  0.4954E-01  0.4954E-01
     -2.812  0.3506E-01  0.3506E-01  0.5211E-01  0.5211E-01
     -2.739  0.3887E-01  0.3887E-01  0.5497E-01  0.5497E-01
     -2.665  0.4609E-01  0.4609E-01  0.5836E-01  0.5836E-01
     -2.592  0.5316E-01  0.5316E-01  0.6227E-01  0.6227E-01
     -2.518  0.5685E-01  0.5685E-01  0.6645E-01  0.6645E-01
     -2.445  0.5733E-01  0.5733E-01  0.7067E-01  0.7067E-01
     -2.371  0.5759E-01  0.5759E-01  0.7490E-01  0.7490E-01
     -2.298  0.6051E-01  0.6051E-01  0.7935E-01  0.7935E-01
     -2.224  0.6667E-01  0.6667E-01  0.8426E-01  0.8426E-01
     -2.150  0.7407E-01  0.7407E-01  0.8970E-01  0.8970E-01
     -2.077  0.7942E-01  0.7942E-01  0.9555E-01  0.9555E-01
     -2.003  0.7997E-01  0.7997E-01  0.1014E+00  0.1014E+00
     -1.930  0.7546E-01  0.7546E-01  0.1070E+00  0.1070E+00
     -1.856  0.6849E-01  0.6849E-01  0.1120E+00  0.1120E+00
     -1.783  0.6227E-01  0.6227E-01  0.1166E+00  0.1166E+00
     -1.709  0.5854E-01  0.5854E-01  0.1209E+00  0.1209E+00
     -1.636  0.5779E-01  0.5779E-01  0.1251E+00  0.1251E+00
     -1.562  0.6024E-01  0.6024E-01  0.1296E+00  0.1296E+00
     -1.489  0.6537E-01  0.6537E-01  0.1344E+00  0.1344E+00
     -1.415  0.7061E-01  0.7061E-01  0.1396E+00  0.1396E+00
     -1.342  0.7332E-01  0.7332E-01  0.1450E+00  0.1450E+00
     -1.268  0.7440E-01  0.7440E-01  0.1504E+00  0.1504E+00
     -1.194  0.7654E-01  0.7654E-01  0.1561E+00  0.1561E+00
     -1.121  0.7952E-01  0.7952E-01  0.1619E+00  0.1619E+00
     -1.047  0.8165E-01  0.8165E-01  0.1679E+00  0.1679E+00
     -0.974  0.8480E-01  0.8480E-01  0.1742E+00  0.1742E+00
     -0.900  0.9250E-01  0.9250E-01  0.1810E+00  0.1810E+00
     -0.827  0.1023E+00  0.1023E+00  0.1885E+00  0.1885E+00
     -0.753  0.1050E+00  0.1050E+00  0.1962E+00  0.1962E+00
     -0.680  0.9260E-01  0.9260E-01  0.2030E+00  0.2030E+00
     -0.606  0.6722E-01  0.6722E-01  0.2080E+00  0.2080E+00
     -0.533  0.3947E-01  0.3947E-01  0.2109E+00  0.2109E+00
     -0.459  0.1956E-01  0.1956E-01  0.2123E+00  0.2123E+00
     -0.385  0.1031E-01  0.1031E-01  0.2131E+00  0.2131E+00
     -0.312  0.8216E-02  0.8216E-02  0.2137E+00  0.2137E+00
     -0.238  0.8366E-02  0.8366E-02  0.2143E+00  0.2143E+00
     -0.165  0.7584E-02  0.7584E-02  0.2148E+00  0.2148E+00
     -0.091  0.5164E-02  0.5164E-02  0.2152E+00  0.2152E+00
     -0.018  0.2267E-02  0.2267E-02  0.2154E+00  0.2154E+00
      0.056  0.5528E-03  0.5528E-03  0.2154E+00  0.2154E+00
      0.129  0.9240E-03  0.9240E-03  0.2155E+00  0.2155E+00
      0.203  0.3061E-02  0.3061E-02  0.2157E+00  0.2157E+00
      0.276  0.5744E-02  0.5744E-02  0.2161E+00  0.2161E+00
      0.350  0.7801E-02  0.7801E-02  0.2167E+00  0.2167E+00
      0.424  0.9072E-02  0.9072E-02  0.2174E+00  0.2174E+00
      0.497  0.1029E-01  0.1029E-01  0.2181E+00  0.2181E+00
      0.571  0.1167E-01  0.1167E-01  0.2190E+00  0.2190E+00
      0.644  0.1211E-01  0.1211E-01  0.2199E+00  0.2199E+00
      0.718  0.1061E-01  0.1061E-01  0.2207E+00  0.2207E+00
      0.791  0.7969E-02  0.7969E-02  0.2213E+00  0.2213E+00
      0.865  0.5949E-02  0.5949E-02  0.2217E+00  0.2217E+00
      0.938  0.5352E-02  0.5352E-02  0.2221E+00  0.2221E+00
      1.012  0.5804E-02  0.5804E-02  0.2225E+00  0.2225E+00
      1.085  0.6661E-02  0.6661E-02  0.2230E+00  0.2230E+00
      1.159  0.7225E-02  0.7225E-02  0.2235E+00  0.2235E+00
      1.233  0.6692E-02  0.6692E-02  0.2240E+00  0.2240E+00
      1.306  0.4888E-02  0.4888E-02  0.2244E+00  0.2244E+00
      1.380  0.2945E-02  0.2945E-02  0.2246E+00  0.2246E+00
      1.453  0.2541E-02  0.2541E-02  0.2248E+00  0.2248E+00
      1.527  0.4153E-02  0.4153E-02  0.2251E+00  0.2251E+00
      1.600  0.6248E-02  0.6248E-02  0.2256E+00  0.2256E+00
      1.674  0.6868E-02  0.6868E-02  0.2261E+00  0.2261E+00
      1.747  0.6072E-02  0.6072E-02  0.2265E+00  0.2265E+00
      1.821  0.5671E-02  0.5671E-02  0.2269E+00  0.2269E+00
      1.894  0.6501E-02  0.6501E-02  0.2274E+00  0.2274E+00
      1.968  0.7525E-02  0.7525E-02  0.2280E+00  0.2280E+00
      2.042  0.7796E-02  0.7796E-02  0.2285E+00  0.2285E+00
      2.115  0.7581E-02  0.7581E-02  0.2291E+00  0.2291E+00
      2.189  0.7296E-02  0.7296E-02  0.2296E+00  0.2296E+00
      2.262  0.6884E-02  0.6884E-02  0.2301E+00  0.2301E+00
      2.336  0.6453E-02  0.6453E-02  0.2306E+00  0.2306E+00
      2.409  0.6437E-02  0.6437E-02  0.2311E+00  0.2311E+00
      2.483  0.6906E-02  0.6906E-02  0.2316E+00  0.2316E+00
      2.556  0.7222E-02  0.7222E-02  0.2321E+00  0.2321E+00
      2.630  0.6625E-02  0.6625E-02  0.2326E+00  0.2326E+00
      2.703  0.5157E-02  0.5157E-02  0.2330E+00  0.2330E+00
      2.777  0.3746E-02  0.3746E-02  0.2333E+00  0.2333E+00
      2.851  0.3447E-02  0.3447E-02  0.2335E+00  0.2335E+00
      2.924  0.4776E-02  0.4776E-02  0.2339E+00  0.2339E+00
      2.998  0.7171E-02  0.7171E-02  0.2344E+00  0.2344E+00
      3.071  0.8781E-02  0.8781E-02  0.2350E+00  0.2350E+00
      3.145  0.7916E-02  0.7916E-02  0.2356E+00  0.2356E+00
      3.218  0.5140E-02  0.5140E-02  0.2360E+00  0.2360E+00
      3.292  0.2884E-02  0.2884E-02  0.2362E+00  0.2362E+00
      3.365  0.2770E-02  0.2770E-02  0.2364E+00  0.2364E+00
      3.439  0.4275E-02  0.4275E-02  0.2367E+00  0.2367E+00
      3.512  0.5886E-02  0.5886E-02  0.2372E+00  0.2372E+00
      3.586  0.6579E-02  0.6579E-02  0.2376E+00  0.2376E+00
      3.659  0.6305E-02  0.6305E-02  0.2381E+00  0.2381E+00
      3.733  0.5770E-02  0.5770E-02  0.2385E+00  0.2385E+00
      3.807  0.5664E-02  0.5664E-02  0.2389E+00  0.2389E+00
      3.880  0.6013E-02  0.6013E-02  0.2394E+00  0.2394E+00
      3.954  0.6338E-02  0.6338E-02  0.2399E+00  0.2399E+00
      4.027  0.6194E-02  0.6194E-02  0.2403E+00  0.2403E+00
      4.101  0.5536E-02  0.5536E-02  0.2407E+00  0.2407E+00
      4.174  0.4780E-02  0.4780E-02  0.2411E+00  0.2411E+00
      4.248  0.4455E-02  0.4455E-02  0.2414E+00  0.2414E+00
      4.321  0.4757E-02  0.4757E-02  0.2417E+00  0.2417E+00
      4.395  0.5343E-02  0.5343E-02  0.2421E+00  0.2421E+00
      4.468  0.5502E-02  0.5502E-02  0.2425E+00  0.2425E+00
      4.542  0.4984E-02  0.4984E-02  0.2429E+00  0.2429E+00
      4.616  0.4686E-02  0.4686E-02  0.2433E+00  0.2433E+00
      4.689  0.5786E-02  0.5787E-02  0.2437E+00  0.2437E+00
      4.763  0.8033E-02  0.8033E-02  0.2443E+00  0.2443E+00
      4.836  0.9601E-02  0.9601E-02  0.2450E+00  0.2450E+00
      4.910  0.9008E-02  0.9008E-02  0.2456E+00  0.2456E+00
      4.983  0.6718E-02  0.6718E-02  0.2461E+00  0.2461E+00
      5.057  0.4508E-02  0.4508E-02  0.2465E+00  0.2465E+00
      5.130  0.3662E-02  0.3662E-02  0.2467E+00  0.2467E+00
      5.204  0.4149E-02  0.4149E-02  0.2470E+00  0.2470E+00
      5.277  0.5287E-02  0.5287E-02  0.2474E+00  0.2474E+00
      5.351  0.6535E-02  0.6535E-02  0.2479E+00  0.2479E+00
      5.425  0.7516E-02  0.7516E-02  0.2485E+00  0.2485E+00
      5.498  0.8026E-02  0.8026E-02  0.2491E+00  0.2491E+00
      5.572  0.8358E-02  0.8358E-02  0.2497E+00  0.2497E+00
      5.645  0.8925E-02  0.8925E-02  0.2503E+00  0.2503E+00
      5.719  0.9533E-02  0.9533E-02  0.2510E+00  0.2510E+00
      5.792  0.9711E-02  0.9711E-02  0.2517E+00  0.2517E+00
      5.866  0.9625E-02  0.9625E-02  0.2524E+00  0.2524E+00
      5.939  0.9816E-02  0.9816E-02  0.2532E+00  0.2532E+00
      6.013  0.1008E-01  0.1008E-01  0.2539E+00  0.2539E+00
      6.086  0.9703E-02  0.9703E-02  0.2546E+00  0.2546E+00
      6.160  0.8820E-02  0.8820E-02  0.2553E+00  0.2553E+00
      6.234  0.8440E-02  0.8440E-02  0.2559E+00  0.2559E+00
      6.307  0.8833E-02  0.8833E-02  0.2565E+00  0.2565E+00
      6.381  0.9147E-02  0.9147E-02  0.2572E+00  0.2572E+00
      6.454  0.8754E-02  0.8754E-02  0.2579E+00  0.2579E+00
      6.528  0.8061E-02  0.8061E-02  0.2585E+00  0.2585E+00
      6.601  0.7918E-02  0.7918E-02  0.2590E+00  0.2590E+00
      6.675  0.8751E-02  0.8751E-02  0.2597E+00  0.2597E+00
      6.748  0.1014E-01  0.1014E-01  0.2604E+00  0.2604E+00
      6.822  0.1098E-01  0.1098E-01  0.2612E+00  0.2612E+00
      6.895  0.1035E-01  0.1035E-01  0.2620E+00  0.2620E+00
      6.969  0.8465E-02  0.8464E-02  0.2626E+00  0.2626E+00
      7.043  0.6854E-02  0.6854E-02  0.2631E+00  0.2631E+00
      7.116  0.7076E-02  0.7077E-02  0.2636E+00  0.2636E+00
      7.190  0.9083E-02  0.9084E-02  0.2643E+00  0.2643E+00
      7.263  0.1110E-01  0.1110E-01  0.2651E+00  0.2651E+00
      7.337  0.1159E-01  0.1159E-01  0.2660E+00  0.2660E+00
      7.410  0.1077E-01  0.1077E-01  0.2668E+00  0.2668E+00
      7.484  0.9615E-02  0.9615E-02  0.2675E+00  0.2675E+00
      7.557  0.8406E-02  0.8406E-02  0.2681E+00  0.2681E+00
      7.631  0.7356E-02  0.7356E-02  0.2686E+00  0.2686E+00
      7.704  0.7357E-02  0.7358E-02  0.2692E+00  0.2692E+00
      7.778  0.8931E-02  0.8931E-02  0.2698E+00  0.2698E+00
      7.851  0.1136E-01  0.1136E-01  0.2707E+00  0.2707E+00
      7.925  0.1336E-01  0.1336E-01  0.2717E+00  0.2717E+00
      7.999  0.1394E-01  0.1394E-01  0.2727E+00  0.2727E+00
      8.072  0.1281E-01  0.1281E-01  0.2736E+00  0.2736E+00
      8.146  0.1075E-01  0.1075E-01  0.2744E+00  0.2744E+00
      8.219  0.9257E-02  0.9257E-02  0.2751E+00  0.2751E+00
      8.293  0.9311E-02  0.9311E-02  0.2758E+00  0.2758E+00
      8.366  0.1047E-01  0.1047E-01  0.2765E+00  0.2765E+00
      8.440  0.1116E-01  0.1116E-01  0.2774E+00  0.2774E+00
      8.513  0.1030E-01  0.1030E-01  0.2781E+00  0.2781E+00
      8.587  0.8720E-02  0.8720E-02  0.2788E+00  0.2788E+00
      8.660  0.8244E-02  0.8244E-02  0.2794E+00  0.2794E+00
      8.734  0.9546E-02  0.9546E-02  0.2801E+00  0.2801E+00
      8.808  0.1157E-01  0.1157E-01  0.2809E+00  0.2809E+00
      8.881  0.1296E-01  0.1296E-01  0.2819E+00  0.2819E+00
      8.955  0.1325E-01  0.1325E-01  0.2829E+00  0.2829E+00
      9.028  0.1259E-01  0.1259E-01  0.2838E+00  0.2838E+00
      9.102  0.1094E-01  0.1094E-01  0.2846E+00  0.2846E+00
      9.175  0.8457E-02  0.8454E-02  0.2852E+00  0.2852E+00
      9.249  0.6174E-02  0.6169E-02  0.2857E+00  0.2857E+00
      9.322  0.5227E-02  0.5227E-02  0.2860E+00  0.2860E+00
      9.396  0.5784E-02  0.5810E-02  0.2865E+00  0.2865E+00
      9.469  0.7335E-02  0.7403E-02  0.2870E+00  0.2870E+00
      9.543  0.9127E-02  0.9209E-02  0.2877E+00  0.2877E+00
      9.617  0.9964E-02  0.9995E-02  0.2884E+00  0.2884E+00
      9.690  0.8894E-02  0.8845E-02  0.2891E+00  0.2891E+00
      9.764  0.6407E-02  0.6323E-02  0.2895E+00  0.2895E+00
      9.837  0.3866E-02  0.3810E-02  0.2898E+00  0.2898E+00
      9.911  0.1996E-02  0.1979E-02  0.2900E+00  0.2900E+00
      9.984  0.7596E-03  0.7623E-03  0.2900E+00  0.2900E+00
     10.058  0.6297E-04  0.6765E-04  0.2900E+00  0.2900E+00
     10.131 -0.1675E-03 -0.1654E-03  0.2900E+00  0.2900E+00
     10.205 -0.1392E-03 -0.1386E-03  0.2900E+00  0.2900E+00
     10.278 -0.6216E-04 -0.6204E-04  0.2900E+00  0.2900E+00
     10.352 -0.1844E-04 -0.1842E-04  0.2900E+00  0.2900E+00
     10.426 -0.3863E-05 -0.3861E-05  0.2900E+00  0.2900E+00
     10.499 -0.5881E-06 -0.5879E-06  0.2900E+00  0.2900E+00
     10.573 -0.6602E-07 -0.6599E-07  0.2900E+00  0.2900E+00
     10.646 -0.5516E-08 -0.5514E-08  0.2900E+00  0.2900E+00
     10.720 -0.3451E-09 -0.3450E-09  0.2900E+00  0.2900E+00
     10.793 -0.1624E-10 -0.1623E-10  0.2900E+00  0.2900E+00
     10.867 -0.5763E-12 -0.5761E-12  0.2900E+00  0.2900E+00
     10.940 -0.1546E-13 -0.1545E-13  0.2900E+00  0.2900E+00
     11.014 -0.3137E-15 -0.3137E-15  0.2900E+00  0.2900E+00
     11.087 -0.5032E-17 -0.5032E-17  0.2900E+00  0.2900E+00
     11.161  0.0000E+00  0.0000E+00  0.2900E+00  0.2900E+00
     11.235  0.0000E+00  0.0000E+00  0.2900E+00  0.2900E+00
     11.308  0.0000E+00  0.0000E+00  0.2900E+00  0.2900E+00
     11.382  0.0000E+00  0.0000E+00  0.2900E+00  0.2900E+00
     11.455  0.0000E+00  0.0000E+00  0.2900E+00  0.2900E+00
     11.529  0.0000E+00  0.0000E+00  0.2900E+00  0.2900E+00
     11.602  0.0000E+00  0.0000E+00  0.2900E+00  0.2900E+00
     11.676  0.0000E+00  0.0000E+00  0.2900E+00  0.2900E+00
     11.749  0.0000E+00  0.0000E+00  0.2900E+00  0.2900E+00
     11.823  0.0000E+00  0.0000E+00  0.2900E+00  0.2900E+00
