       N       E                     dE             d eps       ncg     rms          rms(c)
DAV:   1     0.327116524706E+04    0.32712E+04   -0.12737E+05  3712   0.172E+03
DAV:   2     0.383308735334E+03   -0.28879E+04   -0.27606E+04  3712   0.406E+02
DAV:   3    -0.100756747630E+03   -0.48407E+03   -0.43668E+03  3720   0.209E+02
DAV:   4    -0.134009830813E+03   -0.33253E+02   -0.32295E+02  4192   0.770E+01
DAV:   5    -0.134794373435E+03   -0.78454E+00   -0.78241E+00  4224   0.110E+01    0.523E+01
DAV:   6    -0.107644790542E+03    0.27150E+02   -0.32358E+02  4120   0.121E+02    0.265E+01
DAV:   7    -0.944094907839E+02    0.13235E+02   -0.82454E+01  4120   0.775E+01    0.134E+01
DAV:   8    -0.933199758804E+02    0.10895E+01   -0.21774E+01  4328   0.707E+01    0.132E+01
DAV:   9    -0.914069532737E+02    0.19130E+01   -0.61256E+00  5240   0.379E+01    0.998E+00
DAV:  10    -0.930558635428E+02   -0.16489E+01   -0.49879E+00  5328   0.472E+01    0.994E+00
DAV:  11    -0.932115987242E+02   -0.15574E+00   -0.75919E+00  5216   0.495E+01    0.774E+00
DAV:  12    -0.947744617223E+02   -0.15629E+01   -0.38683E+00  5328   0.354E+01    0.624E+00
DAV:  13    -0.999603705641E+02   -0.51859E+01   -0.33249E+00  5216   0.221E+01    0.395E+00
DAV:  14    -0.105419702920E+03   -0.54593E+01   -0.36931E+00  4792   0.200E+01    0.280E+00
DAV:  15    -0.110336796105E+03   -0.49171E+01   -0.42549E+00  4784   0.126E+01    0.200E+00
DAV:  16    -0.112800178049E+03   -0.24634E+01   -0.22020E+00  4152   0.831E+00    0.139E+00
DAV:  17    -0.114217538115E+03   -0.14174E+01   -0.88926E-01  4096   0.609E+00    0.112E+00
DAV:  18    -0.115898057639E+03   -0.16805E+01   -0.11620E+00  4560   0.439E+00    0.770E-01
DAV:  19    -0.116587612788E+03   -0.68956E+00   -0.38895E-01  4888   0.346E+00    0.577E-01
DAV:  20    -0.116869312976E+03   -0.28170E+00   -0.91903E-02  4208   0.276E+00    0.454E-01
DAV:  21    -0.117108913535E+03   -0.23960E+00   -0.56122E-02  4128   0.141E+00    0.345E-01
DAV:  22    -0.117375679620E+03   -0.26677E+00   -0.36637E-02  4608   0.948E-01    0.270E-01
DAV:  23    -0.117545068116E+03   -0.16939E+00   -0.14712E-02  4488   0.118E+00    0.237E-01
DAV:  24    -0.117656764084E+03   -0.11170E+00   -0.48157E-03  4488   0.821E-01    0.181E-01
DAV:  25    -0.117881355667E+03   -0.22459E+00   -0.93738E-03  4792   0.779E-01    0.146E-01
DAV:  26    -0.117959865086E+03   -0.78509E-01   -0.23631E-03  4288   0.471E-01    0.103E-01
DAV:  27    -0.118037351041E+03   -0.77486E-01   -0.19528E-03  4352   0.525E-01    0.675E-02
DAV:  28    -0.118067053697E+03   -0.29703E-01   -0.97668E-04  3584   0.271E-01    0.457E-02
DAV:  29    -0.118073078114E+03   -0.60244E-02   -0.37874E-04  2752   0.231E-01    0.300E-02
DAV:  30    -0.118076410348E+03   -0.33322E-02   -0.18128E-04  2544   0.155E-01    0.200E-02
DAV:  31    -0.118077608799E+03   -0.11985E-02   -0.10745E-04  2528   0.108E-01    0.118E-02
DAV:  32    -0.118077837117E+03   -0.22832E-03   -0.65560E-05  2456   0.549E-02    0.944E-03
DAV:  33    -0.118077914965E+03   -0.77848E-04   -0.34022E-05  2448   0.566E-02
   1 F= -.13044573E+03 E0= -.13045790E+03  d E =-.130446E+03  mag=     0.0032
       N       E                     dE             d eps       ncg     rms          rms(c)
DAV:   1    -0.118116684103E+03   -0.38847E-01   -0.22900E+01  3824   0.921E+00    0.563E-01
DAV:   2    -0.118163654164E+03   -0.46970E-01   -0.51791E-01  5384   0.425E+00    0.610E-01
DAV:   3    -0.118159913859E+03    0.37403E-02   -0.24973E-02  4184   0.274E+00    0.342E-01
DAV:   4    -0.118159938022E+03   -0.24163E-04   -0.90860E-03  4632   0.176E+00    0.299E-01
DAV:   5    -0.118159913306E+03    0.24716E-04   -0.11974E-02  4496   0.260E+00    0.241E-01
DAV:   6    -0.118158470228E+03    0.14431E-02   -0.56720E-03  4848   0.174E+00    0.784E-02
DAV:   7    -0.118158452305E+03    0.17923E-04   -0.17361E-03  5008   0.644E-01
   2 F= -.13053663E+03 E0= -.13054923E+03  d E =-.908968E-01  mag=     0.0019
       N       E                     dE             d eps       ncg     rms          rms(c)
DAV:   1    -0.118157604842E+03    0.86539E-03   -0.35708E+00  3824   0.364E+00    0.201E-01
DAV:   2    -0.118164238185E+03   -0.66333E-02   -0.72174E-02  5392   0.151E+00    0.223E-01
DAV:   3    -0.118163967857E+03    0.27033E-03   -0.49104E-03  4080   0.112E+00    0.144E-01
DAV:   4    -0.118163989352E+03   -0.21495E-04   -0.17994E-03  3872   0.904E-01
   3 F= -.13054700E+03 E0= -.13055983E+03  d E =-.101268E+00  mag=     0.0015
       N       E                     dE             d eps       ncg     rms          rms(c)
DAV:   1    -0.118164038583E+03   -0.70726E-04   -0.12604E+01  3824   0.711E+00    0.637E-01
DAV:   2    -0.118194051496E+03   -0.30013E-01   -0.38385E-01  5160   0.262E+00    0.586E-01
DAV:   3    -0.118193967671E+03    0.83825E-04   -0.32950E-02  4176   0.358E+00    0.526E-01
DAV:   4    -0.118190906461E+03    0.30612E-02   -0.21591E-02  4240   0.354E+00    0.322E-01
DAV:   5    -0.118189478487E+03    0.14280E-02   -0.10797E-02  5488   0.249E+00    0.171E-01
DAV:   6    -0.118189021471E+03    0.45702E-03   -0.36998E-03  5672   0.123E+00    0.678E-02
DAV:   7    -0.118189097190E+03   -0.75719E-04   -0.14785E-03  4280   0.483E-01
   4 F= -.13057622E+03 E0= -.13058939E+03  d E =-.292220E-01  mag=     0.0008
       N       E                     dE             d eps       ncg     rms          rms(c)
DAV:   1    -0.118194218968E+03   -0.51975E-02   -0.90666E-01  3848   0.193E+00    0.185E-01
DAV:   2    -0.118196134064E+03   -0.19151E-02   -0.26911E-02  5144   0.626E-01    0.150E-01
DAV:   3    -0.118196007638E+03    0.12643E-03   -0.20275E-03  4272   0.847E-01    0.118E-01
DAV:   4    -0.118196113041E+03   -0.10540E-03   -0.17947E-03  2760   0.104E+00
   5 F= -.13058176E+03 E0= -.13059491E+03  d E =-.347638E-01  mag=     0.0006
       N       E                     dE             d eps       ncg     rms          rms(c)
DAV:   1    -0.118203151001E+03   -0.71434E-02   -0.65457E+00  3816   0.548E+00    0.330E-01
DAV:   2    -0.118217801656E+03   -0.14651E-01   -0.16306E-01  5400   0.213E+00    0.353E-01
DAV:   3    -0.118217458919E+03    0.34274E-03   -0.14386E-02  4008   0.223E+00    0.292E-01
DAV:   4    -0.118216558494E+03    0.90043E-03   -0.50536E-03  4136   0.149E+00    0.183E-01
DAV:   5    -0.118216451511E+03    0.10698E-03   -0.35095E-03  4976   0.126E+00    0.151E-01
DAV:   6    -0.118216136846E+03    0.31467E-03   -0.18429E-03  4160   0.914E-01    0.469E-02
DAV:   7    -0.118216165998E+03   -0.29152E-04   -0.54539E-04  2888   0.310E-01
   6 F= -.13060707E+03 E0= -.13062012E+03  d E =-.253070E-01  mag=     0.0003
       N       E                     dE             d eps       ncg     rms          rms(c)
DAV:   1    -0.118209651728E+03    0.64851E-02   -0.61435E+00  3800   0.526E+00    0.307E-01
DAV:   2    -0.118223274426E+03   -0.13623E-01   -0.15439E-01  5176   0.167E+00    0.311E-01
DAV:   3    -0.118222649830E+03    0.62460E-03   -0.54591E-03  4136   0.108E+00    0.223E-01
DAV:   4    -0.118222598484E+03    0.51346E-04   -0.32782E-03  4176   0.132E+00    0.198E-01
DAV:   5    -0.118222912896E+03   -0.31441E-03   -0.62690E-03  4104   0.196E+00    0.195E-01
DAV:   6    -0.118221831163E+03    0.10817E-02   -0.22268E-03  2864   0.119E+00    0.428E-02
DAV:   7    -0.118221887449E+03   -0.56286E-04   -0.68351E-04  3496   0.234E-01
   7 F= -.13061796E+03 E0= -.13063099E+03  d E =-.362020E-01  mag=     0.0002
       N       E                     dE             d eps       ncg     rms          rms(c)
DAV:   1    -0.118220878864E+03    0.95230E-03   -0.27773E-01  3824   0.114E+00    0.650E-02
DAV:   2    -0.118221503380E+03   -0.62452E-03   -0.69936E-03  5240   0.332E-01    0.600E-02
DAV:   3    -0.118221486389E+03    0.16991E-04   -0.24037E-04  2440   0.249E-01
   8 F= -.13061867E+03 E0= -.13063172E+03  d E =-.369088E-01  mag=     0.0002
       N       E                     dE             d eps       ncg     rms          rms(c)
DAV:   1    -0.118231848482E+03   -0.10345E-01   -0.32072E+00  3744   0.382E+00    0.327E-01
DAV:   2    -0.118238753656E+03   -0.69052E-02   -0.92883E-02  5056   0.116E+00    0.281E-01
DAV:   3    -0.118238502460E+03    0.25120E-03   -0.76580E-03  4136   0.149E+00    0.241E-01
DAV:   4    -0.118238493362E+03    0.90977E-05   -0.64692E-03  4088   0.193E+00    0.184E-01
DAV:   5    -0.118237895299E+03    0.59806E-03   -0.47976E-03  4464   0.168E+00    0.982E-02
DAV:   6    -0.118237617296E+03    0.27800E-03   -0.86009E-04  2904   0.691E-01    0.295E-02
DAV:   7    -0.118237664939E+03   -0.47643E-04   -0.55613E-04  2952   0.201E-01
   9 F= -.13063387E+03 E0= -.13064680E+03  d E =-.151975E-01  mag=     0.0001
       N       E                     dE             d eps       ncg     rms          rms(c)
DAV:   1    -0.118239185586E+03   -0.15683E-02   -0.24922E+00  3728   0.335E+00    0.280E-01
DAV:   2    -0.118244815646E+03   -0.56301E-02   -0.72837E-02  5072   0.116E+00    0.256E-01
DAV:   3    -0.118244830168E+03   -0.14522E-04   -0.67358E-03  4072   0.159E+00    0.227E-01
DAV:   4    -0.118244319504E+03    0.51066E-03   -0.48129E-03  4152   0.162E+00    0.146E-01
DAV:   5    -0.118244020043E+03    0.29946E-03   -0.22317E-03  3712   0.113E+00    0.713E-02
DAV:   6    -0.118243933384E+03    0.86659E-04   -0.74880E-04  3384   0.503E-01
  10 F= -.13063946E+03 E0= -.13065225E+03  d E =-.207906E-01  mag=     0.0001
       N       E                     dE             d eps       ncg     rms          rms(c)
DAV:   1    -0.118251048822E+03   -0.70288E-02   -0.69427E-01  3760   0.176E+00    0.147E-01
DAV:   2    -0.118252596083E+03   -0.15473E-02   -0.19349E-02  5216   0.481E-01    0.125E-01
DAV:   3    -0.118252494410E+03    0.10167E-03   -0.80535E-04  3584   0.451E-01
  11 F= -.13064757E+03 E0= -.13066022E+03  d E =-.811365E-02  mag=     0.0000
       N       E                     dE             d eps       ncg     rms          rms(c)
DAV:   1    -0.118251281364E+03    0.13147E-02   -0.61808E+00  3760   0.529E+00    0.451E-01
DAV:   2    -0.118264677152E+03   -0.13396E-01   -0.16280E-01  5704   0.216E+00    0.429E-01
DAV:   3    -0.118264857406E+03   -0.18025E-03   -0.25254E-02  4096   0.314E+00    0.410E-01
DAV:   4    -0.118262316890E+03    0.25405E-02   -0.87477E-03  4424   0.196E+00    0.178E-01
DAV:   5    -0.118262571390E+03   -0.25450E-03   -0.55327E-03  5208   0.121E+00    0.142E-01
DAV:   6    -0.118262375095E+03    0.19629E-03   -0.22135E-03  4016   0.845E-01    0.305E-02
DAV:   7    -0.118262429304E+03   -0.54209E-04   -0.58793E-04  2920   0.228E-01
  12 F= -.13065653E+03 E0= -.13066894E+03  d E =-.170736E-01  mag=     0.0000
       N       E                     dE             d eps       ncg     rms          rms(c)
DAV:   1    -0.118267918108E+03   -0.55430E-02   -0.12508E+00  3760   0.235E+00    0.204E-01
DAV:   2    -0.118270406689E+03   -0.24886E-02   -0.33657E-02  5008   0.736E-01    0.173E-01
DAV:   3    -0.118270488696E+03   -0.82006E-04   -0.32595E-03  4136   0.115E+00    0.160E-01
DAV:   4    -0.118270240698E+03    0.24800E-03   -0.28857E-03  3864   0.128E+00    0.995E-02
DAV:   5    -0.118270068968E+03    0.17173E-03   -0.10851E-03  2920   0.838E-01
  13 F= -.13066232E+03 E0= -.13067463E+03  d E =-.579052E-02  mag=     0.0000
       N       E                     dE             d eps       ncg     rms          rms(c)
DAV:   1    -0.118272619388E+03   -0.23787E-02   -0.42958E+00  3744   0.436E+00    0.371E-01
DAV:   2    -0.118281798628E+03   -0.91792E-02   -0.11926E-01  5040   0.146E+00    0.330E-01
DAV:   3    -0.118282167165E+03   -0.36854E-03   -0.12018E-02  4144   0.232E+00    0.307E-01
DAV:   4    -0.118280511591E+03    0.16556E-02   -0.76141E-03  4408   0.205E+00    0.136E-01
DAV:   5    -0.118280388890E+03    0.12270E-03   -0.25456E-03  4272   0.104E+00    0.844E-02
DAV:   6    -0.118280325372E+03    0.63518E-04   -0.13557E-03  4432   0.589E-01
  14 F= -.13066925E+03 E0= -.13068129E+03  d E =-.127120E-01  mag=     0.0000
       N       E                     dE             d eps       ncg     rms          rms(c)
DAV:   1    -0.118254660516E+03    0.25728E-01   -0.17234E+01  3744   0.870E+00    0.748E-01
DAV:   2    -0.118293083017E+03   -0.38423E-01   -0.49170E-01  5040   0.301E+00    0.671E-01
DAV:   3    -0.118294035596E+03   -0.95258E-03   -0.47235E-02  4152   0.460E+00    0.616E-01
DAV:   4    -0.118287552811E+03    0.64828E-02   -0.29324E-02  4544   0.403E+00    0.299E-01
DAV:   5    -0.118286913410E+03    0.63940E-03   -0.12501E-02  6760   0.214E+00    0.179E-01
DAV:   6    -0.118286461826E+03    0.45158E-03   -0.45024E-03  4640   0.123E+00    0.534E-02
DAV:   7    -0.118286649484E+03   -0.18766E-03   -0.22281E-03  3920   0.329E-01    0.409E-02
DAV:   8    -0.118286672866E+03   -0.23382E-04   -0.38023E-04  2368   0.222E-01
  15 F= -.13066926E+03 E0= -.13068090E+03  d E =-.127268E-01  mag=     0.0000
       N       E                     dE             d eps       ncg     rms          rms(c)
DAV:   1    -0.118275600048E+03    0.11049E-01   -0.62584E+00  3728   0.521E+00    0.478E-01
DAV:   2    -0.118287566257E+03   -0.11966E-01   -0.16974E-01  5072   0.221E+00    0.427E-01
DAV:   3    -0.118286452280E+03    0.11140E-02   -0.16216E-02  4288   0.233E+00    0.318E-01
DAV:   4    -0.118287121607E+03   -0.66933E-03   -0.13480E-02  4424   0.273E+00    0.300E-01
DAV:   5    -0.118285342598E+03    0.17790E-02   -0.10315E-02  4528   0.248E+00    0.102E-01
DAV:   6    -0.118285005143E+03    0.33745E-03   -0.22043E-03  4616   0.895E-01    0.444E-02
DAV:   7    -0.118285082063E+03   -0.76919E-04   -0.11612E-03  4096   0.368E-01
  16 F= -.13067144E+03 E0= -.13068327E+03  d E =-.149012E-01  mag=     0.0000
       N       E                     dE             d eps       ncg     rms          rms(c)
DAV:   1    -0.118282673951E+03    0.23312E-02   -0.27508E+00  3744   0.346E+00    0.300E-01
DAV:   2    -0.118287879409E+03   -0.52055E-02   -0.71451E-02  5040   0.117E+00    0.263E-01
DAV:   3    -0.118288049155E+03   -0.16975E-03   -0.79101E-03  4144   0.185E+00    0.246E-01
DAV:   4    -0.118287133353E+03    0.91580E-03   -0.56367E-03  4224   0.177E+00    0.130E-01
DAV:   5    -0.118286943023E+03    0.19033E-03   -0.20761E-03  3920   0.113E+00    0.835E-02
DAV:   6    -0.118286839510E+03    0.10351E-03   -0.86543E-04  3832   0.571E-01
  17 F= -.13067068E+03 E0= -.13068236E+03  d E =-.141416E-01  mag=     0.0000
       N       E                     dE             d eps       ncg     rms          rms(c)
DAV:   1    -0.118284252632E+03    0.26904E-02   -0.12992E+00  3728   0.237E+00    0.216E-01
DAV:   2    -0.118286467263E+03   -0.22146E-02   -0.32302E-02  5104   0.991E-01    0.193E-01
DAV:   3    -0.118286461012E+03    0.62514E-05   -0.45489E-03  4120   0.135E+00    0.170E-01
DAV:   4    -0.118286213694E+03    0.24732E-03   -0.31401E-03  4032   0.132E+00    0.117E-01
DAV:   5    -0.118285954573E+03    0.25912E-03   -0.13366E-03  3464   0.856E-01    0.347E-02
DAV:   6    -0.118285947241E+03    0.73320E-05   -0.36793E-04  2496   0.291E-01
  18 F= -.13067151E+03 E0= -.13068333E+03  d E =-.149725E-01  mag=     0.0000
       N       E                     dE             d eps       ncg     rms          rms(c)
DAV:   1    -0.118291802316E+03   -0.58477E-02   -0.14303E+00  3920   0.255E+00    0.984E-02
DAV:   2    -0.118294440060E+03   -0.26377E-02   -0.28185E-02  5232   0.783E-01    0.117E-01
DAV:   3    -0.118294381770E+03    0.58290E-04   -0.14013E-03  4096   0.464E-01
  19 F= -.13067861E+03 E0= -.13069042E+03  d E =-.710461E-02  mag=     0.0000
       N       E                     dE             d eps       ncg     rms          rms(c)
DAV:   1    -0.118296026974E+03   -0.15869E-02   -0.49577E+00  3920   0.475E+00    0.214E-01
DAV:   2    -0.118304987089E+03   -0.89601E-02   -0.96893E-02  5280   0.165E+00    0.269E-01
DAV:   3    -0.118304767878E+03    0.21921E-03   -0.88729E-03  3992   0.150E+00    0.204E-01
DAV:   4    -0.118304492674E+03    0.27520E-03   -0.20725E-03  3952   0.836E-01    0.156E-01
DAV:   5    -0.118304255926E+03    0.23675E-03   -0.14455E-03  3824   0.713E-01    0.109E-01
DAV:   6    -0.118304102754E+03    0.15317E-03   -0.11054E-03  3664   0.608E-01
  20 F= -.13068588E+03 E0= -.13069767E+03  d E =-.143751E-01  mag=     0.0000
       N       E                     dE             d eps       ncg     rms          rms(c)
DAV:   1    -0.118304337795E+03   -0.81868E-04   -0.98408E-01  3952   0.214E+00    0.815E-02
DAV:   2    -0.118306292883E+03   -0.19551E-02   -0.20547E-02  5216   0.631E-01    0.857E-02
DAV:   3    -0.118306282454E+03    0.10430E-04   -0.95897E-04  3824   0.362E-01
  21 F= -.13068698E+03 E0= -.13069879E+03  d E =-.154687E-01  mag=     0.0000
       N       E                     dE             d eps       ncg     rms          rms(c)
DAV:   1    -0.118309010482E+03   -0.27176E-02   -0.20743E+00  3888   0.306E+00    0.169E-01
DAV:   2    -0.118312419124E+03   -0.34086E-02   -0.38934E-02  5312   0.892E-01    0.169E-01
DAV:   3    -0.118312294361E+03    0.12476E-03   -0.23026E-03  4096   0.758E-01    0.130E-01
DAV:   4    -0.118312279026E+03    0.15335E-04   -0.14133E-03  3352   0.861E-01
  22 F= -.13069088E+03 E0= -.13070266E+03  d E =-.390644E-02  mag=     0.0000
       N       E                     dE             d eps       ncg     rms          rms(c)
DAV:   1    -0.118311810256E+03    0.48411E-03   -0.27779E-02  5560   0.942E-01    0.643E-02
DAV:   2    -0.118312763852E+03   -0.95360E-03   -0.36802E-03  3584   0.154E+00    0.171E-01
DAV:   3    -0.118311769213E+03    0.99464E-03   -0.27224E-03  2848   0.129E+00    0.446E-02
DAV:   4    -0.118311752048E+03    0.17165E-04   -0.22522E-04  2456   0.284E-01
  23 F= -.13069058E+03 E0= -.13070239E+03  d E =-.360686E-02  mag=     0.0000
       N       E                     dE             d eps       ncg     rms          rms(c)
DAV:   1    -0.118311947269E+03   -0.17806E-03   -0.10534E-02  4152   0.251E-01    0.202E-02
DAV:   2    -0.118311970753E+03   -0.23484E-04   -0.19690E-04  2408   0.262E-01
  24 F= -.13069066E+03 E0= -.13070247E+03  d E =-.368213E-02  mag=     0.0000
       N       E                     dE             d eps       ncg     rms          rms(c)
DAV:   1    -0.118316005303E+03   -0.40580E-02   -0.18406E+00  4008   0.292E+00    0.104E-01
DAV:   2    -0.118319442701E+03   -0.34374E-02   -0.34978E-02  5424   0.103E+00    0.145E-01
DAV:   3    -0.118319357698E+03    0.85003E-04   -0.39058E-03  3992   0.981E-01    0.111E-01
DAV:   4    -0.118319307494E+03    0.50204E-04   -0.90831E-04  3560   0.404E-01
  25 F= -.13069427E+03 E0= -.13070603E+03  d E =-.361245E-02  mag=     0.0000
       N       E                     dE             d eps       ncg     rms          rms(c)
DAV:   1    -0.118320984940E+03   -0.16272E-02   -0.20562E+00  3984   0.306E+00    0.131E-01
DAV:   2    -0.118324664784E+03   -0.36798E-02   -0.40183E-02  5200   0.779E-01    0.135E-01
DAV:   3    -0.118324569161E+03    0.95623E-04   -0.12903E-03  4024   0.498E-01
  26 F= -.13069563E+03 E0= -.13070737E+03  d E =-.496971E-02  mag=     0.0000
       N       E                     dE             d eps       ncg     rms          rms(c)
DAV:   1    -0.118323505747E+03    0.11590E-02   -0.84787E-02  5488   0.868E-01    0.843E-02
DAV:   2    -0.118324598527E+03   -0.10928E-02   -0.40921E-03  3032   0.157E+00    0.186E-01
DAV:   3    -0.118323436621E+03    0.11619E-02   -0.28359E-03  2536   0.132E+00    0.399E-02
DAV:   4    -0.118323452866E+03   -0.16245E-04   -0.42898E-04  2784   0.174E-01
  27 F= -.13069531E+03 E0= -.13070702E+03  d E =-.465133E-02  mag=     0.0000
       N       E                     dE             d eps       ncg     rms          rms(c)
DAV:   1    -0.118323966323E+03   -0.52970E-03   -0.32070E-02  4528   0.431E-01    0.213E-02
DAV:   2    -0.118323995833E+03   -0.29511E-04   -0.33745E-04  2680   0.169E-01
  28 F= -.13069536E+03 E0= -.13070708E+03  d E =-.470537E-02  mag=     0.0000
       N       E                     dE             d eps       ncg     rms          rms(c)
DAV:   1    -0.118323756018E+03    0.21030E-03   -0.79521E-03  5392   0.234E-01    0.918E-03
DAV:   2    -0.118323761699E+03   -0.56815E-05   -0.44990E-05  2328   0.114E-01
  29 F= -.13069537E+03 E0= -.13070708E+03  d E =-.471569E-02  mag=     0.0000
       N       E                     dE             d eps       ncg     rms          rms(c)
DAV:   1    -0.118323899509E+03   -0.14349E-03   -0.22689E-03  4968   0.140E-01    0.552E-03
DAV:   2    -0.118323910705E+03   -0.11196E-04   -0.45079E-05  2304   0.159E-01
  30 F= -.13069539E+03 E0= -.13070712E+03  d E =-.473493E-02  mag=     0.0000
       N       E                     dE             d eps       ncg     rms          rms(c)
DAV:   1    -0.118327307842E+03   -0.34083E-02   -0.35453E-01  4048   0.125E+00    0.419E-02
DAV:   2    -0.118327924645E+03   -0.61680E-03   -0.64468E-03  5200   0.332E-01    0.487E-02
DAV:   3    -0.118327916244E+03    0.84003E-05   -0.28884E-04  2656   0.242E-01
  31 F= -.13069653E+03 E0= -.13070813E+03  d E =-.113415E-02  mag=     0.0000
       N       E                     dE             d eps       ncg     rms          rms(c)
DAV:   1    -0.118333529735E+03   -0.56051E-02   -0.31990E+00  4048   0.374E+00    0.137E-01
DAV:   2    -0.118338956707E+03   -0.54270E-02   -0.57834E-02  5200   0.938E-01    0.158E-01
DAV:   3    -0.118338823140E+03    0.13357E-03   -0.16014E-03  3888   0.477E-01
  32 F= -.13069884E+03 E0= -.13071008E+03  d E =-.344319E-02  mag=     0.0000
       N       E                     dE             d eps       ncg     rms          rms(c)
DAV:   1    -0.118341989968E+03   -0.30333E-02   -0.52025E-01  4080   0.159E+00    0.137E-01
DAV:   2    -0.118343074616E+03   -0.10846E-02   -0.92456E-03  6776   0.135E+00    0.178E-01
DAV:   3    -0.118342333918E+03    0.74070E-03   -0.35482E-03  4472   0.131E+00    0.106E-01
DAV:   4    -0.118342212417E+03    0.12150E-03   -0.11228E-03  3888   0.423E-01
  33 F= -.13069878E+03 E0= -.13070990E+03  d E =-.338806E-02  mag=     0.0000
       N       E                     dE             d eps       ncg     rms          rms(c)
DAV:   1    -0.118345055061E+03   -0.27211E-02   -0.20483E+00  4064   0.305E+00    0.104E-01
DAV:   2    -0.118348854010E+03   -0.37989E-02   -0.37881E-02  5672   0.118E+00    0.146E-01
DAV:   3    -0.118348775635E+03    0.78375E-04   -0.37221E-03  3968   0.103E+00    0.100E-01
DAV:   4    -0.118348753729E+03    0.21907E-04   -0.11876E-03  3720   0.473E-01
  34 F= -.13069844E+03 E0= -.13070919E+03  d E =-.305178E-02  mag=     0.0000
       N       E                     dE             d eps       ncg     rms          rms(c)
DAV:   1    -0.118342988292E+03    0.57873E-02   -0.89676E-01  4032   0.200E+00    0.786E-02
DAV:   2    -0.118344579391E+03   -0.15911E-02   -0.15686E-02  5464   0.784E-01    0.868E-02
DAV:   3    -0.118344571423E+03    0.79685E-05   -0.14756E-03  3752   0.682E-01
  35 F= -.13069881E+03 E0= -.13070979E+03  d E =-.342209E-02  mag=     0.0000
       N       E                     dE             d eps       ncg     rms          rms(c)
DAV:   1    -0.118347001657E+03   -0.24223E-02   -0.18183E-01  4104   0.981E-01    0.467E-02
DAV:   2    -0.118347371436E+03   -0.36978E-03   -0.27074E-03  4376   0.645E-01    0.707E-02
DAV:   3    -0.118347308642E+03    0.62793E-04   -0.17830E-03  3744   0.660E-01
  36 F= -.13069935E+03 E0= -.13071020E+03  d E =-.531145E-03  mag=     0.0000
       N       E                     dE             d eps       ncg     rms          rms(c)
DAV:   1    -0.118349068033E+03   -0.16966E-02   -0.10615E-01  4112   0.698E-01    0.386E-02
DAV:   2    -0.118349237226E+03   -0.16919E-03   -0.17152E-03  4864   0.352E-01
  37 F= -.13069963E+03 E0= -.13071040E+03  d E =-.810772E-03  mag=     0.0000
       N       E                     dE             d eps       ncg     rms          rms(c)
DAV:   1    -0.118351801930E+03   -0.27339E-02   -0.42060E-01  4064   0.141E+00    0.743E-02
DAV:   2    -0.118352558810E+03   -0.75688E-03   -0.83020E-03  5392   0.522E-01    0.823E-02
DAV:   3    -0.118352516262E+03    0.42548E-04   -0.85306E-04  3496   0.520E-01
  38 F= -.13069963E+03 E0= -.13071023E+03  d E =-.813493E-03  mag=    -0.0000
       N       E                     dE             d eps       ncg     rms          rms(c)
DAV:   1    -0.118350282297E+03    0.22765E-02   -0.15123E-01  4064   0.849E-01    0.397E-02
DAV:   2    -0.118350583581E+03   -0.30128E-03   -0.27948E-03  5184   0.244E-01    0.198E-02
DAV:   3    -0.118350620667E+03   -0.37086E-04   -0.42352E-04  2384   0.427E-01
  39 F= -.13069971E+03 E0= -.13071038E+03  d E =-.897382E-03  mag=     0.0000
       N       E                     dE             d eps       ncg     rms          rms(c)
DAV:   1    -0.118352755840E+03   -0.21723E-02   -0.12577E-01  4080   0.779E-01    0.282E-02
DAV:   2    -0.118353008768E+03   -0.25293E-03   -0.25884E-03  5264   0.284E-01    0.443E-02
DAV:   3    -0.118352994106E+03    0.14662E-04   -0.20438E-04  2296   0.276E-01
  40 F= -.13070024E+03 E0= -.13071085E+03  d E =-.531793E-03  mag=     0.0000
       N       E                     dE             d eps       ncg     rms          rms(c)
DAV:   1    -0.118357168841E+03   -0.41601E-02   -0.76772E-01  4064   0.184E+00    0.700E-02
DAV:   2    -0.118358520599E+03   -0.13518E-02   -0.14513E-02  5232   0.539E-01    0.846E-02
DAV:   3    -0.118358505167E+03    0.15432E-04   -0.84159E-04  3680   0.382E-01
  41 F= -.13070123E+03 E0= -.13071163E+03  d E =-.151815E-02  mag=     0.0000
       N       E                     dE             d eps       ncg     rms          rms(c)
DAV:   1    -0.118362621039E+03   -0.41004E-02   -0.30732E+00  4064   0.368E+00    0.152E-01
DAV:   2    -0.118367879464E+03   -0.52584E-02   -0.57207E-02  5248   0.108E+00    0.186E-01
DAV:   3    -0.118367790257E+03    0.89207E-04   -0.33137E-03  4000   0.794E-01    0.144E-01
DAV:   4    -0.118367684684E+03    0.10557E-03   -0.77535E-04  2912   0.548E-01
  42 F= -.13070137E+03 E0= -.13071135E+03  d E =-.165521E-02  mag=     0.0000
       N       E                     dE             d eps       ncg     rms          rms(c)
DAV:   1    -0.118359385213E+03    0.84050E-02   -0.12962E+00  4112   0.252E+00    0.114E-01
DAV:   2    -0.118362905718E+03   -0.35205E-02   -0.27005E-02  6344   0.200E+00    0.191E-01
DAV:   3    -0.118361925612E+03    0.98011E-03   -0.78990E-03  5352   0.185E+00    0.114E-01
DAV:   4    -0.118361797776E+03    0.12784E-03   -0.15834E-03  3912   0.634E-01
  43 F= -.13070138E+03 E0= -.13071165E+03  d E =-.167038E-02  mag=     0.0000
       N       E                     dE             d eps       ncg     rms          rms(c)
DAV:   1    -0.118363300578E+03   -0.13750E-02   -0.10074E-01  4096   0.695E-01    0.385E-02
DAV:   2    -0.118363505286E+03   -0.20471E-03   -0.21453E-03  5168   0.221E-01    0.185E-02
DAV:   3    -0.118363529273E+03   -0.23986E-04   -0.23930E-04  2344   0.295E-01
  44 F= -.13070147E+03 E0= -.13071161E+03  d E =-.176155E-02  mag=     0.0000
       N       E                     dE             d eps       ncg     rms          rms(c)
DAV:   1    -0.118362599014E+03    0.90627E-03   -0.27231E-02  4264   0.398E-01    0.135E-02
DAV:   2    -0.118362625340E+03   -0.26326E-04   -0.24706E-04  2384   0.150E-01
  45 F= -.13070143E+03 E0= -.13071165E+03  d E =-.171757E-02  mag=     0.0000
       N       E                     dE             d eps       ncg     rms          rms(c)
DAV:   1    -0.118363200306E+03   -0.60129E-03   -0.11203E-02  5432   0.285E-01    0.142E-02
DAV:   2    -0.118363221875E+03   -0.21570E-04   -0.10878E-04  2368   0.244E-01
  46 F= -.13070148E+03 E0= -.13071165E+03  d E =-.176654E-02  mag=     0.0000
       N       E                     dE             d eps       ncg     rms          rms(c)
DAV:   1    -0.118365129137E+03   -0.19288E-02   -0.10847E-01  4048   0.727E-01    0.280E-02
DAV:   2    -0.118365338565E+03   -0.20943E-03   -0.21483E-03  5112   0.262E-01    0.356E-02
DAV:   3    -0.118365331541E+03    0.70237E-05   -0.26349E-04  2304   0.269E-01
  47 F= -.13070184E+03 E0= -.13071194E+03  d E =-.362017E-03  mag=     0.0000
       N       E                     dE             d eps       ncg     rms          rms(c)
DAV:   1    -0.118369714843E+03   -0.43763E-02   -0.97683E-01  4000   0.208E+00    0.899E-02
DAV:   2    -0.118371396544E+03   -0.16817E-02   -0.18500E-02  5184   0.609E-01    0.104E-01
DAV:   3    -0.118371363474E+03    0.33070E-04   -0.10352E-03  3768   0.420E-01
  48 F= -.13070264E+03 E0= -.13071247E+03  d E =-.115690E-02  mag=     0.0000
       N       E                     dE             d eps       ncg     rms          rms(c)
DAV:   1    -0.118373593444E+03   -0.21969E-02   -0.19900E-01  4064   0.100E+00    0.868E-02
DAV:   2    -0.118374029690E+03   -0.43625E-03   -0.37916E-03  5624   0.868E-01    0.114E-01
DAV:   3    -0.118373745058E+03    0.28463E-03   -0.14857E-03  2928   0.835E-01    0.666E-02
DAV:   4    -0.118373723288E+03    0.21770E-04   -0.59212E-04  2912   0.251E-01
  49 F= -.13070265E+03 E0= -.13071233E+03  d E =-.116915E-02  mag=     0.0000
       N       E                     dE             d eps       ncg     rms          rms(c)
DAV:   1    -0.118375574145E+03   -0.18291E-02   -0.15511E-01  3824   0.864E-01    0.506E-02
DAV:   2    -0.118375911040E+03   -0.33690E-03   -0.33808E-03  5384   0.507E-01    0.678E-02
DAV:   3    -0.118375845937E+03    0.65103E-04   -0.45271E-04  2400   0.477E-01
  50 F= -.13070298E+03 E0= -.13071259E+03  d E =-.332181E-03  mag=     0.0000
       N       E                     dE             d eps       ncg     rms          rms(c)
DAV:   1    -0.118375890911E+03    0.20130E-04   -0.24115E-04  2384   0.188E-01    0.278E-02
DAV:   2    -0.118375936518E+03   -0.45607E-04   -0.35998E-04  2400   0.340E-01
  51 F= -.13070298E+03 E0= -.13071257E+03  d E =-.335730E-03  mag=     0.0000
       N       E                     dE             d eps       ncg     rms          rms(c)
DAV:   1    -0.118375845546E+03    0.45365E-04   -0.18675E-04  2440   0.306E-01    0.157E-02
DAV:   2    -0.118375896854E+03   -0.51308E-04   -0.18415E-04  2256   0.333E-01
  52 F= -.13070303E+03 E0= -.13071264E+03  d E =-.378763E-03  mag=     0.0000
       N       E                     dE             d eps       ncg     rms          rms(c)
DAV:   1    -0.118375879880E+03   -0.34334E-04   -0.13376E-04  2256   0.276E-01    0.656E-03
DAV:   2    -0.118375884090E+03   -0.42093E-05   -0.34396E-05  2288   0.736E-02
  53 F= -.13070297E+03 E0= -.13071257E+03  d E =-.324644E-03  mag=     0.0000
       N       E                     dE             d eps       ncg     rms          rms(c)
DAV:   1    -0.118375865253E+03    0.14628E-04   -0.33064E-05  2064   0.790E-02    0.660E-03
DAV:   2    -0.118375870652E+03   -0.53991E-05   -0.28568E-05  2152   0.118E-01
  54 F= -.13070298E+03 E0= -.13071259E+03  d E =-.333854E-03  mag=     0.0000
       N       E                     dE             d eps       ncg     rms          rms(c)
DAV:   1    -0.118377555791E+03   -0.16905E-02   -0.12029E-01  3792   0.746E-01    0.355E-02
DAV:   2    -0.118377781658E+03   -0.22587E-03   -0.25144E-03  5040   0.230E-01    0.404E-02
DAV:   3    -0.118377775317E+03    0.63412E-05   -0.15203E-04  2376   0.207E-01
  55 F= -.13070334E+03 E0= -.13071286E+03  d E =-.360356E-03  mag=     0.0000
       N       E                     dE             d eps       ncg     rms          rms(c)
DAV:   1    -0.118380672600E+03   -0.28909E-02   -0.61799E-01  3792   0.168E+00    0.951E-02
DAV:   2    -0.118381774723E+03   -0.11021E-02   -0.13011E-02  5072   0.480E-01    0.948E-02
DAV:   3    -0.118381726431E+03    0.48291E-04   -0.67872E-04  3600   0.354E-01
  56 F= -.13070380E+03 E0= -.13071308E+03  d E =-.816468E-03  mag=     0.0000
       N       E                     dE             d eps       ncg     rms          rms(c)
DAV:   1    -0.118383392290E+03   -0.16176E-02   -0.10152E-01  3744   0.729E-01    0.839E-02
DAV:   2    -0.118383527808E+03   -0.13552E-03   -0.22634E-03  4480   0.506E-01    0.765E-02
DAV:   3    -0.118383524190E+03    0.36183E-05   -0.92144E-04  2792   0.651E-01
  57 F= -.13070411E+03 E0= -.13071339E+03  d E =-.311769E-03  mag=     0.0000
       N       E                     dE             d eps       ncg     rms          rms(c)
DAV:   1    -0.118387024128E+03   -0.34963E-02   -0.88580E-01  3728   0.201E+00    0.176E-01
DAV:   2    -0.118388601025E+03   -0.15769E-02   -0.21681E-02  5296   0.788E-01    0.151E-01
DAV:   3    -0.118388658347E+03   -0.57323E-04   -0.27880E-03  4080   0.108E+00    0.146E-01
DAV:   4    -0.118388478362E+03    0.17999E-03   -0.22202E-03  3960   0.107E+00    0.931E-02
DAV:   5    -0.118388361662E+03    0.11670E-03   -0.94539E-04  2560   0.780E-01
  58 F= -.13070456E+03 E0= -.13071352E+03  d E =-.764039E-03  mag=     0.0000
       N       E                     dE             d eps       ncg     rms          rms(c)
DAV:   1    -0.118389821120E+03   -0.13428E-02   -0.52885E-02  4816   0.596E-01    0.680E-02
DAV:   2    -0.118389905503E+03   -0.84382E-04   -0.14630E-03  3120   0.339E-01
  59 F= -.13070482E+03 E0= -.13071380E+03  d E =-.259058E-03  mag=     0.0000
       N       E                     dE             d eps       ncg     rms          rms(c)
DAV:   1    -0.118390744997E+03   -0.92388E-03   -0.21064E-02  5200   0.573E-01    0.844E-02
DAV:   2    -0.118391440075E+03   -0.69508E-03   -0.30446E-03  2768   0.131E+00    0.159E-01
DAV:   3    -0.118390652502E+03    0.78757E-03   -0.19912E-03  2592   0.112E+00    0.438E-02
DAV:   4    -0.118390656851E+03   -0.43487E-05   -0.20361E-04  2528   0.207E-01
  60 F= -.13070478E+03 E0= -.13071385E+03  d E =-.215880E-03  mag=     0.0000
       N       E                     dE             d eps       ncg     rms          rms(c)
DAV:   1    -0.118390354909E+03    0.29759E-03   -0.39799E-03  5200   0.232E-01    0.234E-02
DAV:   2    -0.118390354037E+03    0.87203E-06   -0.11755E-04  2432   0.915E-02
  61 F= -.13070481E+03 E0= -.13071385E+03  d E =-.250836E-03  mag=     0.0000
       N       E                     dE             d eps       ncg     rms          rms(c)
DAV:   1    -0.118391619036E+03   -0.12641E-02   -0.33267E-02  3728   0.399E-01    0.418E-02
DAV:   2    -0.118391706980E+03   -0.87944E-04   -0.92954E-04  2680   0.383E-01
  62 F= -.13070506E+03 E0= -.13071410E+03  d E =-.251091E-03  mag=     0.0000
       N       E                     dE             d eps       ncg     rms          rms(c)
DAV:   1    -0.118394923233E+03   -0.33042E-02   -0.30444E-01  3712   0.119E+00    0.166E-01
DAV:   2    -0.118395477393E+03   -0.55416E-03   -0.10667E-02  5512   0.648E-01    0.132E-01
DAV:   3    -0.118395751720E+03   -0.27433E-03   -0.30526E-03  3944   0.128E+00    0.153E-01
DAV:   4    -0.118395201776E+03    0.54994E-03   -0.17090E-03  2672   0.957E-01    0.395E-02
DAV:   5    -0.118395212314E+03   -0.10538E-04   -0.33767E-04  2584   0.401E-01
  63 F= -.13070528E+03 E0= -.13071410E+03  d E =-.467707E-03  mag=     0.0000
       N       E                     dE             d eps       ncg     rms          rms(c)
DAV:   1    -0.118394133426E+03    0.10683E-02   -0.31889E-02  4464   0.411E-01    0.480E-02
DAV:   2    -0.118394159671E+03   -0.26245E-04   -0.77811E-04  2704   0.177E-01
  64 F= -.13070530E+03 E0= -.13071415E+03  d E =-.482255E-03  mag=     0.0000
