<?xml version="1.0" encoding="ISO-8859-1"?>
<modeling>
 <generator>
  <i name="program" type="string">vasp </i>
  <i name="version" type="string">6.3.2  </i>
  <i name="subversion" type="string">27Jun22 (build Aug 17 2022 15:43:34) complex                          parallel </i>
  <i name="platform" type="string">tv2STDVTST </i>
  <i name="date" type="string">2025 02 17 </i>
  <i name="time" type="string">18:35:58 </i>
 </generator>
 <incar>
  <i type="int" name="ISTART">     0</i>
  <i type="string" name="PREC">Normal</i>
  <i type="int" name="ISPIN">     2</i>
  <i type="int" name="ICHARG">     2</i>
  <i type="int" name="IBRION">     2</i>
  <i name="EDIFF">      0.00020000</i>
  <i name="EDIFFG">     -0.03000000</i>
  <i type="int" name="NSW">   800</i>
  <i type="int" name="ISIF">     2</i>
  <i type="int" name="ISYM">     1</i>
  <i name="ENCUT">    400.00000000</i>
  <i name="POTIM">      0.50000000</i>
  <i type="logical" name="LREAL"> F  </i>
  <i type="int" name="ISMEAR">     1</i>
  <i name="SIGMA">      0.20000000</i>
  <i type="logical" name="LWAVE"> F  </i>
  <i type="logical" name="LCHARG"> F  </i>
  <i type="string" name="GGA">PE</i>
  <i type="int" name="IVDW">    11</i>
 </incar>
 <primitive_cell>
  <structure name="primitive_cell" >
   <crystal>
    <varray name="basis" >
     <v>       7.26000023       0.00000000       0.00000000 </v>
     <v>       0.00000000       5.13359547       0.00000000 </v>
     <v>       0.00000000       0.00000000      23.98379135 </v>
    </varray>
    <i name="volume">    893.87360752 </i>
    <varray name="rec_basis" >
     <v>       0.13774104       0.00000000       0.00000000 </v>
     <v>       0.00000000       0.19479525       0.00000000 </v>
     <v>       0.00000000       0.00000000       0.04169483 </v>
    </varray>
   </crystal>
   <varray name="positions" >
    <v>       0.00000000       0.00000000       0.00000000 </v>
    <v>       0.00000000       0.50000000       0.00000000 </v>
    <v>       0.50000000       0.00000000       0.00000000 </v>
    <v>       0.50000000       0.50000000       0.00000000 </v>
    <v>       0.25000000       0.25000000       0.05351109 </v>
    <v>       0.25000000       0.75000000       0.05351109 </v>
    <v>       0.75000000       0.25000000       0.05351109 </v>
    <v>       0.75000000       0.75000000       0.05351109 </v>
    <v>       0.00000000       0.00000000       0.10541371 </v>
    <v>       0.00000000       0.50000000       0.10541371 </v>
    <v>       0.50000000       0.00000000       0.10541371 </v>
    <v>       0.50000000       0.50000000       0.10541371 </v>
    <v>       0.25000000       0.25000000       0.15715010 </v>
    <v>       0.25000000       0.75000000       0.15715010 </v>
    <v>       0.75000000       0.25000000       0.15715010 </v>
    <v>       0.75000000       0.75000000       0.15715010 </v>
    <v>       0.00000000       0.00000000       0.20866257 </v>
    <v>       0.00000000       0.50000000       0.20866257 </v>
    <v>       0.50000000       0.00000000       0.20866257 </v>
    <v>       0.50000000       0.50000000       0.20866257 </v>
    <v>       0.25000000       0.25000000       0.25947965 </v>
    <v>       0.25000000       0.75000000       0.25947965 </v>
    <v>       0.75000000       0.25000000       0.25947965 </v>
    <v>       0.75000000       0.75000000       0.25947965 </v>
    <v>       0.00000000       0.00000000       0.31415415 </v>
    <v>       0.00000000       0.50000000       0.31415415 </v>
    <v>       0.50000000       0.00000000       0.31415415 </v>
    <v>       0.50000000       0.50000000       0.31415415 </v>
    <v>       0.25000000       0.25000000       0.36181799 </v>
    <v>       0.25000000       0.75000000       0.36181799 </v>
    <v>       0.75000000       0.25000000       0.36181799 </v>
    <v>       0.75000000       0.75000000       0.36181799 </v>
    <v>       0.75000000       0.75000000       0.42690792 </v>
    <v>       0.75000000       0.75000000       0.45801226 </v>
   </varray>
  </structure>
  <varray name="primitive_index" >
   <v type="int" >        1 </v>
   <v type="int" >        2 </v>
   <v type="int" >        3 </v>
   <v type="int" >        4 </v>
   <v type="int" >        5 </v>
   <v type="int" >        6 </v>
   <v type="int" >        7 </v>
   <v type="int" >        8 </v>
   <v type="int" >        9 </v>
   <v type="int" >       10 </v>
   <v type="int" >       11 </v>
   <v type="int" >       12 </v>
   <v type="int" >       13 </v>
   <v type="int" >       14 </v>
   <v type="int" >       15 </v>
   <v type="int" >       16 </v>
   <v type="int" >       17 </v>
   <v type="int" >       18 </v>
   <v type="int" >       19 </v>
   <v type="int" >       20 </v>
   <v type="int" >       21 </v>
   <v type="int" >       22 </v>
   <v type="int" >       23 </v>
   <v type="int" >       24 </v>
   <v type="int" >       25 </v>
   <v type="int" >       26 </v>
   <v type="int" >       27 </v>
   <v type="int" >       28 </v>
   <v type="int" >       29 </v>
   <v type="int" >       30 </v>
   <v type="int" >       31 </v>
   <v type="int" >       32 </v>
   <v type="int" >       33 </v>
   <v type="int" >       34 </v>
  </varray>
 </primitive_cell>
 <kpoints>
  <generation param="Monkhorst-Pack">
   <v type="int" name="divisions">       3        3        1 </v>
   <v name="usershift">      0.00000000       0.00000000       0.00000000 </v>
   <v name="genvec1">      0.33333333       0.00000000       0.00000000 </v>
   <v name="genvec2">      0.00000000       0.33333333       0.00000000 </v>
   <v name="genvec3">      0.00000000       0.00000000       1.00000000 </v>
   <v name="shift">      0.00000000       0.00000000       0.00000000 </v>
  </generation>
  <varray name="kpointlist" >
   <v>       0.00000000       0.00000000       0.00000000 </v>
   <v>       0.33333333       0.00000000       0.00000000 </v>
   <v>       0.00000000       0.33333333       0.00000000 </v>
   <v>       0.33333333       0.33333333       0.00000000 </v>
  </varray>
  <varray name="weights" >
   <v>       0.11111111 </v>
   <v>       0.22222222 </v>
   <v>       0.22222222 </v>
   <v>       0.44444444 </v>
  </varray>
 </kpoints>
 <parameters>
  <separator name="general" >
   <i type="string" name="SYSTEM">unknown system</i>
   <i type="logical" name="LCOMPAT"> F  </i>
  </separator>
  <separator name="electronic" >
   <i type="string" name="PREC">normal</i>
   <i name="ENMAX">    400.00000000</i>
   <i name="ENAUG">    586.98000000</i>
   <i name="EDIFF">      0.00020000</i>
   <i type="int" name="IALGO">    38</i>
   <i type="int" name="IWAVPR">    11</i>
   <i type="int" name="NBANDS">   232</i>
   <i type="int" name="NBANDSLOW">    -1</i>
   <i type="int" name="NBANDSHIGH">    -1</i>
   <i name="NELECT">    354.00000000</i>
   <i type="int" name="TURBO">     0</i>
   <i type="int" name="IRESTART">     0</i>
   <i type="int" name="NREBOOT">     0</i>
   <i type="int" name="NMIN">     0</i>
   <i name="EREF">      0.00000000</i>
   <separator name="electronic smearing" >
    <i type="int" name="ISMEAR">     1</i>
    <i name="SIGMA">      0.20000000</i>
    <i name="KSPACING">      0.50000000</i>
    <i type="logical" name="KGAMMA"> T  </i>
    <i type="logical" name="KBLOWUP"> T  </i>
   </separator>
   <separator name="electronic projectors" >
    <i type="logical" name="LREAL"> F  </i>
    <v name="ROPT">      0.00000000      0.00000000</v>
    <i type="int" name="LMAXPAW">  -100</i>
    <i type="int" name="LMAXMIX">     2</i>
    <i type="logical" name="NLSPLINE"> F  </i>
   </separator>
   <separator name="electronic startup" >
    <i type="int" name="ISTART">     0</i>
    <i type="int" name="ICHARG">     2</i>
    <i type="int" name="INIWAV">     1</i>
   </separator>
   <separator name="electronic spin" >
    <i type="int" name="ISPIN">     2</i>
    <i type="logical" name="LNONCOLLINEAR"> F  </i>
    <v name="MAGMOM">      1.00000000      1.00000000      1.00000000      1.00000000      1.00000000      1.00000000      1.00000000      1.00000000      1.00000000      1.00000000      1.00000000      1.00000000      1.00000000      1.00000000      1.00000000      1.00000000      1.00000000      1.00000000      1.00000000      1.00000000
      1.00000000      1.00000000      1.00000000      1.00000000      1.00000000      1.00000000      1.00000000      1.00000000      1.00000000      1.00000000      1.00000000      1.00000000      1.00000000      1.00000000</v>
    <i name="NUPDOWN">     -1.00000000</i>
    <i type="logical" name="LSORBIT"> F  </i>
    <v name="SAXIS">      0.00000000      0.00000000      1.00000000</v>
    <i type="logical" name="LSPIRAL"> F  </i>
    <v name="QSPIRAL">      0.00000000      0.00000000      0.00000000</v>
    <i type="logical" name="LZEROZ"> F  </i>
   </separator>
   <separator name="electronic exchange-correlation" >
    <i type="logical" name="LASPH"> F  </i>
    <i type="logical" name="LMETAGGA"> F  </i>
   </separator>
   <separator name="electronic convergence" >
    <i type="int" name="NELM">    60</i>
    <i type="int" name="NELMDL">    -5</i>
    <i type="int" name="NELMIN">     2</i>
    <i name="ENINI">    400.00000000</i>
    <separator name="electronic convergence detail" >
     <i type="logical" name="LDIAG"> T  </i>
     <i type="logical" name="LSUBROT"> F  </i>
     <i name="WEIMIN">      0.00100000</i>
     <i name="EBREAK">      0.00000022</i>
     <i name="DEPER">      0.30000000</i>
     <i type="int" name="NRMM">     4</i>
     <i name="TIME">      0.40000000</i>
    </separator>
   </separator>
   <separator name="electronic mixer" >
    <i name="AMIX">      0.40000000</i>
    <i name="BMIX">      1.00000000</i>
    <i name="AMIN">      0.10000000</i>
    <i name="AMIX_MAG">      1.60000000</i>
    <i name="BMIX_MAG">      1.00000000</i>
    <separator name="electronic mixer details" >
     <i type="int" name="IMIX">     4</i>
     <i type="logical" name="MIXFIRST"> F  </i>
     <i type="int" name="MAXMIX">   -45</i>
     <i name="WC">    100.00000000</i>
     <i type="int" name="INIMIX">     1</i>
     <i type="int" name="MIXPRE">     1</i>
     <i type="int" name="MREMOVE">     5</i>
    </separator>
   </separator>
   <separator name="electronic dipolcorrection" >
    <i type="logical" name="LDIPOL"> F  </i>
    <i type="logical" name="LMONO"> F  </i>
    <i type="int" name="IDIPOL">     0</i>
    <i name="EPSILON">      1.00000000</i>
    <v name="DIPOL">   -100.00000000   -100.00000000   -100.00000000</v>
    <i name="EFIELD">      0.00000000</i>
   </separator>
  </separator>
  <separator name="grids" >
   <i type="int" name="NGX">    36</i>
   <i type="int" name="NGY">    28</i>
   <i type="int" name="NGZ">   120</i>
   <i type="int" name="NGXF">    72</i>
   <i type="int" name="NGYF">    56</i>
   <i type="int" name="NGZF">   240</i>
   <i type="logical" name="ADDGRID"> F  </i>
  </separator>
  <separator name="ionic" >
   <i type="int" name="NSW">   800</i>
   <i type="int" name="IBRION">     2</i>
   <i type="int" name="MDALGO">     0</i>
   <i type="int" name="ISIF">     2</i>
   <i name="PSTRESS">      0.00000000</i>
   <i name="EDIFFG">     -0.03000000</i>
   <i type="int" name="NFREE">     1</i>
   <i name="POTIM">      0.50000000</i>
   <i name="SMASS">     -3.00000000</i>
   <i name="SCALEE">      1.00000000</i>
  </separator>
  <separator name="ionic md" >
   <i name="TEBEG">      0.00010000</i>
   <i name="TEEND">      0.00010000</i>
   <i type="int" name="NBLOCK">     1</i>
   <i type="int" name="KBLOCK">   800</i>
   <i type="int" name="NPACO">   256</i>
   <i name="APACO">     10.00000000</i>
  </separator>
  <separator name="symmetry" >
   <i type="int" name="ISYM">     1</i>
   <i name="SYMPREC">      0.00001000</i>
  </separator>
  <separator name="dos" >
   <i type="int" name="LORBIT">     0</i>
   <v name="RWIGS">     -1.00000000     -1.00000000</v>
   <i type="int" name="NEDOS">   301</i>
   <i name="EMIN">     10.00000000</i>
   <i name="EMAX">    -10.00000000</i>
   <i name="EFERMI">      0.00000000</i>
  </separator>
  <separator name="writing" >
   <i type="int" name="NWRITE">     2</i>
   <i type="logical" name="LWAVE"> F  </i>
   <i type="logical" name="LDOWNSAMPLE"> F  </i>
   <i type="logical" name="LCHARG"> F  </i>
   <i type="logical" name="LPARD"> F  </i>
   <i type="logical" name="LVTOT"> F  </i>
   <i type="logical" name="LVHAR"> F  </i>
   <i type="logical" name="LELF"> F  </i>
   <i type="logical" name="LOPTICS"> F  </i>
   <v name="STM">      0.00000000      0.00000000      0.00000000      0.00000000      0.00000000      0.00000000      0.00000000</v>
  </separator>
  <separator name="performance" >
   <i type="int" name="NPAR">     4</i>
   <i type="int" name="NSIM">     4</i>
   <i type="int" name="NBLK">    -1</i>
   <i type="logical" name="LPLANE"> T  </i>
   <i type="logical" name="LSCALAPACK"> T  </i>
   <i type="logical" name="LSCAAWARE"> F  </i>
   <i type="logical" name="LSCALU"> F  </i>
   <i type="logical" name="LASYNC"> F  </i>
   <i type="logical" name="LORBITALREAL"> F  </i>
  </separator>
  <separator name="miscellaneous" >
   <i type="int" name="IDIOT">     3</i>
   <i type="int" name="PHON_NSTRUCT">    -1</i>
   <i type="logical" name="LMUSIC"> F  </i>
   <v name="POMASS">     63.54600000      1.00000000</v>
   <v name="DARWINR">      0.00000000      0.00000000</v>
   <v name="DARWINV">      1.00000000      1.00000000</v>
   <i type="logical" name="LCORR"> T  </i>
  </separator>
  <i type="logical" name="GGA_COMPAT"> T  </i>
  <i type="logical" name="LBERRY"> F  </i>
  <i type="int" name="ICORELEVEL">     0</i>
  <i type="logical" name="LDAU"> F  </i>
  <i type="int" name="I_CONSTRAINED_M">     0</i>
  <separator name="electronic exchange-correlation" >
   <i type="string" name="GGA">PE</i>
   <i type="int" name="VOSKOWN">     0</i>
   <i type="logical" name="LHFCALC"> F  </i>
   <i type="string" name="PRECFOCK"></i>
   <i type="logical" name="LSYMGRAD"> F  </i>
   <i type="logical" name="LHFONE"> F  </i>
   <i type="logical" name="LRHFCALC"> F  </i>
   <i type="logical" name="LTHOMAS"> F  </i>
   <i type="logical" name="LMODELHF"> F  </i>
   <i type="logical" name="LFOCKACE"> F  </i>
   <i name="ENCUT4O">     -1.00000000</i>
   <i type="int" name="EXXOEP">     0</i>
   <i type="int" name="FOURORBIT">     0</i>
   <i name="AEXX">      0.00000000</i>
   <i name="HFALPHA">      0.00000000</i>
   <i name="MCALPHA">      0.00000000</i>
   <i name="ALDAX">      1.00000000</i>
   <i name="AGGAX">      1.00000000</i>
   <i name="ALDAC">      1.00000000</i>
   <i name="AGGAC">      1.00000000</i>
   <i type="int" name="NKREDX">     1</i>
   <i type="int" name="NKREDY">     1</i>
   <i type="int" name="NKREDZ">     1</i>
   <i type="logical" name="SHIFTRED"> F  </i>
   <i type="logical" name="ODDONLY"> F  </i>
   <i type="logical" name="EVENONLY"> F  </i>
   <i type="int" name="LMAXFOCK">     0</i>
   <i type="int" name="NMAXFOCKAE">     0</i>
   <i type="logical" name="LFOCKAEDFT"> F  </i>
   <i name="HFSCREEN">      0.00000000</i>
   <i name="HFSCREENC">      0.00000000</i>
   <i type="int" name="NBANDSGWLOW">     0</i>
  </separator>
  <separator name="vdW DFT" >
   <i type="logical" name="LUSE_VDW"> F  </i>
   <i name="Zab_VDW">     -0.84910000</i>
   <i name="PARAM1">      0.12340000</i>
   <i name="PARAM2">      1.00000000</i>
   <i name="PARAM3">      0.00000000</i>
  </separator>
  <separator name="model GW" >
   <i type="int" name="MODEL_GW">     0</i>
   <i name="MODEL_EPS0">     15.77424013</i>
   <i name="MODEL_ALPHA">      1.00000000</i>
  </separator>
  <separator name="linear response parameters" >
   <i type="logical" name="LEPSILON"> F  </i>
   <i type="logical" name="LRPA"> F  </i>
   <i type="logical" name="LNABLA"> F  </i>
   <i type="logical" name="LVEL"> F  </i>
   <i name="CSHIFT">      0.10000000</i>
   <i name="OMEGAMAX">     -1.00000000</i>
   <i name="DEG_THRESHOLD">      0.00200000</i>
   <i name="RTIME">     -0.10000000</i>
   <i name="WPLASMAI">      0.00000000</i>
   <v name="DFIELD">      0.00000000      0.00000000      0.00000000</v>
   <v name="WPLASMA">      0.00000000      0.00000000      0.00000000      0.00000000      0.00000000      0.00000000      0.00000000      0.00000000      0.00000000</v>
  </separator>
  <separator name="orbital magnetization" >
   <i type="logical" name="NUCIND"> F  </i>
   <v name="MAGPOS">      0.00000000      0.00000000      0.00000000</v>
   <i type="logical" name="LNICSALL"> T  </i>
   <i type="logical" name="ORBITALMAG"> F  </i>
   <i type="logical" name="LMAGBLOCH"> F  </i>
   <i type="logical" name="LCHIMAG"> F  </i>
   <i type="logical" name="LGAUGE"> T  </i>
   <i type="int" name="MAGATOM">     0</i>
   <v name="MAGDIPOL">      0.00000000      0.00000000      0.00000000</v>
   <v name="AVECCONST">      0.00000000      0.00000000      0.00000000</v>
  </separator>
  <separator name="response functions" >
   <i type="logical" name="LFINITE_TEMPERATURE"> F  </i>
   <i type="logical" name="LADDER"> F  </i>
   <i type="logical" name="LRPAFORCE"> F  </i>
   <i type="logical" name="LFXC"> F  </i>
   <i type="logical" name="LHARTREE"> T  </i>
   <i type="int" name="IBSE">     0</i>
   <v type="int" name="KPOINT">    -1     0     0     0</v>
   <i type="logical" name="LTCTC"> F  </i>
   <i type="logical" name="LTCTE"> F  </i>
   <i type="logical" name="LTETE"> F  </i>
   <i type="logical" name="LTRIPLET"> F  </i>
   <i type="logical" name="LFXCEPS"> F  </i>
   <i type="logical" name="LFXHEG"> F  </i>
   <i type="int" name="NATURALO">     2</i>
   <i type="logical" name="LHOLEGF"> F  </i>
   <i type="logical" name="L2ORDER"> F  </i>
   <i type="logical" name="LDMP1"> F  </i>
   <i type="logical" name="LMP2LT"> F  </i>
   <i type="logical" name="LSMP2LT"> F  </i>
   <i type="logical" name="LGWLF"> F  </i>
   <i name="ENCUTGW">     -2.00000000</i>
   <i name="ENCUTGWSOFT">     -2.00000000</i>
   <i name="ENCUTLF">     -1.00000000</i>
   <i type="logical" name="LESF_SPLINES"> F  </i>
   <i type="int" name="LMAXMP2">    -1</i>
   <i name="SCISSOR">      0.00000000</i>
   <i type="int" name="NOMEGA">     0</i>
   <i type="int" name="NOMEGAR">     0</i>
   <i type="int" name="NBANDSGW">    -1</i>
   <i type="int" name="NBANDSO">    -1</i>
   <i type="int" name="NBANDSV">    -1</i>
   <i type="int" name="NELMGW">     1</i>
   <i type="int" name="NELMHF">     1</i>
   <i type="int" name="DIM">     3</i>
   <i type="int" name="IESPILON">     4</i>
   <i type="int" name="ANTIRES">     0</i>
   <i name="OMEGAMAX">    -30.00000000</i>
   <i name="OMEGAMIN">    -30.00000000</i>
   <i name="OMEGATL">   -200.00000000</i>
   <i type="int" name="OMEGAGRID">     0</i>
   <i name="CSHIFT">     -0.10000000</i>
   <i type="logical" name="LSELFENERGY"> F  </i>
   <i type="logical" name="LSPECTRAL"> F  </i>
   <i type="logical" name="LSPECTRALGW"> F  </i>
   <i type="logical" name="LSINGLES"> F  </i>
   <i type="logical" name="LFERMIGW"> F  </i>
   <i type="logical" name="ODDONLYGW"> F  </i>
   <i type="logical" name="EVENONLYGW"> F  </i>
   <i type="int" name="NKREDLFX">     1</i>
   <i type="int" name="NKREDLFY">     1</i>
   <i type="int" name="NKREDLFZ">     1</i>
   <i type="int" name="MAXMEM">  2800</i>
   <i type="int" name="TELESCOPE">     0</i>
   <i type="int" name="NTAUPAR">    -1</i>
   <i type="int" name="NOMEGAPAR">    -1</i>
   <i name="DAMP_NEWTON">      0.80000001</i>
   <i name="LAMBDA">      1.00000000</i>
  </separator>
  <separator name="External order field" >
   <i name="OFIELD_KAPPA">      0.00000000</i>
   <v name="OFIELD_K">      0.00000000      0.00000000      0.00000000</v>
   <i name="OFIELD_Q6_NEAR">      0.00000000</i>
   <i name="OFIELD_Q6_FAR">      0.00000000</i>
   <i name="OFIELD_A">      0.00000000</i>
  </separator>
  <separator name="optional k-points parameters" >
   <i type="int" name="KPOINTS_OPT_MODE">     1</i>
   <i type="logical" name="LKPOINTS_OPT"> F  </i>
  </separator>
 </parameters>
 <atominfo>
  <atoms>      34 </atoms>
  <types>       2 </types>
  <array name="atoms" >
   <dimension dim="1">ion</dimension>
   <field type="string">element</field>
   <field type="int">atomtype</field>
   <set>
    <rc><c>Cu</c><c>   1</c></rc>
    <rc><c>Cu</c><c>   1</c></rc>
    <rc><c>Cu</c><c>   1</c></rc>
    <rc><c>Cu</c><c>   1</c></rc>
    <rc><c>Cu</c><c>   1</c></rc>
    <rc><c>Cu</c><c>   1</c></rc>
    <rc><c>Cu</c><c>   1</c></rc>
    <rc><c>Cu</c><c>   1</c></rc>
    <rc><c>Cu</c><c>   1</c></rc>
    <rc><c>Cu</c><c>   1</c></rc>
    <rc><c>Cu</c><c>   1</c></rc>
    <rc><c>Cu</c><c>   1</c></rc>
    <rc><c>Cu</c><c>   1</c></rc>
    <rc><c>Cu</c><c>   1</c></rc>
    <rc><c>Cu</c><c>   1</c></rc>
    <rc><c>Cu</c><c>   1</c></rc>
    <rc><c>Cu</c><c>   1</c></rc>
    <rc><c>Cu</c><c>   1</c></rc>
    <rc><c>Cu</c><c>   1</c></rc>
    <rc><c>Cu</c><c>   1</c></rc>
    <rc><c>Cu</c><c>   1</c></rc>
    <rc><c>Cu</c><c>   1</c></rc>
    <rc><c>Cu</c><c>   1</c></rc>
    <rc><c>Cu</c><c>   1</c></rc>
    <rc><c>Cu</c><c>   1</c></rc>
    <rc><c>Cu</c><c>   1</c></rc>
    <rc><c>Cu</c><c>   1</c></rc>
    <rc><c>Cu</c><c>   1</c></rc>
    <rc><c>Cu</c><c>   1</c></rc>
    <rc><c>Cu</c><c>   1</c></rc>
    <rc><c>Cu</c><c>   1</c></rc>
    <rc><c>Cu</c><c>   1</c></rc>
    <rc><c>H </c><c>   2</c></rc>
    <rc><c>H </c><c>   2</c></rc>
   </set>
  </array>
  <array name="atomtypes" >
   <dimension dim="1">type</dimension>
   <field type="int">atomspertype</field>
   <field type="string">element</field>
   <field>mass</field>
   <field>valence</field>
   <field type="string">pseudopotential</field>
   <set>
    <rc><c>  32</c><c>Cu</c><c>     63.54600000</c><c>     11.00000000</c><c>  PAW_PBE Cu 22Jun2005                  </c></rc>
    <rc><c>   2</c><c>H </c><c>      1.00000000</c><c>      1.00000000</c><c>  PAW_PBE H 15Jun2001                   </c></rc>
   </set>
  </array>
 </atominfo>
 <structure name="initialpos" >
  <crystal>
   <varray name="basis" >
    <v>       7.26000023       0.00000000       0.00000000 </v>
    <v>       0.00000000       5.13359547       0.00000000 </v>
    <v>       0.00000000       0.00000000      23.98379135 </v>
   </varray>
   <i name="volume">    893.87360752 </i>
   <varray name="rec_basis" >
    <v>       0.13774104       0.00000000       0.00000000 </v>
    <v>       0.00000000       0.19479525       0.00000000 </v>
    <v>       0.00000000       0.00000000       0.04169483 </v>
   </varray>
  </crystal>
  <varray name="positions" >
   <v>       0.00000000       0.00000000       0.00000000 </v>
   <v>       0.00000000       0.50000000       0.00000000 </v>
   <v>       0.50000000       0.00000000       0.00000000 </v>
   <v>       0.50000000       0.50000000       0.00000000 </v>
   <v>       0.25000000       0.25000000       0.05351109 </v>
   <v>       0.25000000       0.75000000       0.05351109 </v>
   <v>       0.75000000       0.25000000       0.05351109 </v>
   <v>       0.75000000       0.75000000       0.05351109 </v>
   <v>       0.00000000       0.00000000       0.10541371 </v>
   <v>       0.00000000       0.50000000       0.10541371 </v>
   <v>       0.50000000       0.00000000       0.10541371 </v>
   <v>       0.50000000       0.50000000       0.10541371 </v>
   <v>       0.25000000       0.25000000       0.15715010 </v>
   <v>       0.25000000       0.75000000       0.15715010 </v>
   <v>       0.75000000       0.25000000       0.15715010 </v>
   <v>       0.75000000       0.75000000       0.15715010 </v>
   <v>       0.00000000       0.00000000       0.20866257 </v>
   <v>       0.00000000       0.50000000       0.20866257 </v>
   <v>       0.50000000       0.00000000       0.20866257 </v>
   <v>       0.50000000       0.50000000       0.20866257 </v>
   <v>       0.25000000       0.25000000       0.25947965 </v>
   <v>       0.25000000       0.75000000       0.25947965 </v>
   <v>       0.75000000       0.25000000       0.25947965 </v>
   <v>       0.75000000       0.75000000       0.25947965 </v>
   <v>       0.00000000       0.00000000       0.31415415 </v>
   <v>       0.00000000       0.50000000       0.31415415 </v>
   <v>       0.50000000       0.00000000       0.31415415 </v>
   <v>       0.50000000       0.50000000       0.31415415 </v>
   <v>       0.25000000       0.25000000       0.36181799 </v>
   <v>       0.25000000       0.75000000       0.36181799 </v>
   <v>       0.75000000       0.25000000       0.36181799 </v>
   <v>       0.75000000       0.75000000       0.36181799 </v>
   <v>       0.75000000       0.75000000       0.42690792 </v>
   <v>       0.75000000       0.75000000       0.45801226 </v>
  </varray>
  <varray name="selective"  type="logical" >
   <v type="logical" >  F  F  F </v>
   <v type="logical" >  F  F  F </v>
   <v type="logical" >  F  F  F </v>
   <v type="logical" >  F  F  F </v>
   <v type="logical" >  F  F  F </v>
   <v type="logical" >  F  F  F </v>
   <v type="logical" >  F  F  F </v>
   <v type="logical" >  F  F  F </v>
   <v type="logical" >  F  F  F </v>
   <v type="logical" >  F  F  F </v>
   <v type="logical" >  F  F  F </v>
   <v type="logical" >  F  F  F </v>
   <v type="logical" >  T  T  T </v>
   <v type="logical" >  T  T  T </v>
   <v type="logical" >  T  T  T </v>
   <v type="logical" >  T  T  T </v>
   <v type="logical" >  T  T  T </v>
   <v type="logical" >  T  T  T </v>
   <v type="logical" >  T  T  T </v>
   <v type="logical" >  T  T  T </v>
   <v type="logical" >  T  T  T </v>
   <v type="logical" >  T  T  T </v>
   <v type="logical" >  T  T  T </v>
   <v type="logical" >  T  T  T </v>
   <v type="logical" >  T  T  T </v>
   <v type="logical" >  T  T  T </v>
   <v type="logical" >  T  T  T </v>
   <v type="logical" >  T  T  T </v>
   <v type="logical" >  T  T  T </v>
   <v type="logical" >  T  T  T </v>
   <v type="logical" >  T  T  T </v>
   <v type="logical" >  T  T  T </v>
   <v type="logical" >  T  T  T </v>
   <v type="logical" >  T  T  T </v>
  </varray>
  <nose>
   <v>      -3.00000000       0.00000000       0.00010000       0.00010000 </v>
  </nose>
 </structure>
 <calculation>
  <scstep>
   <time name="dav">    7.61    7.67</time>
   <time name="total">    7.70    7.76</time>
   <energy>
    <i name="alphaZ">    844.48149002 </i>
    <i name="ewald"> 172991.87911646 </i>
    <i name="hartreedc">-216127.44959655 </i>
    <i name="XCdc">   1468.58638441 </i>
    <i name="pawpsdc">  39302.70853331 </i>
    <i name="pawaedc"> -42689.07521165 </i>
    <i name="eentropy">     -0.00264009 </i>
    <i name="bandstr">   2944.43541944 </i>
    <i name="atom">  44535.60175172 </i>
    <i name="e_fr_energy">   3271.16524706 </i>
    <i name="e_wo_entrp">   3271.16788716 </i>
    <i name="e_0_energy">   3271.16612709 </i>
   </energy>
  </scstep>
  <scstep>
   <time name="dav">    7.52    7.58</time>
   <time name="total">    7.52    7.58</time>
   <energy>
    <i name="e_fr_energy">    383.30873533 </i>
    <i name="e_wo_entrp">    383.30564850 </i>
    <i name="e_0_energy">    383.30770639 </i>
   </energy>
  </scstep>
  <scstep>
   <time name="dav">    7.50    7.56</time>
   <time name="total">    7.50    7.56</time>
   <energy>
    <i name="e_fr_energy">   -100.75674763 </i>
    <i name="e_wo_entrp">   -100.78460652 </i>
    <i name="e_0_energy">   -100.76603393 </i>
   </energy>
  </scstep>
  <scstep>
   <time name="dav">    8.27    8.33</time>
   <time name="total">    8.27    8.34</time>
   <energy>
    <i name="e_fr_energy">   -134.00983081 </i>
    <i name="e_wo_entrp">   -134.03894076 </i>
    <i name="e_0_energy">   -134.01953413 </i>
   </energy>
  </scstep>
  <scstep>
   <time name="dav">    8.26    8.32</time>
   <time name="total">    8.66    8.72</time>
   <energy>
    <i name="e_fr_energy">   -134.79437343 </i>
    <i name="e_wo_entrp">   -134.82482040 </i>
    <i name="e_0_energy">   -134.80452242 </i>
   </energy>
  </scstep>
  <scstep>
   <time name="dav">    8.09    8.15</time>
   <time name="total">    8.56    8.62</time>
   <energy>
    <i name="e_fr_energy">   -107.64479054 </i>
    <i name="e_wo_entrp">   -107.64452584 </i>
    <i name="e_0_energy">   -107.64470231 </i>
   </energy>
  </scstep>
  <scstep>
   <time name="dav">    8.09    8.15</time>
   <time name="total">    8.54    8.61</time>
   <energy>
    <i name="e_fr_energy">    -94.40949078 </i>
    <i name="e_wo_entrp">    -94.39956236 </i>
    <i name="e_0_energy">    -94.40618131 </i>
   </energy>
  </scstep>
  <scstep>
   <time name="dav">    8.41    8.47</time>
   <time name="total">    8.87    8.94</time>
   <energy>
    <i name="e_fr_energy">    -93.31997588 </i>
    <i name="e_wo_entrp">    -93.32499639 </i>
    <i name="e_0_energy">    -93.32164938 </i>
   </energy>
  </scstep>
  <scstep>
   <time name="dav">    9.80    9.87</time>
   <time name="total">   10.24   10.32</time>
   <energy>
    <i name="e_fr_energy">    -91.40695327 </i>
    <i name="e_wo_entrp">    -91.40437149 </i>
    <i name="e_0_energy">    -91.40609268 </i>
   </energy>
  </scstep>
  <scstep>
   <time name="dav">    9.99   10.06</time>
   <time name="total">   10.46   10.54</time>
   <energy>
    <i name="e_fr_energy">    -93.05586354 </i>
    <i name="e_wo_entrp">    -93.06242919 </i>
    <i name="e_0_energy">    -93.05805209 </i>
   </energy>
  </scstep>
  <scstep>
   <time name="dav">    9.75    9.82</time>
   <time name="total">   10.20   10.28</time>
   <energy>
    <i name="e_fr_energy">    -93.21159872 </i>
    <i name="e_wo_entrp">    -93.18890191 </i>
    <i name="e_0_energy">    -93.20403312 </i>
   </energy>
  </scstep>
  <scstep>
   <time name="dav">    9.93   10.01</time>
   <time name="total">   10.40   10.48</time>
   <energy>
    <i name="e_fr_energy">    -94.77446172 </i>
    <i name="e_wo_entrp">    -94.73620092 </i>
    <i name="e_0_energy">    -94.76170812 </i>
   </energy>
  </scstep>
  <scstep>
   <time name="dav">    9.75    9.82</time>
   <time name="total">   10.21   10.29</time>
   <energy>
    <i name="e_fr_energy">    -99.96037056 </i>
    <i name="e_wo_entrp">    -99.94133031 </i>
    <i name="e_0_energy">    -99.95402381 </i>
   </energy>
  </scstep>
  <scstep>
   <time name="dav">    9.11    9.18</time>
   <time name="total">    9.57    9.64</time>
   <energy>
    <i name="e_fr_energy">   -105.41970292 </i>
    <i name="e_wo_entrp">   -105.41760126 </i>
    <i name="e_0_energy">   -105.41900237 </i>
   </energy>
  </scstep>
  <scstep>
   <time name="dav">    9.09    9.16</time>
   <time name="total">    9.55    9.62</time>
   <energy>
    <i name="e_fr_energy">   -110.33679610 </i>
    <i name="e_wo_entrp">   -110.36373311 </i>
    <i name="e_0_energy">   -110.34577511 </i>
   </energy>
  </scstep>
  <scstep>
   <time name="dav">    8.14    8.20</time>
   <time name="total">    8.62    8.68</time>
   <energy>
    <i name="e_fr_energy">   -112.80017805 </i>
    <i name="e_wo_entrp">   -112.84405374 </i>
    <i name="e_0_energy">   -112.81480328 </i>
   </energy>
  </scstep>
  <scstep>
   <time name="dav">    8.04    8.10</time>
   <time name="total">    8.50    8.56</time>
   <energy>
    <i name="e_fr_energy">   -114.21753811 </i>
    <i name="e_wo_entrp">   -114.26445520 </i>
    <i name="e_0_energy">   -114.23317714 </i>
   </energy>
  </scstep>
  <scstep>
   <time name="dav">    8.79    8.86</time>
   <time name="total">    9.28    9.37</time>
   <energy>
    <i name="e_fr_energy">   -115.89805764 </i>
    <i name="e_wo_entrp">   -115.92773110 </i>
    <i name="e_0_energy">   -115.90794879 </i>
   </energy>
  </scstep>
  <scstep>
   <time name="dav">    9.21    9.29</time>
   <time name="total">    9.67    9.75</time>
   <energy>
    <i name="e_fr_energy">   -116.58761279 </i>
    <i name="e_wo_entrp">   -116.61739194 </i>
    <i name="e_0_energy">   -116.59753917 </i>
   </energy>
  </scstep>
  <scstep>
   <time name="dav">    8.21    8.27</time>
   <time name="total">    8.67    8.73</time>
   <energy>
    <i name="e_fr_energy">   -116.86931298 </i>
    <i name="e_wo_entrp">   -116.90099680 </i>
    <i name="e_0_energy">   -116.87987425 </i>
   </energy>
  </scstep>
  <scstep>
   <time name="dav">    8.11    8.17</time>
   <time name="total">    8.57    8.64</time>
   <energy>
    <i name="e_fr_energy">   -117.10891353 </i>
    <i name="e_wo_entrp">   -117.14203184 </i>
    <i name="e_0_energy">   -117.11995297 </i>
   </energy>
  </scstep>
  <scstep>
   <time name="dav">    8.77    8.84</time>
   <time name="total">    9.24    9.31</time>
   <energy>
    <i name="e_fr_energy">   -117.37567962 </i>
    <i name="e_wo_entrp">   -117.41048413 </i>
    <i name="e_0_energy">   -117.38728112 </i>
   </energy>
  </scstep>
  <scstep>
   <time name="dav">    8.59    8.66</time>
   <time name="total">    9.05    9.12</time>
   <energy>
    <i name="e_fr_energy">   -117.54506812 </i>
    <i name="e_wo_entrp">   -117.58095034 </i>
    <i name="e_0_energy">   -117.55702886 </i>
   </energy>
  </scstep>
  <scstep>
   <time name="dav">    8.60    8.67</time>
   <time name="total">    9.07    9.14</time>
   <energy>
    <i name="e_fr_energy">   -117.65676408 </i>
    <i name="e_wo_entrp">   -117.69261232 </i>
    <i name="e_0_energy">   -117.66871350 </i>
   </energy>
  </scstep>
  <scstep>
   <time name="dav">    9.05    9.13</time>
   <time name="total">    9.52    9.60</time>
   <energy>
    <i name="e_fr_energy">   -117.88135567 </i>
    <i name="e_wo_entrp">   -117.91736843 </i>
    <i name="e_0_energy">   -117.89335992 </i>
   </energy>
  </scstep>
  <scstep>
   <time name="dav">    8.30    8.36</time>
   <time name="total">    8.76    8.83</time>
   <energy>
    <i name="e_fr_energy">   -117.95986509 </i>
    <i name="e_wo_entrp">   -117.99634849 </i>
    <i name="e_0_energy">   -117.97202622 </i>
   </energy>
  </scstep>
  <scstep>
   <time name="dav">    8.38    8.44</time>
   <time name="total">    8.85    8.91</time>
   <energy>
    <i name="e_fr_energy">   -118.03735104 </i>
    <i name="e_wo_entrp">   -118.07380867 </i>
    <i name="e_0_energy">   -118.04950358 </i>
   </energy>
  </scstep>
  <scstep>
   <time name="dav">    7.29    7.35</time>
   <time name="total">    7.76    7.82</time>
   <energy>
    <i name="e_fr_energy">   -118.06705370 </i>
    <i name="e_wo_entrp">   -118.10369730 </i>
    <i name="e_0_energy">   -118.07926823 </i>
   </energy>
  </scstep>
  <scstep>
   <time name="dav">    6.03    6.08</time>
   <time name="total">    6.50    6.55</time>
   <energy>
    <i name="e_fr_energy">   -118.07307811 </i>
    <i name="e_wo_entrp">   -118.10970234 </i>
    <i name="e_0_energy">   -118.08528619 </i>
   </energy>
  </scstep>
  <scstep>
   <time name="dav">    5.72    5.76</time>
   <time name="total">    6.19    6.23</time>
   <energy>
    <i name="e_fr_energy">   -118.07641035 </i>
    <i name="e_wo_entrp">   -118.11296251 </i>
    <i name="e_0_energy">   -118.08859440 </i>
   </energy>
  </scstep>
  <scstep>
   <time name="dav">    5.68    5.73</time>
   <time name="total">    6.15    6.20</time>
   <energy>
    <i name="e_fr_energy">   -118.07760880 </i>
    <i name="e_wo_entrp">   -118.11406684 </i>
    <i name="e_0_energy">   -118.08976148 </i>
   </energy>
  </scstep>
  <scstep>
   <time name="dav">    5.59    5.64</time>
   <time name="total">    6.06    6.10</time>
   <energy>
    <i name="e_fr_energy">   -118.07783712 </i>
    <i name="e_wo_entrp">   -118.11437570 </i>
    <i name="e_0_energy">   -118.09001664 </i>
   </energy>
  </scstep>
  <scstep>
   <time name="dav">    5.57    5.61</time>
   <time name="total">    5.65    5.70</time>
   <energy>
    <i name="alphaZ">    844.48149002 </i>
    <i name="ewald"> 172991.87911646 </i>
    <i name="hartreedc">-215763.24792788 </i>
    <i name="XCdc">   1431.99044461 </i>
    <i name="pawpsdc">  41976.47646728 </i>
    <i name="pawaedc"> -45424.75594967 </i>
    <i name="eentropy">      0.03650467 </i>
    <i name="bandstr">   -710.53981218 </i>
    <i name="atom">  44535.60175172 </i>
    <i name="e_fr_energy">   -118.07791496 </i>
    <i name="e_wo_entrp">   -118.11441963 </i>
    <i name="e_0_energy">   -118.09008319 </i>
   </energy>
  </scstep>
  <structure>
   <crystal>
    <varray name="basis" >
     <v>       7.26000023       0.00000000       0.00000000 </v>
     <v>       0.00000000       5.13359547       0.00000000 </v>
     <v>       0.00000000       0.00000000      23.98379135 </v>
    </varray>
    <i name="volume">    893.87360752 </i>
    <varray name="rec_basis" >
     <v>       0.13774104       0.00000000       0.00000000 </v>
     <v>       0.00000000       0.19479525       0.00000000 </v>
     <v>       0.00000000       0.00000000       0.04169483 </v>
    </varray>
   </crystal>
   <varray name="positions" >
    <v>       0.00000000       0.00000000       0.00000000 </v>
    <v>       0.00000000       0.50000000       0.00000000 </v>
    <v>       0.50000000       0.00000000       0.00000000 </v>
    <v>       0.50000000       0.50000000       0.00000000 </v>
    <v>       0.25000000       0.25000000       0.05351109 </v>
    <v>       0.25000000       0.75000000       0.05351109 </v>
    <v>       0.75000000       0.25000000       0.05351109 </v>
    <v>       0.75000000       0.75000000       0.05351109 </v>
    <v>       0.00000000       0.00000000       0.10541371 </v>
    <v>       0.00000000       0.50000000       0.10541371 </v>
    <v>       0.50000000       0.00000000       0.10541371 </v>
    <v>       0.50000000       0.50000000       0.10541371 </v>
    <v>       0.25000000       0.25000000       0.15715010 </v>
    <v>       0.25000000       0.75000000       0.15715010 </v>
    <v>       0.75000000       0.25000000       0.15715010 </v>
    <v>       0.75000000       0.75000000       0.15715010 </v>
    <v>       0.00000000       0.00000000       0.20866257 </v>
    <v>       0.00000000       0.50000000       0.20866257 </v>
    <v>       0.50000000       0.00000000       0.20866257 </v>
    <v>       0.50000000       0.50000000       0.20866257 </v>
    <v>       0.25000000       0.25000000       0.25947965 </v>
    <v>       0.25000000       0.75000000       0.25947965 </v>
    <v>       0.75000000       0.25000000       0.25947965 </v>
    <v>       0.75000000       0.75000000       0.25947965 </v>
    <v>       0.00000000       0.00000000       0.31415415 </v>
    <v>       0.00000000       0.50000000       0.31415415 </v>
    <v>       0.50000000       0.00000000       0.31415415 </v>
    <v>       0.50000000       0.50000000       0.31415415 </v>
    <v>       0.25000000       0.25000000       0.36181799 </v>
    <v>       0.25000000       0.75000000       0.36181799 </v>
    <v>       0.75000000       0.25000000       0.36181799 </v>
    <v>       0.75000000       0.75000000       0.36181799 </v>
    <v>       0.75000000       0.75000000       0.42690792 </v>
    <v>       0.75000000       0.75000000       0.45801226 </v>
   </varray>
  </structure>
  <varray name="forces" >
   <v>       0.01805110      -0.01005730       0.44781536 </v>
   <v>       0.01805110       0.01005730       0.44781536 </v>
   <v>      -0.01805110      -0.01005730       0.44781536 </v>
   <v>      -0.01805110       0.01005730       0.44781536 </v>
   <v>      -0.00000000      -0.00000000      -0.47064621 </v>
   <v>      -0.00000000      -0.00000000      -0.48547248 </v>
   <v>      -0.00000000      -0.00000000      -0.43202621 </v>
   <v>      -0.00000000      -0.00000000      -0.43702931 </v>
   <v>       0.00155439       0.00020823      -0.02163862 </v>
   <v>       0.00155439      -0.00020823      -0.02163862 </v>
   <v>      -0.00155439       0.00020823      -0.02163862 </v>
   <v>      -0.00155439      -0.00020823      -0.02163862 </v>
   <v>      -0.00000000      -0.00000000      -0.00537474 </v>
   <v>      -0.00000000      -0.00000000       0.00084043 </v>
   <v>      -0.00000000      -0.00000000       0.05056841 </v>
   <v>      -0.00000000      -0.00000000       0.03576966 </v>
   <v>       0.00860290       0.00549114      -0.00501505 </v>
   <v>       0.00860290      -0.00549114      -0.00501505 </v>
   <v>      -0.00860290       0.00549114      -0.00501505 </v>
   <v>      -0.00860290      -0.00549114      -0.00501505 </v>
   <v>      -0.00000000      -0.00000000      -0.02530300 </v>
   <v>      -0.00000000      -0.00000000      -0.01151934 </v>
   <v>      -0.00000000      -0.00000000       0.05178589 </v>
   <v>      -0.00000000      -0.00000000       0.07479806 </v>
   <v>       0.03208139       0.01838968      -0.01937690 </v>
   <v>       0.03208139      -0.01838968      -0.01937690 </v>
   <v>      -0.03208139       0.01838968      -0.01937690 </v>
   <v>      -0.03208139      -0.01838968      -0.01937690 </v>
   <v>      -0.00000000      -0.00000000       0.00706485 </v>
   <v>      -0.00000000      -0.00000000      -0.01604787 </v>
   <v>      -0.00000000      -0.00000000      -0.14657219 </v>
   <v>      -0.00000000      -0.00000000      -1.25431982 </v>
   <v>      -0.00000000      -0.00000000       0.35694189 </v>
   <v>      -0.00000000      -0.00000000       1.09940285 </v>
  </varray>
  <varray name="stress" >
   <v>     -31.55844589       0.00000000       0.00000000 </v>
   <v>       0.00000000     -28.07863022       0.00000000 </v>
   <v>       0.00000000       0.00000000      -2.09043750 </v>
  </varray>
  <energy>
   <i name="e_fr_energy">   -130.44572983 </i>
   <i name="e_wo_entrp">   -130.48223450 </i>
   <i name="e_0_energy">   -130.45789806 </i>
  </energy>
  <time name="totalsc">  297.49  299.82</time>
 </calculation>
 <calculation>
  <scstep>
   <time name="dav">    7.58    7.64</time>
   <time name="total">    8.05    8.12</time>
   <energy>
    <i name="alphaZ">    844.48149002 </i>
    <i name="ewald"> 173275.51929443 </i>
    <i name="hartreedc">-216047.65437789 </i>
    <i name="XCdc">   1432.01158549 </i>
    <i name="pawpsdc">  41976.68448543 </i>
    <i name="pawaedc"> -45424.95923990 </i>
    <i name="eentropy">      0.03769035 </i>
    <i name="bandstr">   -709.83936376 </i>
    <i name="atom">  44535.60175172 </i>
    <i name="e_fr_energy">   -118.11668410 </i>
    <i name="e_wo_entrp">   -118.15437445 </i>
    <i name="e_0_energy">   -118.12924755 </i>
   </energy>
  </scstep>
  <scstep>
   <time name="dav">    9.94   10.02</time>
   <time name="total">   10.40   10.48</time>
   <energy>
    <i name="e_fr_energy">   -118.16365416 </i>
    <i name="e_wo_entrp">   -118.20050048 </i>
    <i name="e_0_energy">   -118.17593627 </i>
   </energy>
  </scstep>
  <scstep>
   <time name="dav">    8.12    8.18</time>
   <time name="total">    8.58    8.64</time>
   <energy>
    <i name="e_fr_energy">   -118.15991386 </i>
    <i name="e_wo_entrp">   -118.19800387 </i>
    <i name="e_0_energy">   -118.17261053 </i>
   </energy>
  </scstep>
  <scstep>
   <time name="dav">    8.79    8.86</time>
   <time name="total">    9.25    9.32</time>
   <energy>
    <i name="e_fr_energy">   -118.15993802 </i>
    <i name="e_wo_entrp">   -118.19740552 </i>
    <i name="e_0_energy">   -118.17242719 </i>
   </energy>
  </scstep>
  <scstep>
   <time name="dav">    8.63    8.69</time>
   <time name="total">    9.08    9.15</time>
   <energy>
    <i name="e_fr_energy">   -118.15991331 </i>
    <i name="e_wo_entrp">   -118.19774907 </i>
    <i name="e_0_energy">   -118.17252523 </i>
   </energy>
  </scstep>
  <scstep>
   <time name="dav">    9.13    9.20</time>
   <time name="total">    9.59    9.67</time>
   <energy>
    <i name="e_fr_energy">   -118.15847023 </i>
    <i name="e_wo_entrp">   -118.19691623 </i>
    <i name="e_0_energy">   -118.17128556 </i>
   </energy>
  </scstep>
  <scstep>
   <time name="dav">    9.36    9.43</time>
   <time name="total">    9.44    9.52</time>
   <energy>
    <i name="alphaZ">    844.48149002 </i>
    <i name="ewald"> 173275.51929443 </i>
    <i name="hartreedc">-216042.51702707 </i>
    <i name="XCdc">   1431.95771561 </i>
    <i name="pawpsdc">  41982.77551525 </i>
    <i name="pawaedc"> -45431.25560779 </i>
    <i name="eentropy">      0.03780903 </i>
    <i name="bandstr">   -714.75939352 </i>
    <i name="atom">  44535.60175172 </i>
    <i name="e_fr_energy">   -118.15845230 </i>
    <i name="e_wo_entrp">   -118.19626134 </i>
    <i name="e_0_energy">   -118.17105532 </i>
   </energy>
  </scstep>
  <structure>
   <crystal>
    <varray name="basis" >
     <v>       7.26000023       0.00000000       0.00000000 </v>
     <v>       0.00000000       5.13359547       0.00000000 </v>
     <v>       0.00000000       0.00000000      23.98379135 </v>
    </varray>
    <i name="volume">    893.87360752 </i>
    <varray name="rec_basis" >
     <v>       0.13774104       0.00000000       0.00000000 </v>
     <v>       0.00000000       0.19479525       0.00000000 </v>
     <v>       0.00000000       0.00000000       0.04169483 </v>
    </varray>
   </crystal>
   <varray name="positions" >
    <v>       0.00000000       0.00000000       0.00000000 </v>
    <v>       0.00000000       0.50000000       0.00000000 </v>
    <v>       0.50000000       0.00000000       0.00000000 </v>
    <v>       0.50000000       0.50000000       0.00000000 </v>
    <v>       0.25000000       0.25000000       0.05351109 </v>
    <v>       0.25000000       0.75000000       0.05351109 </v>
    <v>       0.75000000       0.25000000       0.05351109 </v>
    <v>       0.75000000       0.75000000       0.05351109 </v>
    <v>       0.00000000       0.00000000       0.10541371 </v>
    <v>       0.00000000       0.50000000       0.10541371 </v>
    <v>       0.50000000       0.00000000       0.10541371 </v>
    <v>       0.50000000       0.50000000       0.10541371 </v>
    <v>       0.25000000       0.25000000       0.15713928 </v>
    <v>       0.25000000       0.75000000       0.15715179 </v>
    <v>       0.75000000       0.25000000       0.15725181 </v>
    <v>       0.75000000       0.75000000       0.15722205 </v>
    <v>       0.00005717       0.00005160       0.20865248 </v>
    <v>       0.00005717       0.49994840       0.20865248 </v>
    <v>       0.49994283       0.00005160       0.20865248 </v>
    <v>       0.49994283       0.49994840       0.20865248 </v>
    <v>       0.25000000       0.25000000       0.25942876 </v>
    <v>       0.25000000       0.75000000       0.25945648 </v>
    <v>       0.75000000       0.25000000       0.25958382 </v>
    <v>       0.75000000       0.75000000       0.25963011 </v>
    <v>       0.00021318       0.00017282       0.31411517 </v>
    <v>       0.00021318       0.49982718       0.31411517 </v>
    <v>       0.49978682       0.00017282       0.31411517 </v>
    <v>       0.49978682       0.49982718       0.31411517 </v>
    <v>       0.25000000       0.25000000       0.36183220 </v>
    <v>       0.25000000       0.75000000       0.36178571 </v>
    <v>       0.75000000       0.25000000       0.36152316 </v>
    <v>       0.75000000       0.75000000       0.35929496 </v>
    <v>       0.75000000       0.75000000       0.42762590 </v>
    <v>       0.75000000       0.75000000       0.46022368 </v>
   </varray>
  </structure>
  <varray name="forces" >
   <v>       0.01646553      -0.00871909       0.44706591 </v>
   <v>       0.01646553       0.00871909       0.44706591 </v>
   <v>      -0.01646553      -0.00871909       0.44706591 </v>
   <v>      -0.01646553       0.00871909       0.44706591 </v>
   <v>       0.00000000       0.00000000      -0.46966457 </v>
   <v>       0.00000000       0.00000000      -0.48320136 </v>
   <v>       0.00000000       0.00000000      -0.42834563 </v>
   <v>       0.00000000       0.00000000      -0.43549083 </v>
   <v>      -0.00203554       0.00021908      -0.02039315 </v>
   <v>      -0.00203554      -0.00021908      -0.02039315 </v>
   <v>       0.00203554       0.00021908      -0.02039315 </v>
   <v>       0.00203554      -0.00021908      -0.02039315 </v>
   <v>       0.00000000       0.00000000      -0.00787978 </v>
   <v>       0.00000000       0.00000000      -0.00076076 </v>
   <v>       0.00000000       0.00000000       0.02978152 </v>
   <v>       0.00000000       0.00000000       0.02283240 </v>
   <v>       0.00147563       0.00064159      -0.00498779 </v>
   <v>       0.00147563      -0.00064159      -0.00498779 </v>
   <v>      -0.00147563       0.00064159      -0.00498779 </v>
   <v>      -0.00147563      -0.00064159      -0.00498779 </v>
   <v>       0.00000000       0.00000000      -0.01446783 </v>
   <v>       0.00000000       0.00000000      -0.01284558 </v>
   <v>       0.00000000       0.00000000       0.00070169 </v>
   <v>       0.00000000       0.00000000      -0.18733426 </v>
   <v>       0.08075948       0.03870611      -0.04190137 </v>
   <v>       0.08075948      -0.03870611      -0.04190137 </v>
   <v>      -0.08075948       0.03870611      -0.04190137 </v>
   <v>      -0.08075948      -0.03870611      -0.04190137 </v>
   <v>       0.00000000       0.00000000       0.00466695 </v>
   <v>       0.00000000       0.00000000      -0.00939362 </v>
   <v>       0.00000000       0.00000000      -0.08032967 </v>
   <v>       0.00000000       0.00000000      -0.39675983 </v>
   <v>       0.00000000       0.00000000       0.96299713 </v>
   <v>       0.00000000       0.00000000      -0.01364037 </v>
  </varray>
  <varray name="stress" >
   <v>     -30.81766167       0.00000000       0.00000000 </v>
   <v>       0.00000000     -27.82097132       0.00000000 </v>
   <v>       0.00000000       0.00000000      -3.77093894 </v>
  </varray>
  <energy>
   <i name="e_fr_energy">   -130.53662660 </i>
   <i name="e_wo_entrp">   -130.57443564 </i>
   <i name="e_0_energy">   -130.54922961 </i>
  </energy>
  <time name="totalsc">   79.54   80.19</time>
 </calculation>
 <calculation>
  <scstep>
   <time name="dav">    7.57    7.63</time>
   <time name="total">    8.04    8.10</time>
   <energy>
    <i name="alphaZ">    844.48149002 </i>
    <i name="ewald"> 173389.26926687 </i>
    <i name="hartreedc">-216156.12200703 </i>
    <i name="XCdc">   1431.96872937 </i>
    <i name="pawpsdc">  41982.96986358 </i>
    <i name="pawaedc"> -45431.44633600 </i>
    <i name="eentropy">      0.03854952 </i>
    <i name="bandstr">   -714.91891289 </i>
    <i name="atom">  44535.60175172 </i>
    <i name="e_fr_energy">   -118.15760484 </i>
    <i name="e_wo_entrp">   -118.19615436 </i>
    <i name="e_0_energy">   -118.17045468 </i>
   </energy>
  </scstep>
  <scstep>
   <time name="dav">    9.93   10.00</time>
   <time name="total">   10.39   10.47</time>
   <energy>
    <i name="e_fr_energy">   -118.16423819 </i>
    <i name="e_wo_entrp">   -118.20252299 </i>
    <i name="e_0_energy">   -118.17699979 </i>
   </energy>
  </scstep>
  <scstep>
   <time name="dav">    7.97    8.03</time>
   <time name="total">    8.43    8.49</time>
   <energy>
    <i name="e_fr_energy">   -118.16396786 </i>
    <i name="e_wo_entrp">   -118.20257487 </i>
    <i name="e_0_energy">   -118.17683686 </i>
   </energy>
  </scstep>
  <scstep>
   <time name="dav">    7.69    7.75</time>
   <time name="total">    7.78    7.84</time>
   <energy>
    <i name="alphaZ">    844.48149002 </i>
    <i name="ewald"> 173389.26926687 </i>
    <i name="hartreedc">-216154.70859619 </i>
    <i name="XCdc">   1431.95102946 </i>
    <i name="pawpsdc">  41985.40402718 </i>
    <i name="pawaedc"> -45433.89563848 </i>
    <i name="eentropy">      0.03851048 </i>
    <i name="bandstr">   -716.30583042 </i>
    <i name="atom">  44535.60175172 </i>
    <i name="e_fr_energy">   -118.16398935 </i>
    <i name="e_wo_entrp">   -118.20249983 </i>
    <i name="e_0_energy">   -118.17682618 </i>
   </energy>
  </scstep>
  <structure>
   <crystal>
    <varray name="basis" >
     <v>       7.26000023       0.00000000       0.00000000 </v>
     <v>       0.00000000       5.13359547       0.00000000 </v>
     <v>       0.00000000       0.00000000      23.98379135 </v>
    </varray>
    <i name="volume">    893.87360752 </i>
    <varray name="rec_basis" >
     <v>       0.13774104       0.00000000       0.00000000 </v>
     <v>       0.00000000       0.19479525       0.00000000 </v>
     <v>       0.00000000       0.00000000       0.04169483 </v>
    </varray>
   </crystal>
   <varray name="positions" >
    <v>       0.00000000       0.00000000       0.00000000 </v>
    <v>       0.00000000       0.50000000       0.00000000 </v>
    <v>       0.50000000       0.00000000       0.00000000 </v>
    <v>       0.50000000       0.50000000       0.00000000 </v>
    <v>       0.25000000       0.25000000       0.05351109 </v>
    <v>       0.25000000       0.75000000       0.05351109 </v>
    <v>       0.75000000       0.25000000       0.05351109 </v>
    <v>       0.75000000       0.75000000       0.05351109 </v>
    <v>       0.00000000       0.00000000       0.10541371 </v>
    <v>       0.00000000       0.50000000       0.10541371 </v>
    <v>       0.50000000       0.00000000       0.10541371 </v>
    <v>       0.50000000       0.50000000       0.10541371 </v>
    <v>       0.25000000       0.25000000       0.15713496 </v>
    <v>       0.25000000       0.75000000       0.15715246 </v>
    <v>       0.75000000       0.25000000       0.15729254 </v>
    <v>       0.75000000       0.75000000       0.15725085 </v>
    <v>       0.00008005       0.00007226       0.20864844 </v>
    <v>       0.00008005       0.49992774       0.20864844 </v>
    <v>       0.49991995       0.00007226       0.20864844 </v>
    <v>       0.49991995       0.49992774       0.20864844 </v>
    <v>       0.25000000       0.25000000       0.25940838 </v>
    <v>       0.25000000       0.75000000       0.25944721 </v>
    <v>       0.75000000       0.25000000       0.25962552 </v>
    <v>       0.75000000       0.75000000       0.25969035 </v>
    <v>       0.00029853       0.00024201       0.31409957 </v>
    <v>       0.00029853       0.49975799       0.31409957 </v>
    <v>       0.49970147       0.00024201       0.31409957 </v>
    <v>       0.49970147       0.49975799       0.31409957 </v>
    <v>       0.25000000       0.25000000       0.36183789 </v>
    <v>       0.25000000       0.75000000       0.36177279 </v>
    <v>       0.75000000       0.25000000       0.36140512 </v>
    <v>       0.75000000       0.75000000       0.35828480 </v>
    <v>       0.75000000       0.75000000       0.42791336 </v>
    <v>       0.75000000       0.75000000       0.46110908 </v>
   </varray>
  </structure>
  <varray name="forces" >
   <v>       0.01583267      -0.00833041       0.44342752 </v>
   <v>       0.01583267       0.00833041       0.44342752 </v>
   <v>      -0.01583267      -0.00833041       0.44342752 </v>
   <v>      -0.01583267       0.00833041       0.44342752 </v>
   <v>      -0.00000000       0.00000000      -0.47164156 </v>
   <v>      -0.00000000       0.00000000      -0.48485933 </v>
   <v>      -0.00000000       0.00000000      -0.42946086 </v>
   <v>      -0.00000000       0.00000000      -0.43691914 </v>
   <v>      -0.00353668       0.00009603      -0.02152978 </v>
   <v>      -0.00353668      -0.00009603      -0.02152978 </v>
   <v>       0.00353668       0.00009603      -0.02152978 </v>
   <v>       0.00353668      -0.00009603      -0.02152978 </v>
   <v>      -0.00000000       0.00000000      -0.01076621 </v>
   <v>      -0.00000000       0.00000000      -0.00366154 </v>
   <v>      -0.00000000       0.00000000       0.02096760 </v>
   <v>      -0.00000000       0.00000000       0.01606805 </v>
   <v>      -0.00123715      -0.00138277      -0.00639397 </v>
   <v>      -0.00123715       0.00138277      -0.00639397 </v>
   <v>       0.00123715      -0.00138277      -0.00639397 </v>
   <v>       0.00123715       0.00138277      -0.00639397 </v>
   <v>      -0.00000000       0.00000000      -0.01038441 </v>
   <v>      -0.00000000       0.00000000      -0.01273514 </v>
   <v>      -0.00000000       0.00000000      -0.01699933 </v>
   <v>      -0.00000000       0.00000000      -0.31182233 </v>
   <v>       0.10071831       0.04757755      -0.04871989 </v>
   <v>       0.10071831      -0.04757755      -0.04871989 </v>
   <v>      -0.10071831       0.04757755      -0.04871989 </v>
   <v>      -0.10071831      -0.04757755      -0.04871989 </v>
   <v>      -0.00000000       0.00000000      -0.00136514 </v>
   <v>      -0.00000000       0.00000000      -0.01546908 </v>
   <v>      -0.00000000       0.00000000      -0.06564906 </v>
   <v>      -0.00000000       0.00000000      -0.04367805 </v>
   <v>      -0.00000000       0.00000000       1.17801311 </v>
   <v>      -0.00000000       0.00000000      -0.36677314 </v>
  </varray>
  <varray name="stress" >
   <v>     -29.67006045       0.00000000       0.00000000 </v>
   <v>       0.00000000     -26.86753034       0.00000000 </v>
   <v>       0.00000000       0.00000000      -3.28404219 </v>
  </varray>
  <energy>
   <i name="e_fr_energy">   -130.54699749 </i>
   <i name="e_wo_entrp">   -130.58550797 </i>
   <i name="e_0_energy">   -130.55983432 </i>
  </energy>
  <time name="totalsc">   49.75   50.15</time>
 </calculation>
 <calculation>
  <scstep>
   <time name="dav">    7.59    7.65</time>
   <time name="total">    8.06    8.12</time>
   <energy>
    <i name="alphaZ">    844.48149002 </i>
    <i name="ewald"> 173641.14164005 </i>
    <i name="hartreedc">-216405.41284815 </i>
    <i name="XCdc">   1432.01722680 </i>
    <i name="pawpsdc">  41986.17452361 </i>
    <i name="pawaedc"> -45434.71672290 </i>
    <i name="eentropy">      0.03922252 </i>
    <i name="bandstr">   -717.49032225 </i>
    <i name="atom">  44535.60175172 </i>
    <i name="e_fr_energy">   -118.16403858 </i>
    <i name="e_wo_entrp">   -118.20326110 </i>
    <i name="e_0_energy">   -118.17711276 </i>
   </energy>
  </scstep>
  <scstep>
   <time name="dav">    9.59    9.66</time>
   <time name="total">   10.05   10.13</time>
   <energy>
    <i name="e_fr_energy">   -118.19405150 </i>
    <i name="e_wo_entrp">   -118.23288359 </i>
    <i name="e_0_energy">   -118.20699553 </i>
   </energy>
  </scstep>
  <scstep>
   <time name="dav">    8.10    8.16</time>
   <time name="total">    8.55    8.62</time>
   <energy>
    <i name="e_fr_energy">   -118.19396767 </i>
    <i name="e_wo_entrp">   -118.23397960 </i>
    <i name="e_0_energy">   -118.20730498 </i>
   </energy>
  </scstep>
  <scstep>
   <time name="dav">    8.26    8.32</time>
   <time name="total">    8.72    8.79</time>
   <energy>
    <i name="e_fr_energy">   -118.19090646 </i>
    <i name="e_wo_entrp">   -118.23079264 </i>
    <i name="e_0_energy">   -118.20420185 </i>
   </energy>
  </scstep>
  <scstep>
   <time name="dav">   10.12   10.20</time>
   <time name="total">   10.58   10.66</time>
   <energy>
    <i name="e_fr_energy">   -118.18947849 </i>
    <i name="e_wo_entrp">   -118.22840390 </i>
    <i name="e_0_energy">   -118.20245362 </i>
   </energy>
  </scstep>
  <scstep>
   <time name="dav">   10.37   10.46</time>
   <time name="total">   10.84   10.93</time>
   <energy>
    <i name="e_fr_energy">   -118.18902147 </i>
    <i name="e_wo_entrp">   -118.22897285 </i>
    <i name="e_0_energy">   -118.20233860 </i>
   </energy>
  </scstep>
  <scstep>
   <time name="dav">    8.28    8.34</time>
   <time name="total">    8.36    8.42</time>
   <energy>
    <i name="alphaZ">    844.48149002 </i>
    <i name="ewald"> 173641.14164005 </i>
    <i name="hartreedc">-216403.72350539 </i>
    <i name="XCdc">   1432.09470256 </i>
    <i name="pawpsdc">  41996.05227695 </i>
    <i name="pawaedc"> -45444.81572892 </i>
    <i name="eentropy">      0.03950926 </i>
    <i name="bandstr">   -719.06123346 </i>
    <i name="atom">  44535.60175172 </i>
    <i name="e_fr_energy">   -118.18909719 </i>
    <i name="e_wo_entrp">   -118.22860645 </i>
    <i name="e_0_energy">   -118.20226694 </i>
   </energy>
  </scstep>
  <structure>
   <crystal>
    <varray name="basis" >
     <v>       7.26000023       0.00000000       0.00000000 </v>
     <v>       0.00000000       5.13359547       0.00000000 </v>
     <v>       0.00000000       0.00000000      23.98379135 </v>
    </varray>
    <i name="volume">    893.87360752 </i>
    <varray name="rec_basis" >
     <v>       0.13774104       0.00000000       0.00000000 </v>
     <v>       0.00000000       0.19479525       0.00000000 </v>
     <v>       0.00000000       0.00000000       0.04169483 </v>
    </varray>
   </crystal>
   <varray name="positions" >
    <v>       0.00000000       0.00000000       0.00000000 </v>
    <v>       0.00000000       0.50000000       0.00000000 </v>
    <v>       0.50000000       0.00000000       0.00000000 </v>
    <v>       0.50000000       0.50000000       0.00000000 </v>
    <v>       0.25000000       0.25000000       0.05351109 </v>
    <v>       0.25000000       0.75000000       0.05351109 </v>
    <v>       0.75000000       0.25000000       0.05351109 </v>
    <v>       0.75000000       0.75000000       0.05351109 </v>
    <v>       0.00000000       0.00000000       0.10541371 </v>
    <v>       0.00000000       0.50000000       0.10541371 </v>
    <v>       0.50000000       0.00000000       0.10541371 </v>
    <v>       0.50000000       0.50000000       0.10541371 </v>
    <v>       0.25000000       0.25000000       0.15710521 </v>
    <v>       0.25000000       0.75000000       0.15714550 </v>
    <v>       0.75000000       0.25000000       0.15739789 </v>
    <v>       0.75000000       0.75000000       0.15732806 </v>
    <v>       0.00010478       0.00008856       0.20862862 </v>
    <v>       0.00010478       0.49991144       0.20862862 </v>
    <v>       0.49989522       0.00008856       0.20862862 </v>
    <v>       0.49989522       0.49991144       0.20862862 </v>
    <v>       0.25000000       0.25000000       0.25935590 </v>
    <v>       0.25000000       0.75000000       0.25940592 </v>
    <v>       0.75000000       0.25000000       0.25964983 </v>
    <v>       0.75000000       0.75000000       0.25910135 </v>
    <v>       0.00114672       0.00082651       0.31397081 </v>
    <v>       0.00114672       0.49917349       0.31397081 </v>
    <v>       0.49885328       0.00082651       0.31397081 </v>
    <v>       0.49885328       0.49917349       0.31397081 </v>
    <v>       0.25000000       0.25000000       0.36184328 </v>
    <v>       0.25000000       0.75000000       0.36172020 </v>
    <v>       0.75000000       0.25000000       0.36108917 </v>
    <v>       0.75000000       0.75000000       0.35670665 </v>
    <v>       0.75000000       0.75000000       0.43089473 </v>
    <v>       0.75000000       0.75000000       0.46161231 </v>
   </varray>
  </structure>
  <varray name="forces" >
   <v>       0.01398951      -0.00784686       0.44748284 </v>
   <v>       0.01398951       0.00784686       0.44748284 </v>
   <v>      -0.01398951      -0.00784686       0.44748284 </v>
   <v>      -0.01398951       0.00784686       0.44748284 </v>
   <v>       0.00000000      -0.00000000      -0.47062316 </v>
   <v>       0.00000000      -0.00000000      -0.48279267 </v>
   <v>       0.00000000      -0.00000000      -0.42365775 </v>
   <v>       0.00000000      -0.00000000      -0.43289448 </v>
   <v>      -0.00789853       0.00051502      -0.02024952 </v>
   <v>      -0.00789853      -0.00051502      -0.02024952 </v>
   <v>       0.00789853       0.00051502      -0.02024952 </v>
   <v>       0.00789853      -0.00051502      -0.02024952 </v>
   <v>       0.00000000      -0.00000000      -0.00720231 </v>
   <v>       0.00000000      -0.00000000      -0.00363568 </v>
   <v>       0.00000000      -0.00000000       0.00244290 </v>
   <v>       0.00000000      -0.00000000      -0.04147970 </v>
   <v>       0.01040706       0.00535878      -0.01547684 </v>
   <v>       0.01040706      -0.00535878      -0.01547684 </v>
   <v>      -0.01040706       0.00535878      -0.01547684 </v>
   <v>      -0.01040706      -0.00535878      -0.01547684 </v>
   <v>       0.00000000      -0.00000000      -0.02944013 </v>
   <v>       0.00000000      -0.00000000      -0.02548517 </v>
   <v>       0.00000000      -0.00000000      -0.02797537 </v>
   <v>       0.00000000      -0.00000000      -0.29185962 </v>
   <v>       0.07446615       0.02602544      -0.05224800 </v>
   <v>       0.07446615      -0.02602544      -0.05224800 </v>
   <v>      -0.07446615       0.02602544      -0.05224800 </v>
   <v>      -0.07446615      -0.02602544      -0.05224800 </v>
   <v>       0.00000000      -0.00000000       0.02055244 </v>
   <v>       0.00000000      -0.00000000      -0.00061338 </v>
   <v>       0.00000000      -0.00000000      -0.05260902 </v>
   <v>       0.00000000      -0.00000000       0.33585641 </v>
   <v>       0.00000000      -0.00000000      -0.69611669 </v>
   <v>       0.00000000      -0.00000000       1.18949949 </v>
  </varray>
  <varray name="stress" >
   <v>     -30.53159905       0.00000000       0.00000000 </v>
   <v>       0.00000000     -27.98238594       0.00000000 </v>
   <v>       0.00000000       0.00000000      -2.23143732 </v>
  </varray>
  <energy>
   <i name="e_fr_energy">   -130.57621947 </i>
   <i name="e_wo_entrp">   -130.61572873 </i>
   <i name="e_0_energy">   -130.58938923 </i>
  </energy>
  <time name="totalsc">   80.28   80.92</time>
 </calculation>
 <calculation>
  <scstep>
   <time name="dav">    7.62    7.68</time>
   <time name="total">    8.09    8.16</time>
   <energy>
    <i name="alphaZ">    844.48149002 </i>
    <i name="ewald"> 173572.92413609 </i>
    <i name="hartreedc">-216335.88834726 </i>
    <i name="XCdc">   1432.06919944 </i>
    <i name="pawpsdc">  41996.46435478 </i>
    <i name="pawaedc"> -45445.18878789 </i>
    <i name="eentropy">      0.03957584 </i>
    <i name="bandstr">   -718.69759171 </i>
    <i name="atom">  44535.60175172 </i>
    <i name="e_fr_energy">   -118.19421897 </i>
    <i name="e_wo_entrp">   -118.23379481 </i>
    <i name="e_0_energy">   -118.20741092 </i>
   </energy>
  </scstep>
  <scstep>
   <time name="dav">    9.58    9.66</time>
   <time name="total">   10.04   10.13</time>
   <energy>
    <i name="e_fr_energy">   -118.19613406 </i>
    <i name="e_wo_entrp">   -118.23566451 </i>
    <i name="e_0_energy">   -118.20931088 </i>
   </energy>
  </scstep>
  <scstep>
   <time name="dav">    8.25    8.32</time>
   <time name="total">    8.70    8.78</time>
   <energy>
    <i name="e_fr_energy">   -118.19600764 </i>
    <i name="e_wo_entrp">   -118.23533997 </i>
    <i name="e_0_energy">   -118.20911841 </i>
   </energy>
  </scstep>
  <scstep>
   <time name="dav">    6.01    6.05</time>
   <time name="total">    6.09    6.14</time>
   <energy>
    <i name="alphaZ">    844.48149002 </i>
    <i name="ewald"> 173572.92413609 </i>
    <i name="hartreedc">-216336.58123430 </i>
    <i name="XCdc">   1432.04817677 </i>
    <i name="pawpsdc">  41994.75049175 </i>
    <i name="pawaedc"> -45443.43215525 </i>
    <i name="eentropy">      0.03945455 </i>
    <i name="bandstr">   -718.02822439 </i>
    <i name="atom">  44535.60175172 </i>
    <i name="e_fr_energy">   -118.19611304 </i>
    <i name="e_wo_entrp">   -118.23556759 </i>
    <i name="e_0_energy">   -118.20926456 </i>
   </energy>
  </scstep>
  <structure>
   <crystal>
    <varray name="basis" >
     <v>       7.26000023       0.00000000       0.00000000 </v>
     <v>       0.00000000       5.13359547       0.00000000 </v>
     <v>       0.00000000       0.00000000      23.98379135 </v>
    </varray>
    <i name="volume">    893.87360752 </i>
    <varray name="rec_basis" >
     <v>       0.13774104       0.00000000       0.00000000 </v>
     <v>       0.00000000       0.19479525       0.00000000 </v>
     <v>       0.00000000       0.00000000       0.04169483 </v>
    </varray>
   </crystal>
   <varray name="positions" >
    <v>       0.00000000       0.00000000       0.00000000 </v>
    <v>       0.00000000       0.50000000       0.00000000 </v>
    <v>       0.50000000       0.00000000       0.00000000 </v>
    <v>       0.50000000       0.50000000       0.00000000 </v>
    <v>       0.25000000       0.25000000       0.05351109 </v>
    <v>       0.25000000       0.75000000       0.05351109 </v>
    <v>       0.75000000       0.25000000       0.05351109 </v>
    <v>       0.75000000       0.75000000       0.05351109 </v>
    <v>       0.00000000       0.00000000       0.10541371 </v>
    <v>       0.00000000       0.50000000       0.10541371 </v>
    <v>       0.50000000       0.00000000       0.10541371 </v>
    <v>       0.50000000       0.50000000       0.10541371 </v>
    <v>       0.25000000       0.25000000       0.15711326 </v>
    <v>       0.25000000       0.75000000       0.15714739 </v>
    <v>       0.75000000       0.25000000       0.15736940 </v>
    <v>       0.75000000       0.75000000       0.15730718 </v>
    <v>       0.00009809       0.00008416       0.20863398 </v>
    <v>       0.00009809       0.49991584       0.20863398 </v>
    <v>       0.49990191       0.00008416       0.20863398 </v>
    <v>       0.49990191       0.49991584       0.20863398 </v>
    <v>       0.25000000       0.25000000       0.25937009 </v>
    <v>       0.25000000       0.75000000       0.25941708 </v>
    <v>       0.75000000       0.25000000       0.25964326 </v>
    <v>       0.75000000       0.75000000       0.25926065 </v>
    <v>       0.00091732       0.00066843       0.31400563 </v>
    <v>       0.00091732       0.49933157       0.31400563 </v>
    <v>       0.49908268       0.00066843       0.31400563 </v>
    <v>       0.49908268       0.49933157       0.31400563 </v>
    <v>       0.25000000       0.25000000       0.36184182 </v>
    <v>       0.25000000       0.75000000       0.36173442 </v>
    <v>       0.75000000       0.25000000       0.36117463 </v>
    <v>       0.75000000       0.75000000       0.35713348 </v>
    <v>       0.75000000       0.75000000       0.43008838 </v>
    <v>       0.75000000       0.75000000       0.46147621 </v>
   </varray>
  </structure>
  <varray name="forces" >
   <v>       0.01453694      -0.00801015       0.45473125 </v>
   <v>       0.01453694       0.00801015       0.45473125 </v>
   <v>      -0.01453694      -0.00801015       0.45473125 </v>
   <v>      -0.01453694       0.00801015       0.45473125 </v>
   <v>       0.00000000       0.00000000      -0.46951014 </v>
   <v>       0.00000000       0.00000000      -0.48200850 </v>
   <v>       0.00000000       0.00000000      -0.42469495 </v>
   <v>       0.00000000       0.00000000      -0.43312107 </v>
   <v>      -0.00658157       0.00033196      -0.02077003 </v>
   <v>      -0.00658157      -0.00033196      -0.02077003 </v>
   <v>       0.00658157       0.00033196      -0.02077003 </v>
   <v>       0.00658157      -0.00033196      -0.02077003 </v>
   <v>       0.00000000       0.00000000      -0.00639623 </v>
   <v>       0.00000000       0.00000000       0.00054985 </v>
   <v>       0.00000000       0.00000000       0.02161503 </v>
   <v>       0.00000000       0.00000000      -0.01090993 </v>
   <v>       0.00641672       0.00351367      -0.00732658 </v>
   <v>       0.00641672      -0.00351367      -0.00732658 </v>
   <v>      -0.00641672       0.00351367      -0.00732658 </v>
   <v>      -0.00641672      -0.00351367      -0.00732658 </v>
   <v>       0.00000000       0.00000000      -0.02232102 </v>
   <v>       0.00000000       0.00000000      -0.01991426 </v>
   <v>       0.00000000       0.00000000      -0.01865169 </v>
   <v>       0.00000000       0.00000000      -0.31519781 </v>
   <v>       0.09651705       0.04056032      -0.05513332 </v>
   <v>       0.09651705      -0.04056032      -0.05513332 </v>
   <v>      -0.09651705       0.04056032      -0.05513332 </v>
   <v>      -0.09651705      -0.04056032      -0.05513332 </v>
   <v>       0.00000000       0.00000000       0.02003502 </v>
   <v>       0.00000000       0.00000000      -0.00309556 </v>
   <v>       0.00000000       0.00000000      -0.07388923 </v>
   <v>       0.00000000       0.00000000       0.18497870 </v>
   <v>       0.00000000       0.00000000      -0.12247398 </v>
   <v>       0.00000000       0.00000000       0.68900053 </v>
  </varray>
  <varray name="stress" >
   <v>     -29.99675843       0.00000000       0.00000000 </v>
   <v>       0.00000000     -27.32747248       0.00000000 </v>
   <v>       0.00000000       0.00000000      -2.30201072 </v>
  </varray>
  <energy>
   <i name="e_fr_energy">   -130.58176130 </i>
   <i name="e_wo_entrp">   -130.62121585 </i>
   <i name="e_0_energy">   -130.59491282 </i>
  </energy>
  <time name="totalsc">   48.05   48.44</time>
 </calculation>
 <calculation>
  <scstep>
   <time name="dav">    7.57    7.63</time>
   <time name="total">    8.03    8.10</time>
   <energy>
    <i name="alphaZ">    844.48149002 </i>
    <i name="ewald"> 173740.92200608 </i>
    <i name="hartreedc">-216504.68416819 </i>
    <i name="XCdc">   1432.04087404 </i>
    <i name="pawpsdc">  41994.30724973 </i>
    <i name="pawaedc"> -45442.97410772 </i>
    <i name="eentropy">      0.03907679 </i>
    <i name="bandstr">   -717.93732347 </i>
    <i name="atom">  44535.60175172 </i>
    <i name="e_fr_energy">   -118.20315100 </i>
    <i name="e_wo_entrp">   -118.24222779 </i>
    <i name="e_0_energy">   -118.21617660 </i>
   </energy>
  </scstep>
  <scstep>
   <time name="dav">    9.93   10.01</time>
   <time name="total">   10.39   10.47</time>
   <energy>
    <i name="e_fr_energy">   -118.21780166 </i>
    <i name="e_wo_entrp">   -118.25660888 </i>
    <i name="e_0_energy">   -118.23073740 </i>
   </energy>
  </scstep>
  <scstep>
   <time name="dav">    7.88    7.94</time>
   <time name="total">    8.34    8.40</time>
   <energy>
    <i name="e_fr_energy">   -118.21745892 </i>
    <i name="e_wo_entrp">   -118.25658489 </i>
    <i name="e_0_energy">   -118.23050091 </i>
   </energy>
  </scstep>
  <scstep>
   <time name="dav">    8.06    8.12</time>
   <time name="total">    8.52    8.59</time>
   <energy>
    <i name="e_fr_energy">   -118.21655849 </i>
    <i name="e_wo_entrp">   -118.25594609 </i>
    <i name="e_0_energy">   -118.22968769 </i>
   </energy>
  </scstep>
  <scstep>
   <time name="dav">    9.30    9.37</time>
   <time name="total">    9.76    9.83</time>
   <energy>
    <i name="e_fr_energy">   -118.21645151 </i>
    <i name="e_wo_entrp">   -118.25495323 </i>
    <i name="e_0_energy">   -118.22928542 </i>
   </energy>
  </scstep>
  <scstep>
   <time name="dav">    8.06    8.13</time>
   <time name="total">    8.52    8.60</time>
   <energy>
    <i name="e_fr_energy">   -118.21613685 </i>
    <i name="e_wo_entrp">   -118.25557883 </i>
    <i name="e_0_energy">   -118.22928417 </i>
   </energy>
  </scstep>
  <scstep>
   <time name="dav">    6.24    6.30</time>
   <time name="total">    6.32    6.38</time>
   <energy>
    <i name="alphaZ">    844.48149002 </i>
    <i name="ewald"> 173740.92200608 </i>
    <i name="hartreedc">-216502.30900828 </i>
    <i name="XCdc">   1432.03984556 </i>
    <i name="pawpsdc">  41995.85978969 </i>
    <i name="pawaedc"> -45444.59317519 </i>
    <i name="eentropy">      0.03916005 </i>
    <i name="bandstr">   -720.25802565 </i>
    <i name="atom">  44535.60175172 </i>
    <i name="e_fr_energy">   -118.21616600 </i>
    <i name="e_wo_entrp">   -118.25532605 </i>
    <i name="e_0_energy">   -118.22921935 </i>
   </energy>
  </scstep>
  <structure>
   <crystal>
    <varray name="basis" >
     <v>       7.26000023       0.00000000       0.00000000 </v>
     <v>       0.00000000       5.13359547       0.00000000 </v>
     <v>       0.00000000       0.00000000      23.98379135 </v>
    </varray>
    <i name="volume">    893.87360752 </i>
    <varray name="rec_basis" >
     <v>       0.13774104       0.00000000       0.00000000 </v>
     <v>       0.00000000       0.19479525       0.00000000 </v>
     <v>       0.00000000       0.00000000       0.04169483 </v>
    </varray>
   </crystal>
   <varray name="positions" >
    <v>       0.00000000       0.00000000       0.00000000 </v>
    <v>       0.00000000       0.50000000       0.00000000 </v>
    <v>       0.50000000       0.00000000       0.00000000 </v>
    <v>       0.50000000       0.50000000       0.00000000 </v>
    <v>       0.25000000       0.25000000       0.05351109 </v>
    <v>       0.25000000       0.75000000       0.05351109 </v>
    <v>       0.75000000       0.25000000       0.05351109 </v>
    <v>       0.75000000       0.75000000       0.05351109 </v>
    <v>       0.00000000       0.00000000       0.10541371 </v>
    <v>       0.00000000       0.50000000       0.10541371 </v>
    <v>       0.50000000       0.00000000       0.10541371 </v>
    <v>       0.50000000       0.50000000       0.10541371 </v>
    <v>       0.25000000       0.25000000       0.15708458 </v>
    <v>       0.25000000       0.75000000       0.15714488 </v>
    <v>       0.75000000       0.25000000       0.15746881 </v>
    <v>       0.75000000       0.75000000       0.15732506 </v>
    <v>       0.00015456       0.00012640       0.20860858 </v>
    <v>       0.00015456       0.49987360       0.20860858 </v>
    <v>       0.49984544       0.00012640       0.20860858 </v>
    <v>       0.49984544       0.49987360       0.20860858 </v>
    <v>       0.25000000       0.25000000       0.25929683 </v>
    <v>       0.25000000       0.75000000       0.25935461 </v>
    <v>       0.75000000       0.25000000       0.25961761 </v>
    <v>       0.75000000       0.75000000       0.25830547 </v>
    <v>       0.00201530       0.00136295       0.31382512 </v>
    <v>       0.00201530       0.49863705       0.31382512 </v>
    <v>       0.49798470       0.00136295       0.31382512 </v>
    <v>       0.49798470       0.49863705       0.31382512 </v>
    <v>       0.25000000       0.25000000       0.36188581 </v>
    <v>       0.25000000       0.75000000       0.36170061 </v>
    <v>       0.75000000       0.25000000       0.36085786 </v>
    <v>       0.75000000       0.75000000       0.35668985 </v>
    <v>       0.75000000       0.75000000       0.43139292 </v>
    <v>       0.75000000       0.75000000       0.46315480 </v>
   </varray>
  </structure>
  <varray name="forces" >
   <v>       0.01338040      -0.00752368       0.44505963 </v>
   <v>       0.01338040       0.00752368       0.44505963 </v>
   <v>      -0.01338040      -0.00752368       0.44505963 </v>
   <v>      -0.01338040       0.00752368       0.44505963 </v>
   <v>       0.00000000       0.00000000      -0.47291016 </v>
   <v>       0.00000000       0.00000000      -0.48375684 </v>
   <v>       0.00000000       0.00000000      -0.42157913 </v>
   <v>       0.00000000       0.00000000      -0.43622138 </v>
   <v>      -0.00906609       0.00183811      -0.02288618 </v>
   <v>      -0.00906609      -0.00183811      -0.02288618 </v>
   <v>       0.00906609       0.00183811      -0.02288618 </v>
   <v>       0.00906609      -0.00183811      -0.02288618 </v>
   <v>       0.00000000       0.00000000      -0.00854197 </v>
   <v>       0.00000000       0.00000000      -0.00905600 </v>
   <v>       0.00000000       0.00000000      -0.01831264 </v>
   <v>       0.00000000       0.00000000      -0.10221294 </v>
   <v>       0.02079306       0.01091137      -0.02477285 </v>
   <v>       0.02079306      -0.01091137      -0.02477285 </v>
   <v>      -0.02079306       0.01091137      -0.02477285 </v>
   <v>      -0.02079306      -0.01091137      -0.02477285 </v>
   <v>       0.00000000       0.00000000      -0.04077797 </v>
   <v>       0.00000000       0.00000000      -0.02858558 </v>
   <v>       0.00000000       0.00000000      -0.01832906 </v>
   <v>       0.00000000       0.00000000      -0.06206027 </v>
   <v>       0.00700647      -0.01642479      -0.04088996 </v>
   <v>       0.00700647       0.01642479      -0.04088996 </v>
   <v>      -0.00700647      -0.01642479      -0.04088996 </v>
   <v>      -0.00700647       0.01642479      -0.04088996 </v>
[...]
       <r>    10.4991    -0.0005   232.0000 </r>
       <r>    10.5726    -0.0001   232.0000 </r>
       <r>    10.6462    -0.0000   232.0000 </r>
       <r>    10.7197    -0.0000   232.0000 </r>
       <r>    10.7933    -0.0000   232.0000 </r>
       <r>    10.8668    -0.0000   232.0000 </r>
       <r>    10.9403    -0.0000   232.0000 </r>
       <r>    11.0139    -0.0000   232.0000 </r>
       <r>    11.0874    -0.0000   232.0000 </r>
       <r>    11.1610     0.0000   232.0000 </r>
       <r>    11.2345     0.0000   232.0000 </r>
       <r>    11.3081     0.0000   232.0000 </r>
       <r>    11.3816     0.0000   232.0000 </r>
       <r>    11.4552     0.0000   232.0000 </r>
       <r>    11.5287     0.0000   232.0000 </r>
       <r>    11.6022     0.0000   232.0000 </r>
       <r>    11.6758     0.0000   232.0000 </r>
       <r>    11.7493     0.0000   232.0000 </r>
       <r>    11.8229     0.0000   232.0000 </r>
      </set>
      <set comment="spin 2">
       <r>   -10.2403     0.0000     0.0000 </r>
       <r>   -10.1668     0.0000     0.0000 </r>
       <r>   -10.0932     0.0000     0.0000 </r>
       <r>   -10.0197     0.0000     0.0000 </r>
       <r>    -9.9462     0.0000     0.0000 </r>
       <r>    -9.8726    -0.0000    -0.0000 </r>
       <r>    -9.7991    -0.0000    -0.0000 </r>
       <r>    -9.7255    -0.0000    -0.0000 </r>
       <r>    -9.6520    -0.0000    -0.0000 </r>
       <r>    -9.5784    -0.0000    -0.0000 </r>
       <r>    -9.5049    -0.0000    -0.0000 </r>
       <r>    -9.4313    -0.0000    -0.0000 </r>
       <r>    -9.3578    -0.0000    -0.0000 </r>
       <r>    -9.2843    -0.0000    -0.0000 </r>
       <r>    -9.2107    -0.0000    -0.0000 </r>
       <r>    -9.1372    -0.0000    -0.0000 </r>
       <r>    -9.0636    -0.0000    -0.0000 </r>
       <r>    -8.9901    -0.0000    -0.0000 </r>
       <r>    -8.9165    -0.0000    -0.0000 </r>
       <r>    -8.8430    -0.0001    -0.0000 </r>
       <r>    -8.7694    -0.0008    -0.0001 </r>
       <r>    -8.6959    -0.0036    -0.0003 </r>
       <r>    -8.6224    -0.0115    -0.0012 </r>
       <r>    -8.5488    -0.0230    -0.0029 </r>
       <r>    -8.4753    -0.0147    -0.0039 </r>
       <r>    -8.4017     0.0617     0.0006 </r>
       <r>    -8.3282     0.2231     0.0170 </r>
       <r>    -8.2546     0.3791     0.0449 </r>
       <r>    -8.1811     0.4046     0.0746 </r>
       <r>    -8.1076     0.3439     0.0999 </r>
       <r>    -8.0340     0.4090     0.1300 </r>
       <r>    -7.9605     0.6598     0.1785 </r>
       <r>    -7.8869     0.8452     0.2407 </r>
       <r>    -7.8134     0.7542     0.2961 </r>
       <r>    -7.7398     0.5650     0.3377 </r>
       <r>    -7.6663     0.5739     0.3799 </r>
       <r>    -7.5927     0.7194     0.4328 </r>
       <r>    -7.5192     0.7423     0.4874 </r>
       <r>    -7.4457     0.7510     0.5426 </r>
       <r>    -7.3721     1.1416     0.6266 </r>
       <r>    -7.2986     1.8352     0.7616 </r>
       <r>    -7.2250     2.1529     0.9199 </r>
       <r>    -7.1515     1.7917     1.0517 </r>
       <r>    -7.0779     1.3511     1.1510 </r>
       <r>    -7.0044     1.4114     1.2548 </r>
       <r>    -6.9308     1.6570     1.3767 </r>
       <r>    -6.8573     1.4780     1.4854 </r>
       <r>    -6.7838     0.9482     1.5551 </r>
       <r>    -6.7102     0.5958     1.5989 </r>
       <r>    -6.6367     0.5979     1.6429 </r>
       <r>    -6.5631     0.8457     1.7051 </r>
       <r>    -6.4896     1.4864     1.8144 </r>
       <r>    -6.4160     2.5899     2.0049 </r>
       <r>    -6.3425     3.4593     2.2593 </r>
       <r>    -6.2690     3.2442     2.4979 </r>
       <r>    -6.1954     2.2025     2.6599 </r>
       <r>    -6.1219     1.5031     2.7704 </r>
       <r>    -6.0483     1.9153     2.9113 </r>
       <r>    -5.9748     3.1742     3.1447 </r>
       <r>    -5.9012     4.2634     3.4583 </r>
       <r>    -5.8277     4.2547     3.7712 </r>
       <r>    -5.7541     3.3381     4.0167 </r>
       <r>    -5.6806     2.7898     4.2218 </r>
       <r>    -5.6071     3.4790     4.4777 </r>
       <r>    -5.5335     4.6831     4.8221 </r>
       <r>    -5.4600     4.8705     5.1803 </r>
       <r>    -5.3864     3.5548     5.4418 </r>
       <r>    -5.3129     1.8036     5.5744 </r>
       <r>    -5.2393     0.9806     5.6465 </r>
       <r>    -5.1658     1.6919     5.7709 </r>
       <r>    -5.0922     3.7193     6.0445 </r>
       <r>    -5.0187     6.0578     6.4900 </r>
       <r>    -4.9452     7.3119     7.0277 </r>
       <r>    -4.8716     6.8211     7.5294 </r>
       <r>    -4.7981     5.0763     7.9027 </r>
       <r>    -4.7245     2.9238     8.1178 </r>
       <r>    -4.6510     1.0562     8.1954 </r>
       <r>    -4.5774     0.1596     8.2072 </r>
       <r>    -4.5039     0.8134     8.2670 </r>
       <r>    -4.4304     3.0662     8.4925 </r>
       <r>    -4.3568     6.1634     8.9458 </r>
       <r>    -4.2833     8.7431     9.5888 </r>
       <r>    -4.2097     9.7290    10.3043 </r>
       <r>    -4.1362     9.4399    10.9985 </r>
       <r>    -4.0626     9.5247    11.6990 </r>
       <r>    -3.9891    11.2596    12.5271 </r>
       <r>    -3.9155    14.0203    13.5582 </r>
       <r>    -3.8420    16.0906    14.7416 </r>
       <r>    -3.7685    17.0240    15.9936 </r>
       <r>    -3.6949    17.9976    17.3172 </r>
       <r>    -3.6214    19.5038    18.7516 </r>
       <r>    -3.5478    20.6599    20.2710 </r>
       <r>    -3.4743    21.5660    21.8570 </r>
       <r>    -3.4007    24.0957    23.6291 </r>
       <r>    -3.3272    28.9360    25.7572 </r>
       <r>    -3.2536    33.5050    28.2213 </r>
       <r>    -3.1801    34.7210    30.7748 </r>
       <r>    -3.1066    32.8570    33.1912 </r>
       <r>    -3.0330    30.5537    35.4383 </r>
       <r>    -2.9595    29.0384    37.5739 </r>
       <r>    -2.8859    27.9464    39.6292 </r>
       <r>    -2.8124    28.0441    41.6917 </r>
       <r>    -2.7388    31.0927    43.9783 </r>
       <r>    -2.6653    36.8697    46.6899 </r>
       <r>    -2.5918    42.5272    49.8175 </r>
       <r>    -2.5182    45.4766    53.1620 </r>
       <r>    -2.4447    45.8659    56.5352 </r>
       <r>    -2.3711    46.0716    59.9235 </r>
       <r>    -2.2976    48.4099    63.4838 </r>
       <r>    -2.2240    53.3333    67.4061 </r>
       <r>    -2.1505    59.2547    71.7639 </r>
       <r>    -2.0769    63.5399    76.4369 </r>
       <r>    -2.0034    63.9758    81.1419 </r>
       <r>    -1.9299    60.3696    85.5818 </r>
       <r>    -1.8563    54.7933    89.6115 </r>
       <r>    -1.7828    49.8130    93.2749 </r>
       <r>    -1.7092    46.8355    96.7194 </r>
       <r>    -1.6357    46.2314   100.1194 </r>
       <r>    -1.5621    48.1923   103.6637 </r>
       <r>    -1.4886    52.2995   107.5100 </r>
       <r>    -1.4150    56.4871   111.6643 </r>
       <r>    -1.3415    58.6553   115.9780 </r>
       <r>    -1.2680    59.5201   120.3554 </r>
       <r>    -1.1944    61.2305   124.8585 </r>
       <r>    -1.1209    63.6189   129.5373 </r>
       <r>    -1.0473    65.3173   134.3410 </r>
       <r>    -0.9738    67.8385   139.3301 </r>
       <r>    -0.9002    73.9967   144.7721 </r>
       <r>    -0.8267    81.8650   150.7928 </r>
       <r>    -0.7532    83.9762   156.9687 </r>
       <r>    -0.6796    74.0825   162.4171 </r>
       <r>    -0.6061    53.7736   166.3718 </r>
       <r>    -0.5325    31.5726   168.6938 </r>
       <r>    -0.4590    15.6486   169.8446 </r>
       <r>    -0.3854     8.2486   170.4513 </r>
       <r>    -0.3119     6.5724   170.9346 </r>
       <r>    -0.2383     6.6926   171.4268 </r>
       <r>    -0.1648     6.0671   171.8730 </r>
       <r>    -0.0913     4.1313   172.1769 </r>
       <r>    -0.0177     1.8140   172.3103 </r>
       <r>     0.0558     0.4423   172.3428 </r>
       <r>     0.1294     0.7392   172.3972 </r>
       <r>     0.2029     2.4488   172.5773 </r>
       <r>     0.2765     4.5953   172.9152 </r>
       <r>     0.3500     6.2406   173.3742 </r>
       <r>     0.4236     7.2573   173.9079 </r>
       <r>     0.4971     8.2306   174.5132 </r>
       <r>     0.5706     9.3358   175.1998 </r>
       <r>     0.6442     9.6881   175.9123 </r>
       <r>     0.7177     8.4882   176.5366 </r>
       <r>     0.7913     6.3754   177.0054 </r>
       <r>     0.8648     4.7594   177.3555 </r>
       <r>     0.9384     4.2817   177.6704 </r>
       <r>     1.0119     4.6434   178.0119 </r>
       <r>     1.0854     5.3288   178.4038 </r>
       <r>     1.1590     5.7802   178.8289 </r>
       <r>     1.2325     5.3538   179.2226 </r>
       <r>     1.3061     3.9104   179.5102 </r>
       <r>     1.3796     2.3557   179.6834 </r>
       <r>     1.4532     2.0324   179.8329 </r>
       <r>     1.5267     3.3226   180.0773 </r>
       <r>     1.6003     4.9984   180.4449 </r>
       <r>     1.6738     5.4947   180.8490 </r>
       <r>     1.7473     4.8578   181.2062 </r>
       <r>     1.8209     4.5369   181.5399 </r>
       <r>     1.8944     5.2008   181.9224 </r>
       <r>     1.9680     6.0200   182.3651 </r>
       <r>     2.0415     6.2370   182.8238 </r>
       <r>     2.1151     6.0649   183.2699 </r>
       <r>     2.1886     5.8372   183.6991 </r>
       <r>     2.2622     5.5074   184.1042 </r>
       <r>     2.3357     5.1624   184.4838 </r>
       <r>     2.4092     5.1492   184.8625 </r>
       <r>     2.4828     5.5251   185.2689 </r>
       <r>     2.5563     5.7776   185.6938 </r>
       <r>     2.6299     5.2996   186.0835 </r>
       <r>     2.7034     4.1255   186.3869 </r>
       <r>     2.7770     2.9971   186.6074 </r>
       <r>     2.8505     2.7572   186.8101 </r>
       <r>     2.9240     3.8210   187.0912 </r>
       <r>     2.9976     5.7366   187.5130 </r>
       <r>     3.0711     7.0251   188.0297 </r>
       <r>     3.1447     6.3328   188.4954 </r>
       <r>     3.2182     4.1119   188.7978 </r>
       <r>     3.2918     2.3076   188.9676 </r>
       <r>     3.3653     2.2162   189.1305 </r>
       <r>     3.4389     3.4197   189.3820 </r>
       <r>     3.5124     4.7090   189.7284 </r>
       <r>     3.5859     5.2631   190.1154 </r>
       <r>     3.6595     5.0443   190.4864 </r>
       <r>     3.7330     4.6161   190.8259 </r>
       <r>     3.8066     4.5314   191.1591 </r>
       <r>     3.8801     4.8102   191.5129 </r>
       <r>     3.9537     5.0703   191.8858 </r>
       <r>     4.0272     4.9551   192.2502 </r>
       <r>     4.1008     4.4284   192.5759 </r>
       <r>     4.1743     3.8243   192.8572 </r>
       <r>     4.2478     3.5642   193.1193 </r>
       <r>     4.3214     3.8059   193.3992 </r>
       <r>     4.3949     4.2746   193.7135 </r>
       <r>     4.4685     4.4018   194.0373 </r>
       <r>     4.5420     3.9870   194.3305 </r>
       <r>     4.6156     3.7485   194.6062 </r>
       <r>     4.6891     4.6292   194.9466 </r>
       <r>     4.7626     6.4265   195.4192 </r>
       <r>     4.8362     7.6805   195.9841 </r>
       <r>     4.9097     7.2065   196.5141 </r>
       <r>     4.9833     5.3741   196.9093 </r>
       <r>     5.0568     3.6062   197.1745 </r>
       <r>     5.1304     2.9295   197.3900 </r>
       <r>     5.2039     3.3195   197.6341 </r>
       <r>     5.2775     4.2294   197.9452 </r>
       <r>     5.3510     5.2283   198.3297 </r>
       <r>     5.4245     6.0128   198.7719 </r>
       <r>     5.4981     6.4205   199.2441 </r>
       <r>     5.5716     6.6863   199.7358 </r>
       <r>     5.6452     7.1399   200.2609 </r>
       <r>     5.7187     7.6264   200.8218 </r>
       <r>     5.7923     7.7692   201.3932 </r>
       <r>     5.8658     7.6997   201.9594 </r>
       <r>     5.9394     7.8525   202.5369 </r>
       <r>     6.0129     8.0677   203.1303 </r>
       <r>     6.0864     7.7622   203.7011 </r>
       <r>     6.1600     7.0561   204.2201 </r>
       <r>     6.2335     6.7519   204.7166 </r>
       <r>     6.3071     7.0665   205.2363 </r>
       <r>     6.3806     7.3176   205.7745 </r>
       <r>     6.4542     7.0033   206.2895 </r>
       <r>     6.5277     6.4491   206.7638 </r>
       <r>     6.6012     6.3346   207.2297 </r>
       <r>     6.6748     7.0009   207.7446 </r>
       <r>     6.7483     8.1096   208.3410 </r>
       <r>     6.8219     8.7843   208.9870 </r>
       <r>     6.8954     8.2777   209.5958 </r>
       <r>     6.9690     6.7716   210.0938 </r>
       <r>     7.0425     5.4833   210.4971 </r>
       <r>     7.1161     5.6615   210.9134 </r>
       <r>     7.1896     7.2669   211.4479 </r>
       <r>     7.2631     8.8802   212.1010 </r>
       <r>     7.3367     9.2682   212.7826 </r>
       <r>     7.4102     8.6143   213.4161 </r>
       <r>     7.4838     7.6923   213.9818 </r>
       <r>     7.5573     6.7250   214.4764 </r>
       <r>     7.6309     5.8852   214.9092 </r>
       <r>     7.7044     5.8860   215.3421 </r>
       <r>     7.7780     7.1447   215.8676 </r>
       <r>     7.8515     9.0859   216.5358 </r>
       <r>     7.9250    10.6890   217.3219 </r>
       <r>     7.9986    11.1531   218.1421 </r>
       <r>     8.0721    10.2449   218.8956 </r>
       <r>     8.1457     8.5991   219.5280 </r>
       <r>     8.2192     7.4054   220.0726 </r>
       <r>     8.2928     7.4484   220.6204 </r>
       <r>     8.3663     8.3771   221.2365 </r>
       <r>     8.4398     8.9302   221.8933 </r>
       <r>     8.5134     8.2437   222.4995 </r>
       <r>     8.5869     6.9758   223.0126 </r>
       <r>     8.6605     6.5951   223.4976 </r>
       <r>     8.7340     7.6368   224.0592 </r>
       <r>     8.8076     9.2570   224.7400 </r>
       <r>     8.8811    10.3659   225.5024 </r>
       <r>     8.9547    10.5996   226.2819 </r>
       <r>     9.0282    10.0703   227.0225 </r>
       <r>     9.1017     8.7495   227.6660 </r>
       <r>     9.1753     6.7632   228.1634 </r>
       <r>     9.2488     4.9352   228.5263 </r>
       <r>     9.3224     4.1815   228.8339 </r>
       <r>     9.3959     4.6483   229.1757 </r>
       <r>     9.4695     5.9221   229.6113 </r>
       <r>     9.5430     7.3668   230.1530 </r>
       <r>     9.6166     7.9956   230.7411 </r>
       <r>     9.6901     7.0757   231.2615 </r>
       <r>     9.7636     5.0587   231.6335 </r>
       <r>     9.8372     3.0476   231.8576 </r>
       <r>     9.9107     1.5831   231.9741 </r>
       <r>     9.9843     0.6098   232.0189 </r>
       <r>    10.0578     0.0541   232.0229 </r>
       <r>    10.1314    -0.1323   232.0132 </r>
       <r>    10.2049    -0.1109   232.0050 </r>
       <r>    10.2784    -0.0496   232.0013 </r>
       <r>    10.3520    -0.0147   232.0003 </r>
       <r>    10.4255    -0.0031   232.0000 </r>
       <r>    10.4991    -0.0005   232.0000 </r>
       <r>    10.5726    -0.0001   232.0000 </r>
       <r>    10.6462    -0.0000   232.0000 </r>
       <r>    10.7197    -0.0000   232.0000 </r>
       <r>    10.7933    -0.0000   232.0000 </r>
       <r>    10.8668    -0.0000   232.0000 </r>
       <r>    10.9403    -0.0000   232.0000 </r>
       <r>    11.0139    -0.0000   232.0000 </r>
       <r>    11.0874    -0.0000   232.0000 </r>
       <r>    11.1610     0.0000   232.0000 </r>
       <r>    11.2345     0.0000   232.0000 </r>
       <r>    11.3081     0.0000   232.0000 </r>
       <r>    11.3816     0.0000   232.0000 </r>
       <r>    11.4552     0.0000   232.0000 </r>
       <r>    11.5287     0.0000   232.0000 </r>
       <r>    11.6022     0.0000   232.0000 </r>
       <r>    11.6758     0.0000   232.0000 </r>
       <r>    11.7493     0.0000   232.0000 </r>
       <r>    11.8229     0.0000   232.0000 </r>
      </set>
     </set>
    </array>
   </total>
  </dos>
 </calculation>
 <structure name="finalpos" >
  <crystal>
   <varray name="basis" >
    <v>       7.26000023       0.00000000       0.00000000 </v>
    <v>       0.00000000       5.13359547       0.00000000 </v>
    <v>       0.00000000       0.00000000      23.98379135 </v>
   </varray>
   <i name="volume">    893.87360752 </i>
   <varray name="rec_basis" >
    <v>       0.13774104       0.00000000       0.00000000 </v>
    <v>       0.00000000       0.19479525       0.00000000 </v>
    <v>       0.00000000       0.00000000       0.04169483 </v>
   </varray>
  </crystal>
  <varray name="positions" >
   <v>       0.00000000       0.00000000       0.00000000 </v>
   <v>       0.00000000       0.50000000       0.00000000 </v>
   <v>       0.50000000       0.00000000       0.00000000 </v>
   <v>       0.50000000       0.50000000       0.00000000 </v>
   <v>       0.25000000       0.25000000       0.05351109 </v>
   <v>       0.25000000       0.75000000       0.05351109 </v>
   <v>       0.75000000       0.25000000       0.05351109 </v>
   <v>       0.75000000       0.75000000       0.05351109 </v>
   <v>       0.00000000       0.00000000       0.10541371 </v>
   <v>       0.00000000       0.50000000       0.10541371 </v>
   <v>       0.50000000       0.00000000       0.10541371 </v>
   <v>       0.50000000       0.50000000       0.10541371 </v>
   <v>       0.25000000       0.25000000       0.15726630 </v>
   <v>       0.25000000       0.75000000       0.15729104 </v>
   <v>       0.75000000       0.25000000       0.15744313 </v>
   <v>       0.75000000       0.75000000       0.15745196 </v>
   <v>       0.00000194      -0.00000691       0.20886264 </v>
   <v>       0.00000194       0.50000691       0.20886264 </v>
   <v>       0.49999806      -0.00000691       0.20886264 </v>
   <v>       0.49999806       0.50000691       0.20886264 </v>
   <v>       0.25000000       0.25000000       0.25979403 </v>
   <v>       0.25000000       0.75000000       0.25982319 </v>
   <v>       0.75000000       0.25000000       0.25967931 </v>
   <v>       0.75000000       0.75000000       0.25978586 </v>
   <v>       0.00062405       0.00003916       0.31453842 </v>
   <v>       0.00062405       0.49996084       0.31453842 </v>
   <v>       0.49937595       0.00003916       0.31453842 </v>
   <v>       0.49937595       0.49996084       0.31453842 </v>
   <v>       0.25000000       0.25000000       0.36235228 </v>
   <v>       0.25000000       0.75000000       0.36225157 </v>
   <v>       0.75000000       0.25000000       0.36163555 </v>
   <v>       0.75000000       0.75000000       0.36190238 </v>
   <v>       0.75000000       0.75000000       0.45082576 </v>
   <v>       0.75000000       0.75000000       0.48262150 </v>
  </varray>
  <varray name="selective"  type="logical" >
   <v type="logical" >  F  F  F </v>
   <v type="logical" >  F  F  F </v>
   <v type="logical" >  F  F  F </v>
   <v type="logical" >  F  F  F </v>
   <v type="logical" >  F  F  F </v>
   <v type="logical" >  F  F  F </v>
   <v type="logical" >  F  F  F </v>
   <v type="logical" >  F  F  F </v>
   <v type="logical" >  F  F  F </v>
   <v type="logical" >  F  F  F </v>
   <v type="logical" >  F  F  F </v>
   <v type="logical" >  F  F  F </v>
   <v type="logical" >  T  T  T </v>
   <v type="logical" >  T  T  T </v>
   <v type="logical" >  T  T  T </v>
   <v type="logical" >  T  T  T </v>
   <v type="logical" >  T  T  T </v>
   <v type="logical" >  T  T  T </v>
   <v type="logical" >  T  T  T </v>
   <v type="logical" >  T  T  T </v>
   <v type="logical" >  T  T  T </v>
   <v type="logical" >  T  T  T </v>
   <v type="logical" >  T  T  T </v>
   <v type="logical" >  T  T  T </v>
   <v type="logical" >  T  T  T </v>
   <v type="logical" >  T  T  T </v>
   <v type="logical" >  T  T  T </v>
   <v type="logical" >  T  T  T </v>
   <v type="logical" >  T  T  T </v>
   <v type="logical" >  T  T  T </v>
   <v type="logical" >  T  T  T </v>
   <v type="logical" >  T  T  T </v>
   <v type="logical" >  T  T  T </v>
   <v type="logical" >  T  T  T </v>
  </varray>
  <nose>
   <v>      -3.00000000       0.00000000       0.00010000       0.00010000 </v>
  </nose>
 </structure>
</modeling>
