unknown system                          
           1
     7.260000    0.000000    0.000000
     0.000000    5.133595    0.000000
     0.000000    0.000000   23.983791
   Cu   H 
    32     2
Direct configuration=     1
   0.00000000  0.00000000  0.00000000
   0.00000000  0.50000000  0.00000000
   0.50000000  0.00000000  0.00000000
   0.50000000  0.50000000  0.00000000
   0.25000000  0.25000000  0.05351109
   0.25000000  0.75000000  0.05351109
   0.75000000  0.25000000  0.05351109
   0.75000000  0.75000000  0.05351109
   0.00000000  0.00000000  0.10541371
   0.00000000  0.50000000  0.10541371
   0.50000000  0.00000000  0.10541371
   0.50000000  0.50000000  0.10541371
   0.25000000  0.25000000  0.15715010
   0.25000000  0.75000000  0.15715010
   0.75000000  0.25000000  0.15715010
   0.75000000  0.75000000  0.15715010
   0.00000000  0.00000000  0.20866257
   0.00000000  0.50000000  0.20866257
   0.50000000  0.00000000  0.20866257
   0.50000000  0.50000000  0.20866257
   0.25000000  0.25000000  0.25947965
   0.25000000  0.75000000  0.25947965
   0.75000000  0.25000000  0.25947965
   0.75000000  0.75000000  0.25947965
   0.00000000  0.00000000  0.31415415
   0.00000000  0.50000000  0.31415415
   0.50000000  0.00000000  0.31415415
   0.50000000  0.50000000  0.31415415
   0.25000000  0.25000000  0.36181799
   0.25000000  0.75000000  0.36181799
   0.75000000  0.25000000  0.36181799
   0.75000000  0.75000000  0.36181799
   0.75000000  0.75000000  0.42690792
   0.75000000  0.75000000  0.45801226
Direct configuration=     2
   0.00000000  0.00000000  0.00000000
   0.00000000  0.50000000  0.00000000
   0.50000000  0.00000000  0.00000000
   0.50000000  0.50000000  0.00000000
   0.25000000  0.25000000  0.05351109
   0.25000000  0.75000000  0.05351109
   0.75000000  0.25000000  0.05351109
   0.75000000  0.75000000  0.05351109
   0.00000000  0.00000000  0.10541371
   0.00000000  0.50000000  0.10541371
   0.50000000  0.00000000  0.10541371
   0.50000000  0.50000000  0.10541371
   0.25000000  0.25000000  0.15713928
   0.25000000  0.75000000  0.15715179
   0.75000000  0.25000000  0.15725181
   0.75000000  0.75000000  0.15722205
   0.00005717  0.00005160  0.20865248
   0.00005717  0.49994840  0.20865248
   0.49994283  0.00005160  0.20865248
   0.49994283  0.49994840  0.20865248
   0.25000000  0.25000000  0.25942876
   0.25000000  0.75000000  0.25945648
   0.75000000  0.25000000  0.25958382
   0.75000000  0.75000000  0.25963011
   0.00021318  0.00017282  0.31411517
   0.00021318  0.49982718  0.31411517
   0.49978682  0.00017282  0.31411517
   0.49978682  0.49982718  0.31411517
   0.25000000  0.25000000  0.36183220
   0.25000000  0.75000000  0.36178571
   0.75000000  0.25000000  0.36152316
   0.75000000  0.75000000  0.35929496
   0.75000000  0.75000000  0.42762590
   0.75000000  0.75000000  0.46022368
Direct configuration=     3
   0.00000000  0.00000000  0.00000000
   0.00000000  0.50000000  0.00000000
   0.50000000  0.00000000  0.00000000
   0.50000000  0.50000000  0.00000000
   0.25000000  0.25000000  0.05351109
   0.25000000  0.75000000  0.05351109
   0.75000000  0.25000000  0.05351109
   0.75000000  0.75000000  0.05351109
   0.00000000  0.00000000  0.10541371
   0.00000000  0.50000000  0.10541371
   0.50000000  0.00000000  0.10541371
   0.50000000  0.50000000  0.10541371
   0.25000000  0.25000000  0.15713496
   0.25000000  0.75000000  0.15715246
   0.75000000  0.25000000  0.15729254
   0.75000000  0.75000000  0.15725085
   0.00008005  0.00007226  0.20864844
   0.00008005  0.49992774  0.20864844
   0.49991995  0.00007226  0.20864844
   0.49991995  0.49992774  0.20864844
   0.25000000  0.25000000  0.25940838
   0.25000000  0.75000000  0.25944721
   0.75000000  0.25000000  0.25962552
   0.75000000  0.75000000  0.25969035
   0.00029853  0.00024201  0.31409957
   0.00029853  0.49975799  0.31409957
   0.49970147  0.00024201  0.31409957
   0.49970147  0.49975799  0.31409957
   0.25000000  0.25000000  0.36183789
   0.25000000  0.75000000  0.36177279
   0.75000000  0.25000000  0.36140512
   0.75000000  0.75000000  0.35828480
   0.75000000  0.75000000  0.42791336
   0.75000000  0.75000000  0.46110908
Direct configuration=     4
   0.00000000  0.00000000  0.00000000
   0.00000000  0.50000000  0.00000000
   0.50000000  0.00000000  0.00000000
   0.50000000  0.50000000  0.00000000
   0.25000000  0.25000000  0.05351109
   0.25000000  0.75000000  0.05351109
   0.75000000  0.25000000  0.05351109
   0.75000000  0.75000000  0.05351109
   0.00000000  0.00000000  0.10541371
   0.00000000  0.50000000  0.10541371
   0.50000000  0.00000000  0.10541371
   0.50000000  0.50000000  0.10541371
   0.25000000  0.25000000  0.15710521
   0.25000000  0.75000000  0.15714550
   0.75000000  0.25000000  0.15739789
   0.75000000  0.75000000  0.15732806
   0.00010478  0.00008856  0.20862862
   0.00010478  0.49991144  0.20862862
   0.49989522  0.00008856  0.20862862
   0.49989522  0.49991144  0.20862862
   0.25000000  0.25000000  0.25935590
   0.25000000  0.75000000  0.25940592
   0.75000000  0.25000000  0.25964983
   0.75000000  0.75000000  0.25910135
   0.00114672  0.00082651  0.31397081
   0.00114672  0.49917349  0.31397081
   0.49885328  0.00082651  0.31397081
   0.49885328  0.49917349  0.31397081
   0.25000000  0.25000000  0.36184328
   0.25000000  0.75000000  0.36172020
   0.75000000  0.25000000  0.36108917
   0.75000000  0.75000000  0.35670665
   0.75000000  0.75000000  0.43089473
   0.75000000  0.75000000  0.46161231
Direct configuration=     5
   0.00000000  0.00000000  0.00000000
   0.00000000  0.50000000  0.00000000
   0.50000000  0.00000000  0.00000000
   0.50000000  0.50000000  0.00000000
   0.25000000  0.25000000  0.05351109
   0.25000000  0.75000000  0.05351109
   0.75000000  0.25000000  0.05351109
   0.75000000  0.75000000  0.05351109
   0.00000000  0.00000000  0.10541371
   0.00000000  0.50000000  0.10541371
   0.50000000  0.00000000  0.10541371
   0.50000000  0.50000000  0.10541371
   0.25000000  0.25000000  0.15711326
   0.25000000  0.75000000  0.15714739
   0.75000000  0.25000000  0.15736940
   0.75000000  0.75000000  0.15730718
   0.00009809  0.00008416  0.20863398
   0.00009809  0.49991584  0.20863398
   0.49990191  0.00008416  0.20863398
   0.49990191  0.49991584  0.20863398
   0.25000000  0.25000000  0.25937009
   0.25000000  0.75000000  0.25941708
   0.75000000  0.25000000  0.25964326
   0.75000000  0.75000000  0.25926065
   0.00091732  0.00066843  0.31400563
   0.00091732  0.49933157  0.31400563
   0.49908268  0.00066843  0.31400563
   0.49908268  0.49933157  0.31400563
   0.25000000  0.25000000  0.36184182
   0.25000000  0.75000000  0.36173442
   0.75000000  0.25000000  0.36117463
   0.75000000  0.75000000  0.35713348
   0.75000000  0.75000000  0.43008838
   0.75000000  0.75000000  0.46147621
Direct configuration=     6
   0.00000000  0.00000000  0.00000000
   0.00000000  0.50000000  0.00000000
   0.50000000  0.00000000  0.00000000
   0.50000000  0.50000000  0.00000000
   0.25000000  0.25000000  0.05351109
   0.25000000  0.75000000  0.05351109
   0.75000000  0.25000000  0.05351109
   0.75000000  0.75000000  0.05351109
   0.00000000  0.00000000  0.10541371
   0.00000000  0.50000000  0.10541371
   0.50000000  0.00000000  0.10541371
   0.50000000  0.50000000  0.10541371
   0.25000000  0.25000000  0.15708458
   0.25000000  0.75000000  0.15714488
   0.75000000  0.25000000  0.15746881
   0.75000000  0.75000000  0.15732506
   0.00015456  0.00012640  0.20860858
   0.00015456  0.49987360  0.20860858
   0.49984544  0.00012640  0.20860858
   0.49984544  0.49987360  0.20860858
   0.25000000  0.25000000  0.25929683
   0.25000000  0.75000000  0.25935461
   0.75000000  0.25000000  0.25961761
   0.75000000  0.75000000  0.25830547
   0.00201530  0.00136295  0.31382512
   0.00201530  0.49863705  0.31382512
   0.49798470  0.00136295  0.31382512
   0.49798470  0.49863705  0.31382512
   0.25000000  0.25000000  0.36188581
   0.25000000  0.75000000  0.36170061
   0.75000000  0.25000000  0.36085786
   0.75000000  0.75000000  0.35668985
   0.75000000  0.75000000  0.43139292
   0.75000000  0.75000000  0.46315480
Direct configuration=     7
   0.00000000  0.00000000  0.00000000
   0.00000000  0.50000000  0.00000000
   0.50000000  0.00000000  0.00000000
   0.50000000  0.50000000  0.00000000
   0.25000000  0.25000000  0.05351109
   0.25000000  0.75000000  0.05351109
   0.75000000  0.25000000  0.05351109
   0.75000000  0.75000000  0.05351109
   0.00000000  0.00000000  0.10541371
   0.00000000  0.50000000  0.10541371
   0.50000000  0.00000000  0.10541371
   0.50000000  0.50000000  0.10541371
   0.25000000  0.25000000  0.15705684
   0.25000000  0.75000000  0.15714246
   0.75000000  0.25000000  0.15756499
   0.75000000  0.75000000  0.15734236
   0.00020920  0.00016727  0.20858400
   0.00020920  0.49983273  0.20858400
   0.49979080  0.00016727  0.20858400
   0.49979080  0.49983273  0.20858400
   0.25000000  0.25000000  0.25922594
   0.25000000  0.75000000  0.25929416
   0.75000000  0.25000000  0.25959280
   0.75000000  0.75000000  0.25738126
   0.00307768  0.00203494  0.31365047
   0.00307768  0.49796506  0.31365047
   0.49692232  0.00203494  0.31365047
   0.49692232  0.49796506  0.31365047
   0.25000000  0.25000000  0.36192836
   0.25000000  0.75000000  0.36166790
   0.75000000  0.25000000  0.36055137
   0.75000000  0.75000000  0.35626060
   0.75000000  0.75000000  0.43265516
   0.75000000  0.75000000  0.46477895
Direct configuration=     8
   0.00000000  0.00000000  0.00000000
   0.00000000  0.50000000  0.00000000
   0.50000000  0.00000000  0.00000000
   0.50000000  0.50000000  0.00000000
   0.25000000  0.25000000  0.05351109
   0.25000000  0.75000000  0.05351109
   0.75000000  0.25000000  0.05351109
   0.75000000  0.75000000  0.05351109
   0.00000000  0.00000000  0.10541371
   0.00000000  0.50000000  0.10541371
   0.50000000  0.00000000  0.10541371
   0.50000000  0.50000000  0.10541371
   0.25000000  0.25000000  0.15705096
   0.25000000  0.75000000  0.15714195
   0.75000000  0.25000000  0.15758538
   0.75000000  0.75000000  0.15734603
   0.00022078  0.00017593  0.20857879
   0.00022078  0.49982407  0.20857879
   0.49977922  0.00017593  0.20857879
   0.49977922  0.49982407  0.20857879
   0.25000000  0.25000000  0.25921092
   0.25000000  0.75000000  0.25928135
   0.75000000  0.25000000  0.25958755
   0.75000000  0.75000000  0.25718541
   0.00330280  0.00217734  0.31361346
   0.00330280  0.49782266  0.31361346
   0.49669720  0.00217734  0.31361346
   0.49669720  0.49782266  0.31361346
   0.25000000  0.25000000  0.36193738
   0.25000000  0.75000000  0.36166097
   0.75000000  0.25000000  0.36048642
   0.75000000  0.75000000  0.35616964
   0.75000000  0.75000000  0.43292263
   0.75000000  0.75000000  0.46512312
Direct configuration=     9
   0.00000000  0.00000000  0.00000000
   0.00000000  0.50000000  0.00000000
   0.50000000  0.00000000  0.00000000
   0.50000000  0.50000000  0.00000000
   0.25000000  0.25000000  0.05351109
   0.25000000  0.75000000  0.05351109
   0.75000000  0.25000000  0.05351109
   0.75000000  0.75000000  0.05351109
   0.00000000  0.00000000  0.10541371
   0.00000000  0.50000000  0.10541371
   0.50000000  0.00000000  0.10541371
   0.50000000  0.50000000  0.10541371
   0.25000000  0.25000000  0.15699925
   0.25000000  0.75000000  0.15709314
   0.75000000  0.25000000  0.15752429
   0.75000000  0.75000000  0.15681939
   0.00057281  0.00045485  0.20844772
   0.00057281  0.49954515  0.20844772
   0.49942719  0.00045485  0.20844772
   0.49942719  0.49954515  0.20844772
   0.25000000  0.25000000  0.25900106
   0.25000000  0.75000000  0.25913935
   0.75000000  0.25000000  0.25952236
   0.75000000  0.75000000  0.25702971
   0.00347127  0.00183214  0.31341670
   0.00347127  0.49816786  0.31341670
   0.49652873  0.00183214  0.31341670
   0.49652873  0.49816786  0.31341670
   0.25000000  0.25000000  0.36210086
   0.25000000  0.75000000  0.36168450
   0.75000000  0.25000000  0.36020996
   0.75000000  0.75000000  0.35644954
   0.75000000  0.75000000  0.43467367
   0.75000000  0.75000000  0.46635594
Direct configuration=    10
   0.00000000  0.00000000  0.00000000
   0.00000000  0.50000000  0.00000000
   0.50000000  0.00000000  0.00000000
   0.50000000  0.50000000  0.00000000
   0.25000000  0.25000000  0.05351109
   0.25000000  0.75000000  0.05351109
   0.75000000  0.25000000  0.05351109
   0.75000000  0.75000000  0.05351109
   0.00000000  0.00000000  0.10541371
   0.00000000  0.50000000  0.10541371
   0.50000000  0.00000000  0.10541371
   0.50000000  0.50000000  0.10541371
   0.25000000  0.25000000  0.15695378
   0.25000000  0.75000000  0.15705024
   0.75000000  0.25000000  0.15747060
   0.75000000  0.75000000  0.15635645
   0.00088226  0.00070003  0.20833250
   0.00088226  0.49929997  0.20833250
   0.49911774  0.00070003  0.20833250
   0.49911774  0.49929997  0.20833250
   0.25000000  0.25000000  0.25881658
   0.25000000  0.75000000  0.25901454
   0.75000000  0.25000000  0.25946506
   0.75000000  0.75000000  0.25689284
   0.00361937  0.00152869  0.31324373
   0.00361937  0.49847131  0.31324373
   0.49638063  0.00152869  0.31324373
   0.49638063  0.49847131  0.31324373
   0.25000000  0.25000000  0.36224458
   0.25000000  0.75000000  0.36170519
   0.75000000  0.25000000  0.35996693
   0.75000000  0.75000000  0.35669560
   0.75000000  0.75000000  0.43621294
   0.75000000  0.75000000  0.46743967
Direct configuration=    11
   0.00000000  0.00000000  0.00000000
   0.00000000  0.50000000  0.00000000
   0.50000000  0.00000000  0.00000000
   0.50000000  0.50000000  0.00000000
   0.25000000  0.25000000  0.05351109
   0.25000000  0.75000000  0.05351109
   0.75000000  0.25000000  0.05351109
   0.75000000  0.75000000  0.05351109
   0.00000000  0.00000000  0.10541371
   0.00000000  0.50000000  0.10541371
   0.50000000  0.00000000  0.10541371
   0.50000000  0.50000000  0.10541371
   0.25000000  0.25000000  0.15690411
   0.25000000  0.75000000  0.15700915
   0.75000000  0.25000000  0.15743016
   0.75000000  0.75000000  0.15613718
   0.00097620  0.00076925  0.20826070
   0.00097620  0.49923075  0.20826070
   0.49902380  0.00076925  0.20826070
   0.49902380  0.49923075  0.20826070
   0.25000000  0.25000000  0.25874774
   0.25000000  0.75000000  0.25895159
   0.75000000  0.25000000  0.25940118
   0.75000000  0.75000000  0.25691184
   0.00355958  0.00128570  0.31316237
   0.00355958  0.49871430  0.31316237
   0.49644042  0.00128570  0.31316237
   0.49644042  0.49871430  0.31316237
   0.25000000  0.25000000  0.36229351
   0.25000000  0.75000000  0.36171243
   0.75000000  0.25000000  0.35985998
   0.75000000  0.75000000  0.35689058
   0.75000000  0.75000000  0.43679024
   0.75000000  0.75000000  0.46831547
Direct configuration=    12
   0.00000000  0.00000000  0.00000000
   0.00000000  0.50000000  0.00000000
   0.50000000  0.00000000  0.00000000
   0.50000000  0.50000000  0.00000000
   0.25000000  0.25000000  0.05351109
   0.25000000  0.75000000  0.05351109
   0.75000000  0.25000000  0.05351109
   0.75000000  0.75000000  0.05351109
   0.00000000  0.00000000  0.10541371
   0.00000000  0.50000000  0.10541371
   0.50000000  0.00000000  0.10541371
   0.50000000  0.50000000  0.10541371
   0.25000000  0.25000000  0.15675507
   0.25000000  0.75000000  0.15688588
   0.75000000  0.25000000  0.15730885
   0.75000000  0.75000000  0.15547938
   0.00125801  0.00097693  0.20804528
   0.00125801  0.49902307  0.20804528
   0.49874199  0.00097693  0.20804528
   0.49874199  0.49902307  0.20804528
   0.25000000  0.25000000  0.25854122
   0.25000000  0.75000000  0.25876276
   0.75000000  0.25000000  0.25920956
   0.75000000  0.75000000  0.25696884
   0.00338021  0.00055675  0.31291827
   0.00338021  0.49944325  0.31291827
   0.49661979  0.00055675  0.31291827
   0.49661979  0.49944325  0.31291827
   0.25000000  0.25000000  0.36244033
   0.25000000  0.75000000  0.36173414
   0.75000000  0.25000000  0.35953916
   0.75000000  0.75000000  0.35747552
   0.75000000  0.75000000  0.43852214
   0.75000000  0.75000000  0.47094287
Direct configuration=    13
   0.00000000  0.00000000  0.00000000
   0.00000000  0.50000000  0.00000000
   0.50000000  0.00000000  0.00000000
   0.50000000  0.50000000  0.00000000
   0.25000000  0.25000000  0.05351109
   0.25000000  0.75000000  0.05351109
   0.75000000  0.25000000  0.05351109
   0.75000000  0.75000000  0.05351109
   0.00000000  0.00000000  0.10541371
   0.00000000  0.50000000  0.10541371
   0.50000000  0.00000000  0.10541371
   0.50000000  0.50000000  0.10541371
   0.25000000  0.25000000  0.15664578
   0.25000000  0.75000000  0.15680009
   0.75000000  0.25000000  0.15724062
   0.75000000  0.75000000  0.15535518
   0.00119012  0.00089367  0.20794532
   0.00119012  0.49910633  0.20794532
   0.49880988  0.00089367  0.20794532
   0.49880988  0.49910633  0.20794532
   0.25000000  0.25000000  0.25853021
   0.25000000  0.75000000  0.25869527
   0.75000000  0.25000000  0.25905314
   0.75000000  0.75000000  0.25707539
   0.00312599  0.00022597  0.31283796
   0.00312599  0.49977403  0.31283796
   0.49687401  0.00022597  0.31283796
   0.49687401  0.49977403  0.31283796
   0.25000000  0.25000000  0.36241437
   0.25000000  0.75000000  0.36172083
   0.75000000  0.25000000  0.35944394
   0.75000000  0.75000000  0.35784039
   0.75000000  0.75000000  0.43961426
   0.75000000  0.75000000  0.47192965
Direct configuration=    14
   0.00000000  0.00000000  0.00000000
   0.00000000  0.50000000  0.00000000
   0.50000000  0.00000000  0.00000000
   0.50000000  0.50000000  0.00000000
   0.25000000  0.25000000  0.05351109
   0.25000000  0.75000000  0.05351109
   0.75000000  0.25000000  0.05351109
   0.75000000  0.75000000  0.05351109
   0.00000000  0.00000000  0.10541371
   0.00000000  0.50000000  0.10541371
   0.50000000  0.00000000  0.10541371
   0.50000000  0.50000000  0.10541371
   0.25000000  0.25000000  0.15644361
   0.25000000  0.75000000  0.15664140
   0.75000000  0.25000000  0.15711440
   0.75000000  0.75000000  0.15512543
   0.00106456  0.00073966  0.20776041
   0.00106456  0.49926034  0.20776041
   0.49893544  0.00073966  0.20776041
   0.49893544  0.49926034  0.20776041
   0.25000000  0.25000000  0.25850983
   0.25000000  0.75000000  0.25857044
   0.75000000  0.25000000  0.25876381
   0.75000000  0.75000000  0.25727248
   0.00265576 -0.00038587  0.31268940
   0.00265576  0.50038587  0.31268940
   0.49734424 -0.00038587  0.31268940
   0.49734424  0.50038587  0.31268940
   0.25000000  0.25000000  0.36236634
   0.25000000  0.75000000  0.36169622
   0.75000000  0.25000000  0.35926781
   0.75000000  0.75000000  0.35851532
   0.75000000  0.75000000  0.44163437
   0.75000000  0.75000000  0.47375492
Direct configuration=    15
   0.00000000  0.00000000  0.00000000
   0.00000000  0.50000000  0.00000000
   0.50000000  0.00000000  0.00000000
   0.50000000  0.50000000  0.00000000
   0.25000000  0.25000000  0.05351109
   0.25000000  0.75000000  0.05351109
   0.75000000  0.25000000  0.05351109
   0.75000000  0.75000000  0.05351109
   0.00000000  0.00000000  0.10541371
   0.00000000  0.50000000  0.10541371
   0.50000000  0.00000000  0.10541371
   0.50000000  0.50000000  0.10541371
   0.25000000  0.25000000  0.15603927
   0.25000000  0.75000000  0.15632402
   0.75000000  0.25000000  0.15686197
   0.75000000  0.75000000  0.15466592
   0.00081342  0.00043163  0.20739059
   0.00081342  0.49956837  0.20739059
   0.49918658  0.00043163  0.20739059
   0.49918658  0.49956837  0.20739059
   0.25000000  0.25000000  0.25846907
   0.25000000  0.75000000  0.25832077
   0.75000000  0.25000000  0.25818515
   0.75000000  0.75000000  0.25766666
   0.00171529 -0.00160957  0.31239229
   0.00171529  0.50160957  0.31239229
   0.49828471 -0.00160957  0.31239229
   0.49828471  0.50160957  0.31239229
   0.25000000  0.25000000  0.36227030
   0.25000000  0.75000000  0.36164698
   0.75000000  0.25000000  0.35891556
   0.75000000  0.75000000  0.35986517
   0.75000000  0.75000000  0.44567461
   0.75000000  0.75000000  0.47740547
Direct configuration=    16
   0.00000000  0.00000000  0.00000000
   0.00000000  0.50000000  0.00000000
   0.50000000  0.00000000  0.00000000
   0.50000000  0.50000000  0.00000000
   0.25000000  0.25000000  0.05351109
   0.25000000  0.75000000  0.05351109
   0.75000000  0.25000000  0.05351109
   0.75000000  0.75000000  0.05351109
   0.00000000  0.00000000  0.10541371
   0.00000000  0.50000000  0.10541371
   0.50000000  0.00000000  0.10541371
   0.50000000  0.50000000  0.10541371
   0.25000000  0.25000000  0.15628319
   0.25000000  0.75000000  0.15651548
   0.75000000  0.25000000  0.15701425
   0.75000000  0.75000000  0.15494312
   0.00096492  0.00061745  0.20761368
   0.00096492  0.49938255  0.20761368
   0.49903508  0.00061745  0.20761368
   0.49903508  0.49938255  0.20761368
   0.25000000  0.25000000  0.25849366
   0.25000000  0.75000000  0.25847138
   0.75000000  0.25000000  0.25853422
   0.75000000  0.75000000  0.25742887
   0.00228263 -0.00087138  0.31257152
   0.00228263  0.50087138  0.31257152
   0.49771737 -0.00087138  0.31257152
   0.49771737  0.50087138  0.31257152
   0.25000000  0.25000000  0.36232824
   0.25000000  0.75000000  0.36167668
   0.75000000  0.25000000  0.35912805
   0.75000000  0.75000000  0.35905088
   0.75000000  0.75000000  0.44323735
   0.75000000  0.75000000  0.47520329
Direct configuration=    17
   0.00000000  0.00000000  0.00000000
   0.00000000  0.50000000  0.00000000
   0.50000000  0.00000000  0.00000000
   0.50000000  0.50000000  0.00000000
   0.25000000  0.25000000  0.05351109
   0.25000000  0.75000000  0.05351109
   0.75000000  0.25000000  0.05351109
   0.75000000  0.75000000  0.05351109
   0.00000000  0.00000000  0.10541371
   0.00000000  0.50000000  0.10541371
   0.50000000  0.00000000  0.10541371
   0.50000000  0.50000000  0.10541371
   0.25000000  0.25000000  0.15612137
   0.25000000  0.75000000  0.15638846
   0.75000000  0.25000000  0.15691323
   0.75000000  0.75000000  0.15475922
   0.00086441  0.00049417  0.20746568
   0.00086441  0.49950583  0.20746568
   0.49913559  0.00049417  0.20746568
   0.49913559  0.49950583  0.20746568
   0.25000000  0.25000000  0.25847735
   0.25000000  0.75000000  0.25837146
   0.75000000  0.25000000  0.25830264
   0.75000000  0.75000000  0.25758662
   0.00190624 -0.00136111  0.31245261
   0.00190624  0.50136111  0.31245261
   0.49809376 -0.00136111  0.31245261
   0.49809376  0.50136111  0.31245261
   0.25000000  0.25000000  0.36228980
   0.25000000  0.75000000  0.36165698
   0.75000000  0.25000000  0.35898708
   0.75000000  0.75000000  0.35959110
   0.75000000  0.75000000  0.44485429
   0.75000000  0.75000000  0.47666428
Direct configuration=    18
   0.00000000  0.00000000  0.00000000
   0.00000000  0.50000000  0.00000000
   0.50000000  0.00000000  0.00000000
   0.50000000  0.50000000  0.00000000
   0.25000000  0.25000000  0.05351109
   0.25000000  0.75000000  0.05351109
   0.75000000  0.25000000  0.05351109
   0.75000000  0.75000000  0.05351109
   0.00000000  0.00000000  0.10541371
   0.00000000  0.50000000  0.10541371
   0.50000000  0.00000000  0.10541371
   0.50000000  0.50000000  0.10541371
   0.25000000  0.25000000  0.15623267
   0.25000000  0.75000000  0.15647582
   0.75000000  0.25000000  0.15698271
   0.75000000  0.75000000  0.15488570
   0.00093354  0.00057896  0.20756748
   0.00093354  0.49942104  0.20756748
   0.49906646  0.00057896  0.20756748
   0.49906646  0.49942104  0.20756748
   0.25000000  0.25000000  0.25848857
   0.25000000  0.75000000  0.25844019
   0.75000000  0.25000000  0.25846193
   0.75000000  0.75000000  0.25747812
   0.00216512 -0.00102427  0.31253440
   0.00216512  0.50102427  0.31253440
   0.49783488 -0.00102427  0.31253440
   0.49783488  0.50102427  0.31253440
   0.25000000  0.25000000  0.36231624
   0.25000000  0.75000000  0.36167053
   0.75000000  0.25000000  0.35908404
   0.75000000  0.75000000  0.35921953
   0.75000000  0.75000000  0.44374215
   0.75000000  0.75000000  0.47565940
Direct configuration=    19
   0.00000000  0.00000000  0.00000000
   0.00000000  0.50000000  0.00000000
   0.50000000  0.00000000  0.00000000
   0.50000000  0.50000000  0.00000000
   0.25000000  0.25000000  0.05351109
   0.25000000  0.75000000  0.05351109
   0.75000000  0.25000000  0.05351109
   0.75000000  0.75000000  0.05351109
   0.00000000  0.00000000  0.10541371
   0.00000000  0.50000000  0.10541371
   0.50000000  0.00000000  0.10541371
   0.50000000  0.50000000  0.10541371
   0.25000000  0.25000000  0.15626218
   0.25000000  0.75000000  0.15646195
   0.75000000  0.25000000  0.15691926
   0.75000000  0.75000000  0.15534027
   0.00065855  0.00030349  0.20761276
   0.00065855  0.49969651  0.20761276
   0.49934145  0.00030349  0.20761276
   0.49934145  0.49969651  0.20761276
   0.25000000  0.25000000  0.25858073
   0.25000000  0.75000000  0.25846283
   0.75000000  0.25000000  0.25837524
   0.75000000  0.75000000  0.25757411
   0.00194242 -0.00076901  0.31260824
   0.00194242  0.50076901  0.31260824
   0.49805758 -0.00076901  0.31260824
   0.49805758  0.50076901  0.31260824
   0.25000000  0.25000000  0.36207089
   0.25000000  0.75000000  0.36157554
   0.75000000  0.25000000  0.35915977
   0.75000000  0.75000000  0.35936525
   0.75000000  0.75000000  0.44411491
   0.75000000  0.75000000  0.47592895
Direct configuration=    20
   0.00000000  0.00000000  0.00000000
   0.00000000  0.50000000  0.00000000
   0.50000000  0.00000000  0.00000000
   0.50000000  0.50000000  0.00000000
   0.25000000  0.25000000  0.05351109
   0.25000000  0.75000000  0.05351109
   0.75000000  0.25000000  0.05351109
   0.75000000  0.75000000  0.05351109
   0.00000000  0.00000000  0.10541371
   0.00000000  0.50000000  0.10541371
   0.50000000  0.00000000  0.10541371
   0.50000000  0.50000000  0.10541371
   0.25000000  0.25000000  0.15631699
   0.25000000  0.75000000  0.15643620
   0.75000000  0.25000000  0.15680142
   0.75000000  0.75000000  0.15618438
   0.00014789 -0.00020807  0.20769685
   0.00014789  0.50020807  0.20769685
   0.49985211 -0.00020807  0.20769685
   0.49985211  0.50020807  0.20769685
   0.25000000  0.25000000  0.25875186
   0.25000000  0.75000000  0.25850489
   0.75000000  0.25000000  0.25821425
   0.75000000  0.75000000  0.25775237
   0.00152886 -0.00029499  0.31274535
   0.00152886  0.50029499  0.31274535
   0.49847114 -0.00029499  0.31274535
   0.49847114  0.50029499  0.31274535
   0.25000000  0.25000000  0.36161528
   0.25000000  0.75000000  0.36139915
   0.75000000  0.25000000  0.35930040
   0.75000000  0.75000000  0.35963583
   0.75000000  0.75000000  0.44480712
   0.75000000  0.75000000  0.47642951
Direct configuration=    21
   0.00000000  0.00000000  0.00000000
   0.00000000  0.50000000  0.00000000
   0.50000000  0.00000000  0.00000000
   0.50000000  0.50000000  0.00000000
   0.25000000  0.25000000  0.05351109
   0.25000000  0.75000000  0.05351109
   0.75000000  0.25000000  0.05351109
   0.75000000  0.75000000  0.05351109
   0.00000000  0.00000000  0.10541371
   0.00000000  0.50000000  0.10541371
   0.50000000  0.00000000  0.10541371
   0.50000000  0.50000000  0.10541371
   0.25000000  0.25000000  0.15634145
   0.25000000  0.75000000  0.15642471
   0.75000000  0.25000000  0.15674882
   0.75000000  0.75000000  0.15656113
  -0.00008003 -0.00043639  0.20773438
  -0.00008003  0.50043639  0.20773438
   0.50008003 -0.00043639  0.20773438
   0.50008003  0.50043639  0.20773438
   0.25000000  0.25000000  0.25882825
   0.25000000  0.75000000  0.25852367
   0.75000000  0.25000000  0.25814240
   0.75000000  0.75000000  0.25783193
   0.00134427 -0.00008342  0.31280655
   0.00134427  0.50008342  0.31280655
   0.49865573 -0.00008342  0.31280655
   0.49865573  0.50008342  0.31280655
   0.25000000  0.25000000  0.36141193
   0.25000000  0.75000000  0.36132043
   0.75000000  0.25000000  0.35936316
   0.75000000  0.75000000  0.35975661
   0.75000000  0.75000000  0.44511607
   0.75000000  0.75000000  0.47665293
Direct configuration=    22
   0.00000000  0.00000000  0.00000000
   0.00000000  0.50000000  0.00000000
   0.50000000  0.00000000  0.00000000
   0.50000000  0.50000000  0.00000000
   0.25000000  0.25000000  0.05351109
   0.25000000  0.75000000  0.05351109
   0.75000000  0.25000000  0.05351109
   0.75000000  0.75000000  0.05351109
   0.00000000  0.00000000  0.10541371
   0.00000000  0.50000000  0.10541371
   0.50000000  0.00000000  0.10541371
   0.50000000  0.50000000  0.10541371
   0.25000000  0.25000000  0.15651898
   0.25000000  0.75000000  0.15649261
   0.75000000  0.25000000  0.15665756
   0.75000000  0.75000000  0.15693951
  -0.00008187 -0.00042247  0.20786004
  -0.00008187  0.50042247  0.20786004
   0.50008187 -0.00042247  0.20786004
   0.50008187  0.50042247  0.20786004
   0.25000000  0.25000000  0.25880273
   0.25000000  0.75000000  0.25856617
   0.75000000  0.25000000  0.25816871
   0.75000000  0.75000000  0.25818751
   0.00103474  0.00013318  0.31293416
   0.00103474  0.49986682  0.31293416
   0.49896526  0.00013318  0.31293416
   0.49896526  0.49986682  0.31293416
   0.25000000  0.25000000  0.36115309
   0.25000000  0.75000000  0.36117228
   0.75000000  0.25000000  0.35952248
   0.75000000  0.75000000  0.35986376
   0.75000000  0.75000000  0.44519214
   0.75000000  0.75000000  0.47735401
Direct configuration=    23
   0.00000000  0.00000000  0.00000000
   0.00000000  0.50000000  0.00000000
   0.50000000  0.00000000  0.00000000
   0.50000000  0.50000000  0.00000000
   0.25000000  0.25000000  0.05351109
   0.25000000  0.75000000  0.05351109
   0.75000000  0.25000000  0.05351109
   0.75000000  0.75000000  0.05351109
   0.00000000  0.00000000  0.10541371
   0.00000000  0.50000000  0.10541371
   0.50000000  0.00000000  0.10541371
   0.50000000  0.50000000  0.10541371
   0.25000000  0.25000000  0.15649825
   0.25000000  0.75000000  0.15648468
   0.75000000  0.25000000  0.15666822
   0.75000000  0.75000000  0.15689532
  -0.00008166 -0.00042410  0.20784537
  -0.00008166  0.50042410  0.20784537
   0.50008166 -0.00042410  0.20784537