       N       E                     dE             d eps       ncg     rms          rms(c)
DAV:   1     0.163264383461E+04    0.16326E+04   -0.63514E+04  1392   0.186E+03
DAV:   2     0.192197759512E+03   -0.14404E+04   -0.13792E+04  1392   0.420E+02
DAV:   3    -0.523246787346E+02   -0.24452E+03   -0.22123E+03  1400   0.212E+02
DAV:   4    -0.673183108896E+02   -0.14994E+02   -0.14666E+02  1564   0.746E+01
DAV:   5    -0.676269158569E+02   -0.30860E+00   -0.30820E+00  1560   0.101E+01    0.360E+01
DAV:   6    -0.563274796285E+02    0.11299E+02   -0.14946E+02  1580   0.120E+02    0.186E+01
DAV:   7    -0.489870122353E+02    0.73405E+01   -0.34896E+01  1508   0.703E+01    0.824E+00
DAV:   8    -0.483208661127E+02    0.66615E+00   -0.78526E+00  1648   0.534E+01    0.890E+00
DAV:   9    -0.480170265874E+02    0.30384E+00   -0.35713E+00  1920   0.452E+01    0.737E+00
DAV:  10    -0.476723811148E+02    0.34465E+00   -0.15257E+00  2328   0.273E+01    0.648E+00
DAV:  11    -0.478625339093E+02   -0.19015E+00   -0.28731E+00  1956   0.275E+01    0.579E+00
DAV:  12    -0.493702953637E+02   -0.15078E+01   -0.10078E+01  2000   0.641E+01    0.766E+00
DAV:  13    -0.476565283686E+02    0.17138E+01   -0.40292E+00  2320   0.362E+01    0.481E+00
DAV:  14    -0.497138390869E+02   -0.20573E+01   -0.11442E+00  2092   0.217E+01    0.350E+00
DAV:  15    -0.517707297484E+02   -0.20569E+01   -0.19177E+00  1844   0.232E+01    0.243E+00
DAV:  16    -0.530381301104E+02   -0.12674E+01   -0.12496E+00  1832   0.131E+01    0.178E+00
DAV:  17    -0.539329018647E+02   -0.89477E+00   -0.81476E-01  1740   0.798E+00    0.147E+00
DAV:  18    -0.543676024829E+02   -0.43470E+00   -0.29807E-01  1696   0.563E+00    0.104E+00
DAV:  19    -0.548400634931E+02   -0.47246E+00   -0.26329E-01  1616   0.386E+00    0.921E-01
DAV:  20    -0.552743548922E+02   -0.43429E+00   -0.20883E-01  1716   0.373E+00    0.749E-01
DAV:  21    -0.556226123281E+02   -0.34826E+00   -0.12800E-01  1972   0.291E+00    0.767E-01
DAV:  22    -0.558518441691E+02   -0.22923E+00   -0.10732E-01  1752   0.401E+00    0.496E-01
DAV:  23    -0.560228172049E+02   -0.17097E+00   -0.71623E-02  1804   0.284E+00    0.536E-01
DAV:  24    -0.561806897819E+02   -0.15787E+00   -0.57646E-02  1864   0.324E+00    0.340E-01
DAV:  25    -0.563066440283E+02   -0.12595E+00   -0.24919E-02  1928   0.173E+00    0.164E-01
DAV:  26    -0.563769100979E+02   -0.70266E-01   -0.43654E-03  1460   0.853E-01    0.117E-01
DAV:  27    -0.564209728730E+02   -0.44063E-01   -0.13627E-03  1440   0.814E-01    0.946E-02
DAV:  28    -0.564543665986E+02   -0.33394E-01   -0.13710E-03  1472   0.742E-01    0.835E-02
DAV:  29    -0.564621023370E+02   -0.77357E-02   -0.36198E-04  1008   0.302E-01    0.314E-02
DAV:  30    -0.564645070805E+02   -0.24047E-02   -0.23977E-04   948   0.232E-01    0.363E-02
DAV:  31    -0.564649395930E+02   -0.43251E-03   -0.16413E-04   964   0.139E-01    0.101E-02
DAV:  32    -0.564649478388E+02   -0.82458E-05   -0.57997E-05   932   0.413E-02
   1 F= -.62979298E+02 E0= -.62972980E+02  d E =-.629793E+02  mag=    -0.0004
       N       E                     dE             d eps       ncg     rms          rms(c)
DAV:   1    -0.564656568015E+02   -0.71721E-03   -0.33777E+00  1512   0.518E+00    0.154E-01
DAV:   2    -0.564732951983E+02   -0.76384E-02   -0.70796E-02  2168   0.263E+00    0.397E-01
DAV:   3    -0.564730830084E+02    0.21219E-03   -0.37721E-02  1736   0.308E+00    0.364E-01
DAV:   4    -0.564713221122E+02    0.17609E-02   -0.14964E-02  1560   0.207E+00    0.132E-01
DAV:   5    -0.564711404302E+02    0.18168E-03   -0.10340E-03  1444   0.764E-01
   2 F= -.62990391E+02 E0= -.62983859E+02  d E =-.110932E-01  mag=    -0.0003
       N       E                     dE             d eps       ncg     rms          rms(c)
DAV:   1    -0.564332070467E+02    0.38115E-01   -0.23226E+01  1484   0.138E+01    0.438E-01
DAV:   2    -0.564883399347E+02   -0.55133E-01   -0.53183E-01  2200   0.702E+00    0.984E-01
DAV:   3    -0.564933903696E+02   -0.50504E-02   -0.22235E-01  1872   0.779E+00    0.106E+00
DAV:   4    -0.564769421568E+02    0.16448E-01   -0.13360E-01  1688   0.553E+00    0.412E-01
DAV:   5    -0.564750533103E+02    0.18888E-02   -0.70386E-03  1992   0.211E+00    0.309E-01
DAV:   6    -0.564745846752E+02    0.46864E-03   -0.44570E-03  1648   0.125E+00    0.272E-01
DAV:   7    -0.564738051207E+02    0.77955E-03   -0.77911E-03  1776   0.149E+00    0.173E-01
DAV:   8    -0.564737631128E+02    0.42008E-04   -0.25571E-03  1688   0.117E+00    0.128E-01
DAV:   9    -0.564735329802E+02    0.23013E-03   -0.98538E-04  1192   0.637E-01    0.412E-02
DAV:  10    -0.564735155859E+02    0.17394E-04   -0.19656E-04   904   0.197E-01
   3 F= -.63005474E+02 E0= -.62999353E+02  d E =-.261763E-01  mag=    -0.0002
       N       E                     dE             d eps       ncg     rms          rms(c)
DAV:   1    -0.564680960862E+02    0.54369E-02   -0.16053E+00  1512   0.356E+00    0.109E-01
DAV:   2    -0.564726644075E+02   -0.45683E-02   -0.37770E-02  2284   0.215E+00    0.362E-01
DAV:   3    -0.564712642828E+02    0.14001E-02   -0.22636E-02  1832   0.239E+00    0.208E-01
DAV:   4    -0.564707694539E+02    0.49483E-03   -0.54853E-03  1460   0.134E+00    0.934E-02
DAV:   5    -0.564706767707E+02    0.92683E-04   -0.61919E-04  1236   0.618E-01
   4 F= -.63006011E+02 E0= -.62999708E+02  d E =-.267132E-01  mag=    -0.0002
       N       E                     dE             d eps       ncg     rms          rms(c)
DAV:   1    -0.564602320614E+02    0.10537E-01   -0.70967E+00  1532   0.764E+00    0.194E-01
DAV:   2    -0.564772824910E+02   -0.17050E-01   -0.14791E-01  2176   0.348E+00    0.597E-01
DAV:   3    -0.564731384194E+02    0.41441E-02   -0.53860E-02  1784   0.364E+00    0.337E-01
DAV:   4    -0.564721534275E+02    0.98499E-03   -0.11163E-02  1704   0.203E+00    0.200E-01
DAV:   5    -0.564718710943E+02    0.28233E-03   -0.20134E-03  1652   0.981E-01    0.164E-01
DAV:   6    -0.564716909227E+02    0.18017E-03   -0.10743E-03  1396   0.750E-01
   5 F= -.63016833E+02 E0= -.63010941E+02  d E =-.108223E-01  mag=    -0.0001
       N       E                     dE             d eps       ncg     rms          rms(c)
DAV:   1    -0.563496127780E+02    0.12226E+00   -0.65207E+01  1528   0.239E+01    0.680E-01
DAV:   2    -0.564872937630E+02   -0.13768E+00   -0.13615E+00  2176   0.115E+01    0.123E+00
DAV:   3    -0.564902726559E+02   -0.29789E-02   -0.19545E-01  1952   0.989E+00    0.118E+00
DAV:   4    -0.564751980741E+02    0.15075E-01   -0.21056E-01  1904   0.708E+00    0.712E-01
DAV:   5    -0.564673888530E+02    0.78092E-02   -0.26753E-02  1944   0.336E+00    0.462E-01
DAV:   6    -0.564663275609E+02    0.10613E-02   -0.81344E-03  1784   0.170E+00    0.415E-01
DAV:   7    -0.564640208718E+02    0.23067E-02   -0.16361E-02  1840   0.241E+00    0.288E-01
DAV:   8    -0.564635861398E+02    0.43473E-03   -0.76451E-03  2120   0.183E+00    0.198E-01
DAV:   9    -0.564629797937E+02    0.60635E-03   -0.25865E-03  1504   0.108E+00    0.487E-02
DAV:  10    -0.564630104399E+02   -0.30646E-04   -0.51547E-04  1088   0.261E-01
   6 F= -.63037694E+02 E0= -.63032098E+02  d E =-.316830E-01  mag=    -0.0001
       N       E                     dE             d eps       ncg     rms          rms(c)
DAV:   1    -0.559584815806E+02    0.50450E+00   -0.28326E+02  1704   0.551E+01    0.146E+00
DAV:   2    -0.565673197404E+02   -0.60884E+00   -0.57053E+00  2128   0.273E+01    0.353E+00
DAV:   3    -0.566188325693E+02   -0.51513E-01   -0.24583E+00  2000   0.254E+01    0.313E+00
DAV:   4    -0.564335845708E+02    0.18525E+00   -0.13108E+00  1960   0.183E+01    0.134E+00
DAV:   5    -0.564091587339E+02    0.24426E-01   -0.93823E-02  1992   0.699E+00    0.918E-01
DAV:   6    -0.564060733983E+02    0.30853E-02   -0.63448E-02  1640   0.325E+00    0.806E-01
DAV:   7    -0.564004488204E+02    0.56246E-02   -0.82299E-02  1640   0.510E+00    0.694E-01
DAV:   8    -0.563976171610E+02    0.28317E-02   -0.37339E-02  1984   0.367E+00    0.432E-01
DAV:   9    -0.563950919146E+02    0.25252E-02   -0.14764E-02  1720   0.239E+00    0.167E-01
DAV:  10    -0.563949272870E+02    0.16463E-03   -0.26292E-03  1796   0.917E-01    0.795E-02
DAV:  11    -0.563949170008E+02    0.10286E-04   -0.73142E-04  1216   0.433E-01
   7 F= -.63029472E+02 E0= -.63024654E+02  d E =-.234614E-01  mag=    -0.0001
       N       E                     dE             d eps       ncg     rms          rms(c)
DAV:   1    -0.562606105126E+02    0.13432E+00   -0.12085E+02  1624   0.335E+01    0.782E-01
DAV:   2    -0.567586081334E+02   -0.49800E+00   -0.31008E+00  2480   0.246E+01    0.336E+00
DAV:   3    -0.564626358152E+02    0.29597E+00   -0.11782E+00  2432   0.186E+01    0.809E-01
DAV:   4    -0.564571649221E+02    0.54709E-02   -0.90304E-02  1864   0.499E+00    0.708E-01
DAV:   5    -0.564582307349E+02   -0.10658E-02   -0.35973E-02  1632   0.395E+00    0.658E-01
DAV:   6    -0.564552319094E+02    0.29988E-02   -0.42129E-02  2000   0.434E+00    0.596E-01
DAV:   7    -0.564511474033E+02    0.40845E-02   -0.15650E-02  2280   0.292E+00    0.377E-01
DAV:   8    -0.564490693589E+02    0.20780E-02   -0.28486E-02  2480   0.233E+00    0.223E-01
DAV:   9    -0.564484379968E+02    0.63136E-03   -0.38544E-03  1580   0.131E+00    0.709E-02
DAV:  10    -0.564484349279E+02    0.30689E-05   -0.94034E-04  1384   0.537E-01
   8 F= -.63042547E+02 E0= -.63037065E+02  d E =-.365364E-01  mag=    -0.0000
       N       E                     dE             d eps       ncg     rms          rms(c)
DAV:   1    -0.564191700496E+02    0.29268E-01   -0.18473E+01  1496   0.126E+01    0.294E-01
DAV:   2    -0.564567902823E+02   -0.37620E-01   -0.35293E-01  2072   0.503E+00    0.658E-01
DAV:   3    -0.564564965154E+02    0.29377E-03   -0.83113E-02  1728   0.486E+00    0.643E-01
DAV:   4    -0.564521328428E+02    0.43637E-02   -0.50965E-02  1672   0.354E+00    0.337E-01
DAV:   5    -0.564509446699E+02    0.11882E-02   -0.58480E-03  1804   0.147E+00    0.262E-01
DAV:   6    -0.564504244685E+02    0.52020E-03   -0.26324E-03  1688   0.118E+00    0.239E-01
DAV:   7    -0.564495729303E+02    0.85154E-03   -0.56610E-03  2016   0.153E+00    0.152E-01
DAV:   8    -0.564493129681E+02    0.25996E-03   -0.18483E-03  1392   0.827E-01    0.711E-02
DAV:   9    -0.564492717874E+02    0.41181E-04   -0.36572E-04   896   0.405E-01
   9 F= -.63056608E+02 E0= -.63052006E+02  d E =-.140603E-01  mag=    -0.0000
       N       E                     dE             d eps       ncg     rms          rms(c)
DAV:   1    -0.563747712703E+02    0.74542E-01   -0.37958E+01  1496   0.183E+01    0.436E-01
DAV:   2    -0.564568428893E+02   -0.82072E-01   -0.75486E-01  2176   0.767E+00    0.101E+00
DAV:   3    -0.564560076146E+02    0.83527E-03   -0.19869E-01  1728   0.742E+00    0.964E-01
DAV:   4    -0.564450655866E+02    0.10942E-01   -0.12264E-01  1704   0.543E+00    0.479E-01
DAV:   5    -0.564423176055E+02    0.27480E-02   -0.12659E-02  1876   0.228E+00    0.359E-01
DAV:   6    -0.564415249028E+02    0.79270E-03   -0.58375E-03  1696   0.162E+00    0.331E-01
DAV:   7    -0.564399604744E+02    0.15644E-02   -0.11003E-02  1960   0.204E+00    0.215E-01
DAV:   8    -0.564395019726E+02    0.45850E-03   -0.39962E-03  2160   0.119E+00    0.109E-01
DAV:   9    -0.564393808410E+02    0.12113E-03   -0.75176E-04  1200   0.620E-01
  10 F= -.63065737E+02 E0= -.63062075E+02  d E =-.231897E-01  mag=    -0.0000
       N       E                     dE             d eps       ncg     rms          rms(c)
DAV:   1    -0.564194258101E+02    0.20076E-01   -0.13432E+01  1504   0.108E+01    0.279E-01
DAV:   2    -0.564820230665E+02   -0.62597E-01   -0.37718E-01  2544   0.824E+00    0.147E+00
DAV:   3    -0.564427657251E+02    0.39257E-01   -0.26246E-01  2616   0.725E+00    0.349E-01
DAV:   4    -0.564420359817E+02    0.72974E-03   -0.17622E-02  1728   0.236E+00    0.283E-01
DAV:   5    -0.564415679813E+02    0.46800E-03   -0.46150E-03  1616   0.151E+00    0.209E-01
DAV:   6    -0.564411741067E+02    0.39387E-03   -0.29319E-03  1568   0.900E-01    0.178E-01
DAV:   7    -0.564408877291E+02    0.28638E-03   -0.33864E-03  2060   0.102E+00    0.112E-01
DAV:   8    -0.564406579112E+02    0.22982E-03   -0.84708E-04  1024   0.764E-01    0.359E-02
DAV:   9    -0.564406600327E+02   -0.21215E-05   -0.20749E-04   852   0.292E-01
  11 F= -.63075329E+02 E0= -.63072001E+02  d E =-.959192E-02  mag=    -0.0000
       N       E                     dE             d eps       ncg     rms          rms(c)
DAV:   1    -0.563180920505E+02    0.12257E+00   -0.68068E+01  1496   0.249E+01    0.674E-01
DAV:   2    -0.566660703028E+02   -0.34798E+00   -0.19907E+00  2624   0.207E+01    0.310E+00
DAV:   3    -0.564419897897E+02    0.22408E+00   -0.10921E+00  2576   0.165E+01    0.750E-01
DAV:   4    -0.564394263657E+02    0.25634E-02   -0.10746E-01  2048   0.471E+00    0.662E-01
DAV:   5    -0.564370914702E+02    0.23349E-02   -0.22933E-02  1712   0.344E+00    0.486E-01
DAV:   6    -0.564355733142E+02    0.15182E-02   -0.13680E-02  1520   0.178E+00    0.411E-01
DAV:   7    -0.564345613433E+02    0.10120E-02   -0.24818E-02  2544   0.243E+00    0.335E-01
DAV:   8    -0.564321392764E+02    0.24221E-02   -0.13232E-02  2372   0.220E+00    0.877E-02
DAV:   9    -0.564320828116E+02    0.56465E-04   -0.75088E-04  1224   0.697E-01
  12 F= -.63085479E+02 E0= -.63083157E+02  d E =-.197416E-01  mag=    -0.0000
       N       E                     dE             d eps       ncg     rms          rms(c)
DAV:   1    -0.564238404107E+02    0.82989E-02   -0.57955E+00  1504   0.712E+00    0.185E-01
DAV:   2    -0.564589315521E+02   -0.35091E-01   -0.22652E-01  2624   0.635E+00    0.114E+00
DAV:   3    -0.564329112061E+02    0.26020E-01   -0.14197E-01  2536   0.559E+00    0.174E-01
DAV:   4    -0.564332223413E+02   -0.31114E-03   -0.58898E-03  1736   0.895E-01    0.139E-01
DAV:   5    -0.564333095378E+02   -0.87196E-04   -0.17233E-03  1496   0.801E-01
  13 F= -.63091992E+02 E0= -.63090371E+02  d E =-.651329E-02  mag=    -0.0000
       N       E                     dE             d eps       ncg     rms          rms(c)
DAV:   1    -0.563469469891E+02    0.86275E-01   -0.52593E+01  1504   0.219E+01    0.615E-01
DAV:   2    -0.567153647071E+02   -0.36842E+00   -0.19640E+00  2688   0.232E+01    0.314E+00
DAV:   3    -0.564356588809E+02    0.27971E+00   -0.10058E+00  2632   0.169E+01    0.699E-01
DAV:   4    -0.564344840302E+02    0.11749E-02   -0.47496E-02  2348   0.423E+00    0.516E-01
DAV:   5    -0.564345223473E+02   -0.38317E-04   -0.22646E-02  1696   0.247E+00    0.473E-01
DAV:   6    -0.564319711405E+02    0.25512E-02   -0.28639E-02  1680   0.283E+00    0.391E-01
DAV:   7    -0.564310323101E+02    0.93883E-03   -0.11499E-02  2216   0.199E+00    0.269E-01
DAV:   8    -0.564299307414E+02    0.11016E-02   -0.58235E-03  2036   0.124E+00    0.170E-01
DAV:   9    -0.564297586186E+02    0.17212E-03   -0.14248E-03  1440   0.641E-01
  14 F= -.63104390E+02 E0= -.63102221E+02  d E =-.189115E-01  mag=    -0.0000
       N       E                     dE             d eps       ncg     rms          rms(c)
DAV:   1    -0.560992273393E+02    0.33070E+00   -0.21798E+02  1600   0.479E+01    0.121E+00
DAV:   2    -0.572178208237E+02   -0.11186E+01   -0.63287E+00  2624   0.431E+01    0.487E+00
DAV:   3    -0.564180289841E+02    0.79979E+00   -0.22158E+00  2624   0.277E+01    0.126E+00
DAV:   4    -0.564160006784E+02    0.20283E-02   -0.19336E-01  2168   0.741E+00    0.957E-01
DAV:   5    -0.564183342203E+02   -0.23335E-02   -0.89728E-02  1640   0.462E+00    0.884E-01
DAV:   6    -0.564139822395E+02    0.43520E-02   -0.96688E-02  1624   0.613E+00    0.763E-01
DAV:   7    -0.564045989667E+02    0.93833E-02   -0.45333E-02  2592   0.425E+00    0.293E-01
DAV:   8    -0.564028707703E+02    0.17282E-02   -0.14977E-02  1928   0.260E+00    0.280E-01
DAV:   9    -0.564027221556E+02    0.14861E-03   -0.52512E-03  1544   0.134E+00    0.245E-01
DAV:  10    -0.564023077115E+02    0.41444E-03   -0.32188E-03  1448   0.124E+00    0.162E-01
DAV:  11    -0.564019722776E+02    0.33543E-03   -0.15289E-03  1180   0.763E-01    0.407E-02
DAV:  12    -0.564020046511E+02   -0.32374E-04   -0.28586E-04   928   0.204E-01
  15 F= -.63109028E+02 E0= -.63108298E+02  d E =-.235493E-01  mag=    -0.0000
       N       E                     dE             d eps       ncg     rms          rms(c)
DAV:   1    -0.563751968876E+02    0.26775E-01   -0.24843E+01  1496   0.149E+01    0.336E-01
DAV:   2    -0.564818805649E+02   -0.10668E+00   -0.70835E-01  2624   0.105E+01    0.167E+00
DAV:   3    -0.564177941943E+02    0.64086E-01   -0.31749E-01  2488   0.888E+00    0.484E-01
DAV:   4    -0.564161921796E+02    0.16020E-02   -0.14759E-02  2008   0.276E+00    0.331E-01
DAV:   5    -0.564162095272E+02   -0.17348E-04   -0.10396E-02  1616   0.160E+00    0.309E-01
DAV:   6    -0.564152910438E+02    0.91848E-03   -0.49527E-03  1512   0.826E-01    0.223E-01
DAV:   7    -0.564144638172E+02    0.82723E-03   -0.45201E-03  2232   0.148E+00    0.175E-01
DAV:   8    -0.564142128394E+02    0.25098E-03   -0.17501E-03  1336   0.834E-01    0.142E-01
DAV:   9    -0.564140103611E+02    0.20248E-03   -0.11918E-03  1400   0.828E-01    0.313E-02
DAV:  10    -0.564140088316E+02    0.15295E-05   -0.16351E-04   880   0.203E-01
  16 F= -.63109793E+02 E0= -.63108763E+02  d E =-.243141E-01  mag=    -0.0000
       N       E                     dE             d eps       ncg     rms          rms(c)
DAV:   1    -0.563788253876E+02    0.35185E-01   -0.20985E+01  1512   0.138E+01    0.329E-01
DAV:   2    -0.564552951034E+02   -0.76470E-01   -0.53176E-01  2544   0.932E+00    0.148E+00
DAV:   3    -0.564137964800E+02    0.41499E-01   -0.27070E-01  2464   0.785E+00    0.395E-01
DAV:   4    -0.564131151702E+02    0.68131E-03   -0.15113E-02  1616   0.155E+00    0.292E-01
DAV:   5    -0.564133160947E+02   -0.20092E-03   -0.60015E-03  1560   0.142E+00    0.297E-01
DAV:   6    -0.564125923325E+02    0.72376E-03   -0.47977E-03  1652   0.222E+00    0.262E-01
DAV:   7    -0.564115700198E+02    0.10223E-02   -0.63669E-03  2472   0.169E+00    0.127E-01
DAV:   8    -0.564114748467E+02    0.95173E-04   -0.90819E-04  1336   0.541E-01
  17 F= -.63117524E+02 E0= -.63115734E+02  d E =-.773072E-02  mag=    -0.0000
       N       E                     dE             d eps       ncg     rms          rms(c)
DAV:   1    -0.564029830282E+02    0.85870E-02   -0.39392E+00  1512   0.593E+00    0.135E-01
DAV:   2    -0.564179506509E+02   -0.14968E-01   -0.10196E-01  2520   0.400E+00    0.672E-01
DAV:   3    -0.564091728828E+02    0.87778E-02   -0.54194E-02  2256   0.360E+00    0.150E-01
DAV:   4    -0.564093377621E+02   -0.16488E-03   -0.32548E-03  1456   0.716E-01    0.117E-01
DAV:   5    -0.564093925850E+02   -0.54823E-04   -0.11757E-03  1472   0.651E-01
  18 F= -.63119892E+02 E0= -.63118461E+02  d E =-.100987E-01  mag=    -0.0000
       N       E                     dE             d eps       ncg     rms          rms(c)
DAV:   1    -0.563789557182E+02    0.30382E-01   -0.15769E+01  1512   0.119E+01    0.297E-01
DAV:   2    -0.564196130613E+02   -0.40657E-01   -0.33382E-01  2416   0.620E+00    0.969E-01
DAV:   3    -0.564054890331E+02    0.14124E-01   -0.13090E-01  2200   0.575E+00    0.400E-01
DAV:   4    -0.564038637590E+02    0.16253E-02   -0.11420E-02  1528   0.214E+00    0.277E-01
DAV:   5    -0.564036974744E+02    0.16628E-03   -0.43578E-03  1556   0.125E+00    0.247E-01
DAV:   6    -0.564026804561E+02    0.10170E-02   -0.50331E-03  2004   0.140E+00    0.186E-01
DAV:   7    -0.564023738489E+02    0.30661E-03   -0.29252E-03  1712   0.123E+00    0.999E-02
DAV:   8    -0.564023143265E+02    0.59522E-04   -0.56821E-04   976   0.409E-01
  19 F= -.63121733E+02 E0= -.63119126E+02  d E =-.119403E-01  mag=    -0.0000
       N       E                     dE             d eps       ncg     rms          rms(c)
DAV:   1    -0.563945268466E+02    0.78470E-02   -0.26325E+00  1508   0.485E+00    0.109E-01
DAV:   2    -0.564020196663E+02   -0.74928E-02   -0.57789E-02  2480   0.260E+00    0.431E-01
DAV:   3    -0.563988127111E+02    0.32070E-02   -0.24651E-02  2164   0.249E+00    0.129E-01
DAV:   4    -0.563988032633E+02    0.94478E-05   -0.16672E-03  1408   0.702E-01
  20 F= -.63121872E+02 E0= -.63119109E+02  d E =-.120792E-01  mag=    -0.0000
       N       E                     dE             d eps       ncg     rms          rms(c)
DAV:   1    -0.563925213904E+02    0.62913E-02   -0.28369E+00  1500   0.492E+00    0.153E-01
DAV:   2    -0.563996275331E+02   -0.71061E-02   -0.63038E-02  2376   0.268E+00    0.430E-01
DAV:   3    -0.563978641698E+02    0.17634E-02   -0.31222E-02  1924   0.283E+00    0.250E-01
DAV:   4    -0.563970786614E+02    0.78551E-03   -0.69346E-03  1488   0.147E+00    0.137E-01
DAV:   5    -0.563970131057E+02    0.65556E-04   -0.93001E-04  1288   0.660E-01
  21 F= -.63123657E+02 E0= -.63120573E+02  d E =-.178517E-02  mag=    -0.0000
       N       E                     dE             d eps       ncg     rms          rms(c)
DAV:   1    -0.563967898022E+02    0.28886E-03   -0.70475E-03  2008   0.729E-01    0.977E-02
DAV:   2    -0.563973848453E+02   -0.59504E-03   -0.33337E-03  1492   0.170E+00    0.187E-01
DAV:   3    -0.563977438582E+02   -0.35901E-03   -0.95822E-03  1052   0.192E+00    0.240E-01
DAV:   4    -0.563966796080E+02    0.10643E-02   -0.54813E-03   936   0.128E+00    0.635E-02
DAV:   5    -0.563966703934E+02    0.92145E-05   -0.20852E-04   904   0.572E-01
  22 F= -.63123481E+02 E0= -.63120401E+02  d E =-.160844E-02  mag=    -0.0000
       N       E                     dE             d eps       ncg     rms          rms(c)
DAV:   1    -0.563967846236E+02   -0.10502E-03   -0.33934E-03  1996   0.295E-01    0.171E-02
DAV:   2    -0.563967907498E+02   -0.61263E-05   -0.55846E-05   840   0.215E-01
  23 F= -.63123482E+02 E0= -.63120700E+02  d E =-.161006E-02  mag=    -0.0000
       N       E                     dE             d eps       ncg     rms          rms(c)
DAV:   1    -0.563967098904E+02    0.74733E-04   -0.61633E-04  1188   0.325E-01    0.461E-02
DAV:   2    -0.564025557760E+02   -0.58459E-02   -0.27835E-02  1376   0.290E+00    0.533E-01
DAV:   3    -0.563965726505E+02    0.59831E-02   -0.26966E-02   992   0.255E+00    0.275E-02
DAV:   4    -0.563966897820E+02   -0.11713E-03   -0.12200E-04   864   0.241E-01
  24 F= -.63123442E+02 E0= -.63120437E+02  d E =-.156976E-02  mag=    -0.0000
       N       E                     dE             d eps       ncg     rms          rms(c)
DAV:   1    -0.563967743697E+02   -0.20172E-03   -0.31103E-04  1136   0.188E-01    0.115E-02
DAV:   2    -0.563970906952E+02   -0.31633E-03   -0.15147E-03   936   0.669E-01    0.125E-01
DAV:   3    -0.563967569562E+02    0.33374E-03   -0.14115E-03   904   0.625E-01    0.922E-03
DAV:   4    -0.563967753780E+02   -0.18422E-04   -0.15391E-05   824   0.839E-02
  25 F= -.63123472E+02 E0= -.63120673E+02  d E =-.160029E-02  mag=    -0.0000
       N       E                     dE             d eps       ncg     rms          rms(c)
DAV:   1    -0.563967461034E+02    0.10853E-04   -0.55440E-05   832   0.800E-02    0.777E-03
DAV:   2    -0.563967722591E+02   -0.26156E-04   -0.13279E-04   784   0.222E-01
  26 F= -.63123496E+02 E0= -.63120745E+02  d E =-.162369E-02  mag=    -0.0000
       N       E                     dE             d eps       ncg     rms          rms(c)
DAV:   1    -0.563967695712E+02   -0.23468E-04   -0.17755E-04   860   0.232E-01    0.155E-02
DAV:   2    -0.563972548623E+02   -0.48529E-03   -0.22716E-03   940   0.834E-01    0.153E-01
DAV:   3    -0.563967497973E+02    0.50506E-03   -0.23767E-03   892   0.783E-01    0.215E-02
DAV:   4    -0.563967671591E+02   -0.17362E-04   -0.23495E-05   852   0.161E-01
  27 F= -.63123476E+02 E0= -.63120662E+02  d E =-.160437E-02  mag=    -0.0000
       N       E                     dE             d eps       ncg     rms          rms(c)
DAV:   1    -0.563967612585E+02   -0.11461E-04   -0.31385E-06   852   0.442E-02    0.273E-03
DAV:   2    -0.563967628276E+02   -0.15691E-05   -0.67606E-06   752   0.619E-02
  28 F= -.63123478E+02 E0= -.63120617E+02  d E =-.160636E-02  mag=    -0.0000
       N       E                     dE             d eps       ncg     rms          rms(c)
DAV:   1    -0.563967645682E+02   -0.33097E-05   -0.15837E-05   716   0.708E-02    0.675E-03
DAV:   2    -0.563968972599E+02   -0.13269E-03   -0.63111E-04   940   0.427E-01
  29 F= -.63123613E+02 E0= -.63120813E+02  d E =-.174125E-02  mag=    -0.0000
       N       E                     dE             d eps       ncg     rms          rms(c)
DAV:   1    -0.563935363622E+02    0.32282E-02   -0.77821E-01  1512   0.252E+00    0.675E-02
DAV:   2    -0.563961134317E+02   -0.25771E-02   -0.20085E-02  2288   0.150E+00    0.267E-01
DAV:   3    -0.563948637835E+02    0.12496E-02   -0.95232E-03  1600   0.159E+00    0.103E-01
DAV:   4    -0.563948065235E+02    0.57260E-04   -0.10024E-03  1184   0.587E-01
  30 F= -.63124249E+02 E0= -.63121324E+02  d E =-.635510E-03  mag=    -0.0000
