 vasp.6.3.2 27Jun22 (build Aug 17 2022 15:43:34) complex                        
  
 executed on           tv2STDVTST date 2025.01.17  11:41:27
 running   20 mpi-ranks, with    1 threads/rank
 distrk:  each k-point on   20 cores,    1 groups
 distr:  one band on NCORE=   5 cores,    4 groups


--------------------------------------------------------------------------------------------------------


 -----------------------------------------------------------------------------
|                                                                             |
|           W    W    AA    RRRRR   N    N  II  N    N   GGGG   !!!           |
|           W    W   A  A   R    R  NN   N  II  NN   N  G    G  !!!           |
|           W    W  A    A  R    R  N N  N  II  N N  N  G       !!!           |
|           W WW W  AAAAAA  RRRRR   N  N N  II  N  N N  G  GGG   !            |
|           WW  WW  A    A  R   R   N   NN  II  N   NN  G    G                |
|           W    W  A    A  R    R  N    N  II  N    N   GGGG   !!!           |
|                                                                             |
|     Found issues when parsing the INCAR file                                |
|     In line 64: Tagname --- R W I G S contains invalid characters.          |
|     Please check if the interpretation in the OUTCAR file is correct.       |
|                                                                             |
 -----------------------------------------------------------------------------

 INCAR:
    = \=\=\=\=\=\=\=\=\=\=\=\=\=\=\=\=\=\=\=\=\=\=\=\=\=\=\=\=\=\=\=\=\=\=\=\=\=\=\=\=\=\=\=\=\=\=\=\=\=\=\=\=\=\=\=\=\=\=\=\=\=\=\=\=\=\=\=\=\=\=\=\=
    = \=\=\=\=\=\=\=\=\=\=\=\=\=\=\=\=\=\=\=\=\=\=\=\=\=\=\=\=\=\=\=\=\=\=\=\=\=\=\=\=\=\=\=\=\=\=\=\=\=\=\=\=\=\=\=\=\=\=\=\=\=\=\=\=\=\=\=\=\=\=\=\=
   ISTART = 0
   ICHARG = 2
   IPIPOL = 3
   IVDW = 11
   IDIPOL = 3
   IVDW = 11
    = \=\=\=\=\=\=\=\=\=\=\=\=\=\=\=\=\=\=\=\=\=\=\=\=\=\=\=\=\=\=\=\=\=\=\=\=\=\=\=\=\=\=\=\=\=\=\=\=\=\=\=\=\=\=\=\=\=\=\=\=\=\=\=\=\=\=\=\=\=\=\=\=
    = \=\=\=\=\=\=\=\=\=\=\=\=\=\=\=\=\=\=\=\=\=\=\=\=\=\=\=\=\=\=\=\=\=\=\=\=\=\=\=\=\=\=\=\=\=\=\=\=\=\=\=\=\=\=\=\=\=\=\=\=\=\=\=\=\=\=\=\=\=\=\=\=
   ISPIN = 2
    = \=\=\=\=\=\=\=\=\=\=\=\=\=\=\=\=\=\=\=\=\=\=\=\=\=\=\=\=\=\=\=\=\=\=\=\=\=\=\=\=\=\=\=\=\=\=\=\=\=\=\=\=\=\=\=\=\=\=\=\=\=\=\=\=\=\=\=\=\=\=\=\=
    = \=\=\=\=\=\=\=\=\=\=\=\=\=\=\=\=\=\=\=\=\=\=\=\=\=\=\=\=\=\=\=\=\=\=\=\=\=\=\=\=\=\=\=\=\=\=\=\=\=\=\=\=\=\=\=\=\=\=\=\=\=\=\=\=\=\=\=\=\=\=\=\=
   ENCUT = 400
   PREC = Normal
   EDIFF = 2E-04
   GGA = PE
   ISMEAR = 1
   SIGMA = 0.2
   LREAL = .FALSE.
    = \=\=\=\=\=\=\=\=\=\=\=\=\=\=\=\=\=\=\=\=\=\=\=\=\=\=\=\=\=\=\=\=\=\=\=\=\=\=\=\=\=\=\=\=\=\=\=\=\=\=\=\=\=\=\=\=\=\=\=\=\=\=\=\=\=\=\=\=\=\=\=\=
    = \=\=\=\=\=\=\=\=\=\=\=\=\=\=\=\=\=\=\=\=\=\=\=\=\=\=\=\=\=\=\=\=\=\=\=\=\=\=\=\=\=\=\=\=\=\=\=\=\=\=\=\=\=\=\=\=\=\=\=\=\=\=\=\=\=\=\=\=\=\=\=\=
   ISYM = 1
   NSW = 800
   IBRION = 2
   POTIM = 0.5
   ISIF = 2
   EDIFFG = -.03
    = \=\=\=\=\=\=\=\=\=\=\=\=\=\=\=\=\=\=\=\=\=\=\=\=\=\=\=\=\=\=\=\=\=\=\=\=\=\=\=\=\=\=\=\=\=\=\=\=\=\=\=\=\=\=\=\=\=\=\=\=\=\=\=\=\=\=\=\=\=\=\=\=
    = \=\=\=\=\=\=\=\=\=\=\=\=\=\=\=\=\=\=\=\=\=\=\=\=\=\=\=\=\=\=\=\=\=\=\=\=\=\=\=\=\=\=\=\=\=\=\=\=\=\=\=\=\=\=\=\=\=\=\=\=\=\=\=\=\=\=\=\=\=\=\=\=
   NPAR = 4
   LWAVE = .FALSE.
   LCHARG = .FALSE.

 POTCAR:    PAW_PBE Cu 22Jun2005                  
 -----------------------------------------------------------------------------
|                                                                             |
|           W    W    AA    RRRRR   N    N  II  N    N   GGGG   !!!           |
|           W    W   A  A   R    R  NN   N  II  NN   N  G    G  !!!           |
|           W    W  A    A  R    R  N N  N  II  N N  N  G       !!!           |
|           W WW W  AAAAAA  RRRRR   N  N N  II  N  N N  G  GGG   !            |
|           WW  WW  A    A  R   R   N   NN  II  N   NN  G    G                |
|           W    W  A    A  R    R  N    N  II  N    N   GGGG   !!!           |
|                                                                             |
|     You use a magnetic or noncollinear calculation, but did not specify     |
|     the initial magnetic moment with the MAGMOM tag. Note that a            |
|     default of 1 will be used for all atoms. This ferromagnetic setup       |
|     may break the symmetry of the crystal, in particular it may rule        |
|     out finding an antiferromagnetic solution. Thence, we recommend         |
|     setting the initial magnetic moment manually or verifying carefully     |
|     that this magnetic setup is desired.                                    |
|                                                                             |
 -----------------------------------------------------------------------------

 POTCAR:    PAW_PBE Cu 22Jun2005                  
   SHA256 =  0e71e558f37a4e8407882b4609ceaae59938afaad9ced71dfe8490308a0ab630 Cu/POTCAR             
   COPYR  = (c) Copyright 22Jun2005 Georg Kresse                                                    
   COPYR  = This file is part of the software VASP. Any use, copying, and all other rights are regul
   COPYR  = If you do not have a valid VASP license, you may not use, copy or distribute this file. 
   VRHFIN =Cu: d10 p1                                                                               
   LEXCH  = PE                                                                                      
   EATOM  =  1390.9808 eV,  102.2342 Ry                                                             
                                                                                                    
   TITEL  = PAW_PBE Cu 22Jun2005                                                                    
   LULTRA =        F    use ultrasoft PP ?                                                          
   IUNSCR =        1    unscreen: 0-lin 1-nonlin 2-no                                               
   RPACOR =    2.000    partial core radius                                                         
   POMASS =   63.546; ZVAL   =   11.000    mass and valenz                                          
   RCORE  =    2.300    outmost cutoff radius                                                       
   RWIGS  =    2.200; RWIGS  =    1.164    wigner-seitz radius (au A)                               
   ENMAX  =  295.446; ENMIN  =  221.585 eV                                                          
   ICORE  =        3    local potential                                                             
   LCOR   =        T    correct aug charges                                                         
   LPAW   =        T    paw PP                                                                      
   EAUG   =  586.980                                                                                
   DEXC   =    0.000                                                                                
   RMAX   =    2.344    core radius for proj-oper                                                   
   RAUG   =    1.300    factor for augmentation sphere                                              
   RDEP   =    2.302    radius for radial grids                                                     
   RDEPT  =    1.771    core radius for aug-charge                                                  
                                                                                                    
   Atomic configuration                                                                             
    9 entries                                                                                       
     n  l   j            E        occ.                                                              
     1  0  0.50     -8850.2468   2.0000                                                             
     2  0  0.50     -1062.3498   2.0000                                                             
     2  1  1.50      -916.8226   6.0000                                                             
     3  0  0.50      -114.6929   2.0000                                                             
     3  1  1.50       -72.1325   6.0000                                                             
     3  2  2.50        -5.0394  10.0000                                                             
     4  0  0.50        -4.6097   1.0000                                                             
     4  1  0.50        -4.0817   0.0000                                                             
     4  3  2.50        -1.3606   0.0000                                                             
   Description                                                                                      
     l       E           TYP  RCUT    TYP  RCUT                                                     
     2     -5.0393973     23  2.200                                                                 
     2     10.8846608     23  2.200                                                                 
     0     -4.6097109     23  2.200                                                                 
     0      8.2520465     23  2.200                                                                 
     1     -2.7211652     23  2.200                                                                 
     1     21.7055443     23  2.200                                                                 
     3      2.7211652     23  2.300                                                                 
  local pseudopotential read in
  partial core-charges read in
  partial kinetic energy density read in
  atomic valenz-charges read in
  non local Contribution for L=           2  read in
    real space projection operators read in
  non local Contribution for L=           2  read in
    real space projection operators read in
  non local Contribution for L=           0  read in
    real space projection operators read in
  non local Contribution for L=           0  read in
    real space projection operators read in
  non local Contribution for L=           1  read in
    real space projection operators read in
  non local Contribution for L=           1  read in
    real space projection operators read in
    PAW grid and wavefunctions read in
 
   number of l-projection  operators is LMAX  =           6
   number of lm-projection operators is LMMAX =          18
 
  PAW_PBE Cu 22Jun2005                  :
 energy of atom  1       EATOM=-1390.9808
 kinetic energy error for atom=    0.0232 (will be added to EATOM!!)
 
 
 POSCAR: FCC Cu
  positions in cartesian coordinates
  velocities in cartesian coordinates
  No initial velocities read in
 exchange correlation table for  LEXCH =        8
   RHO(1)=    0.500       N(1)  =     2000
   RHO(2)=  100.500       N(2)  =     4000

 VTST: version 4.2, (08/11/21)

 CHAIN: initializing optimizer
 
 OPT: Using VASP Conjugate-Gradient optimizer
 CHAIN: Read ICHAIN            0
 
 POSCAR: FCC Cu
  positions in cartesian coordinates
  velocities in cartesian coordinates
  No initial velocities read in
 


--------------------------------------------------------------------------------------------------------


 ion  position               nearest neighbor table
   1  0.000  0.000  0.000-   3 2.57   4 2.57   3 2.57   4 2.57   2 2.57   2 2.57   2 2.57   2 2.57

   2  0.500  0.500  0.000-   3 2.57   4 2.57   3 2.57   4 2.57   1 2.57   1 2.57   1 2.57   1 2.57

   3  0.000  0.500  0.066-   5 2.57   6 2.57   5 2.57   6 2.57   2 2.57   1 2.57   2 2.57   1 2.57
                             4 2.57   4 2.57   4 2.57   4 2.57
   4  0.500  0.000  0.066-   5 2.57   6 2.57   5 2.57   6 2.57   2 2.57   1 2.57   2 2.57   1 2.57
                             3 2.57   3 2.57   3 2.57   3 2.57
   5  0.000  0.000  0.131-   3 2.57   4 2.57   3 2.57   4 2.57   7 2.57   8 2.57   7 2.57   8 2.57
                             6 2.57   6 2.57   6 2.57   6 2.57
   6  0.500  0.500  0.131-   3 2.57   4 2.57   3 2.57   4 2.57   7 2.57   8 2.57   7 2.57   8 2.57
                             5 2.57   5 2.57   5 2.57   5 2.57
   7  0.000  0.500  0.197-   9 2.57  10 2.57   9 2.57  10 2.57   6 2.57   5 2.57   6 2.57   5 2.57
                             8 2.57   8 2.57   8 2.57   8 2.57
   8  0.500  0.000  0.197-   9 2.57  10 2.57   9 2.57  10 2.57   6 2.57   5 2.57   6 2.57   5 2.57
                             7 2.57   7 2.57   7 2.57   7 2.57
   9  0.000  0.000  0.262-  11 2.57  12 2.57   7 2.57   8 2.57  11 2.57  12 2.57   8 2.57   7 2.57
                            10 2.57  10 2.57  10 2.57  10 2.57
  10  0.500  0.500  0.262-  11 2.57  12 2.57   7 2.57   8 2.57  11 2.57  12 2.57   8 2.57   7 2.57
                             9 2.57   9 2.57   9 2.57   9 2.57
  11  0.000  0.500  0.328-  13 2.57  14 2.57  13 2.57  14 2.57  10 2.57   9 2.57  10 2.57   9 2.57
                            12 2.57  12 2.57  12 2.57  12 2.57
  12  0.500  0.000  0.328-  13 2.57  14 2.57  13 2.57  14 2.57  10 2.57   9 2.57  10 2.57   9 2.57
                            11 2.57  11 2.57  11 2.57  11 2.57
  13  0.000  0.000  0.393-  11 2.57  12 2.57  11 2.57  12 2.57  15 2.57  16 2.57  15 2.57  16 2.57
                            14 2.57  14 2.57  14 2.57  14 2.57
  14  0.500  0.500  0.393-  11 2.57  12 2.57  11 2.57  12 2.57  15 2.57  16 2.57  15 2.57  16 2.57
                            13 2.57  13 2.57  13 2.57  13 2.57
  15  0.000  0.500  0.459-  13 2.57  14 2.57  13 2.57  14 2.57  16 2.57  16 2.57  16 2.57  16 2.57

  16  0.500  0.000  0.459-  13 2.57  14 2.57  13 2.57  14 2.57  15 2.57  15 2.57  15 2.57  15 2.57

 
  LATTYP: Found a simple tetragonal cell.
 ALAT       =     3.6300001144
 C/A-ratio  =     7.6322311434
  
  Lattice vectors:
  
 A1 = (   3.6300001144,   0.0000000000,   0.0000000000)
 A2 = (   0.0000000000,   3.6300001144,   0.0000000000)
 A3 = (   0.0000000000,   0.0000000000,  27.7049999237)


Analysis of symmetry for initial positions (statically):
=====================================================================
 Subroutine PRICEL returns following result:
 
  LATTYP: Found a simple tetragonal cell.
 ALAT       =     2.5667976966
 C/A-ratio  =    10.7936047942
  
  Lattice vectors:
  
 A1 = (   1.8150000570,  -1.8150000574,   0.0000000000)
 A2 = (   1.8150000570,   1.8150000570,   0.0000000000)
 A3 = (   0.0000000000,   0.0000000000,  27.7049999237)
 
   2 primitive cells build up your supercell.
 

 Routine SETGRP: Setting up the symmetry group for a 
 simple tetragonal supercell.


 Subroutine GETGRP returns: Found 16 space group operations
 (whereof  8 operations were pure point group operations)
 out of a pool of 16 trial point group operations.


The static configuration has the point symmetry C_4v.
 The point group associated with its full space group is D_4h.


Analysis of symmetry for dynamics (positions and initial velocities):
=====================================================================
 Subroutine PRICEL returns following result:
 
  LATTYP: Found a simple tetragonal cell.
 ALAT       =     2.5667976966
 C/A-ratio  =    10.7936047942
  
  Lattice vectors:
  
 A1 = (   1.8150000570,  -1.8150000574,   0.0000000000)
 A2 = (   1.8150000570,   1.8150000570,   0.0000000000)
 A3 = (   0.0000000000,   0.0000000000,  27.7049999237)
 
   2 primitive cells build up your supercell.
 

 Routine SETGRP: Setting up the symmetry group for a 
 simple tetragonal supercell.


 Subroutine GETGRP returns: Found 16 space group operations
 (whereof  8 operations were pure point group operations)
 out of a pool of 16 trial point group operations.


The dynamic configuration has the point symmetry C_4v.
 The point group associated with its full space group is D_4h.


Analysis of constrained symmetry for selective dynamics:
=====================================================================
 Subroutine PRICEL returns following result:
 
  LATTYP: Found a simple tetragonal cell.
 ALAT       =     2.5667976966
 C/A-ratio  =    10.7936047942
  
  Lattice vectors:
  
 A1 = (   1.8150000570,  -1.8150000574,   0.0000000000)
 A2 = (   1.8150000570,   1.8150000570,   0.0000000000)
 A3 = (   0.0000000000,   0.0000000000,  27.7049999237)
 
   2 primitive cells build up your supercell.
 

 Routine SETGRP: Setting up the symmetry group for a 
 simple tetragonal supercell.


 Subroutine GETGRP returns: Found  8 space group operations
 (whereof  8 operations were pure point group operations)
 out of a pool of 16 trial point group operations.


The constrained configuration has the point symmetry C_4v.


Analysis of structural, dynamic, and magnetic symmetry:
=====================================================================
 Subroutine PRICEL returns following result:
 
  LATTYP: Found a simple tetragonal cell.
 ALAT       =     2.5667976966
 C/A-ratio  =    10.7936047942
  
  Lattice vectors:
  
 A1 = (   1.8150000570,  -1.8150000574,   0.0000000000)
 A2 = (   1.8150000570,   1.8150000570,   0.0000000000)
 A3 = (   0.0000000000,   0.0000000000,  27.7049999237)
 
   2 primitive cells build up your supercell.
 

 Routine SETGRP: Setting up the symmetry group for a 
 simple tetragonal supercell.


 Subroutine GETGRP returns: Found  8 space group operations
 (whereof  8 operations were pure point group operations)
 out of a pool of 16 trial point group operations.


The overall configuration has the point symmetry C_4v.


 Subroutine INISYM returns: Found  8 space group operations
 (whereof  8 operations are pure point group operations),
 and found     2 'primitive' translations


----------------------------------------------------------------------------------------

                                     Primitive cell                                     

  volume of cell :     182.5330

  direct lattice vectors                    reciprocal lattice vectors
     1.815000057 -1.815000057  0.000000000     0.275482085 -0.275482085  0.000000000
     1.815000057  1.815000057  0.000000000     0.275482085  0.275482085  0.000000000
     0.000000000  0.000000000 27.704999924     0.000000000  0.000000000  0.036094568

  length of vectors
     2.566797697  2.566797696 27.704999924     0.389590501  0.389590501  0.036094568

  position of ions in fractional coordinates (direct lattice)
     0.000000000  0.000000000  0.000000000
     0.500000000  0.500000000  0.065511642
     0.000000000  0.000000000  0.131023283
     0.500000000  0.500000000  0.196534925
     0.000000000  0.000000000  0.262046566
     0.500000000  0.500000000  0.327558208
     0.000000000  0.000000000  0.393069849
     0.500000000  0.500000000  0.458581491

  ion indices of the primitive-cell ions
   primitive index   ion index
                 1           1
                 2           3
                 3           5
                 4           7
                 5           9
                 6          11
                 7          13
                 8          15

----------------------------------------------------------------------------------------

 
 
 KPOINTS: Auto-mesh                               

Automatic generation of k-mesh.
 Grid dimensions read from file:
 generate k-points for:    3    3    1

 Generating k-lattice:

  Cartesian coordinates                     Fractional coordinates (reciprocal lattice)
     0.091827362  0.000000000  0.000000000     0.333333333  0.000000000  0.000000000
     0.000000000  0.091827362  0.000000000     0.000000000  0.333333333  0.000000000
     0.000000000  0.000000000  0.036094568     0.000000000  0.000000000  1.000000000

  Length of vectors
     0.091827362  0.091827362  0.036094568

  Shift w.r.t. Gamma in fractional coordinates (k-lattice)
     0.000000000  0.000000000  0.000000000

 
 Subroutine IBZKPT returns following result:
 ===========================================
 
 Found      3 irreducible k-points:
 
 Following reciprocal coordinates:
            Coordinates               Weight
  0.000000  0.000000  0.000000      1.000000
  0.333333  0.000000  0.000000      4.000000
  0.333333  0.333333  0.000000      4.000000
 
 Following cartesian coordinates:
            Coordinates               Weight
  0.000000  0.000000  0.000000      1.000000
  0.091827  0.000000  0.000000      4.000000
  0.091827  0.091827  0.000000      4.000000
 


--------------------------------------------------------------------------------------------------------




 Dimension of arrays:
   k-points           NKPTS =      3   k-points in BZ     NKDIM =      3   number of bands    NBANDS=    116
   number of dos      NEDOS =    301   number of ions     NIONS =     16
   non local maximal  LDIM  =      6   non local SUM 2l+1 LMDIM =     18
   total plane-waves  NPLWV =  45360
   max r-space proj   IRMAX =      1   max aug-charges    IRDMAX=   3798
   dimension x,y,z NGX =    18 NGY =   18 NGZ =  140
   dimension x,y,z NGXF=    36 NGYF=   36 NGZF=  280
   support grid    NGXF=    36 NGYF=   36 NGZF=  280
   ions per type =              16
   NGX,Y,Z   is equivalent  to a cutoff of   8.24,  8.24,  8.40 a.u.
   NGXF,Y,Z  is equivalent  to a cutoff of  16.49, 16.49, 16.80 a.u.

 SYSTEM =  unknown system                          
 POSCAR =  FCC Cu                                  

 Startparameter for this run:
   NWRITE =      2    write-flag & timer
   PREC   = normal    normal or accurate (medium, high low for compatibility)
   ISTART =      0    job   : 0-new  1-cont  2-samecut
   ICHARG =      2    charge: 1-file 2-atom 10-const
   ISPIN  =      2    spin polarized calculation?
   LNONCOLLINEAR =      F non collinear calculations
   LSORBIT =      F    spin-orbit coupling
   INIWAV =      1    electr: 0-lowe 1-rand  2-diag
   LASPH  =      F    aspherical Exc in radial PAW
 Electronic Relaxation 1
   ENCUT  =  400.0 eV  29.40 Ry    5.42 a.u.   5.92  5.92 45.18*2*pi/ulx,y,z
   ENINI  =  400.0     initial cutoff
   ENAUG  =  587.0 eV  augmentation charge cutoff
   NELM   =     60;   NELMIN=  2; NELMDL= -5     # of ELM steps 
   EDIFF  = 0.2E-03   stopping-criterion for ELM
   LREAL  =      F    real-space projection
   NLSPLINE    = F    spline interpolate recip. space projectors
   LCOMPAT=      F    compatible to vasp.4.4
   GGA_COMPAT  = T    GGA compatible to vasp.4.4-vasp.4.6
   LMAXPAW     = -100 max onsite density
   LMAXMIX     =    2 max onsite mixed and CHGCAR
   VOSKOWN=      0    Vosko Wilk Nusair interpolation
   ROPT   =    0.00000
 Ionic relaxation
   EDIFFG = -.3E-01   stopping-criterion for IOM
   NSW    =    800    number of steps for IOM
   NBLOCK =      1;   KBLOCK =    800    inner block; outer block 
   IBRION =      2    ionic relax: 0-MD 1-quasi-New 2-CG
   NFREE  =      1    steps in history (QN), initial steepest desc. (CG)
   ISIF   =      2    stress and relaxation
   IWAVPR =     11    prediction:  0-non 1-charg 2-wave 3-comb
   ISYM   =      1    0-nonsym 1-usesym 2-fastsym
   LCORR  =      T    Harris-Foulkes like correction to forces

   POTIM  = 0.5000    time-step for ionic-motion
   TEIN   =    0.0    initial temperature
   TEBEG  =    0.0;   TEEND  =   0.0 temperature during run
   SMASS  =  -3.00    Nose mass-parameter (am)
   estimated Nose-frequenzy (Omega)   =  0.10E-29 period in steps = 0.13E+47 mass=  -0.301E-27a.u.
   SCALEE = 1.0000    scale energy and forces
   NPACO  =    256;   APACO  = 10.0  distance and # of slots for P.C.
   PSTRESS=    0.0 pullay stress

  Mass of Ions in am
   POMASS =  63.55
  Ionic Valenz
   ZVAL   =  11.00
  Atomic Wigner-Seitz radii
   RWIGS  =  -1.00
  virtual crystal weights 
   VCA    =   1.00
   NELECT =     176.0000    total number of electrons
   NUPDOWN=      -1.0000    fix difference up-down

 DOS related values:
   EMIN   =  10.00;   EMAX   =-10.00  energy-range for DOS
   EFERMI =   0.00
   ISMEAR =     1;   SIGMA  =   0.20  broadening in eV -4-tet -1-fermi 0-gaus

 Electronic relaxation 2 (details)
   IALGO  =     38    algorithm
   LDIAG  =      T    sub-space diagonalisation (order eigenvalues)
   LSUBROT=      F    optimize rotation matrix (better conditioning)
   TURBO    =      0    0=normal 1=particle mesh
   IRESTART =      0    0=no restart 2=restart with 2 vectors
   NREBOOT  =      0    no. of reboots
   NMIN     =      0    reboot dimension
   EREF     =   0.00    reference energy to select bands
   IMIX   =      4    mixing-type and parameters
     AMIX     =   0.40;   BMIX     =  1.00
     AMIX_MAG =   1.60;   BMIX_MAG =  1.00
     AMIN     =   0.10
     WC   =   100.;   INIMIX=   1;  MIXPRE=   1;  MAXMIX= -45

 Intra band minimization:
   WEIMIN = 0.0010     energy-eigenvalue tresh-hold
   EBREAK =  0.43E-06  absolut break condition
   DEPER  =   0.30     relativ break condition  

   TIME   =   0.40     timestep for ELM

  volume/ion in A,a.u.               =      22.82       153.97
  Fermi-wavevector in a.u.,A,eV,Ry     =   1.283675  2.425795 22.419989  1.647823
  Thomas-Fermi vector in A             =   2.415914
 
 Write flags
   LWAVE        =      F    write WAVECAR
   LDOWNSAMPLE  =      F    k-point downsampling of WAVECAR
   LCHARG       =      F    write CHGCAR
   LVTOT        =      F    write LOCPOT, total local potential
   LVHAR        =      F    write LOCPOT, Hartree potential only
   LELF         =      F    write electronic localiz. function (ELF)
   LORBIT       =      0    0 simple, 1 ext, 2 COOP (PROOUT), +10 PAW based schemes


 Dipole corrections
   LMONO  =      F    monopole corrections only (constant potential shift)
   LDIPOL =      F    correct potential (dipole corrections)
   IDIPOL =      3    1-x, 2-y, 3-z, 4-all directions 
   EPSILON=  1.0000000 bulk dielectric constant

 Exchange correlation treatment:
   GGA     =    PE    GGA type
   LEXCH   =     8    internal setting for exchange type
   LIBXC   =     F    Libxc                    
   VOSKOWN =     0    Vosko Wilk Nusair interpolation
   LHFCALC =     F    Hartree Fock is set to
   LHFONE  =     F    Hartree Fock one center treatment
   AEXX    =    0.0000 exact exchange contribution

 Linear response parameters
   LEPSILON=     F    determine dielectric tensor
   LRPA    =     F    only Hartree local field effects (RPA)
   LNABLA  =     F    use nabla operator in PAW spheres
   LVEL    =     F    velocity operator in full k-point grid
   CSHIFT  =0.1000    complex shift for real part using Kramers Kronig
   OMEGAMAX=  -1.0    maximum frequency
   DEG_THRESHOLD= 0.2000000E-02 threshold for treating states as degnerate
   RTIME   =   -0.100 relaxation time in fs
  (WPLASMAI=    0.000 imaginary part of plasma frequency in eV, 0.658/RTIME)
   DFIELD  = 0.0000000 0.0000000 0.0000000 field for delta impulse in time
 
  Optional k-point grid parameters
   LKPOINTS_OPT  =     F    use optional k-point grid
   KPOINTS_OPT_MODE=     1    mode for optional k-point grid
 
 Orbital magnetization related:
   ORBITALMAG=     F  switch on orbital magnetization
   LCHIMAG   =     F  perturbation theory with respect to B field
   DQ        =  0.001000  dq finite difference perturbation B field
   LLRAUG    =     F  two centre corrections for induced B field



--------------------------------------------------------------------------------------------------------


 conjugate gradient relaxation of ions
   using selective dynamics as specified on POSCAR
   WARNING: If single coordinates had been selected the selection of coordinates
            is made according to the corresponding   d i r e c t   coordinates!
            Don't support selection of single cartesian coordinates -- sorry ...
  !
 charge density and potential will be updated during run
 spin polarized calculation
 Variant of blocked Davidson
 Davidson routine will perform the subspace rotation
 perform sub-space diagonalisation
    after iterative eigenvector-optimisation
 modified Broyden-mixing scheme, WC =      100.0
 initial mixing is a Kerker type mixing with AMIX =  0.4000 and BMIX =      1.0000
 Hartree-type preconditioning will be used
 using additional bands           28
 reciprocal scheme for non local part
 use partial core corrections
 calculate Harris-corrections to forces 
   (improved forces if not selfconsistent)
 use gradient corrections 
 use of overlap-Matrix (Vanderbilt PP)
 Methfessel and Paxton  Order N= 1 SIGMA  =   0.20


--------------------------------------------------------------------------------------------------------


  energy-cutoff  :      400.00
  volume of cell :      365.07
      direct lattice vectors                 reciprocal lattice vectors
     3.630000114  0.000000000  0.000000000     0.275482085  0.000000000  0.000000000
     0.000000000  3.630000114  0.000000000     0.000000000  0.275482085  0.000000000
     0.000000000  0.000000000 27.704999924     0.000000000  0.000000000  0.036094568

  length of vectors
     3.630000114  3.630000114 27.704999924     0.275482085  0.275482085  0.036094568


 
 k-points in units of 2pi/SCALE and weight: Auto-mesh                               
   0.00000000  0.00000000  0.00000000       0.111
   0.09182736  0.00000000  0.00000000       0.444
   0.09182736  0.09182736  0.00000000       0.444
 
 k-points in reciprocal lattice and weights: Auto-mesh                               
   0.00000000  0.00000000  0.00000000       0.111
   0.33333333  0.00000000  0.00000000       0.444
   0.33333333  0.33333333  0.00000000       0.444
 
 position of ions in fractional coordinates (direct lattice) 
   0.00000000  0.00000000  0.00000000
   0.50000000  0.50000000  0.00000000
   0.00000000  0.50000000  0.06551164
   0.50000000  0.00000000  0.06551164
   0.00000000  0.00000000  0.13102328
   0.50000000  0.50000000  0.13102328
   0.00000000  0.50000000  0.19653492
   0.50000000  0.00000000  0.19653492
   0.00000000  0.00000000  0.26204657
   0.50000000  0.50000000  0.26204657
   0.00000000  0.50000000  0.32755821
   0.50000000  0.00000000  0.32755821
   0.00000000  0.00000000  0.39306985
   0.50000000  0.50000000  0.39306985
   0.00000000  0.50000000  0.45858149
   0.50000000  0.00000000  0.45858149
 
 position of ions in cartesian coordinates  (Angst):
   0.00000000  0.00000000  0.00000000
   1.81500006  1.81500006  0.00000000
   0.00000000  1.81500006  1.81500003
   1.81500006  0.00000000  1.81500003
   0.00000000  0.00000000  3.63000005
   1.81500006  1.81500006  3.63000005
   0.00000000  1.81500006  5.44500008
   1.81500006  0.00000000  5.44500008
   0.00000000  0.00000000  7.26000010
   1.81500006  1.81500006  7.26000010
   0.00000000  1.81500006  9.07500013
   1.81500006  0.00000000  9.07500013
   0.00000000  0.00000000 10.89000015
   1.81500006  1.81500006 10.89000015
   0.00000000  1.81500006 12.70500018
   1.81500006  0.00000000 12.70500018
 


--------------------------------------------------------------------------------------------------------


 k-point   1 :   0.0000 0.0000 0.0000  plane waves:    6591
 k-point   2 :   0.3333 0.0000 0.0000  plane waves:    6616
 k-point   3 :   0.3333 0.3333 0.0000  plane waves:    6666

 maximum and minimum number of plane-waves per node :      1335     1308

 maximum number of plane-waves:      6666
 maximum index in each direction: 
   IXMAX=    5   IYMAX=    5   IZMAX=   45
   IXMIN=   -6   IYMIN=   -6   IZMIN=  -45


 parallel 3D FFT for wavefunctions:
    minimum data exchange during FFTs selected (reduces bandwidth)
 parallel 3D FFT for charge:
    minimum data exchange during FFTs selected (reduces bandwidth)


 total amount of memory used by VASP MPI-rank0    38198. kBytes
=======================================================================

   base      :      30000. kBytes
   nonl-proj :        919. kBytes
   fftplans  :        968. kBytes
   grid      :       2268. kBytes
   one-center:        124. kBytes
   wavefun   :       3919. kBytes
 
     INWAV:  cpu time      0.0000: real time      0.0004
 Broyden mixing: mesh for mixing (old mesh)
   NGX = 11   NGY = 11   NGZ = 91
  (NGX  = 36   NGY  = 36   NGZ  =280)
  gives a total of  11011 points

 initial charge density was supplied:
 charge density of overlapping atoms calculated
 number of electron     176.0000000 magnetization      16.0000000
 keeping initial charge density in first step


--------------------------------------------------------------------------------------------------------


 Maximum index for augmentation-charges          285 (set IRDMAX)


--------------------------------------------------------------------------------------------------------


 First call to EWALD:  gamma=   0.248
 Maximum number of real-space cells 5x 5x 1
 Maximum number of reciprocal cells 2x 2x 9

    FEWALD:  cpu time      0.0018: real time      0.0019


--------------------------------------- Iteration      1(   1)  ---------------------------------------


    POTLOK:  cpu time      0.0307: real time      0.0311
    SETDIJ:  cpu time      0.0072: real time      0.0073
     EDDAV:  cpu time      0.8237: real time      0.8310
       DOS:  cpu time      0.0013: real time      0.0013
    --------------------------------------------
      LOOP:  cpu time      0.8629: real time      0.8706

 eigenvalue-minimisations  :  1392
 total energy-change (2. order) : 0.1632644E+04  (-0.6351434E+04)
 number of electron     176.0000000 magnetization      16.0000000
 augmentation part      176.0000000 magnetization      16.0000000

 Free energy of the ion-electron system (eV)
  ---------------------------------------------------
  alpha Z        PSCENC =       512.83866137
  Ewald energy   TEWEN  =     95579.55324484
  -Hartree energ DENC   =   -117450.93500450
  -exchange      EXHF   =         0.00000000
  -V(xc)+E(xc)   XCENC  =       731.37124990
  PAW double counting   =     19649.55993678   -21342.73490440
  entropy T*S    EENTRO =        -0.01290462
  eigenvalues    EBANDS =      1697.68131205
  atomic energy  EATOM  =     22255.32224320
  Solvation  Ediel_sol  =         0.00000000
  ---------------------------------------------------
  free energy    TOTEN  =      1632.64383461 eV

  energy without entropy =     1632.65673922  energy(sigma->0) =     1632.64813614


--------------------------------------------------------------------------------------------------------




--------------------------------------- Iteration      1(   2)  ---------------------------------------


     EDDAV:  cpu time      0.7954: real time      0.8025
       DOS:  cpu time      0.0010: real time      0.0010
    --------------------------------------------
      LOOP:  cpu time      0.7963: real time      0.8035

 eigenvalue-minimisations  :  1392
 total energy-change (2. order) :-0.1440446E+04  (-0.1379171E+04)
 number of electron     176.0000000 magnetization      16.0000000
 augmentation part      176.0000000 magnetization      16.0000000

 Free energy of the ion-electron system (eV)
  ---------------------------------------------------
  alpha Z        PSCENC =       512.83866137
  Ewald energy   TEWEN  =     95579.55324484
  -Hartree energ DENC   =   -117450.93500450
  -exchange      EXHF   =         0.00000000
  -V(xc)+E(xc)   XCENC  =       731.37124990
  PAW double counting   =     19649.55993678   -21342.73490440
  entropy T*S    EENTRO =         0.01617133
  eigenvalues    EBANDS =       257.20616100
  atomic energy  EATOM  =     22255.32224320
  Solvation  Ediel_sol  =         0.00000000
  ---------------------------------------------------
  free energy    TOTEN  =       192.19775951 eV

  energy without entropy =      192.18158818  energy(sigma->0) =      192.19236907


--------------------------------------------------------------------------------------------------------




--------------------------------------- Iteration      1(   3)  ---------------------------------------


     EDDAV:  cpu time      0.7988: real time      0.8056
       DOS:  cpu time      0.0014: real time      0.0014
    --------------------------------------------
      LOOP:  cpu time      0.8002: real time      0.8070

 eigenvalue-minimisations  :  1400
 total energy-change (2. order) :-0.2445224E+03  (-0.2212306E+03)
 number of electron     176.0000000 magnetization      16.0000000
 augmentation part      176.0000000 magnetization      16.0000000

 Free energy of the ion-electron system (eV)
  ---------------------------------------------------
  alpha Z        PSCENC =       512.83866137
  Ewald energy   TEWEN  =     95579.55324484
  -Hartree energ DENC   =   -117450.93500450
  -exchange      EXHF   =         0.00000000
  -V(xc)+E(xc)   XCENC  =       731.37124990
  PAW double counting   =     19649.55993678   -21342.73490440
  entropy T*S    EENTRO =         0.04061145
  eigenvalues    EBANDS =        12.65928264
  atomic energy  EATOM  =     22255.32224320
  Solvation  Ediel_sol  =         0.00000000
  ---------------------------------------------------
  free energy    TOTEN  =       -52.32467873 eV

  energy without entropy =      -52.36529019  energy(sigma->0) =      -52.33821589


--------------------------------------------------------------------------------------------------------




--------------------------------------- Iteration      1(   4)  ---------------------------------------


     EDDAV:  cpu time      0.8742: real time      0.8816
       DOS:  cpu time      0.0012: real time      0.0012
    --------------------------------------------
      LOOP:  cpu time      0.8754: real time      0.8828

 eigenvalue-minimisations  :  1564
 total energy-change (2. order) :-0.1499363E+02  (-0.1466568E+02)
 number of electron     176.0000000 magnetization      16.0000000
 augmentation part      176.0000000 magnetization      16.0000000

 Free energy of the ion-electron system (eV)
  ---------------------------------------------------
  alpha Z        PSCENC =       512.83866137
  Ewald energy   TEWEN  =     95579.55324484
  -Hartree energ DENC   =   -117450.93500450
  -exchange      EXHF   =         0.00000000
  -V(xc)+E(xc)   XCENC  =       731.37124990
  PAW double counting   =     19649.55993678   -21342.73490440
  entropy T*S    EENTRO =         0.03961242
  eigenvalues    EBANDS =        -2.33335049
  atomic energy  EATOM  =     22255.32224320
  Solvation  Ediel_sol  =         0.00000000
  ---------------------------------------------------
  free energy    TOTEN  =       -67.31831089 eV

  energy without entropy =      -67.35792331  energy(sigma->0) =      -67.33151503


--------------------------------------------------------------------------------------------------------




--------------------------------------- Iteration      1(   5)  ---------------------------------------


     EDDAV:  cpu time      0.8621: real time      0.8696
       DOS:  cpu time      0.0012: real time      0.0012
    CHARGE:  cpu time      0.1267: real time      0.1272
    MIXING:  cpu time      0.0009: real time      0.0009
    --------------------------------------------
      LOOP:  cpu time      0.9909: real time      0.9989

 eigenvalue-minimisations  :  1560
 total energy-change (2. order) :-0.3086050E+00  (-0.3082011E+00)
 number of electron     176.0002267 magnetization      15.0517713
 augmentation part      104.0763092 magnetization      14.3366694

 Broyden mixing:
  rms(total) = 0.36015E+01    rms(broyden)= 0.36010E+01
  rms(prec ) = 0.36980E+01
  weight for this iteration     100.00

 Free energy of the ion-electron system (eV)
  ---------------------------------------------------
  alpha Z        PSCENC =       512.83866137
  Ewald energy   TEWEN  =     95579.55324484
  -Hartree energ DENC   =   -117450.93500450
  -exchange      EXHF   =         0.00000000
  -V(xc)+E(xc)   XCENC  =       731.37124990
  PAW double counting   =     19649.55993678   -21342.73490440
  entropy T*S    EENTRO =         0.04012784
  eigenvalues    EBANDS =        -2.64247088
  atomic energy  EATOM  =     22255.32224320
  Solvation  Ediel_sol  =         0.00000000
  ---------------------------------------------------
  free energy    TOTEN  =       -67.62691586 eV

  energy without entropy =      -67.66704370  energy(sigma->0) =      -67.64029180


--------------------------------------------------------------------------------------------------------




--------------------------------------- Iteration      1(   6)  ---------------------------------------


    POTLOK:  cpu time      0.0276: real time      0.0279
    SETDIJ:  cpu time      0.0079: real time      0.0079
     EDDAV:  cpu time      0.8724: real time      0.8797
       DOS:  cpu time      0.0011: real time      0.0010
    CHARGE:  cpu time      0.1203: real time      0.1208
    MIXING:  cpu time      0.0010: real time      0.0010
    --------------------------------------------
      LOOP:  cpu time      1.0303: real time      1.0385

 eigenvalue-minimisations  :  1580
 total energy-change (2. order) : 0.1129944E+02  (-0.1494576E+02)
 number of electron     176.0002517 magnetization      14.4366633
 augmentation part      117.3973639 magnetization      10.2258648

 Broyden mixing:
  rms(total) = 0.18579E+01    rms(broyden)= 0.18570E+01
  rms(prec ) = 0.19101E+01
  weight for this iteration     100.00

 eigenvalues of (default mixing * dielectric matrix)
  average eigenvalue GAMMA=   0.7874
  0.7874

 Free energy of the ion-electron system (eV)
  ---------------------------------------------------
  alpha Z        PSCENC =       512.83866137
  Ewald energy   TEWEN  =     95579.55324484
  -Hartree energ DENC   =   -117044.05116652
  -exchange      EXHF   =         0.00000000
  -V(xc)+E(xc)   XCENC  =       711.60725557
  PAW double counting   =     19881.67264870   -21487.83158788
  entropy T*S    EENTRO =        -0.03538736
  eigenvalues    EBANDS =      -465.40339152
  atomic energy  EATOM  =     22255.32224320
  Solvation  Ediel_sol  =         0.00000000
  ---------------------------------------------------
  free energy    TOTEN  =       -56.32747963 eV

  energy without entropy =      -56.29209226  energy(sigma->0) =      -56.31568384


--------------------------------------------------------------------------------------------------------




--------------------------------------- Iteration      1(   7)  ---------------------------------------


    POTLOK:  cpu time      0.0264: real time      0.0267
    SETDIJ:  cpu time      0.0066: real time      0.0066
     EDDAV:  cpu time      0.8614: real time      0.8684
       DOS:  cpu time      0.0010: real time      0.0010
    CHARGE:  cpu time      0.1212: real time      0.1218
    MIXING:  cpu time      0.0009: real time      0.0009
    --------------------------------------------
      LOOP:  cpu time      1.0175: real time      1.0254

 eigenvalue-minimisations  :  1508
 total energy-change (2. order) : 0.7340467E+01  (-0.3489589E+01)
 number of electron     176.0002426 magnetization      13.7072991
 augmentation part      112.7009823 magnetization       9.3759351

 Broyden mixing:
  rms(total) = 0.82442E+00    rms(broyden)= 0.82420E+00
  rms(prec ) = 0.83352E+00
  weight for this iteration     100.00

 eigenvalues of (default mixing * dielectric matrix)
  average eigenvalue GAMMA=   0.8137
  0.9788  0.6486

 Free energy of the ion-electron system (eV)
  ---------------------------------------------------
  alpha Z        PSCENC =       512.83866137
  Ewald energy   TEWEN  =     95579.55324484
  -Hartree energ DENC   =   -117229.69714117
  -exchange      EXHF   =         0.00000000
  -V(xc)+E(xc)   XCENC  =       720.30011146
  PAW double counting   =     20290.25275029   -21976.33790499
  entropy T*S    EENTRO =         0.00567811
  eigenvalues    EBANDS =      -201.22465532
  atomic energy  EATOM  =     22255.32224320
  Solvation  Ediel_sol  =         0.00000000
  ---------------------------------------------------
  free energy    TOTEN  =       -48.98701224 eV

  energy without entropy =      -48.99269034  energy(sigma->0) =      -48.98890494


--------------------------------------------------------------------------------------------------------




--------------------------------------- Iteration      1(   8)  ---------------------------------------


    POTLOK:  cpu time      0.0258: real time      0.0263
    SETDIJ:  cpu time      0.0065: real time      0.0066
     EDDAV:  cpu time      0.8980: real time      0.9054
       DOS:  cpu time      0.0011: real time      0.0011
    CHARGE:  cpu time      0.1204: real time      0.1211
    MIXING:  cpu time      0.0008: real time      0.0008
    --------------------------------------------
      LOOP:  cpu time      1.0526: real time      1.0612

 eigenvalue-minimisations  :  1648
 total energy-change (2. order) : 0.6661461E+00  (-0.7852619E+00)
 number of electron     176.0002415 magnetization      13.1971866
 augmentation part      112.0044516 magnetization       8.8586812

 Broyden mixing:
  rms(total) = 0.88997E+00    rms(broyden)= 0.88988E+00
  rms(prec ) = 0.96159E+00
  weight for this iteration     100.00

 eigenvalues of (default mixing * dielectric matrix)
  average eigenvalue GAMMA=   0.6996
  1.0859  0.6344  0.3784

 Free energy of the ion-electron system (eV)
  ---------------------------------------------------
  alpha Z        PSCENC =       512.83866137
  Ewald energy   TEWEN  =     95579.55324484
  -Hartree energ DENC   =   -117262.17174182
  -exchange      EXHF   =         0.00000000
  -V(xc)+E(xc)   XCENC  =       721.01269612
  PAW double counting   =     20533.36725034   -22238.97108589
  entropy T*S    EENTRO =         0.00395254
  eigenvalues    EBANDS =      -149.27608681
  atomic energy  EATOM  =     22255.32224320
  Solvation  Ediel_sol  =         0.00000000
  ---------------------------------------------------
  free energy    TOTEN  =       -48.32086611 eV

  energy without entropy =      -48.32481865  energy(sigma->0) =      -48.32218363


--------------------------------------------------------------------------------------------------------




--------------------------------------- Iteration      1(   9)  ---------------------------------------


    POTLOK:  cpu time      0.0249: real time      0.0252
    SETDIJ:  cpu time      0.0063: real time      0.0064
     EDDAV:  cpu time      1.0141: real time      1.0225
       DOS:  cpu time      0.0010: real time      0.0010
    CHARGE:  cpu time      0.1200: real time      0.1205
    MIXING:  cpu time      0.0010: real time      0.0010
    --------------------------------------------
      LOOP:  cpu time      1.1674: real time      1.1767

 eigenvalue-minimisations  :  1920
 total energy-change (2. order) : 0.3038395E+00  (-0.3571261E+00)
 number of electron     176.0002414 magnetization      12.5603779
 augmentation part      112.0914615 magnetization       8.5558153

 Broyden mixing:
  rms(total) = 0.73651E+00    rms(broyden)= 0.73645E+00
  rms(prec ) = 0.79874E+00
  weight for this iteration     100.00

 eigenvalues of (default mixing * dielectric matrix)
  average eigenvalue GAMMA=   0.6803
  1.1792  0.6450  0.6450  0.2517

 Free energy of the ion-electron system (eV)
  ---------------------------------------------------
  alpha Z        PSCENC =       512.83866137
  Ewald energy   TEWEN  =     95579.55324484
  -Hartree energ DENC   =   -117216.96977976
  -exchange      EXHF   =         0.00000000
  -V(xc)+E(xc)   XCENC  =       720.51159862
  PAW double counting   =     20657.69791367   -22370.95149580
  entropy T*S    EENTRO =        -0.02524485
  eigenvalues    EBANDS =      -185.99416787
  atomic energy  EATOM  =     22255.32224320
  Solvation  Ediel_sol  =         0.00000000
  ---------------------------------------------------
  free energy    TOTEN  =       -48.01702659 eV

  energy without entropy =      -47.99178174  energy(sigma->0) =      -48.00861164


--------------------------------------------------------------------------------------------------------




--------------------------------------- Iteration      1(  10)  ---------------------------------------


    POTLOK:  cpu time      0.0249: real time      0.0252
    SETDIJ:  cpu time      0.0064: real time      0.0065
     EDDAV:  cpu time      1.1964: real time      1.2063
       DOS:  cpu time      0.0011: real time      0.0011
    CHARGE:  cpu time      0.1207: real time      0.1213
    MIXING:  cpu time      0.0020: real time      0.0020
    --------------------------------------------
      LOOP:  cpu time      1.3516: real time      1.3624

 eigenvalue-minimisations  :  2328
 total energy-change (2. order) : 0.3446455E+00  (-0.1525713E+00)
 number of electron     176.0002415 magnetization      10.1630327
 augmentation part      112.0898753 magnetization       5.9022720

 Broyden mixing:
  rms(total) = 0.64849E+00    rms(broyden)= 0.64843E+00
  rms(prec ) = 0.65939E+00
  weight for this iteration     100.00

 eigenvalues of (default mixing * dielectric matrix)
  average eigenvalue GAMMA=   0.9117
  2.1306  1.0826  0.7200  0.4206  0.2048

 Free energy of the ion-electron system (eV)
  ---------------------------------------------------
  alpha Z        PSCENC =       512.83866137
  Ewald energy   TEWEN  =     95579.55324484
  -Hartree energ DENC   =   -117258.29662815
  -exchange      EXHF   =         0.00000000
  -V(xc)+E(xc)   XCENC  =       720.02845761
  PAW double counting   =     20771.65540744   -22490.51966546
  entropy T*S    EENTRO =         0.01070545
  eigenvalues    EBANDS =      -138.26480741
  atomic energy  EATOM  =     22255.32224320
  Solvation  Ediel_sol  =         0.00000000
  ---------------------------------------------------
  free energy    TOTEN  =       -47.67238111 eV

  energy without entropy =      -47.68308656  energy(sigma->0) =      -47.67594960


--------------------------------------------------------------------------------------------------------




--------------------------------------- Iteration      1(  11)  ---------------------------------------


    POTLOK:  cpu time      0.0262: real time      0.0265
    SETDIJ:  cpu time      0.0065: real time      0.0065
     EDDAV:  cpu time      1.0342: real time      1.0426
       DOS:  cpu time      0.0011: real time      0.0011
    CHARGE:  cpu time      0.1208: real time      0.1216
    MIXING:  cpu time      0.0010: real time      0.0010
    --------------------------------------------
      LOOP:  cpu time      1.1898: real time      1.1994

 eigenvalue-minimisations  :  1956
 total energy-change (2. order) :-0.1901528E+00  (-0.2873131E+00)
 number of electron     176.0002424 magnetization       8.5032778
 augmentation part      112.5925791 magnetization       4.8915214

 Broyden mixing:
  rms(total) = 0.57873E+00    rms(broyden)= 0.57866E+00
  rms(prec ) = 0.71842E+00
  weight for this iteration     100.00

 eigenvalues of (default mixing * dielectric matrix)
  average eigenvalue GAMMA=   1.0394
  3.3471  1.0709  0.6195  0.5759  0.3976  0.2252

 Free energy of the ion-electron system (eV)
  ---------------------------------------------------
  alpha Z        PSCENC =       512.83866137
  Ewald energy   TEWEN  =     95579.55324484
  -Hartree energ DENC   =   -117272.42934307
  -exchange      EXHF   =         0.00000000
  -V(xc)+E(xc)   XCENC  =       718.01530239
  PAW double counting   =     21077.70527704   -22807.62656642
  entropy T*S    EENTRO =        -0.02133389
  eigenvalues    EBANDS =      -111.22001937
  atomic energy  EATOM  =     22255.32224320
  Solvation  Ediel_sol  =         0.00000000
  ---------------------------------------------------
  free energy    TOTEN  =       -47.86253391 eV

  energy without entropy =      -47.84120002  energy(sigma->0) =      -47.85542261


--------------------------------------------------------------------------------------------------------




--------------------------------------- Iteration      1(  12)  ---------------------------------------


    POTLOK:  cpu time      0.0245: real time      0.0248
    SETDIJ:  cpu time      0.0064: real time      0.0065
     EDDAV:  cpu time      1.0490: real time      1.0577
       DOS:  cpu time      0.0011: real time      0.0011
    CHARGE:  cpu time      0.1174: real time      0.1179
    MIXING:  cpu time      0.0012: real time      0.0012
    --------------------------------------------
      LOOP:  cpu time      1.1996: real time      1.2092

 eigenvalue-minimisations  :  2000
 total energy-change (2. order) :-0.1507761E+01  (-0.1007804E+01)
 number of electron     176.0002425 magnetization       6.3956687
 augmentation part      112.6637148 magnetization       3.3406871

 Broyden mixing:
  rms(total) = 0.76622E+00    rms(broyden)= 0.76600E+00
  rms(prec ) = 0.13582E+01
  weight for this iteration     100.00

 eigenvalues of (default mixing * dielectric matrix)
  average eigenvalue GAMMA=   1.0216
  4.0181  1.0436  0.6654  0.6654  0.4054  0.2215  0.1319

 Free energy of the ion-electron system (eV)
  ---------------------------------------------------
  alpha Z        PSCENC =       512.83866137
  Ewald energy   TEWEN  =     95579.55324484
  -Hartree energ DENC   =   -117272.35242920
  -exchange      EXHF   =         0.00000000
  -V(xc)+E(xc)   XCENC  =       717.28678799
  PAW double counting   =     21229.37598736   -22965.88838618
  entropy T*S    EENTRO =         0.00175915
  eigenvalues    EBANDS =      -105.50816388
  atomic energy  EATOM  =     22255.32224320
  Solvation  Ediel_sol  =         0.00000000
  ---------------------------------------------------
  free energy    TOTEN  =       -49.37029536 eV

  energy without entropy =      -49.37205451  energy(sigma->0) =      -49.37088175


--------------------------------------------------------------------------------------------------------




--------------------------------------- Iteration      1(  13)  ---------------------------------------


    POTLOK:  cpu time      0.0246: real time      0.0258
    SETDIJ:  cpu time      0.0063: real time      0.0065
     EDDAV:  cpu time      1.1913: real time      1.2013
       DOS:  cpu time      0.0011: real time      0.0011
    CHARGE:  cpu time      0.1170: real time      0.1175
    MIXING:  cpu time      0.0012: real time      0.0012
    --------------------------------------------
      LOOP:  cpu time      1.3415: real time      1.3533

 eigenvalue-minimisations  :  2320
 total energy-change (2. order) : 0.1713767E+01  (-0.4029243E+00)
 number of electron     176.0002433 magnetization       5.1258152
 augmentation part      113.1193785 magnetization       2.2904981

 Broyden mixing:
  rms(total) = 0.48083E+00    rms(broyden)= 0.48066E+00
  rms(prec ) = 0.49861E+00
  weight for this iteration     100.00

 eigenvalues of (default mixing * dielectric matrix)
  average eigenvalue GAMMA=   1.1578
  5.3169  1.1804  0.6999  0.6999  0.6034  0.4167  0.2229  0.1227

 Free energy of the ion-electron system (eV)
  ---------------------------------------------------
  alpha Z        PSCENC =       512.83866137
  Ewald energy   TEWEN  =     95579.55324484
  -Hartree energ DENC   =   -117271.48869758
  -exchange      EXHF   =         0.00000000
  -V(xc)+E(xc)   XCENC  =       716.64114797
  PAW double counting   =     21391.27662095   -23135.72612928
  entropy T*S    EENTRO =         0.00811472
  eigenvalues    EBANDS =       -96.08173455
  atomic energy  EATOM  =     22255.32224320
  Solvation  Ediel_sol  =         0.00000000
  ---------------------------------------------------
  free energy    TOTEN  =       -47.65652837 eV

  energy without entropy =      -47.66464309  energy(sigma->0) =      -47.65923328


--------------------------------------------------------------------------------------------------------




--------------------------------------- Iteration      1(  14)  ---------------------------------------


    POTLOK:  cpu time      0.0247: real time      0.0250
    SETDIJ:  cpu time      0.0063: real time      0.0063
     EDDAV:  cpu time      1.0887: real time      1.0976
       DOS:  cpu time      0.0010: real time      0.0010
    CHARGE:  cpu time      0.1163: real time      0.1168
    MIXING:  cpu time      0.0016: real time      0.0016
    --------------------------------------------
      LOOP:  cpu time      1.2386: real time      1.2484

 eigenvalue-minimisations  :  2092
 total energy-change (2. order) :-0.2057311E+01  (-0.1144179E+00)
 number of electron     176.0002426 magnetization       3.7942717
 augmentation part      112.7082065 magnetization       1.4641064

 Broyden mixing:
  rms(total) = 0.35013E+00    rms(broyden)= 0.35008E+00
  rms(prec ) = 0.39627E+00
  weight for this iteration     100.00

 eigenvalues of (default mixing * dielectric matrix)
  average eigenvalue GAMMA=   1.4032
  7.5861  1.4759  0.8710  0.8710  0.6342  0.4395  0.4064  0.2249  0.1197

 Free energy of the ion-electron system (eV)
  ---------------------------------------------------
  alpha Z        PSCENC =       512.83866137
  Ewald energy   TEWEN  =     95579.55324484
  -Hartree energ DENC   =   -117290.80972182
  -exchange      EXHF   =         0.00000000
  -V(xc)+E(xc)   XCENC  =       716.27696455
  PAW double counting   =     21284.73397164   -23026.64428629
  entropy T*S    EENTRO =        -0.00355862
  eigenvalues    EBANDS =       -80.98135796
  atomic energy  EATOM  =     22255.32224320
  Solvation  Ediel_sol  =         0.00000000
  ---------------------------------------------------
  free energy    TOTEN  =       -49.71383909 eV

  energy without entropy =      -49.71028047  energy(sigma->0) =      -49.71265288


--------------------------------------------------------------------------------------------------------




--------------------------------------- Iteration      1(  15)  ---------------------------------------


    POTLOK:  cpu time      0.0312: real time      0.0315
    SETDIJ:  cpu time      0.0072: real time      0.0072
     EDDAV:  cpu time      0.9828: real time      0.9910
       DOS:  cpu time      0.0011: real time      0.0011
    CHARGE:  cpu time      0.1198: real time      0.1203
    MIXING:  cpu time      0.0016: real time      0.0016
    --------------------------------------------
      LOOP:  cpu time      1.1436: real time      1.1527

 eigenvalue-minimisations  :  1844
 total energy-change (2. order) :-0.2056891E+01  (-0.1917714E+00)
 number of electron     176.0002416 magnetization       2.6653244
 augmentation part      112.1604093 magnetization       1.0211891

 Broyden mixing:
  rms(total) = 0.24290E+00    rms(broyden)= 0.24274E+00
  rms(prec ) = 0.27842E+00
  weight for this iteration     100.00

 eigenvalues of (default mixing * dielectric matrix)
  average eigenvalue GAMMA=   1.6885
 10.8349  2.0399  1.0088  0.6482  0.6482  0.6298  0.4020  0.2247  0.3287  0.1196

 Free energy of the ion-electron system (eV)
  ---------------------------------------------------
  alpha Z        PSCENC =       512.83866137
  Ewald energy   TEWEN  =     95579.55324484
  -Hartree energ DENC   =   -117301.82463936
  -exchange      EXHF   =         0.00000000
  -V(xc)+E(xc)   XCENC  =       716.14808011
  PAW double counting   =     21111.05916709   -22847.55523339
  entropy T*S    EENTRO =        -0.04333394
  eigenvalues    EBANDS =       -77.26891966
  atomic energy  EATOM  =     22255.32224320
  Solvation  Ediel_sol  =         0.00000000
  ---------------------------------------------------
  free energy    TOTEN  =       -51.77072975 eV

  energy without entropy =      -51.72739581  energy(sigma->0) =      -51.75628510


--------------------------------------------------------------------------------------------------------




--------------------------------------- Iteration      1(  16)  ---------------------------------------


    POTLOK:  cpu time      0.0252: real time      0.0257
    SETDIJ:  cpu time      0.0063: real time      0.0064
     EDDAV:  cpu time      0.9740: real time      0.9820
       DOS:  cpu time      0.0013: real time      0.0013
    CHARGE:  cpu time      0.1150: real time      0.1156
    MIXING:  cpu time      0.0015: real time      0.0015
    --------------------------------------------
      LOOP:  cpu time      1.1234: real time      1.1326

 eigenvalue-minimisations  :  1832
 total energy-change (2. order) :-0.1267400E+01  (-0.1249623E+00)
 number of electron     176.0002412 magnetization       1.8001022
 augmentation part      111.9843707 magnetization       0.8091753

 Broyden mixing:
  rms(total) = 0.17763E+00    rms(broyden)= 0.17754E+00
  rms(prec ) = 0.19734E+00
  weight for this iteration     100.00

 eigenvalues of (default mixing * dielectric matrix)
  average eigenvalue GAMMA=   1.8108
 12.8063  2.3931  1.1043  0.6925  0.6925  0.5794  0.5794  0.4157  0.2244  0.3114
  0.1197

 Free energy of the ion-electron system (eV)
  ---------------------------------------------------
  alpha Z        PSCENC =       512.83866137
  Ewald energy   TEWEN  =     95579.55324484
  -Hartree energ DENC   =   -117293.97127141
  -exchange      EXHF   =         0.00000000
  -V(xc)+E(xc)   XCENC  =       715.78727139
  PAW double counting   =     20991.28899922   -22722.70326452
  entropy T*S    EENTRO =        -0.05441491
  eigenvalues    EBANDS =       -91.09959928
  atomic energy  EATOM  =     22255.32224320
  Solvation  Ediel_sol  =         0.00000000
  ---------------------------------------------------
  free energy    TOTEN  =       -53.03813011 eV

  energy without entropy =      -52.98371520  energy(sigma->0) =      -53.01999181


--------------------------------------------------------------------------------------------------------




--------------------------------------- Iteration      1(  17)  ---------------------------------------


    POTLOK:  cpu time      0.0246: real time      0.0249
    SETDIJ:  cpu time      0.0063: real time      0.0063
     EDDAV:  cpu time      0.9370: real time      0.9449
       DOS:  cpu time      0.0011: real time      0.0011
    CHARGE:  cpu time      0.1148: real time      0.1154
    MIXING:  cpu time      0.0017: real time      0.0018
    --------------------------------------------
      LOOP:  cpu time      1.0856: real time      1.0943

 eigenvalue-minimisations  :  1740
 total energy-change (2. order) :-0.8947718E+00  (-0.8147554E-01)
 number of electron     176.0002414 magnetization       1.3722709
 augmentation part      112.0528480 magnetization       0.8094256

 Broyden mixing:
  rms(total) = 0.14743E+00    rms(broyden)= 0.14733E+00
  rms(prec ) = 0.15564E+00
  weight for this iteration     100.00

 eigenvalues of (default mixing * dielectric matrix)
  average eigenvalue GAMMA=   1.8130
 13.8486  2.5820  1.1315  0.7562  0.7562  0.6143  0.6143  0.2243  0.4096  0.3768
  0.3224  0.1197

 Free energy of the ion-electron system (eV)
  ---------------------------------------------------
  alpha Z        PSCENC =       512.83866137
  Ewald energy   TEWEN  =     95579.55324484
  -Hartree energ DENC   =   -117287.57140750
  -exchange      EXHF   =         0.00000000
  -V(xc)+E(xc)   XCENC  =       715.18641699
  PAW double counting   =     20921.56767042   -22648.21485720
  entropy T*S    EENTRO =        -0.04326172
  eigenvalues    EBANDS =      -102.57161226
  atomic energy  EATOM  =     22255.32224320
  Solvation  Ediel_sol  =         0.00000000
  ---------------------------------------------------
  free energy    TOTEN  =       -53.93290186 eV

  energy without entropy =      -53.88964014  energy(sigma->0) =      -53.91848129


--------------------------------------------------------------------------------------------------------




--------------------------------------- Iteration      1(  18)  ---------------------------------------


    POTLOK:  cpu time      0.0247: real time      0.0250
    SETDIJ:  cpu time      0.0063: real time      0.0064
     EDDAV:  cpu time      0.9178: real time      0.9254
       DOS:  cpu time      0.0011: real time      0.0011
    CHARGE:  cpu time      0.1162: real time      0.1170
    MIXING:  cpu time      0.0017: real time      0.0017
    --------------------------------------------
      LOOP:  cpu time      1.0678: real time      1.0766

 eigenvalue-minimisations  :  1696
 total energy-change (2. order) :-0.4347006E+00  (-0.2980746E-01)
 number of electron     176.0002416 magnetization       1.1005340
 augmentation part      112.1523748 magnetization       0.7337024

 Broyden mixing:
  rms(total) = 0.10375E+00    rms(broyden)= 0.10369E+00
  rms(prec ) = 0.11180E+00
  weight for this iteration     100.00

 eigenvalues of (default mixing * dielectric matrix)
  average eigenvalue GAMMA=   1.8180
 14.6882  2.7262  1.0235  0.9170  0.9170  0.6949  0.6949  0.5982  0.4119  0.1197
  0.2244  0.3088  0.3088

 Free energy of the ion-electron system (eV)
  ---------------------------------------------------
  alpha Z        PSCENC =       512.83866137
  Ewald energy   TEWEN  =     95579.55324484
  -Hartree energ DENC   =   -117281.63567019
  -exchange      EXHF   =         0.00000000
  -V(xc)+E(xc)   XCENC  =       714.80617540
  PAW double counting   =     20889.47038543   -22613.35818900
  entropy T*S    EENTRO =        -0.03601337
  eigenvalues    EBANDS =      -111.32844017
  atomic energy  EATOM  =     22255.32224320
  Solvation  Ediel_sol  =         0.00000000
  ---------------------------------------------------
  free energy    TOTEN  =       -54.36760248 eV

  energy without entropy =      -54.33158911  energy(sigma->0) =      -54.35559803


--------------------------------------------------------------------------------------------------------




--------------------------------------- Iteration      1(  19)  ---------------------------------------


    POTLOK:  cpu time      0.0245: real time      0.0247
    SETDIJ:  cpu time      0.0064: real time      0.0064
     EDDAV:  cpu time      0.8823: real time      0.8895
       DOS:  cpu time      0.0011: real time      0.0011
    CHARGE:  cpu time      0.1154: real time      0.1162
    MIXING:  cpu time      0.0019: real time      0.0019
    --------------------------------------------
      LOOP:  cpu time      1.0316: real time      1.0399

 eigenvalue-minimisations  :  1616
 total energy-change (2. order) :-0.4724610E+00  (-0.2632883E-01)
 number of electron     176.0002418 magnetization       0.8412634
 augmentation part      112.2608634 magnetization       0.6244542

 Broyden mixing:
  rms(total) = 0.92108E-01    rms(broyden)= 0.92064E-01
  rms(prec ) = 0.10737E+00
  weight for this iteration     100.00

 eigenvalues of (default mixing * dielectric matrix)
  average eigenvalue GAMMA=   1.8209
 15.2079  2.8835  1.3057  1.3057  0.8078  0.8078  0.6427  0.6427  0.5208  0.4143
  0.1197  0.2244  0.3115  0.2976

 Free energy of the ion-electron system (eV)
  ---------------------------------------------------
  alpha Z        PSCENC =       512.83866137
  Ewald energy   TEWEN  =     95579.55324484
  -Hartree energ DENC   =   -117271.95665803
  -exchange      EXHF   =         0.00000000
  -V(xc)+E(xc)   XCENC  =       714.35670364
  PAW double counting   =     20871.62550310   -22593.51691229
  entropy T*S    EENTRO =        -0.02725385
  eigenvalues    EBANDS =      -123.03559547
  atomic energy  EATOM  =     22255.32224320
  Solvation  Ediel_sol  =         0.00000000
  ---------------------------------------------------
  free energy    TOTEN  =       -54.84006349 eV

  energy without entropy =      -54.81280964  energy(sigma->0) =      -54.83097888


--------------------------------------------------------------------------------------------------------




--------------------------------------- Iteration      1(  20)  ---------------------------------------


    POTLOK:  cpu time      0.0245: real time      0.0247
    SETDIJ:  cpu time      0.0062: real time      0.0063
     EDDAV:  cpu time      0.9271: real time      0.9347
       DOS:  cpu time      0.0011: real time      0.0011
    CHARGE:  cpu time      0.1186: real time      0.1191
    MIXING:  cpu time      0.0023: real time      0.0023
    --------------------------------------------
      LOOP:  cpu time      1.0798: real time      1.0883

 eigenvalue-minimisations  :  1716
 total energy-change (2. order) :-0.4342914E+00  (-0.2088275E-01)
 number of electron     176.0002419 magnetization       0.7177775
 augmentation part      112.3284013 magnetization       0.6109507

 Broyden mixing:
  rms(total) = 0.74884E-01    rms(broyden)= 0.74860E-01
  rms(prec ) = 0.76347E-01
  weight for this iteration     100.00

 eigenvalues of (default mixing * dielectric matrix)
  average eigenvalue GAMMA=   1.7955
 15.3138  2.9237  1.8117  1.3644  0.8329  0.8329  0.7143  0.7143  0.5282  0.5282
  0.4118  0.1197  0.2244  0.3184  0.2941

 Free energy of the ion-electron system (eV)
  ---------------------------------------------------
  alpha Z        PSCENC =       512.83866137
  Ewald energy   TEWEN  =     95579.55324484
  -Hartree energ DENC   =   -117260.18365723
  -exchange      EXHF   =         0.00000000
  -V(xc)+E(xc)   XCENC  =       713.95931905
  PAW double counting   =     20865.50873322   -22586.67032621
  entropy T*S    EENTRO =        -0.02124947
  eigenvalues    EBANDS =      -135.58132365
  atomic energy  EATOM  =     22255.32224320
  Solvation  Ediel_sol  =         0.00000000
  ---------------------------------------------------
  free energy    TOTEN  =       -55.27435489 eV

  energy without entropy =      -55.25310542  energy(sigma->0) =      -55.26727174


--------------------------------------------------------------------------------------------------------




--------------------------------------- Iteration      1(  21)  ---------------------------------------


    POTLOK:  cpu time      0.0253: real time      0.0256
    SETDIJ:  cpu time      0.0064: real time      0.0065
     EDDAV:  cpu time      1.0551: real time      1.0638
       DOS:  cpu time      0.0011: real time      0.0011
    CHARGE:  cpu time      0.1182: real time      0.1188
    MIXING:  cpu time      0.0022: real time      0.0022
    --------------------------------------------
      LOOP:  cpu time      1.2084: real time      1.2180

 eigenvalue-minimisations  :  1972
 total energy-change (2. order) :-0.3482574E+00  (-0.1279965E-01)
 number of electron     176.0002420 magnetization       0.6318574
 augmentation part      112.3337452 magnetization       0.5646727

 Broyden mixing:
  rms(total) = 0.76680E-01    rms(broyden)= 0.76659E-01
  rms(prec ) = 0.99959E-01
  weight for this iteration     100.00

 eigenvalues of (default mixing * dielectric matrix)
  average eigenvalue GAMMA=   1.7931
 15.2789  3.3512  2.6190  1.2204  0.8563  0.8563  0.7780  0.7780  0.5408  0.5408
  0.5035  0.4113  0.1197  0.2244  0.3159  0.2954

 Free energy of the ion-electron system (eV)
  ---------------------------------------------------
  alpha Z        PSCENC =       512.83866137
  Ewald energy   TEWEN  =     95579.55324484
  -Hartree energ DENC   =   -117246.88722841
  -exchange      EXHF   =         0.00000000
  -V(xc)+E(xc)   XCENC  =       713.64390785
  PAW double counting   =     20881.09416266   -22603.42798238
  entropy T*S    EENTRO =        -0.01673081
  eigenvalues    EBANDS =      -147.74289063
  atomic energy  EATOM  =     22255.32224320
  Solvation  Ediel_sol  =         0.00000000
  ---------------------------------------------------
  free energy    TOTEN  =       -55.62261233 eV

  energy without entropy =      -55.60588151  energy(sigma->0) =      -55.61703539


--------------------------------------------------------------------------------------------------------




--------------------------------------- Iteration      1(  22)  ---------------------------------------


    POTLOK:  cpu time      0.0255: real time      0.0258
    SETDIJ:  cpu time      0.0065: real time      0.0065
     EDDAV:  cpu time      0.9395: real time      0.9473
       DOS:  cpu time      0.0011: real time      0.0011
    CHARGE:  cpu time      0.1155: real time      0.1160
    MIXING:  cpu time      0.0022: real time      0.0022
    --------------------------------------------
      LOOP:  cpu time      1.0902: real time      1.0989

 eigenvalue-minimisations  :  1752
 total energy-change (2. order) :-0.2292318E+00  (-0.1073203E-01)
 number of electron     176.0002418 magnetization       0.4240187
 augmentation part      112.2893565 magnetization       0.3703408

 Broyden mixing:
  rms(total) = 0.49569E-01    rms(broyden)= 0.49542E-01
  rms(prec ) = 0.51336E-01
  weight for this iteration     100.00

 eigenvalues of (default mixing * dielectric matrix)
  average eigenvalue GAMMA=   1.8206
 15.2929  4.7398  2.7317  1.1519  1.1519  0.8391  0.8391  0.6945  0.5878  0.5878
  0.4846  0.4846  0.4108  0.1197  0.2244  0.3139  0.2963

 Free energy of the ion-electron system (eV)
  ---------------------------------------------------
  alpha Z        PSCENC =       512.83866137
  Ewald energy   TEWEN  =     95579.55324484
  -Hartree energ DENC   =   -117232.95467323
  -exchange      EXHF   =         0.00000000
  -V(xc)+E(xc)   XCENC  =       713.49104142
  PAW double counting   =     20898.90665295   -22623.06478627
  entropy T*S    EENTRO =        -0.01805455
  eigenvalues    EBANDS =      -159.92617389
  atomic energy  EATOM  =     22255.32224320
  Solvation  Ediel_sol  =         0.00000000
  ---------------------------------------------------
  free energy    TOTEN  =       -55.85184417 eV

  energy without entropy =      -55.83378962  energy(sigma->0) =      -55.84582599


--------------------------------------------------------------------------------------------------------




--------------------------------------- Iteration      1(  23)  ---------------------------------------


    POTLOK:  cpu time      0.0245: real time      0.0254
    SETDIJ:  cpu time      0.0063: real time      0.0064
     EDDAV:  cpu time      0.9627: real time      0.9707
       DOS:  cpu time      0.0010: real time      0.0010
    CHARGE:  cpu time      0.1143: real time      0.1148
    MIXING:  cpu time      0.0023: real time      0.0023
    --------------------------------------------
      LOOP:  cpu time      1.1111: real time      1.1206

 eigenvalue-minimisations  :  1804
 total energy-change (2. order) :-0.1709730E+00  (-0.7162338E-02)
 number of electron     176.0002418 magnetization       0.1864637
 augmentation part      112.2559971 magnetization       0.1542846

 Broyden mixing:
  rms(total) = 0.53605E-01    rms(broyden)= 0.53574E-01
  rms(prec ) = 0.78724E-01
  weight for this iteration     100.00

 eigenvalues of (default mixing * dielectric matrix)
  average eigenvalue GAMMA=   1.9245
 15.4014  6.8523  2.9312  1.3963  1.3963  0.8853  0.8853  0.6684  0.6684  0.6277
  0.5879  0.5879  0.1197  0.2244  0.4128  0.3847  0.3148  0.2958

 Free energy of the ion-electron system (eV)
  ---------------------------------------------------
  alpha Z        PSCENC =       512.83866137
  Ewald energy   TEWEN  =     95579.55324484
  -Hartree energ DENC   =   -117220.68389094
  -exchange      EXHF   =         0.00000000
  -V(xc)+E(xc)   XCENC  =       713.36932600
  PAW double counting   =     20906.62483719   -22631.82868303
  entropy T*S    EENTRO =        -0.01961341
  eigenvalues    EBANDS =      -171.19894242
  atomic energy  EATOM  =     22255.32224320
  Solvation  Ediel_sol  =         0.00000000
  ---------------------------------------------------
  free energy    TOTEN  =       -56.02281720 eV

  energy without entropy =      -56.00320380  energy(sigma->0) =      -56.01627940


--------------------------------------------------------------------------------------------------------




--------------------------------------- Iteration      1(  24)  ---------------------------------------


    POTLOK:  cpu time      0.0246: real time      0.0249
    SETDIJ:  cpu time      0.0063: real time      0.0063
     EDDAV:  cpu time      0.9875: real time      0.9958
       DOS:  cpu time      0.0011: real time      0.0011
    CHARGE:  cpu time      0.1134: real time      0.1139
    MIXING:  cpu time      0.0024: real time      0.0024
    --------------------------------------------
      LOOP:  cpu time      1.1354: real time      1.1445

 eigenvalue-minimisations  :  1864
 total energy-change (2. order) :-0.1578726E+00  (-0.5764584E-02)
 number of electron     176.0002418 magnetization       0.0813155
 augmentation part      112.2814136 magnetization       0.0704436

 Broyden mixing:
  rms(total) = 0.33993E-01    rms(broyden)= 0.33913E-01
  rms(prec ) = 0.58514E-01
  weight for this iteration     100.00

 eigenvalues of (default mixing * dielectric matrix)
  average eigenvalue GAMMA=   1.9959
 15.4021  9.1050  2.9014  1.8099  1.0846  1.0846  0.8571  0.8571  0.7198  0.6163
  0.6163  0.5619  0.5619  0.1197  0.2244  0.4124  0.3772  0.3152  0.2957

 Free energy of the ion-electron system (eV)
  ---------------------------------------------------
  alpha Z        PSCENC =       512.83866137
  Ewald energy   TEWEN  =     95579.55324484
  -Hartree energ DENC   =   -117215.44457799
  -exchange      EXHF   =         0.00000000
  -V(xc)+E(xc)   XCENC  =       713.14633498
  PAW double counting   =     20907.57993489   -22632.61703040
  entropy T*S    EENTRO =        -0.01722701
  eigenvalues    EBANDS =      -176.54227366
  atomic energy  EATOM  =     22255.32224320
  Solvation  Ediel_sol  =         0.00000000
  ---------------------------------------------------
  free energy    TOTEN  =       -56.18068978 eV

  energy without entropy =      -56.16346278  energy(sigma->0) =      -56.17494745


--------------------------------------------------------------------------------------------------------




--------------------------------------- Iteration      1(  25)  ---------------------------------------


    POTLOK:  cpu time      0.0245: real time      0.0252
    SETDIJ:  cpu time      0.0064: real time      0.0065
     EDDAV:  cpu time      1.0149: real time      1.0232
       DOS:  cpu time      0.0011: real time      0.0011
    CHARGE:  cpu time      0.1135: real time      0.1140
    MIXING:  cpu time      0.0026: real time      0.0027
    --------------------------------------------
      LOOP:  cpu time      1.1631: real time      1.1726

 eigenvalue-minimisations  :  1928
 total energy-change (2. order) :-0.1259542E+00  (-0.2491888E-02)
 number of electron     176.0002419 magnetization       0.0384069
 augmentation part      112.3104960 magnetization       0.0390705

 Broyden mixing:
  rms(total) = 0.16397E-01    rms(broyden)= 0.16353E-01
  rms(prec ) = 0.24199E-01
  weight for this iteration     100.00

 eigenvalues of (default mixing * dielectric matrix)
  average eigenvalue GAMMA=   2.0238
 15.5022 10.1261  2.9629  2.3310  1.1658  1.1658  0.8642  0.8642  0.7332  0.7332
  0.6520  0.5455  0.5455  0.5452  0.1197  0.2244  0.4118  0.2956  0.3154  0.3735

 Free energy of the ion-electron system (eV)
  ---------------------------------------------------
  alpha Z        PSCENC =       512.83866137
  Ewald energy   TEWEN  =     95579.55324484
  -Hartree energ DENC   =   -117209.50263196
  -exchange      EXHF   =         0.00000000
  -V(xc)+E(xc)   XCENC  =       713.02356226
  PAW double counting   =     20887.99575795   -22611.48734926
  entropy T*S    EENTRO =        -0.01993695
  eigenvalues    EBANDS =      -184.03019548
  atomic energy  EATOM  =     22255.32224320
  Solvation  Ediel_sol  =         0.00000000
  ---------------------------------------------------
  free energy    TOTEN  =       -56.30664403 eV

  energy without entropy =      -56.28670708  energy(sigma->0) =      -56.29999838


--------------------------------------------------------------------------------------------------------




--------------------------------------- Iteration      1(  26)  ---------------------------------------


    POTLOK:  cpu time      0.0246: real time      0.0256
    SETDIJ:  cpu time      0.0062: real time      0.0063
     EDDAV:  cpu time      0.8203: real time      0.8299
       DOS:  cpu time      0.0011: real time      0.0011
[...]
     58      -0.6657      1.00000
     59      -0.6418      1.00000
     60      -0.6109      1.00000
     61      -0.5948      1.00000
     62      -0.5719      1.00000
     63      -0.4198      1.00000
     64      -0.3155      1.00000
     65      -0.2981      1.00000
     66      -0.2741      1.00000
     67      -0.1608      1.00000
     68      -0.1573      1.00000
     69      -0.1441      1.00000
     70      -0.0972      1.00000
     71      -0.0773      1.00000
     72       0.0151      1.00000
     73       0.0169      1.00000
     74       0.0223      1.00000
     75       0.0272      1.00000
     76       0.0443      1.00000
     77       0.0538      1.00000
     78       0.1068      1.00000
     79       0.1325      1.00000
     80       0.1350      1.00000
     81       0.1531      1.00000
     82       0.1553      1.00000
     83       0.1777      1.00000
     84       0.1901      1.00000
     85       0.8883      1.00000
     86       1.6865      0.94869
     87       1.6902      0.94153
     88       1.9075      0.16723
     89       1.9087      0.16377
     90       2.2494     -0.00487
     91       2.2839     -0.00252
     92       2.2865     -0.00239
     93       2.7216     -0.00000
     94       2.7323     -0.00000
     95       3.7654     -0.00000
     96       4.7795     -0.00000
     97       5.3268     -0.00000
     98       5.3735     -0.00000
     99       5.7814     -0.00000
    100       5.7875     -0.00000
    101       6.7433     -0.00000
    102       6.7584     -0.00000
    103       6.8553     -0.00000
    104       7.2212     -0.00000
    105       7.7944      0.00000
    106       8.2187      0.00000
    107       8.2633      0.00000
    108       8.7460      0.00000
    109       8.8232      0.00000
    110       8.9881      0.00000
    111       9.9149      0.00000
    112       9.9272      0.00000
    113       9.9973      0.00000
    114      10.4687      0.00000
    115      10.8743      0.00000
    116      11.2440      0.00000


--------------------------------------------------------------------------------------------------------


 soft charge-density along one line, spin component           1
         0         1         2         3         4         5         6         7         8         9
 total charge-density along one line
 
 soft charge-density along one line, spin component           2
         0         1         2         3         4         5         6         7         8         9
 total charge-density along one line
 
 pseudopotential strength for first ion, spin component:           1
 -6.962  -0.000  -0.000  -0.000  -0.000  -1.660   0.000   0.000
 -0.000  -6.900  -0.000   0.000   0.000   0.000  -1.708   0.000
 -0.000  -0.000  -6.882  -0.000  -0.000   0.000   0.000  -1.722
 -0.000   0.000  -0.000  -6.900  -0.000   0.000  -0.000   0.000
 -0.000   0.000  -0.000  -0.000  -6.936   0.000  -0.000  -0.000
 -1.660   0.000   0.000   0.000   0.000   8.154  -0.000  -0.000
  0.000  -1.708   0.000  -0.000  -0.000  -0.000   8.189  -0.000
  0.000   0.000  -1.722   0.000  -0.000  -0.000  -0.000   8.200
  0.000  -0.000   0.000  -1.708   0.000  -0.000   0.000  -0.000
  0.000  -0.000  -0.000   0.000  -1.678  -0.000   0.000   0.000
 -0.000   0.000  -0.009   0.000   0.000  -0.000   0.000   0.003
 -0.000   0.000  -0.017   0.000   0.000  -0.000   0.000   0.006
  0.000  -0.010  -0.000   0.000  -0.000  -0.000   0.010   0.000
  0.000   0.000  -0.011   0.000  -0.000   0.000  -0.000   0.010
  0.000   0.000  -0.000  -0.010   0.000  -0.000   0.000   0.000
  0.000  -0.011  -0.000  -0.000  -0.000   0.000   0.012  -0.000
 -0.000   0.000  -0.013   0.000   0.000   0.000   0.000   0.011
  0.000  -0.000  -0.000  -0.011   0.000   0.000   0.000  -0.000
 pseudopotential strength for first ion, spin component:           2
 -6.962  -0.000  -0.000  -0.000   0.000  -1.660   0.000   0.000
 -0.000  -6.900  -0.000   0.000   0.000   0.000  -1.708   0.000
 -0.000  -0.000  -6.882  -0.000  -0.000   0.000   0.000  -1.722
 -0.000   0.000  -0.000  -6.900  -0.000   0.000  -0.000   0.000
  0.000   0.000  -0.000  -0.000  -6.936  -0.000  -0.000  -0.000
 -1.660   0.000   0.000   0.000  -0.000   8.154  -0.000  -0.000
  0.000  -1.708   0.000  -0.000  -0.000  -0.000   8.189  -0.000
  0.000   0.000  -1.722   0.000  -0.000  -0.000  -0.000   8.200
  0.000  -0.000   0.000  -1.708   0.000  -0.000   0.000  -0.000
 -0.000  -0.000  -0.000   0.000  -1.678   0.000   0.000   0.000
 -0.000   0.000  -0.009   0.000   0.000  -0.000   0.000   0.003
 -0.000   0.000  -0.017   0.000   0.000  -0.000   0.000   0.006
  0.000  -0.010  -0.000  -0.000  -0.000  -0.000   0.010   0.000
 -0.000   0.000  -0.011   0.000  -0.000  -0.000  -0.000   0.010
  0.000  -0.000  -0.000  -0.010   0.000  -0.000  -0.000   0.000
  0.000  -0.011  -0.000   0.000  -0.000   0.000   0.012  -0.000
  0.000   0.000  -0.013   0.000   0.000  -0.000   0.000   0.011
  0.000   0.000  -0.000  -0.011   0.000   0.000  -0.000  -0.000
 total augmentation occupancy for first ion, spin component:           1
  1.895  -0.000   0.000   0.000   0.000  -0.003   0.000   0.000  -0.000   0.000  -0.000   0.000   0.000   0.000  -0.000  -0.000
 -0.000   1.931  -0.000   0.000   0.000   0.000  -0.026   0.000   0.000  -0.000   0.000   0.000   0.029   0.000  -0.000  -0.014
  0.000  -0.000   1.937   0.000   0.000   0.000  -0.000  -0.034  -0.000   0.000   0.023   0.007   0.000   0.039   0.000   0.000
 -0.000   0.000   0.000   1.931   0.000   0.000   0.000   0.000  -0.026   0.000   0.000  -0.000   0.000   0.000   0.029   0.000
  0.000  -0.000   0.000   0.000   1.924   0.000   0.000  -0.000   0.000  -0.032   0.000  -0.000   0.000   0.000  -0.000  -0.000
 -0.003   0.000   0.000   0.000  -0.000   0.011   0.000  -0.000  -0.000  -0.000   0.000  -0.000  -0.000   0.000  -0.000   0.000
 -0.000  -0.026  -0.000   0.000   0.000   0.000   0.010   0.000   0.000   0.000   0.000  -0.000   0.022   0.000  -0.000  -0.001
  0.000   0.000  -0.034   0.000   0.000  -0.000   0.000   0.011   0.000   0.000  -0.036   0.001   0.000   0.018   0.000   0.000
  0.000   0.000  -0.000  -0.026  -0.000  -0.000   0.000  -0.000   0.010  -0.000   0.000   0.000  -0.000   0.000   0.022  -0.000
  0.000   0.000   0.000   0.000  -0.032   0.000  -0.000   0.000   0.000   0.011   0.000   0.000   0.000   0.000  -0.000   0.000
 -0.000   0.000   0.023  -0.000   0.000   0.000   0.000  -0.036   0.000  -0.000   1.636  -0.122   0.000   0.152   0.000   0.000
  0.000  -0.000   0.007   0.000  -0.000   0.000  -0.000   0.001  -0.000   0.000  -0.122   0.015   0.000  -0.025   0.000   0.000
 -0.000   0.029   0.000   0.000   0.000   0.000   0.022  -0.000   0.000   0.000   0.000   0.000   0.175   0.000   0.000  -0.011
  0.000   0.000   0.039  -0.000  -0.000   0.000   0.000   0.018   0.000   0.000   0.152  -0.025   0.000   0.114  -0.000   0.000
  0.000   0.000   0.000   0.029   0.000   0.000   0.000   0.000   0.022  -0.000  -0.000  -0.000  -0.000  -0.000   0.175  -0.000
  0.000  -0.014   0.000   0.000  -0.000   0.000  -0.001   0.000   0.000  -0.000  -0.000   0.000  -0.011   0.000   0.000   0.001
  0.000   0.000  -0.016   0.000   0.000   0.000   0.000  -0.001  -0.000   0.000  -0.022   0.003   0.000  -0.008   0.000   0.000
  0.000  -0.000   0.000  -0.014  -0.000  -0.000   0.000  -0.000  -0.001   0.000   0.000  -0.000   0.000   0.000  -0.011   0.000
 total augmentation occupancy for first ion, spin component:           2
  0.000  -0.000   0.000   0.000  -0.000   0.000   0.000   0.000   0.000   0.000   0.000   0.000  -0.000   0.000   0.000   0.000
 -0.000   0.000  -0.000   0.000   0.000  -0.000   0.000   0.000  -0.000   0.000  -0.000   0.000  -0.000  -0.000   0.000   0.000
  0.000  -0.000  -0.000   0.000   0.000   0.000   0.000   0.000   0.000   0.000  -0.000  -0.000   0.000  -0.000   0.000   0.000
  0.000   0.000  -0.000   0.000   0.000   0.000   0.000   0.000   0.000   0.000  -0.000   0.000   0.000   0.000  -0.000   0.000
  0.000   0.000   0.000   0.000   0.000  -0.000  -0.000   0.000   0.000   0.000   0.000   0.000  -0.000   0.000  -0.000   0.000
  0.000   0.000   0.000   0.000   0.000  -0.000   0.000   0.000  -0.000  -0.000   0.000   0.000   0.000   0.000   0.000   0.000
  0.000   0.000   0.000   0.000  -0.000   0.000  -0.000   0.000   0.000   0.000   0.000   0.000  -0.000  -0.000   0.000   0.000
  0.000   0.000   0.000  -0.000   0.000   0.000   0.000   0.000   0.000  -0.000  -0.000   0.000  -0.000   0.000   0.000   0.000
  0.000  -0.000   0.000   0.000   0.000  -0.000   0.000   0.000  -0.000  -0.000   0.000  -0.000   0.000   0.000  -0.000  -0.000
 -0.000   0.000   0.000  -0.000   0.000   0.000  -0.000  -0.000   0.000   0.000   0.000   0.000   0.000   0.000  -0.000  -0.000
  0.000   0.000  -0.000   0.000   0.000   0.000   0.000  -0.000   0.000   0.000   0.000   0.000   0.000   0.000   0.000  -0.000
  0.000   0.000  -0.000   0.000   0.000   0.000  -0.000   0.000   0.000   0.000   0.000   0.000   0.000   0.000   0.000  -0.000
 -0.000  -0.000   0.000   0.000   0.000   0.000  -0.000  -0.000   0.000   0.000  -0.000  -0.000   0.000  -0.000   0.000   0.000
  0.000  -0.000  -0.000   0.000   0.000   0.000  -0.000   0.000   0.000   0.000   0.000   0.000  -0.000  -0.000   0.000   0.000
  0.000   0.000   0.000  -0.000   0.000   0.000   0.000   0.000  -0.000   0.000   0.000   0.000   0.000   0.000   0.000  -0.000
  0.000   0.000   0.000   0.000   0.000   0.000   0.000   0.000  -0.000  -0.000  -0.000  -0.000   0.000   0.000  -0.000   0.000
  0.000   0.000   0.000  -0.000   0.000   0.000   0.000   0.000   0.000   0.000   0.000   0.000   0.000   0.000   0.000  -0.000
 -0.000  -0.000   0.000   0.000   0.000   0.000   0.000   0.000   0.000  -0.000   0.000   0.000   0.000  -0.000   0.000   0.000


------------------------ aborting loop because EDIFF is reached ----------------------------------------



 DIPCOR: dipole corrections for dipol
 direction  3 min pos   202,
 dipolmoment           0.000000      0.000000     -0.004329 electrons x Angstroem
 Tr[quadrupol]      -577.611334

 energy correction for charged system         0.000000 eV
 dipol+quadrupol energy correction            0.000005 eV
 added-field ion interaction          0.000000 eV  (added to PSCEN)

 
  *************** adding dipol energy to TOTEN NOW **************** 
    CHARGE:  cpu time      0.1187: real time      0.1193
    FORLOC:  cpu time      0.0019: real time      0.0019
    FORNL :  cpu time      0.5735: real time      0.5760
    STRESS:  cpu time      0.4960: real time      0.4987
    FORCOR:  cpu time      0.0261: real time      0.0264
    FORHAR:  cpu time      0.0044: real time      0.0044
    MIXING:  cpu time      0.0008: real time      0.0008
    OFIELD:  cpu time      0.0000: real time      0.0000

 ---------------------------------------------------------------------------------------------

         DFTD3 V3.0 Rev 1        
 Edisp (eV)   -6.72945

 E6    (eV) :    -2.7456
 E8    (eV) :    -3.9839
 % E8        : 59.20
    FORVDW:  cpu time      0.0756: real time      0.0760

  FORCE on cell =-STRESS in cart. coord.  units (eV):
  Direction    XX          YY          ZZ          XY          YZ          ZX
  --------------------------------------------------------------------------------------
  Alpha Z   512.83866   512.83866   512.83866
  Ewald  115478.67740115478.67740************    -0.00000     0.00000     0.00000
  Hartree121711.93303121711.93303************    -0.00000    -0.00000    -0.00000
  E(xc)   -1028.76155 -1028.76155 -1029.75191     0.00000     0.00000     0.00000
  Local  ************************243121.99559     0.00000    -0.00000    -0.00000
  n-local  -328.22138  -348.39596  -339.04256     6.57361     0.00000    -0.00000
  augment  1513.68625  1513.68625  1518.58368    -0.00000     0.00000     0.00000
  Kinetic  1452.89795  1420.63658  1440.81979    -5.07363    -0.00000     0.00000
  Fock        0.00000     0.00000     0.00000     0.00000     0.00000     0.00000
  vdW        -8.15966    -8.15966    -6.42618     0.00000     0.00000     0.00000
  -------------------------------------------------------------------------------------
  Total      -4.58791    -4.58791    -1.78555     0.00000     0.00000     0.00000
  in kB     -20.13512   -20.13512    -7.83629     0.00000     0.00000     0.00000
  external pressure =      -16.04 kB  Pullay stress =        0.00 kB


 VOLUME and BASIS-vectors are now :
 -----------------------------------------------------------------------------
  energy-cutoff  :      400.00
  volume of cell :      365.07
      direct lattice vectors                 reciprocal lattice vectors
     3.630000114  0.000000000  0.000000000     0.275482085  0.000000000  0.000000000
     0.000000000  3.630000114  0.000000000     0.000000000  0.275482085  0.000000000
     0.000000000  0.000000000 27.704999924     0.000000000  0.000000000  0.036094568

  length of vectors
     3.630000114  3.630000114 27.704999924     0.275482085  0.275482085  0.036094568


 FORCES acting on ions
    electron-ion (+dipol)            ewald-force                    non-local-force                 convergence-correction
 -----------------------------------------------------------------------------------------------
   -.696E-13 0.698E-12 0.564E+04   -.923E-07 -.923E-07 -.564E+04   0.000E+00 0.000E+00 -.291E+01   -.323E-11 -.326E-11 -.274E+00
   0.774E-06 0.774E-06 0.564E+04   0.923E-07 0.923E-07 -.564E+04   -.827E-24 -.165E-23 -.291E+01   0.851E-11 0.871E-11 -.274E+00
   -.324E-13 0.753E-06 0.412E+04   -.127E-06 0.127E-06 -.411E+04   0.662E-23 0.331E-23 -.139E+01   -.802E-10 0.166E-10 -.122E+00
   0.753E-06 0.247E-11 0.412E+04   0.127E-06 -.127E-06 -.411E+04   -.662E-23 -.827E-23 -.139E+01   0.166E-10 -.797E-10 -.122E+00
   -.206E-13 -.934E-12 0.248E+04   -.132E-06 -.132E-06 -.248E+04   -.331E-23 0.000E+00 -.145E+00   -.823E-11 -.805E-11 0.314E+00
   0.751E-06 0.751E-06 0.248E+04   0.132E-06 0.132E-06 -.248E+04   -.331E-23 0.000E+00 -.145E+00   -.384E-10 -.389E-10 0.314E+00
   -.250E-13 0.749E-06 0.832E+03   -.134E-06 0.134E-06 -.832E+03   0.331E-23 -.331E-23 -.981E-01   0.401E-10 -.617E-10 0.590E+00
   0.749E-06 -.225E-13 0.832E+03   0.134E-06 -.134E-06 -.832E+03   -.827E-24 0.662E-23 -.981E-01   -.618E-10 0.399E-10 0.590E+00
   -.272E-13 -.250E-12 -.829E+03   -.133E-06 -.133E-06 0.828E+03   0.000E+00 0.000E+00 0.327E-02   -.199E-10 -.197E-10 0.929E+00
   0.750E-06 0.750E-06 -.829E+03   0.133E-06 0.133E-06 0.828E+03   0.000E+00 0.910E-23 0.327E-02   -.548E-10 -.546E-10 0.929E+00
   -.413E-13 0.752E-06 -.247E+04   -.131E-06 0.131E-06 0.247E+04   0.662E-23 0.000E+00 0.935E-02   0.831E-10 -.240E-10 0.857E+00
   0.752E-06 -.111E-12 -.247E+04   0.131E-06 -.131E-06 0.247E+04   -.662E-23 0.000E+00 0.935E-02   -.240E-10 0.830E-10 0.857E+00
   -.275E-13 -.676E-12 -.410E+04   -.130E-06 -.130E-06 0.410E+04   -.182E-22 0.000E+00 0.120E+01   0.267E-09 0.267E-09 0.329E+00
   0.751E-06 0.751E-06 -.410E+04   0.130E-06 0.130E-06 0.410E+04   -.331E-23 0.000E+00 0.120E+01   -.120E-09 -.119E-09 0.329E+00
   -.330E-13 0.772E-06 -.567E+04   -.963E-07 0.963E-07 0.567E+04   0.331E-23 0.000E+00 0.335E+01   -.336E-10 -.174E-12 -.466E+00
   0.772E-06 0.220E-11 -.567E+04   0.963E-07 -.963E-07 0.567E+04   -.993E-23 -.132E-22 0.335E+01   -.395E-12 -.338E-10 -.466E+00
 -----------------------------------------------------------------------------------------------
   0.605E-05 0.605E-05 -.439E+01   0.962E-13 0.363E-13 0.182E-11   -.331E-22 -.744E-23 0.524E-01   -.289E-10 -.281E-10 0.431E+01
 
 
 POSITION                                       TOTAL-FORCE (eV/Angst)
 -----------------------------------------------------------------------------------
      0.00000      0.00000      0.00000         0.000000     -0.000000      0.253126
      1.81500      1.81500      0.00000        -0.000000     -0.000000      0.253126
      0.00000      1.81500      1.81500        -0.000000     -0.000000     -0.265407
      1.81500      0.00000      1.81500        -0.000000      0.000000     -0.265407
      0.00000      0.00000      3.56733         0.000000      0.000000      0.010847
      1.81500      1.81500      3.56733         0.000000     -0.000000      0.010847
      0.00000      1.81500      5.31747         0.000000      0.000000      0.008245
      1.81500     -0.00000      5.31747         0.000000      0.000000      0.008245
      0.00000     -0.00000      7.03888        -0.000000     -0.000000      0.011192
      1.81500      1.81500      7.03888         0.000000      0.000000      0.011192
     -0.00000      1.81500      8.79574         0.000000      0.000000      0.001353
      1.81500     -0.00000      8.79574        -0.000000      0.000000      0.001353
     -0.00000      0.00000     10.56453         0.000000      0.000000     -0.017496
      1.81500      1.81500     10.56453         0.000000      0.000000     -0.017496
     -0.00000      1.81500     12.31212         0.000000      0.000000     -0.001860
      1.81500      0.00000     12.31212         0.000000     -0.000000     -0.001860
 -----------------------------------------------------------------------------------
    total drift:                                0.000006      0.000006     -0.022686


--------------------------------------------------------------------------------------------------------



  FREE ENERGIE OF THE ION-ELECTRON SYSTEM (eV)
  ---------------------------------------------------
  free  energy   TOTEN  =       -63.12424886 eV

  energy  without entropy=      -63.11547439  energy(sigma->0) =      -63.12132404
 
 d Force = 0.5834176E-03[ 0.160E-03, 0.101E-02]  d Energy = 0.6355103E-03-0.521E-04
 d Force =-0.1015394E+03[-0.102E+03,-0.101E+03]  d Ewald  =-0.1015395E+03 0.151E-04


--------------------------------------------------------------------------------------------------------


    POTLOK:  cpu time      0.0321: real time      0.0322


--------------------------------------------------------------------------------------------------------


 stress matrix after NEB project (eV)
     -4.58791      0.00000      0.00000
      0.00000     -4.58791      0.00000
      0.00000      0.00000     -1.78555
  FORCES: max atom, RMS     0.017496    0.008820
  FORCE total and by dimension    0.035278    0.017496
  Stress total and by dimension    6.729491    4.587912
 Conjugate gradient step on ions:
 trial-energy change:   -0.000636  1 .order   -0.000583   -0.001007   -0.000160
  (g-gl).g = 0.437E-03      g.g   = 0.484E-03  gl.gl    = 0.164E-02
 g(Force)  = 0.484E-03   g(Stress)= 0.000E+00 ortho     = 0.373E-05
 gamma     =   0.26615
 trial     =   2.07592
 opt step  =   2.46750  (harmonic =   2.46750) maximal distance =0.00310206
 next E    =   -63.124212   (d E  =  -0.00060)


--------------------------------------------------------------------------------------------------------


  
 reached required accuracy - stopping structural energy minimisation
     LOOP+:  cpu time      5.4259: real time      5.5729
    4ORBIT:  cpu time      0.0000: real time      0.0000

 total amount of memory used by VASP MPI-rank0    38198. kBytes
=======================================================================

   base      :      30000. kBytes
   nonl-proj :        919. kBytes
   fftplans  :        968. kBytes
   grid      :       2268. kBytes
   one-center:        124. kBytes
   wavefun   :       3919. kBytes
 
  
  
 General timing and accounting informations for this job:
 ========================================================
  
                  Total CPU time used (sec):      275.187
                            User time (sec):      267.645
                          System time (sec):        7.542
                         Elapsed time (sec):      286.482
  
                   Maximum memory used (kb):      243384.
                   Average memory used (kb):          N/A
  
                          Minor page faults:       219311
                          Major page faults:         6631
                 Voluntary context switches:         4772
