unknown system                          
           1
     3.630000    0.000000    0.000000
     0.000000    3.630000    0.000000
     0.000000    0.000000   27.705000
   Cu
    16
Direct configuration=     1
   0.00000000  0.00000000  0.00000000
   0.50000000  0.50000000  0.00000000
   0.00000000  0.50000000  0.06551164
   0.50000000  0.00000000  0.06551164
   0.00000000  0.00000000  0.13102328
   0.50000000  0.50000000  0.13102328
   0.00000000  0.50000000  0.19653492
   0.50000000  0.00000000  0.19653492
   0.00000000  0.00000000  0.26204657
   0.50000000  0.50000000  0.26204657
   0.00000000  0.50000000  0.32755821
   0.50000000  0.00000000  0.32755821
   0.00000000  0.00000000  0.39306985
   0.50000000  0.50000000  0.39306985
   0.00000000  0.50000000  0.45858149
   0.50000000  0.00000000  0.45858149
Direct configuration=     2
   0.00000000  0.00000000  0.00000000
   0.50000000  0.50000000  0.00000000
   0.00000000  0.50000000  0.06551164
   0.50000000  0.00000000  0.06551164
   0.00000000 -0.00000000  0.13107111
   0.50000000  0.50000000  0.13107111
   0.00000000  0.50000000  0.19671096
   0.50000000 -0.00000000  0.19671096
   0.00000000 -0.00000000  0.26186141
   0.50000000  0.50000000  0.26186141
   0.00000000  0.50000000  0.32753931
   0.50000000  0.00000000  0.32753931
  -0.00000000  0.00000000  0.39308297
   0.50000000  0.50000000  0.39308297
  -0.00000000  0.50000000  0.45801928
   0.50000000  0.00000000  0.45801928
Direct configuration=     3
   0.00000000  0.00000000  0.00000000
   0.50000000  0.50000000  0.00000000
   0.00000000  0.50000000  0.06551164
   0.50000000  0.00000000  0.06551164
   0.00000000 -0.00000000  0.13119581
   0.50000000  0.50000000  0.13119581
   0.00000000  0.50000000  0.19716989
   0.50000000 -0.00000000  0.19716989
   0.00000000 -0.00000000  0.26137870
   0.50000000  0.50000000  0.26137870
   0.00000000  0.50000000  0.32749005
   0.50000000  0.00000000  0.32749005
  -0.00000000  0.00000000  0.39311717
   0.50000000  0.50000000  0.39311717
  -0.00000000  0.50000000  0.45655360
   0.50000000  0.00000000  0.45655360
Direct configuration=     4
   0.00000000  0.00000000  0.00000000
   0.50000000  0.50000000  0.00000000
   0.00000000  0.50000000  0.06551164
   0.50000000  0.00000000  0.06551164
   0.00000000 -0.00000000  0.13122882
   0.50000000  0.50000000  0.13122882
   0.00000000  0.50000000  0.19729138
   0.50000000 -0.00000000  0.19729138
   0.00000000 -0.00000000  0.26125091
   0.50000000  0.50000000  0.26125091
   0.00000000  0.50000000  0.32747701
   0.50000000  0.00000000  0.32747701
  -0.00000000  0.00000000  0.39312623
   0.50000000  0.50000000  0.39312623
  -0.00000000  0.50000000  0.45616558
   0.50000000  0.00000000  0.45616558
Direct configuration=     5
   0.00000000  0.00000000  0.00000000
   0.50000000  0.50000000  0.00000000
   0.00000000  0.50000000  0.06551164
   0.50000000  0.00000000  0.06551164
   0.00000000 -0.00000000  0.13139274
   0.50000000  0.50000000  0.13139274
   0.00000000  0.50000000  0.19721777
   0.50000000 -0.00000000  0.19721777
   0.00000000 -0.00000000  0.26129946
   0.50000000  0.50000000  0.26129946
  -0.00000000  0.50000000  0.32730375
   0.50000000  0.00000000  0.32730375
  -0.00000000  0.00000000  0.39259216
   0.50000000  0.50000000  0.39259216
  -0.00000000  0.50000000  0.45548139
   0.50000000  0.00000000  0.45548139
Direct configuration=     6
   0.00000000  0.00000000  0.00000000
   0.50000000  0.50000000  0.00000000
   0.00000000  0.50000000  0.06551164
   0.50000000  0.00000000  0.06551164
   0.00000000 -0.00000000  0.13188452
   0.50000000  0.50000000  0.13188452
   0.00000000  0.50000000  0.19699693
   0.50000000 -0.00000000  0.19699693
   0.00000000 -0.00000000  0.26144510
   0.50000000  0.50000000  0.26144510
  -0.00000000  0.50000000  0.32678398
   0.50000000  0.00000000  0.32678398
  -0.00000000  0.00000000  0.39098997
   0.50000000  0.50000000  0.39098997
  -0.00000000  0.50000000  0.45342880
   0.50000000  0.00000000  0.45342880
Direct configuration=     7
   0.00000000  0.00000000  0.00000000
   0.50000000  0.50000000  0.00000000
   0.00000000  0.50000000  0.06551164
   0.50000000  0.00000000  0.06551164
   0.00000000 -0.00000000  0.13286806
   0.50000000  0.50000000  0.13286806
   0.00000000  0.50000000  0.19655526
   0.50000000 -0.00000000  0.19655526
   0.00000000 -0.00000000  0.26173637
   0.50000000  0.50000000  0.26173637
  -0.00000000  0.50000000  0.32574445
   0.50000000 -0.00000000  0.32574445
   0.00000000  0.00000000  0.38778558
   0.50000000  0.50000000  0.38778558
  -0.00000000  0.50000000  0.44932364
   0.50000000  0.00000000  0.44932364
Direct configuration=     8
   0.00000000  0.00000000  0.00000000
   0.50000000  0.50000000  0.00000000
   0.00000000  0.50000000  0.06551164
   0.50000000  0.00000000  0.06551164
   0.00000000 -0.00000000  0.13220607
   0.50000000  0.50000000  0.13220607
   0.00000000  0.50000000  0.19685253
   0.50000000 -0.00000000  0.19685253
   0.00000000 -0.00000000  0.26154032
   0.50000000  0.50000000  0.26154032
  -0.00000000  0.50000000  0.32644413
   0.50000000  0.00000000  0.32644413
   0.00000000  0.00000000  0.38994234
   0.50000000  0.50000000  0.38994234
  -0.00000000  0.50000000  0.45208669
   0.50000000  0.00000000  0.45208669
Direct configuration=     9
   0.00000000  0.00000000  0.00000000
   0.50000000  0.50000000  0.00000000
   0.00000000  0.50000000  0.06551164
   0.50000000  0.00000000  0.06551164
   0.00000000 -0.00000000  0.13195552
   0.50000000  0.50000000  0.13195552
   0.00000000  0.50000000  0.19708299
   0.50000000 -0.00000000  0.19708299
   0.00000000 -0.00000000  0.26133034
   0.50000000  0.50000000  0.26133034
  -0.00000000  0.50000000  0.32570250
   0.50000000 -0.00000000  0.32570250
   0.00000000  0.00000000  0.38892592
   0.50000000  0.50000000  0.38892592
  -0.00000000  0.50000000  0.45145385
   0.50000000  0.00000000  0.45145385
Direct configuration=    10
   0.00000000  0.00000000  0.00000000
   0.50000000  0.50000000  0.00000000
   0.00000000  0.50000000  0.06551164
   0.50000000  0.00000000  0.06551164
   0.00000000 -0.00000000  0.13159728
   0.50000000  0.50000000  0.13159728
   0.00000000  0.50000000  0.19741251
   0.50000000 -0.00000000  0.19741251
   0.00000000 -0.00000000  0.26103009
   0.50000000  0.50000000  0.26103009
  -0.00000000  0.50000000  0.32464209
   0.50000000 -0.00000000  0.32464209
   0.00000000  0.00000000  0.38747259
   0.50000000  0.50000000  0.38747259
  -0.00000000  0.50000000  0.45054899
   0.50000000  0.00000000  0.45054899
Direct configuration=    11
   0.00000000  0.00000000  0.00000000
   0.50000000  0.50000000  0.00000000
   0.00000000  0.50000000  0.06551164
   0.50000000  0.00000000  0.06551164
   0.00000000 -0.00000000  0.13150610
   0.50000000  0.50000000  0.13150610
   0.00000000  0.50000000  0.19708909
   0.50000000 -0.00000000  0.19708909
   0.00000000 -0.00000000  0.26044497
   0.50000000  0.50000000  0.26044497
  -0.00000000  0.50000000  0.32378080
   0.50000000 -0.00000000  0.32378080
  -0.00000000  0.00000000  0.38714580
   0.50000000  0.50000000  0.38714580
  -0.00000000  0.50000000  0.45003943
   0.50000000  0.00000000  0.45003943
Direct configuration=    12
   0.00000000  0.00000000  0.00000000
   0.50000000  0.50000000  0.00000000
   0.00000000  0.50000000  0.06551164
   0.50000000  0.00000000  0.06551164
   0.00000000 -0.00000000  0.13130233
   0.50000000  0.50000000  0.13130233
   0.00000000  0.50000000  0.19636635
   0.50000000 -0.00000000  0.19636635
   0.00000000 -0.00000000  0.25913737
   0.50000000  0.50000000  0.25913737
  -0.00000000  0.50000000  0.32185606
   0.50000000 -0.00000000  0.32185606
  -0.00000000  0.00000000  0.38641553
   0.50000000  0.50000000  0.38641553
  -0.00000000  0.50000000  0.44890072
   0.50000000  0.00000000  0.44890072
Direct configuration=    13
   0.00000000  0.00000000  0.00000000
   0.50000000  0.50000000  0.00000000
   0.00000000  0.50000000  0.06551164
   0.50000000  0.00000000  0.06551164
   0.00000000 -0.00000000  0.13121037
   0.50000000  0.50000000  0.13121037
   0.00000000  0.50000000  0.19602460
   0.50000000 -0.00000000  0.19602460
   0.00000000 -0.00000000  0.25866724
   0.50000000  0.50000000  0.25866724
  -0.00000000  0.50000000  0.32152852
   0.50000000 -0.00000000  0.32152852
  -0.00000000  0.00000000  0.38601305
   0.50000000  0.50000000  0.38601305
  -0.00000000  0.50000000  0.44864999
   0.50000000  0.00000000  0.44864999
Direct configuration=    14
   0.00000000  0.00000000  0.00000000
   0.50000000  0.50000000  0.00000000
   0.00000000  0.50000000  0.06551164
   0.50000000  0.00000000  0.06551164
   0.00000000 -0.00000000  0.13093451
   0.50000000  0.50000000  0.13093451
   0.00000000  0.50000000  0.19499937
   0.50000000 -0.00000000  0.19499937
   0.00000000 -0.00000000  0.25725683
   0.50000000  0.50000000  0.25725683
  -0.00000000  0.50000000  0.32054589
   0.50000000 -0.00000000  0.32054589
  -0.00000000  0.00000000  0.38480560
   0.50000000  0.50000000  0.38480560
  -0.00000000  0.50000000  0.44789778
   0.50000000  0.00000000  0.44789778
Direct configuration=    15
   0.00000000  0.00000000  0.00000000
   0.50000000  0.50000000  0.00000000
   0.00000000  0.50000000  0.06551164
   0.50000000  0.00000000  0.06551164
   0.00000000 -0.00000000  0.13038278
   0.50000000  0.50000000  0.13038278
   0.00000000  0.50000000  0.19294890
   0.50000000 -0.00000000  0.19294890
   0.00000000 -0.00000000  0.25443601
   0.50000000  0.50000000  0.25443601
  -0.00000000  0.50000000  0.31858062
   0.50000000 -0.00000000  0.31858062
  -0.00000000  0.00000000  0.38239070
   0.50000000  0.50000000  0.38239070
  -0.00000000  0.50000000  0.44639336
   0.50000000  0.00000000  0.44639336
Direct configuration=    16
   0.00000000  0.00000000  0.00000000
   0.50000000  0.50000000  0.00000000
   0.00000000  0.50000000  0.06551164
   0.50000000  0.00000000  0.06551164
   0.00000000 -0.00000000  0.13057277
   0.50000000  0.50000000  0.13057277
   0.00000000  0.50000000  0.19365498
   0.50000000 -0.00000000  0.19365498
   0.00000000 -0.00000000  0.25540736
   0.50000000  0.50000000  0.25540736
  -0.00000000  0.50000000  0.31925736
   0.50000000 -0.00000000  0.31925736
  -0.00000000  0.00000000  0.38322227
   0.50000000  0.50000000  0.38322227
  -0.00000000  0.50000000  0.44691141
   0.50000000  0.00000000  0.44691141
Direct configuration=    17
   0.00000000  0.00000000  0.00000000
   0.50000000  0.50000000  0.00000000
   0.00000000  0.50000000  0.06551164
   0.50000000  0.00000000  0.06551164
   0.00000000 -0.00000000  0.12995986
   0.50000000  0.50000000  0.12995986
   0.00000000  0.50000000  0.19294862
   0.50000000 -0.00000000  0.19294862
   0.00000000 -0.00000000  0.25494480
   0.50000000  0.50000000  0.25494480
  -0.00000000  0.50000000  0.31860828
   0.50000000 -0.00000000  0.31860828
  -0.00000000  0.00000000  0.38252711
   0.50000000  0.50000000  0.38252711
  -0.00000000  0.50000000  0.44623952
   0.50000000  0.00000000  0.44623952
Direct configuration=    18
   0.00000000  0.00000000  0.00000000
   0.50000000  0.50000000  0.00000000
   0.00000000  0.50000000  0.06551164
   0.50000000  0.00000000  0.06551164
   0.00000000  0.00000000  0.12969396
   0.50000000  0.50000000  0.12969396
   0.00000000  0.50000000  0.19264219
   0.50000000 -0.00000000  0.19264219
   0.00000000 -0.00000000  0.25474413
   0.50000000  0.50000000  0.25474413
  -0.00000000  0.50000000  0.31832670
   0.50000000 -0.00000000  0.31832670
  -0.00000000  0.00000000  0.38222553
   0.50000000  0.50000000  0.38222553
  -0.00000000  0.50000000  0.44594803
   0.50000000  0.00000000  0.44594803
Direct configuration=    19
   0.00000000  0.00000000  0.00000000
   0.50000000  0.50000000  0.00000000
   0.00000000  0.50000000  0.06551164
   0.50000000  0.00000000  0.06551164
   0.00000000  0.00000000  0.12916217
   0.50000000  0.50000000  0.12916217
   0.00000000  0.50000000  0.19202931
   0.50000000 -0.00000000  0.19202931
   0.00000000 -0.00000000  0.25434278
   0.50000000  0.50000000  0.25434278
  -0.00000000  0.50000000  0.31776353
   0.50000000 -0.00000000  0.31776353
  -0.00000000  0.00000000  0.38162237
   0.50000000  0.50000000  0.38162237
  -0.00000000  0.50000000  0.44536507
   0.50000000  0.00000000  0.44536507
Direct configuration=    20
   0.00000000  0.00000000  0.00000000
   0.50000000  0.50000000  0.00000000
   0.00000000  0.50000000  0.06551164
   0.50000000  0.00000000  0.06551164
   0.00000000  0.00000000  0.12894454
   0.50000000  0.50000000  0.12894454
   0.00000000  0.50000000  0.19177851
   0.50000000 -0.00000000  0.19177851
   0.00000000 -0.00000000  0.25417854
   0.50000000  0.50000000  0.25417854
  -0.00000000  0.50000000  0.31753306
   0.50000000 -0.00000000  0.31753306
  -0.00000000  0.00000000  0.38137554
   0.50000000  0.50000000  0.38137554
  -0.00000000  0.50000000  0.44512650
   0.50000000  0.00000000  0.44512650
Direct configuration=    21
   0.00000000  0.00000000  0.00000000
   0.50000000  0.50000000  0.00000000
   0.00000000  0.50000000  0.06551164
   0.50000000  0.00000000  0.06551164
   0.00000000  0.00000000  0.12867219
   0.50000000  0.50000000  0.12867219
   0.00000000  0.50000000  0.19192135
   0.50000000 -0.00000000  0.19192135
   0.00000000 -0.00000000  0.25402499
   0.50000000  0.50000000  0.25402499
  -0.00000000  0.50000000  0.31744123
   0.50000000 -0.00000000  0.31744123
  -0.00000000  0.00000000  0.38136541
   0.50000000  0.50000000  0.38136541
  -0.00000000  0.50000000  0.44468261
   0.50000000  0.00000000  0.44468261
Direct configuration=    22
   0.00000000  0.00000000  0.00000000
   0.50000000  0.50000000  0.00000000
   0.00000000  0.50000000  0.06551164
   0.50000000  0.00000000  0.06551164
   0.00000000  0.00000000  0.12865947
   0.50000000  0.50000000  0.12865947
   0.00000000  0.50000000  0.19192802
   0.50000000 -0.00000000  0.19192802
   0.00000000 -0.00000000  0.25401782
   0.50000000  0.50000000  0.25401782
  -0.00000000  0.50000000  0.31743694
   0.50000000 -0.00000000  0.31743694
  -0.00000000  0.00000000  0.38136494
   0.50000000  0.50000000  0.38136494
  -0.00000000  0.50000000  0.44466188
   0.50000000  0.00000000  0.44466188
Direct configuration=    23
   0.00000000  0.00000000  0.00000000
   0.50000000  0.50000000  0.00000000
   0.00000000  0.50000000  0.06551164
   0.50000000  0.00000000  0.06551164
   0.00000000  0.00000000  0.12866851
   0.50000000  0.50000000  0.12866851
   0.00000000  0.50000000  0.19192328
   0.50000000 -0.00000000  0.19192328
   0.00000000 -0.00000000  0.25402292
   0.50000000  0.50000000  0.25402292
  -0.00000000  0.50000000  0.31743999
   0.50000000 -0.00000000  0.31743999
  -0.00000000  0.00000000  0.38136527
   0.50000000  0.50000000  0.38136527
  -0.00000000  0.50000000  0.44467662
   0.50000000  0.00000000  0.44467662
Direct configuration=    24
   0.00000000  0.00000000  0.00000000
   0.50000000  0.50000000  0.00000000
   0.00000000  0.50000000  0.06551164
   0.50000000  0.00000000  0.06551164
   0.00000000  0.00000000  0.12866399
   0.50000000  0.50000000  0.12866399
   0.00000000  0.50000000  0.19192565
   0.50000000 -0.00000000  0.19192565
   0.00000000 -0.00000000  0.25402037
   0.50000000  0.50000000  0.25402037
  -0.00000000  0.50000000  0.31743846
   0.50000000 -0.00000000  0.31743846
  -0.00000000  0.00000000  0.38136510
   0.50000000  0.50000000  0.38136510
  -0.00000000  0.50000000  0.44466925
   0.50000000  0.00000000  0.44466925
Direct configuration=    25
   0.00000000  0.00000000  0.00000000
   0.50000000  0.50000000  0.00000000
   0.00000000  0.50000000  0.06551164
   0.50000000  0.00000000  0.06551164
   0.00000000  0.00000000  0.12866820
   0.50000000  0.50000000  0.12866820
   0.00000000  0.50000000  0.19192344
   0.50000000 -0.00000000  0.19192344
   0.00000000 -0.00000000  0.25402274
   0.50000000  0.50000000  0.25402274
  -0.00000000  0.50000000  0.31743988
   0.50000000 -0.00000000  0.31743988
  -0.00000000  0.00000000  0.38136526
   0.50000000  0.50000000  0.38136526
  -0.00000000  0.50000000  0.44467611
   0.50000000  0.00000000  0.44467611
Direct configuration=    26
   0.00000000  0.00000000  0.00000000
   0.50000000  0.50000000  0.00000000
   0.00000000  0.50000000  0.06551164
   0.50000000  0.00000000  0.06551164
   0.00000000  0.00000000  0.12866609
   0.50000000  0.50000000  0.12866609
   0.00000000  0.50000000  0.19192454
   0.50000000 -0.00000000  0.19192454
   0.00000000 -0.00000000  0.25402155
   0.50000000  0.50000000  0.25402155
  -0.00000000  0.50000000  0.31743917
   0.50000000 -0.00000000  0.31743917
  -0.00000000  0.00000000  0.38136518
   0.50000000  0.50000000  0.38136518
  -0.00000000  0.50000000  0.44467268
   0.50000000  0.00000000  0.44467268
Direct configuration=    27
   0.00000000  0.00000000  0.00000000
   0.50000000  0.50000000  0.00000000
   0.00000000  0.50000000  0.06551164
   0.50000000  0.00000000  0.06551164
   0.00000000  0.00000000  0.12866728
   0.50000000  0.50000000  0.12866728
   0.00000000  0.50000000  0.19192392
   0.50000000 -0.00000000  0.19192392
   0.00000000 -0.00000000  0.25402222
   0.50000000  0.50000000  0.25402222
  -0.00000000  0.50000000  0.31743957
   0.50000000 -0.00000000  0.31743957
  -0.00000000  0.00000000  0.38136523
   0.50000000  0.50000000  0.38136523
  -0.00000000  0.50000000  0.44467462
   0.50000000  0.00000000  0.44467462
Direct configuration=    28
   0.00000000  0.00000000  0.00000000
   0.50000000  0.50000000  0.00000000
   0.00000000  0.50000000  0.06551164
   0.50000000  0.00000000  0.06551164
   0.00000000  0.00000000  0.12866684
   0.50000000  0.50000000  0.12866684
   0.00000000  0.50000000  0.19192415
   0.50000000 -0.00000000  0.19192415
   0.00000000 -0.00000000  0.25402197
   0.50000000  0.50000000  0.25402197
  -0.00000000  0.50000000  0.31743942
   0.50000000 -0.00000000  0.31743942
  -0.00000000  0.00000000  0.38136521
   0.50000000  0.50000000  0.38136521
  -0.00000000  0.50000000  0.44467389
   0.50000000  0.00000000  0.44467389
Direct configuration=    29
   0.00000000  0.00000000  0.00000000
   0.50000000  0.50000000  0.00000000
   0.00000000  0.50000000  0.06551164
   0.50000000  0.00000000  0.06551164
   0.00000000  0.00000000  0.12866700
   0.50000000  0.50000000  0.12866700
   0.00000000  0.50000000  0.19192407
   0.50000000 -0.00000000  0.19192407
   0.00000000 -0.00000000  0.25402206
   0.50000000  0.50000000  0.25402206
  -0.00000000  0.50000000  0.31743947
   0.50000000 -0.00000000  0.31743947
  -0.00000000  0.00000000  0.38136522
   0.50000000  0.50000000  0.38136522
  -0.00000000  0.50000000  0.44467415
   0.50000000  0.00000000  0.44467415
Direct configuration=    30
   0.00000000  0.00000000  0.00000000
   0.50000000  0.50000000  0.00000000
   0.00000000  0.50000000  0.06551164
   0.50000000  0.00000000  0.06551164
   0.00000000  0.00000000  0.12876120
   0.50000000  0.50000000  0.12876120
   0.00000000  0.50000000  0.19193187
   0.50000000 -0.00000000  0.19193187
   0.00000000 -0.00000000  0.25406550
   0.50000000  0.50000000  0.25406550
  -0.00000000  0.50000000  0.31747855
   0.50000000 -0.00000000  0.31747855
  -0.00000000  0.00000000  0.38132233
   0.50000000  0.50000000  0.38132233
  -0.00000000  0.50000000  0.44440075
   0.50000000  0.00000000  0.44440075
