 145 145   0   0
  0.2265927E+02  0.1089000E-08  0.1089000E-08  0.2770500E-08  0.5000000E-15
  1.000000000000000E-004
  CAR 
 unknown system                          
     13.11336955     -9.50672097  301      1.72826737      1.00000000
     -9.507  0.0000E+00  0.0000E+00  0.0000E+00  0.0000E+00
     -9.431  0.0000E+00  0.0000E+00  0.0000E+00  0.0000E+00
     -9.356  0.0000E+00  0.0000E+00  0.0000E+00  0.0000E+00
     -9.281  0.0000E+00  0.0000E+00  0.0000E+00  0.0000E+00
     -9.205  0.0000E+00  0.0000E+00  0.0000E+00  0.0000E+00
     -9.130 -0.1060E-30 -0.1060E-30 -0.7993E-32 -0.7993E-32
     -9.054 -0.3973E-28 -0.3973E-28 -0.3004E-29 -0.3004E-29
     -8.979 -0.1120E-25 -0.1120E-25 -0.8475E-27 -0.8475E-27
     -8.904 -0.2369E-23 -0.2369E-23 -0.1795E-24 -0.1795E-24
     -8.828 -0.3759E-21 -0.3759E-21 -0.2852E-22 -0.2852E-22
     -8.753 -0.4472E-19 -0.4472E-19 -0.3400E-20 -0.3400E-20
     -8.677 -0.3884E-17 -0.3884E-17 -0.2963E-18 -0.2963E-18
     -8.602 -0.2573E-15 -0.2573E-15 -0.1970E-16 -0.1970E-16
     -8.527 -0.1279E-13 -0.1279E-13 -0.9840E-15 -0.9840E-15
     -8.451 -0.4744E-12 -0.4744E-12 -0.3675E-13 -0.3675E-13
     -8.376 -0.1312E-10 -0.1312E-10 -0.1026E-11 -0.1026E-11
     -8.300 -0.2697E-09 -0.2697E-09 -0.2136E-10 -0.2136E-10
     -8.225 -0.4113E-08 -0.4113E-08 -0.3315E-09 -0.3315E-09
     -8.150 -0.4637E-07 -0.4637E-07 -0.3827E-08 -0.3827E-08
     -8.074 -0.3846E-06 -0.3846E-06 -0.3282E-07 -0.3282E-07
     -7.999 -0.2332E-05 -0.2332E-05 -0.2086E-06 -0.2086E-06
     -7.923 -0.1024E-04 -0.1024E-04 -0.9805E-06 -0.9805E-06
     -7.848 -0.3192E-04 -0.3192E-04 -0.3387E-05 -0.3387E-05
     -7.773 -0.6716E-04 -0.6716E-04 -0.8451E-05 -0.8451E-05
     -7.697 -0.7615E-04 -0.7615E-04 -0.1419E-04 -0.1419E-04
     -7.622  0.5176E-04  0.5176E-04 -0.1029E-04 -0.1029E-04
     -7.546  0.4819E-03  0.4819E-03  0.2604E-04  0.2604E-04
     -7.471  0.1325E-02  0.1325E-02  0.1259E-03  0.1259E-03
     -7.396  0.2444E-02  0.2444E-02  0.3102E-03  0.3102E-03
     -7.320  0.3371E-02  0.3371E-02  0.5644E-03  0.5644E-03
     -7.245  0.3545E-02  0.3545E-02  0.8317E-03  0.8317E-03
     -7.169  0.2811E-02  0.2811E-02  0.1044E-02  0.1044E-02
     -7.094  0.1821E-02  0.1821E-02  0.1181E-02  0.1181E-02
     -7.019  0.1811E-02  0.1811E-02  0.1318E-02  0.1318E-02
     -6.943  0.3566E-02  0.3566E-02  0.1586E-02  0.1586E-02
     -6.868  0.6478E-02  0.6478E-02  0.2075E-02  0.2075E-02
     -6.792  0.8716E-02  0.8716E-02  0.2732E-02  0.2732E-02
     -6.717  0.8578E-02  0.8578E-02  0.3379E-02  0.3379E-02
     -6.642  0.6089E-02  0.6089E-02  0.3838E-02  0.3838E-02
     -6.566  0.3212E-02  0.3212E-02  0.4080E-02  0.4080E-02
     -6.491  0.2231E-02  0.2231E-02  0.4248E-02  0.4248E-02
     -6.415  0.3884E-02  0.3884E-02  0.4541E-02  0.4541E-02
     -6.340  0.6957E-02  0.6957E-02  0.5066E-02  0.5066E-02
     -6.265  0.9668E-02  0.9668E-02  0.5795E-02  0.5795E-02
     -6.189  0.1108E-01  0.1108E-01  0.6630E-02  0.6630E-02
     -6.114  0.1106E-01  0.1106E-01  0.7465E-02  0.7465E-02
     -6.038  0.9740E-02  0.9740E-02  0.8199E-02  0.8199E-02
     -5.963  0.7714E-02  0.7714E-02  0.8781E-02  0.8781E-02
     -5.888  0.6343E-02  0.6343E-02  0.9259E-02  0.9259E-02
     -5.812  0.6903E-02  0.6903E-02  0.9779E-02  0.9779E-02
     -5.737  0.9320E-02  0.9320E-02  0.1048E-01  0.1048E-01
     -5.661  0.1198E-01  0.1198E-01  0.1139E-01  0.1139E-01
     -5.586  0.1294E-01  0.1294E-01  0.1236E-01  0.1236E-01
     -5.511  0.1161E-01  0.1161E-01  0.1324E-01  0.1324E-01
     -5.435  0.9310E-02  0.9310E-02  0.1394E-01  0.1394E-01
     -5.360  0.8302E-02  0.8302E-02  0.1456E-01  0.1456E-01
     -5.284  0.9719E-02  0.9719E-02  0.1530E-01  0.1530E-01
     -5.209  0.1245E-01  0.1245E-01  0.1624E-01  0.1624E-01
     -5.134  0.1407E-01  0.1407E-01  0.1730E-01  0.1730E-01
     -5.058  0.1336E-01  0.1336E-01  0.1830E-01  0.1830E-01
     -4.983  0.1180E-01  0.1180E-01  0.1919E-01  0.1919E-01
     -4.907  0.1200E-01  0.1200E-01  0.2010E-01  0.2010E-01
     -4.832  0.1443E-01  0.1443E-01  0.2119E-01  0.2119E-01
     -4.757  0.1688E-01  0.1688E-01  0.2246E-01  0.2246E-01
     -4.681  0.1718E-01  0.1718E-01  0.2375E-01  0.2375E-01
     -4.606  0.1549E-01  0.1549E-01  0.2492E-01  0.2492E-01
     -4.530  0.1372E-01  0.1372E-01  0.2596E-01  0.2596E-01
     -4.455  0.1362E-01  0.1362E-01  0.2698E-01  0.2698E-01
     -4.380  0.1535E-01  0.1535E-01  0.2814E-01  0.2814E-01
     -4.304  0.1731E-01  0.1731E-01  0.2945E-01  0.2945E-01
     -4.229  0.1774E-01  0.1774E-01  0.3078E-01  0.3078E-01
     -4.153  0.1702E-01  0.1702E-01  0.3207E-01  0.3207E-01
     -4.078  0.1747E-01  0.1747E-01  0.3338E-01  0.3338E-01
     -4.002  0.2059E-01  0.2059E-01  0.3494E-01  0.3494E-01
     -3.927  0.2494E-01  0.2494E-01  0.3682E-01  0.3682E-01
     -3.852  0.2753E-01  0.2753E-01  0.3889E-01  0.3889E-01
     -3.776  0.2696E-01  0.2696E-01  0.4092E-01  0.4092E-01
     -3.701  0.2488E-01  0.2488E-01  0.4280E-01  0.4280E-01
     -3.625  0.2420E-01  0.2420E-01  0.4463E-01  0.4463E-01
     -3.550  0.2638E-01  0.2638E-01  0.4661E-01  0.4661E-01
     -3.475  0.3109E-01  0.3109E-01  0.4896E-01  0.4896E-01
     -3.399  0.3810E-01  0.3810E-01  0.5183E-01  0.5183E-01
     -3.324  0.4742E-01  0.4742E-01  0.5541E-01  0.5541E-01
     -3.248  0.5737E-01  0.5737E-01  0.5973E-01  0.5973E-01
     -3.173  0.6562E-01  0.6562E-01  0.6468E-01  0.6468E-01
     -3.098  0.7208E-01  0.7208E-01  0.7011E-01  0.7011E-01
     -3.022  0.7769E-01  0.7769E-01  0.7597E-01  0.7597E-01
     -2.947  0.8247E-01  0.8247E-01  0.8219E-01  0.8219E-01
     -2.871  0.8701E-01  0.8701E-01  0.8875E-01  0.8875E-01
     -2.796  0.9388E-01  0.9388E-01  0.9583E-01  0.9583E-01
     -2.721  0.1052E+00  0.1052E+00  0.1038E+00  0.1038E+00
     -2.645  0.1196E+00  0.1196E+00  0.1128E+00  0.1128E+00
     -2.570  0.1346E+00  0.1346E+00  0.1229E+00  0.1229E+00
     -2.494  0.1524E+00  0.1524E+00  0.1344E+00  0.1344E+00
     -2.419  0.1757E+00  0.1757E+00  0.1477E+00  0.1477E+00
     -2.344  0.1981E+00  0.1981E+00  0.1626E+00  0.1626E+00
     -2.268  0.2093E+00  0.2093E+00  0.1784E+00  0.1784E+00
     -2.193  0.2040E+00  0.2040E+00  0.1938E+00  0.1938E+00
     -2.117  0.1860E+00  0.1860E+00  0.2078E+00  0.2078E+00
     -2.042  0.1671E+00  0.1671E+00  0.2204E+00  0.2204E+00
     -1.967  0.1600E+00  0.1600E+00  0.2325E+00  0.2325E+00
     -1.891  0.1683E+00  0.1683E+00  0.2452E+00  0.2452E+00
     -1.816  0.1862E+00  0.1862E+00  0.2592E+00  0.2592E+00
     -1.740  0.2054E+00  0.2054E+00  0.2747E+00  0.2747E+00
     -1.665  0.2195E+00  0.2195E+00  0.2912E+00  0.2912E+00
     -1.590  0.2280E+00  0.2280E+00  0.3084E+00  0.3084E+00
     -1.514  0.2389E+00  0.2389E+00  0.3264E+00  0.3264E+00
     -1.439  0.2591E+00  0.2591E+00  0.3460E+00  0.3460E+00
     -1.363  0.2847E+00  0.2847E+00  0.3674E+00  0.3674E+00
     -1.288  0.3065E+00  0.3065E+00  0.3905E+00  0.3905E+00
     -1.213  0.3208E+00  0.3208E+00  0.4147E+00  0.4147E+00
     -1.137  0.3271E+00  0.3271E+00  0.4394E+00  0.4394E+00
     -1.062  0.3222E+00  0.3222E+00  0.4637E+00  0.4637E+00
     -0.986  0.3051E+00  0.3051E+00  0.4867E+00  0.4867E+00
     -0.911  0.2828E+00  0.2828E+00  0.5080E+00  0.5080E+00
     -0.836  0.2674E+00  0.2674E+00  0.5282E+00  0.5282E+00
     -0.760  0.2683E+00  0.2683E+00  0.5484E+00  0.5484E+00
     -0.685  0.2868E+00  0.2868E+00  0.5700E+00  0.5700E+00
     -0.609  0.3144E+00  0.3144E+00  0.5937E+00  0.5937E+00
     -0.534  0.3356E+00  0.3356E+00  0.6190E+00  0.6190E+00
     -0.459  0.3404E+00  0.3404E+00  0.6447E+00  0.6447E+00
     -0.383  0.3328E+00  0.3328E+00  0.6698E+00  0.6698E+00
     -0.308  0.3252E+00  0.3252E+00  0.6943E+00  0.6943E+00
     -0.232  0.3256E+00  0.3256E+00  0.7189E+00  0.7189E+00
     -0.157  0.3371E+00  0.3371E+00  0.7443E+00  0.7443E+00
     -0.082  0.3629E+00  0.3629E+00  0.7717E+00  0.7717E+00
     -0.006  0.4029E+00  0.4029E+00  0.8020E+00  0.8020E+00
      0.069  0.4427E+00  0.4427E+00  0.8354E+00  0.8354E+00
      0.145  0.4535E+00  0.4535E+00  0.8696E+00  0.8696E+00
      0.220  0.4111E+00  0.4111E+00  0.9006E+00  0.9006E+00
      0.295  0.3170E+00  0.3170E+00  0.9245E+00  0.9245E+00
      0.371  0.2010E+00  0.2010E+00  0.9397E+00  0.9397E+00
      0.446  0.1032E+00  0.1032E+00  0.9474E+00  0.9474E+00
      0.522  0.4756E-01  0.4756E-01  0.9510E+00  0.9510E+00
      0.597  0.3008E-01  0.3008E-01  0.9533E+00  0.9533E+00
      0.672  0.3240E-01  0.3240E-01  0.9557E+00  0.9557E+00
      0.748  0.3890E-01  0.3890E-01  0.9587E+00  0.9587E+00
      0.823  0.4137E-01  0.4137E-01  0.9618E+00  0.9618E+00
      0.899  0.3807E-01  0.3807E-01  0.9647E+00  0.9647E+00
      0.974  0.3169E-01  0.3169E-01  0.9670E+00  0.9670E+00
      1.049  0.2490E-01  0.2490E-01  0.9689E+00  0.9689E+00
      1.125  0.1879E-01  0.1879E-01  0.9703E+00  0.9703E+00
      1.200  0.1609E-01  0.1609E-01  0.9716E+00  0.9716E+00
      1.276  0.2123E-01  0.2123E-01  0.9732E+00  0.9732E+00
      1.351  0.3436E-01  0.3436E-01  0.9757E+00  0.9757E+00
      1.426  0.4734E-01  0.4734E-01  0.9793E+00  0.9793E+00
      1.502  0.5035E-01  0.5035E-01  0.9831E+00  0.9831E+00
      1.577  0.4280E-01  0.4280E-01  0.9863E+00  0.9863E+00
      1.653  0.3235E-01  0.3235E-01  0.9888E+00  0.9888E+00
      1.728  0.2439E-01  0.2439E-01  0.9906E+00  0.9906E+00
      1.803  0.1934E-01  0.1934E-01  0.9921E+00  0.9921E+00
      1.879  0.1696E-01  0.1696E-01  0.9934E+00  0.9934E+00
      1.954  0.1673E-01  0.1673E-01  0.9946E+00  0.9946E+00
      2.030  0.1723E-01  0.1723E-01  0.9959E+00  0.9959E+00
      2.105  0.1873E-01  0.1873E-01  0.9973E+00  0.9973E+00
      2.180  0.2294E-01  0.2294E-01  0.9991E+00  0.9991E+00
      2.256  0.2911E-01  0.2911E-01  0.1001E+01  0.1001E+01
      2.331  0.3372E-01  0.3372E-01  0.1004E+01  0.1004E+01
      2.407  0.3458E-01  0.3458E-01  0.1006E+01  0.1006E+01
      2.482  0.3294E-01  0.3294E-01  0.1009E+01  0.1009E+01
      2.557  0.3164E-01  0.3164E-01  0.1011E+01  0.1011E+01
      2.633  0.3224E-01  0.3224E-01  0.1014E+01  0.1014E+01
      2.708  0.3365E-01  0.3365E-01  0.1016E+01  0.1016E+01
      2.784  0.3305E-01  0.3305E-01  0.1019E+01  0.1019E+01
      2.859  0.2941E-01  0.2941E-01  0.1021E+01  0.1021E+01
      2.934  0.2528E-01  0.2528E-01  0.1023E+01  0.1023E+01
      3.010  0.2273E-01  0.2273E-01  0.1025E+01  0.1025E+01
      3.085  0.1980E-01  0.1980E-01  0.1026E+01  0.1026E+01
      3.161  0.1408E-01  0.1408E-01  0.1027E+01  0.1027E+01
      3.236  0.7926E-02  0.7926E-02  0.1028E+01  0.1028E+01
      3.311  0.6738E-02  0.6738E-02  0.1028E+01  0.1028E+01
      3.387  0.1316E-01  0.1316E-01  0.1029E+01  0.1029E+01
      3.462  0.2490E-01  0.2490E-01  0.1031E+01  0.1031E+01
      3.538  0.3692E-01  0.3692E-01  0.1034E+01  0.1034E+01
      3.613  0.4389E-01  0.4389E-01  0.1037E+01  0.1037E+01
      3.688  0.4265E-01  0.4265E-01  0.1040E+01  0.1040E+01
      3.764  0.3463E-01  0.3463E-01  0.1043E+01  0.1043E+01
      3.839  0.2539E-01  0.2539E-01  0.1045E+01  0.1045E+01
      3.915  0.2022E-01  0.2022E-01  0.1046E+01  0.1046E+01
      3.990  0.2024E-01  0.2024E-01  0.1048E+01  0.1048E+01
      4.065  0.2252E-01  0.2252E-01  0.1050E+01  0.1050E+01
      4.141  0.2332E-01  0.2332E-01  0.1051E+01  0.1051E+01
      4.216  0.2149E-01  0.2149E-01  0.1053E+01  0.1053E+01
      4.292  0.1885E-01  0.1885E-01  0.1054E+01  0.1054E+01
      4.367  0.1731E-01  0.1731E-01  0.1056E+01  0.1056E+01
      4.442  0.1654E-01  0.1654E-01  0.1057E+01  0.1057E+01
      4.518  0.1540E-01  0.1540E-01  0.1058E+01  0.1058E+01
      4.593  0.1476E-01  0.1476E-01  0.1059E+01  0.1059E+01
      4.669  0.1654E-01  0.1654E-01  0.1061E+01  0.1061E+01
      4.744  0.1982E-01  0.1982E-01  0.1062E+01  0.1062E+01
      4.819  0.2125E-01  0.2125E-01  0.1064E+01  0.1064E+01
      4.895  0.2013E-01  0.2013E-01  0.1065E+01  0.1065E+01
      4.970  0.1943E-01  0.1943E-01  0.1067E+01  0.1067E+01
      5.046  0.2119E-01  0.2119E-01  0.1068E+01  0.1068E+01
      5.121  0.2474E-01  0.2474E-01  0.1070E+01  0.1070E+01
      5.196  0.2937E-01  0.2937E-01  0.1072E+01  0.1072E+01
      5.272  0.3467E-01  0.3467E-01  0.1075E+01  0.1075E+01
      5.347  0.3795E-01  0.3795E-01  0.1078E+01  0.1078E+01
      5.423  0.3594E-01  0.3594E-01  0.1080E+01  0.1080E+01
      5.498  0.2877E-01  0.2877E-01  0.1083E+01  0.1083E+01
      5.573  0.2018E-01  0.2018E-01  0.1084E+01  0.1084E+01
      5.649  0.1543E-01  0.1543E-01  0.1085E+01  0.1085E+01
      5.724  0.1844E-01  0.1844E-01  0.1087E+01  0.1087E+01
      5.800  0.2748E-01  0.2748E-01  0.1089E+01  0.1089E+01
      5.875  0.3474E-01  0.3474E-01  0.1091E+01  0.1091E+01
      5.950  0.3403E-01  0.3403E-01  0.1094E+01  0.1094E+01
      6.026  0.2779E-01  0.2779E-01  0.1096E+01  0.1096E+01
      6.101  0.2259E-01  0.2260E-01  0.1098E+01  0.1098E+01
      6.177  0.2064E-01  0.2064E-01  0.1099E+01  0.1099E+01
      6.252  0.1999E-01  0.2000E-01  0.1101E+01  0.1101E+01
      6.327  0.1973E-01  0.1973E-01  0.1102E+01  0.1102E+01
      6.403  0.2065E-01  0.2065E-01  0.1104E+01  0.1104E+01
      6.478  0.2355E-01  0.2355E-01  0.1106E+01  0.1106E+01
      6.554  0.2910E-01  0.2910E-01  0.1108E+01  0.1108E+01
      6.629  0.3733E-01  0.3734E-01  0.1111E+01  0.1111E+01
      6.704  0.4615E-01  0.4615E-01  0.1114E+01  0.1114E+01
      6.780  0.5201E-01  0.5201E-01  0.1118E+01  0.1118E+01
      6.855  0.5208E-01  0.5208E-01  0.1122E+01  0.1122E+01
      6.931  0.4544E-01  0.4543E-01  0.1125E+01  0.1125E+01
      7.006  0.3404E-01  0.3404E-01  0.1128E+01  0.1128E+01
      7.081  0.2301E-01  0.2301E-01  0.1130E+01  0.1130E+01
      7.157  0.1795E-01  0.1796E-01  0.1131E+01  0.1131E+01
      7.232  0.2082E-01  0.2083E-01  0.1133E+01  0.1133E+01
      7.308  0.2839E-01  0.2839E-01  0.1135E+01  0.1135E+01
      7.383  0.3560E-01  0.3560E-01  0.1137E+01  0.1137E+01
      7.458  0.3982E-01  0.3982E-01  0.1140E+01  0.1141E+01
      7.534  0.4064E-01  0.4065E-01  0.1144E+01  0.1144E+01
      7.609  0.3791E-01  0.3791E-01  0.1146E+01  0.1146E+01
      7.685  0.3240E-01  0.3240E-01  0.1149E+01  0.1149E+01
      7.760  0.2693E-01  0.2693E-01  0.1151E+01  0.1151E+01
      7.835  0.2484E-01  0.2484E-01  0.1153E+01  0.1153E+01
      7.911  0.2736E-01  0.2737E-01  0.1155E+01  0.1155E+01
      7.986  0.3239E-01  0.3240E-01  0.1157E+01  0.1157E+01
      8.062  0.3684E-01  0.3684E-01  0.1160E+01  0.1160E+01
      8.137  0.3961E-01  0.3961E-01  0.1163E+01  0.1163E+01
      8.212  0.4034E-01  0.4033E-01  0.1166E+01  0.1166E+01
      8.288  0.3778E-01  0.3778E-01  0.1169E+01  0.1169E+01
      8.363  0.3241E-01  0.3241E-01  0.1171E+01  0.1171E+01
      8.439  0.2743E-01  0.2744E-01  0.1173E+01  0.1173E+01
      8.514  0.2580E-01  0.2581E-01  0.1175E+01  0.1175E+01
      8.589  0.2843E-01  0.2843E-01  0.1178E+01  0.1178E+01
      8.665  0.3465E-01  0.3465E-01  0.1180E+01  0.1180E+01
      8.740  0.4208E-01  0.4208E-01  0.1183E+01  0.1183E+01
      8.816  0.4742E-01  0.4742E-01  0.1187E+01  0.1187E+01
      8.891  0.4909E-01  0.4909E-01  0.1191E+01  0.1191E+01
      8.966  0.4756E-01  0.4756E-01  0.1194E+01  0.1194E+01
      9.042  0.4348E-01  0.4348E-01  0.1197E+01  0.1197E+01
      9.117  0.3759E-01  0.3759E-01  0.1200E+01  0.1200E+01
      9.193  0.3190E-01  0.3190E-01  0.1203E+01  0.1203E+01
      9.268  0.2935E-01  0.2934E-01  0.1205E+01  0.1205E+01
      9.343  0.3143E-01  0.3142E-01  0.1207E+01  0.1207E+01
      9.419  0.3562E-01  0.3562E-01  0.1210E+01  0.1210E+01
      9.494  0.3706E-01  0.3706E-01  0.1213E+01  0.1213E+01
      9.570  0.3499E-01  0.3500E-01  0.1215E+01  0.1215E+01
      9.645  0.3467E-01  0.3469E-01  0.1218E+01  0.1218E+01
      9.720  0.4020E-01  0.4021E-01  0.1221E+01  0.1221E+01
      9.796  0.4830E-01  0.4830E-01  0.1225E+01  0.1225E+01
      9.871  0.5158E-01  0.5158E-01  0.1229E+01  0.1229E+01
      9.947  0.4694E-01  0.4692E-01  0.1232E+01  0.1232E+01
     10.022  0.3893E-01  0.3892E-01  0.1235E+01  0.1235E+01
     10.097  0.3428E-01  0.3428E-01  0.1238E+01  0.1238E+01
     10.173  0.3588E-01  0.3588E-01  0.1240E+01  0.1240E+01
     10.248  0.4300E-01  0.4301E-01  0.1244E+01  0.1244E+01
     10.324  0.5238E-01  0.5238E-01  0.1248E+01  0.1248E+01
     10.399  0.5778E-01  0.5777E-01  0.1252E+01  0.1252E+01
     10.474  0.5455E-01  0.5455E-01  0.1256E+01  0.1256E+01
     10.550  0.4633E-01  0.4633E-01  0.1259E+01  0.1259E+01
     10.625  0.4222E-01  0.4223E-01  0.1263E+01  0.1263E+01
     10.701  0.4589E-01  0.4590E-01  0.1266E+01  0.1266E+01
     10.776  0.5119E-01  0.5120E-01  0.1270E+01  0.1270E+01
     10.851  0.4977E-01  0.4976E-01  0.1274E+01  0.1274E+01
     10.927  0.3993E-01  0.3986E-01  0.1277E+01  0.1277E+01
     11.002  0.2624E-01  0.2613E-01  0.1279E+01  0.1279E+01
     11.078  0.1369E-01  0.1362E-01  0.1280E+01  0.1280E+01
     11.153  0.4887E-02  0.4906E-02  0.1280E+01  0.1280E+01
     11.228  0.3435E-03  0.4358E-03  0.1280E+01  0.1280E+01
     11.304 -0.9617E-03 -0.8778E-03  0.1280E+01  0.1280E+01
     11.379 -0.7688E-03 -0.7347E-03  0.1280E+01  0.1280E+01
     11.455 -0.3443E-03 -0.3432E-03  0.1280E+01  0.1280E+01
     11.530 -0.1060E-03 -0.1120E-03  0.1280E+01  0.1280E+01
     11.605 -0.2378E-04 -0.2714E-04  0.1280E+01  0.1280E+01
     11.681 -0.3977E-05 -0.4983E-05  0.1280E+01  0.1280E+01
     11.756 -0.5005E-06 -0.6973E-06  0.1280E+01  0.1280E+01
     11.832 -0.4759E-07 -0.7428E-07  0.1280E+01  0.1280E+01
     11.907 -0.3420E-08 -0.6003E-08  0.1280E+01  0.1280E+01
     11.982 -0.1856E-09 -0.3668E-09  0.1280E+01  0.1280E+01
     12.058 -0.7600E-11 -0.1690E-10  0.1280E+01  0.1280E+01
     12.133 -0.2344E-12 -0.5863E-12  0.1280E+01  0.1280E+01
     12.209 -0.5444E-14 -0.1529E-13  0.1280E+01  0.1280E+01
     12.284 -0.9448E-16 -0.2990E-15  0.1280E+01  0.1280E+01
     12.359 -0.1227E-17 -0.4499E-17  0.1280E+01  0.1280E+01
     12.435  0.0000E+00  0.0000E+00  0.1280E+01  0.1280E+01
     12.510  0.0000E+00  0.0000E+00  0.1280E+01  0.1280E+01
     12.586  0.0000E+00  0.0000E+00  0.1280E+01  0.1280E+01
     12.661  0.0000E+00  0.0000E+00  0.1280E+01  0.1280E+01
     12.736  0.0000E+00  0.0000E+00  0.1280E+01  0.1280E+01
     12.812  0.0000E+00  0.0000E+00  0.1280E+01  0.1280E+01
     12.887  0.0000E+00  0.0000E+00  0.1280E+01  0.1280E+01
     12.963  0.0000E+00  0.0000E+00  0.1280E+01  0.1280E+01
     13.038  0.0000E+00  0.0000E+00  0.1280E+01  0.1280E+01
     13.113  0.0000E+00  0.0000E+00  0.1280E+01  0.1280E+01
