  145  145  800    2
  0.2265927E+02  0.1089000E-08  0.1089000E-08  0.2770500E-08  0.5000000E-15
  1.000000000000000E-004
  CAR 
 unknown system                          
   1585      3   1024
 
  0.0000000E+00  0.0000000E+00  0.0000000E+00  0.1111111E+00
      1         -7.506721       -7.506721   1.000000   1.000000
      2         -6.939684       -6.939684   1.000000   1.000000
      3         -6.288038       -6.288038   1.000000   1.000000
      4         -6.210527       -6.210527   1.000000   1.000000
      5         -6.210527       -6.210527   1.000000   1.000000
      6         -6.209262       -6.209262   1.000000   1.000000
      7         -6.153864       -6.153864   1.000000   1.000000
      8         -5.814785       -5.814785   1.000000   1.000000
      9         -5.657221       -5.657221   1.000000   1.000000
     10         -5.657221       -5.657221   1.000000   1.000000
     11         -5.652452       -5.652453   1.000000   1.000000
     12         -5.373301       -5.373301   1.000000   1.000000
     13         -5.054518       -5.054518   1.000000   1.000000
     14         -5.054518       -5.054518   1.000000   1.000000
     15         -5.053505       -5.053505   1.000000   1.000000
     16         -5.051825       -5.051825   1.000000   1.000000
     17         -4.995973       -4.995973   1.000000   1.000000
     18         -4.912020       -4.912020   1.000000   1.000000
     19         -4.912020       -4.912020   1.000000   1.000000
     20         -4.909168       -4.909168   1.000000   1.000000
     21         -4.692698       -4.692698   1.000000   1.000000
     22         -4.606001       -4.606001   1.000000   1.000000
     23         -4.606001       -4.606001   1.000000   1.000000
     24         -4.603768       -4.603768   1.000000   1.000000
     25         -4.482922       -4.482922   1.000000   1.000000
     26         -4.067526       -4.067526   1.000000   1.000000
     27         -4.067526       -4.067526   1.000000   1.000000
     28         -4.065866       -4.065866   1.000000   1.000000
     29         -4.051942       -4.051942   1.000000   1.000000
     30         -3.984458       -3.984458   1.000000   1.000000
     31         -3.984458       -3.984458   1.000000   1.000000
     32         -3.979377       -3.979377   1.000000   1.000000
     33         -3.954945       -3.954945   1.000000   1.000000
     34         -3.721454       -3.721454   1.000000   1.000000
     35         -3.503885       -3.503885   1.000000   1.000000
     36         -3.503885       -3.503885   1.000000   1.000000
     37         -3.502956       -3.502956   1.000000   1.000000
     38         -3.501046       -3.501046   1.000000   1.000000
     39         -3.500893       -3.500894   1.000000   1.000000
     40         -3.500893       -3.500894   1.000000   1.000000
     41         -3.498882       -3.498882   1.000000   1.000000
     42         -3.437361       -3.437361   1.000000   1.000000
     43         -3.260352       -3.260352   1.000000   1.000000
     44         -3.111304       -3.111304   1.000000   1.000000
     45         -3.103736       -3.103736   1.000000   1.000000
     46         -3.102909       -3.102909   1.000000   1.000000
     47         -3.101424       -3.101424   1.000000   1.000000
     48         -3.101424       -3.101424   1.000000   1.000000
     49         -3.100152       -3.100152   1.000000   1.000000
     50         -3.068377       -3.068377   1.000000   1.000000
     51         -3.068377       -3.068377   1.000000   1.000000
     52         -3.065328       -3.065328   1.000000   1.000000
     53         -3.046371       -3.046371   1.000000   1.000000
     54         -3.011147       -3.011147   1.000000   1.000000
     55         -3.011147       -3.011147   1.000000   1.000000
     56         -3.010151       -3.010151   1.000000   1.000000
     57         -3.004344       -3.004344   1.000000   1.000000
     58         -2.978862       -2.978862   1.000000   1.000000
     59         -2.978862       -2.978862   1.000000   1.000000
     60         -2.978304       -2.978304   1.000000   1.000000
     61         -2.978167       -2.978167   1.000000   1.000000
     62         -2.977721       -2.977721   1.000000   1.000000
     63         -2.977606       -2.977606   1.000000   1.000000
     64         -2.976910       -2.976910   1.000000   1.000000
     65         -2.976910       -2.976910   1.000000   1.000000
     66         -2.949981       -2.949981   1.000000   1.000000
     67         -2.912175       -2.912175   1.000000   1.000000
     68         -2.912175       -2.912175   1.000000   1.000000
     69         -2.910595       -2.910595   1.000000   1.000000
     70         -2.910112       -2.910112   1.000000   1.000000
     71         -2.884057       -2.884057   1.000000   1.000000
     72         -2.855809       -2.855809   1.000000   1.000000
     73         -2.855474       -2.855474   1.000000   1.000000
     74         -2.855474       -2.855474   1.000000   1.000000
     75         -2.853571       -2.853571   1.000000   1.000000
     76         -2.828952       -2.828952   1.000000   1.000000
     77         -2.828458       -2.828458   1.000000   1.000000
     78         -2.821517       -2.821517   1.000000   1.000000
     79         -2.821517       -2.821517   1.000000   1.000000
     80         -2.811502       -2.811502   1.000000   1.000000
     81         -2.780905       -2.780905   1.000000   1.000000
     82         -2.686277       -2.686277   1.000000   1.000000
     83         -2.685606       -2.685606   1.000000   1.000000
     84         -2.685606       -2.685606   1.000000   1.000000
     85         -2.685033       -2.685033   1.000000   1.000000
     86         -2.677692       -2.677692   1.000000   1.000000
     87         -2.661214       -2.661214   1.000000   1.000000
     88         -2.660225       -2.660225   1.000000   1.000000
     89         -2.660225       -2.660225   1.000000   1.000000
     90         -2.659389       -2.659389   1.000000   1.000000
     91         -2.659241       -2.659241   1.000000   1.000000
     92         -2.659241       -2.659241   1.000000   1.000000
     93         -2.657541       -2.657541   1.000000   1.000000
     94         -2.655566       -2.655566   1.000000   1.000000
     95         -2.655566       -2.655566   1.000000   1.000000
     96         -2.650836       -2.650836   1.000000   1.000000
     97         -2.636291       -2.636291   1.000000   1.000000
     98         -2.636291       -2.636291   1.000000   1.000000
     99         -2.631728       -2.631728   1.000000   1.000000
    100         -2.610569       -2.610569   1.000000   1.000000
    101         -2.601982       -2.601982   1.000000   1.000000
    102         -2.601179       -2.601179   1.000000   1.000000
    103         -2.601179       -2.601179   1.000000   1.000000
    104         -2.590524       -2.590524   1.000000   1.000000
    105         -2.552222       -2.552222   1.000000   1.000000
    106         -2.519620       -2.519620   1.000000   1.000000
    107         -2.477483       -2.477482   1.000000   1.000000
    108         -2.446971       -2.446971   1.000000   1.000000
    109         -2.446971       -2.446971   1.000000   1.000000
    110         -2.422597       -2.422597   1.000000   1.000000
    111         -2.422597       -2.422597   1.000000   1.000000
    112         -2.406181       -2.406181   1.000000   1.000000
    113         -2.406181       -2.406181   1.000000   1.000000
    114         -2.402156       -2.402156   1.000000   1.000000
    115         -2.401821       -2.401821   1.000000   1.000000
    116         -2.390840       -2.390841   1.000000   1.000000
    117         -2.382454       -2.382454   1.000000   1.000000
    118         -2.381915       -2.381915   1.000000   1.000000
    119         -2.380734       -2.380734   1.000000   1.000000
    120         -2.380734       -2.380734   1.000000   1.000000
    121         -2.344138       -2.344138   1.000000   1.000000
    122         -2.344138       -2.344138   1.000000   1.000000
    123         -2.343240       -2.343240   1.000000   1.000000
    124         -2.342453       -2.342453   1.000000   1.000000
    125         -2.339300       -2.339301   1.000000   1.000000
    126         -2.335969       -2.335968   1.000000   1.000000
    127         -2.335969       -2.335968   1.000000   1.000000
    128         -2.327959       -2.327959   1.000000   1.000000
    129         -2.321051       -2.321051   1.000000   1.000000
    130         -2.319328       -2.319329   1.000000   1.000000
    131         -2.319328       -2.319329   1.000000   1.000000
    132         -2.318702       -2.318702   1.000000   1.000000
    133         -2.313304       -2.313304   1.000000   1.000000
    134         -2.311345       -2.311345   1.000000   1.000000
    135         -2.311345       -2.311345   1.000000   1.000000
    136         -2.310611       -2.310611   1.000000   1.000000
    137         -2.309699       -2.309699   1.000000   1.000000
    138         -2.308156       -2.308156   1.000000   1.000000
    139         -2.307928       -2.307928   1.000000   1.000000
    140         -2.307928       -2.307928   1.000000   1.000000
    141         -2.277401       -2.277401   1.000000   1.000000
    142         -2.277401       -2.277401   1.000000   1.000000
    143         -2.274611       -2.274611   1.000000   1.000000
    144         -2.273981       -2.273981   1.000000   1.000000
    145         -2.270449       -2.270449   1.000000   1.000000
    146         -2.270408       -2.270408   1.000000   1.000000
    147         -2.269423       -2.269422   1.000000   1.000000
    148         -2.269423       -2.269422   1.000000   1.000000
    149         -2.262911       -2.262911   1.000000   1.000000
    150         -2.256061       -2.256061   1.000000   1.000000
    151         -2.256061       -2.256061   1.000000   1.000000
    152         -2.255048       -2.255048   1.000000   1.000000
    153         -2.244534       -2.244534   1.000000   1.000000
    154         -2.209035       -2.209035   1.000000   1.000000
    155         -2.207271       -2.207271   1.000000   1.000000
    156         -2.206491       -2.206491   1.000000   1.000000
    157         -2.206491       -2.206491   1.000000   1.000000
    158         -2.182673       -2.182673   1.000000   1.000000
    159         -2.182673       -2.182673   1.000000   1.000000
    160         -2.181980       -2.181980   1.000000   1.000000
    161         -2.180174       -2.180174   1.000000   1.000000
    162         -2.178969       -2.178969   1.000000   1.000000
    163         -2.176050       -2.176050   1.000000   1.000000
    164         -2.176050       -2.176050   1.000000   1.000000
    165         -2.175500       -2.175500   1.000000   1.000000
    166         -2.165171       -2.165171   1.000000   1.000000
    167         -2.165171       -2.165171   1.000000   1.000000
    168         -2.164065       -2.164065   1.000000   1.000000
    169         -2.163600       -2.163600   1.000000   1.000000
    170         -2.159363       -2.159363   1.000000   1.000000
    171         -2.159363       -2.159363   1.000000   1.000000
    172         -2.158043       -2.158043   1.000000   1.000000
    173         -2.118028       -2.118028   1.000000   1.000000
    174         -2.117329       -2.117329   1.000000   1.000000
    175         -2.117329       -2.117329   1.000000   1.000000
    176         -2.116382       -2.116382   1.000000   1.000000
    177         -2.032129       -2.032129   1.000000   1.000000
    178         -2.030757       -2.030757   1.000000   1.000000
    179         -2.030757       -2.030757   1.000000   1.000000
    180         -2.030428       -2.030428   1.000000   1.000000
    181         -1.998488       -1.998488   1.000000   1.000000
    182         -1.998448       -1.998448   1.000000   1.000000
    183         -1.997926       -1.997926   1.000000   1.000000
    184         -1.997926       -1.997926   1.000000   1.000000
    185         -1.975093       -1.975093   1.000000   1.000000
    186         -1.975093       -1.975093   1.000000   1.000000
    187         -1.973787       -1.973787   1.000000   1.000000
    188         -1.972648       -1.972648   1.000000   1.000000
    189         -1.971733       -1.971733   1.000000   1.000000
    190         -1.957991       -1.957991   1.000000   1.000000
    191         -1.943667       -1.943667   1.000000   1.000000
    192         -1.935924       -1.935924   1.000000   1.000000
    193         -1.933751       -1.933751   1.000000   1.000000
    194         -1.933751       -1.933751   1.000000   1.000000
    195         -1.933489       -1.933489   1.000000   1.000000
    196         -1.933489       -1.933489   1.000000   1.000000
    197         -1.932654       -1.932654   1.000000   1.000000
    198         -1.932172       -1.932172   1.000000   1.000000
    199         -1.892716       -1.892716   1.000000   1.000000
    200         -1.851199       -1.851199   1.000000   1.000000
    201         -1.851199       -1.851199   1.000000   1.000000
    202         -1.848645       -1.848645   1.000000   1.000000
    203         -1.846240       -1.846240   1.000000   1.000000
    204         -1.841128       -1.841127   1.000000   1.000000
    205         -1.841128       -1.841127   1.000000   1.000000
    206         -1.840328       -1.840328   1.000000   1.000000
    207         -1.839170       -1.839170   1.000000   1.000000
    208         -1.793433       -1.793433   1.000000   1.000000
    209         -1.793433       -1.793433   1.000000   1.000000
    210         -1.779055       -1.779055   1.000000   1.000000
    211         -1.779055       -1.779055   1.000000   1.000000
    212         -1.777152       -1.777152   1.000000   1.000000
    213         -1.775823       -1.775823   1.000000   1.000000
    214         -1.764016       -1.764016   1.000000   1.000000
    215         -1.764016       -1.764016   1.000000   1.000000
    216         -1.761992       -1.761992   1.000000   1.000000
    217         -1.745920       -1.745920   1.000000   1.000000
    218         -1.745920       -1.745920   1.000000   1.000000
    219         -1.744861       -1.744861   1.000000   1.000000
    220         -1.744456       -1.744456   1.000000   1.000000
    221         -1.735790       -1.735790   1.000000   1.000000
    222         -1.735780       -1.735780   1.000000   1.000000
    223         -1.735780       -1.735780   1.000000   1.000000
    224         -1.732482       -1.732482   1.000000   1.000000
    225         -1.725722       -1.725722   1.000000   1.000000
    226         -1.724801       -1.724801   1.000000   1.000000
    227         -1.724801       -1.724801   1.000000   1.000000
    228         -1.724057       -1.724057   1.000000   1.000000
    229         -1.723172       -1.723172   1.000000   1.000000
    230         -1.679965       -1.679965   1.000000   1.000000
    231         -1.664922       -1.664922   1.000000   1.000000
    232         -1.664922       -1.664922   1.000000   1.000000
    233         -1.653984       -1.653984   1.000000   1.000000
    234         -1.653952       -1.653952   1.000000   1.000000
    235         -1.653952       -1.653952   1.000000   1.000000
    236         -1.652302       -1.652302   1.000000   1.000000
    237         -1.652208       -1.652208   1.000000   1.000000
    238         -1.651969       -1.651969   1.000000   1.000000
    239         -1.638732       -1.638732   1.000000   1.000000
    240         -1.638193       -1.638193   1.000000   1.000000
    241         -1.638193       -1.638193   1.000000   1.000000
    242         -1.637710       -1.637710   1.000000   1.000000
    243         -1.634391       -1.634391   1.000000   1.000000
    244         -1.634391       -1.634391   1.000000   1.000000
    245         -1.633438       -1.633438   1.000000   1.000000
    246         -1.631608       -1.631608   1.000000   1.000000
    247         -1.606232       -1.606232   1.000000   1.000000
    248         -1.606232       -1.606232   1.000000   1.000000
    249         -1.601044       -1.601044   1.000000   1.000000
    250         -1.560416       -1.560416   1.000000   1.000000
    251         -1.558086       -1.558086   1.000000   1.000000
    252         -1.558086       -1.558086   1.000000   1.000000
    253         -1.553735       -1.553735   1.000000   1.000000
    254         -1.549971       -1.549971   1.000000   1.000000
    255         -1.549926       -1.549926   1.000000   1.000000
    256         -1.549926       -1.549926   1.000000   1.000000
    257         -1.549117       -1.549117   1.000000   1.000000
    258         -1.526085       -1.526085   1.000000   1.000000
    259         -1.476588       -1.476588   1.000000   1.000000
    260         -1.476588       -1.476588   1.000000   1.000000
    261         -1.475009       -1.475009   1.000000   1.000000
    262         -1.474112       -1.474112   1.000000   1.000000
    263         -1.473693       -1.473693   1.000000   1.000000
    264         -1.473693       -1.473693   1.000000   1.000000
    265         -1.471978       -1.471978   1.000000   1.000000
    266         -1.470523       -1.470523   1.000000   1.000000
    267         -1.470523       -1.470523   1.000000   1.000000
    268         -1.468680       -1.468680   1.000000   1.000000
    269         -1.468607       -1.468607   1.000000   1.000000
    270         -1.467869       -1.467869   1.000000   1.000000
    271         -1.444159       -1.444159   1.000000   1.000000
    272         -1.442093       -1.442093   1.000000   1.000000
    273         -1.442093       -1.442093   1.000000   1.000000
    274         -1.439690       -1.439690   1.000000   1.000000
    275         -1.439690       -1.439690   1.000000   1.000000
    276         -1.437936       -1.437936   1.000000   1.000000
    277         -1.435139       -1.435139   1.000000   1.000000
    278         -1.413942       -1.413942   1.000000   1.000000
    279         -1.407641       -1.407641   1.000000   1.000000
    280         -1.403960       -1.403960   1.000000   1.000000
    281         -1.402775       -1.402775   1.000000   1.000000
    282         -1.402775       -1.402775   1.000000   1.000000
    283         -1.395819       -1.395819   1.000000   1.000000
    284         -1.387536       -1.387536   1.000000   1.000000
    285         -1.387536       -1.387536   1.000000   1.000000
    286         -1.385934       -1.385934   1.000000   1.000000
    287         -1.383090       -1.383090   1.000000   1.000000
    288         -1.383090       -1.383090   1.000000   1.000000
    289         -1.382471       -1.382471   1.000000   1.000000
    290         -1.373978       -1.373978   1.000000   1.000000
    291         -1.333217       -1.333217   1.000000   1.000000
    292         -1.333217       -1.333217   1.000000   1.000000
    293         -1.326795       -1.326795   1.000000   1.000000
    294         -1.325301       -1.325301   1.000000   1.000000
    295         -1.304878       -1.304878   1.000000   1.000000
    296         -1.303723       -1.303723   1.000000   1.000000
    297         -1.303723       -1.303723   1.000000   1.000000
    298         -1.298712       -1.298712   1.000000   1.000000
    299         -1.297243       -1.297243   1.000000   1.000000
    300         -1.297243       -1.297243   1.000000   1.000000
    301         -1.286979       -1.286979   1.000000   1.000000
    302         -1.286979       -1.286979   1.000000   1.000000
    303         -1.281012       -1.281012   1.000000   1.000000
    304         -1.275234       -1.275234   1.000000   1.000000
    305         -1.275234       -1.275234   1.000000   1.000000
    306         -1.274684       -1.274684   1.000000   1.000000
    307         -1.271020       -1.271020   1.000000   1.000000
    308         -1.271020       -1.271020   1.000000   1.000000
    309         -1.268629       -1.268629   1.000000   1.000000
    310         -1.268093       -1.268093   1.000000   1.000000
    311         -1.258500       -1.258500   1.000000   1.000000
    312         -1.249693       -1.249693   1.000000   1.000000
    313         -1.249693       -1.249693   1.000000   1.000000
    314         -1.249659       -1.249659   1.000000   1.000000
    315         -1.249530       -1.249530   1.000000   1.000000
    316         -1.247300       -1.247300   1.000000   1.000000
    317         -1.244912       -1.244912   1.000000   1.000000
    318         -1.244267       -1.244267   1.000000   1.000000
    319         -1.241599       -1.241599   1.000000   1.000000
    320         -1.240351       -1.240351   1.000000   1.000000
    321         -1.239626       -1.239626   1.000000   1.000000
    322         -1.239626       -1.239626   1.000000   1.000000
    323         -1.237012       -1.237012   1.000000   1.000000
    324         -1.237012       -1.237012   1.000000   1.000000
    325         -1.235464       -1.235464   1.000000   1.000000
    326         -1.235464       -1.235464   1.000000   1.000000
    327         -1.235109       -1.235109   1.000000   1.000000
    328         -1.233657       -1.233657   1.000000   1.000000
    329         -1.201230       -1.201230   1.000000   1.000000
    330         -1.201230       -1.201230   1.000000   1.000000
    331         -1.200162       -1.200162   1.000000   1.000000
    332         -1.200055       -1.200055   1.000000   1.000000
    333         -1.195894       -1.195894   1.000000   1.000000
    334         -1.194517       -1.194517   1.000000   1.000000
    335         -1.194517       -1.194517   1.000000   1.000000
    336         -1.194187       -1.194187   1.000000   1.000000
    337         -1.194187       -1.194187   1.000000   1.000000
    338         -1.193616       -1.193616   1.000000   1.000000
    339         -1.191214       -1.191214   1.000000   1.000000
    340         -1.190723       -1.190723   1.000000   1.000000
    341         -1.190378       -1.190378   1.000000   1.000000
    342         -1.184452       -1.184452   1.000000   1.000000
    343         -1.184452       -1.184452   1.000000   1.000000
    344         -1.184027       -1.184027   1.000000   1.000000
    345         -1.160126       -1.160126   1.000000   1.000000
    346         -1.157777       -1.157777   1.000000   1.000000
    347         -1.157777       -1.157777   1.000000   1.000000
    348         -1.156143       -1.156143   1.000000   1.000000
    349         -1.138054       -1.138054   1.000000   1.000000
    350         -1.138054       -1.138054   1.000000   1.000000
    351         -1.137756       -1.137756   1.000000   1.000000
    352         -1.136510       -1.136510   1.000000   1.000000
    353         -1.136495       -1.136495   1.000000   1.000000
    354         -1.135456       -1.135456   1.000000   1.000000
    355         -1.135456       -1.135456   1.000000   1.000000
    356         -1.135066       -1.135066   1.000000   1.000000
    357         -1.119323       -1.119323   1.000000   1.000000
    358         -1.118724       -1.118724   1.000000   1.000000
    359         -1.118631       -1.118631   1.000000   1.000000
    360         -1.118631       -1.118631   1.000000   1.000000
    361         -1.108212       -1.108212   1.000000   1.000000
    362         -1.106568       -1.106568   1.000000   1.000000
    363         -1.106568       -1.106568   1.000000   1.000000
    364         -1.100714       -1.100714   1.000000   1.000000
    365         -1.098377       -1.098377   1.000000   1.000000
    366         -1.098104       -1.098104   1.000000   1.000000
    367         -1.098104       -1.098104   1.000000   1.000000
    368         -1.094549       -1.094549   1.000000   1.000000
    369         -1.094544       -1.094544   1.000000   1.000000
    370         -1.094544       -1.094544   1.000000   1.000000
    371         -1.093796       -1.093796   1.000000   1.000000
    372         -1.090922       -1.090922   1.000000   1.000000
    373         -1.090922       -1.090922   1.000000   1.000000
    374         -1.090551       -1.090551   1.000000   1.000000
    375         -1.089264       -1.089264   1.000000   1.000000
    376         -1.088086       -1.088086   1.000000   1.000000
    377         -1.087637       -1.087637   1.000000   1.000000
    378         -1.087637       -1.087637   1.000000   1.000000
    379         -1.059935       -1.059935   1.000000   1.000000
    380         -1.057208       -1.057208   1.000000   1.000000
    381         -1.055020       -1.055020   1.000000   1.000000
    382         -1.054574       -1.054574   1.000000   1.000000
    383         -1.054574       -1.054574   1.000000   1.000000
    384         -1.039670       -1.039670   1.000000   1.000000
    385         -1.038853       -1.038853   1.000000   1.000000
    386         -1.038853       -1.038853   1.000000   1.000000
    387         -1.033807       -1.033807   1.000000   1.000000
    388         -1.020084       -1.020083   1.000000   1.000000
    389         -1.019953       -1.019953   1.000000   1.000000
    390         -1.019953       -1.019953   1.000000   1.000000
    391         -1.003330       -1.003330   1.000000   1.000000
    392         -0.987032       -0.987032   1.000000   1.000000
    393         -0.981451       -0.981451   1.000000   1.000000
    394         -0.981451       -0.981451   1.000000   1.000000
    395         -0.930662       -0.930662   1.000000   1.000000
    396         -0.930316       -0.930316   1.000000   1.000000
    397         -0.930316       -0.930316   1.000000   1.000000
    398         -0.928652       -0.928652   1.000000   1.000000
    399         -0.928500       -0.928500   1.000000   1.000000
    400         -0.924715       -0.924715   1.000000   1.000000
    401         -0.924715       -0.924715   1.000000   1.000000
    402         -0.924242       -0.924242   1.000000   1.000000
    403         -0.910208       -0.910208   1.000000   1.000000
    404         -0.909905       -0.909905   1.000000   1.000000
    405         -0.907769       -0.907769   1.000000   1.000000
    406         -0.907769       -0.907769   1.000000   1.000000
    407         -0.898167       -0.898167   1.000000   1.000000
    408         -0.898167       -0.898167   1.000000   1.000000
    409         -0.894299       -0.894299   1.000000   1.000000
    410         -0.892572       -0.892572   1.000000   1.000000
    411         -0.889809       -0.889809   1.000000   1.000000
    412         -0.889809       -0.889809   1.000000   1.000000
    413         -0.889130       -0.889130   1.000000   1.000000
    414         -0.888341       -0.888341   1.000000   1.000000
    415         -0.885907       -0.885907   1.000000   1.000000
    416         -0.884271       -0.884271   1.000000   1.000000
    417         -0.884096       -0.884096   1.000000   1.000000
    418         -0.884096       -0.884096   1.000000   1.000000
    419         -0.883385       -0.883385   1.000000   1.000000
    420         -0.880141       -0.880141   1.000000   1.000000
    421         -0.880141       -0.880141   1.000000   1.000000
    422         -0.844174       -0.844174   1.000000   1.000000
    423         -0.840768       -0.840767   1.000000   1.000000
    424         -0.840768       -0.840767   1.000000   1.000000
    425         -0.839922       -0.839922   1.000000   1.000000
    426         -0.839922       -0.839922   1.000000   1.000000
    427         -0.839867       -0.839867   1.000000   1.000000
    428         -0.835535       -0.835535   1.000000   1.000000
    429         -0.823929       -0.823929   1.000000   1.000000
    430         -0.817361       -0.817361   1.000000   1.000000
    431         -0.817361       -0.817361   1.000000   1.000000
    432         -0.813321       -0.813321   1.000000   1.000000
    433         -0.811765       -0.811765   1.000000   1.000000
    434         -0.808921       -0.808921   1.000000   1.000000
    435         -0.808921       -0.808921   1.000000   1.000000
    436         -0.806868       -0.806868   1.000000   1.000000
    437         -0.799594       -0.799594   1.000000   1.000000
    438         -0.799594       -0.799594   1.000000   1.000000
    439         -0.798331       -0.798331   1.000000   1.000000
    440         -0.797700       -0.797700   1.000000   1.000000
    441         -0.793595       -0.793595   1.000000   1.000000
    442         -0.793595       -0.793595   1.000000   1.000000
    443         -0.791767       -0.791767   1.000000   1.000000
    444         -0.782879       -0.782879   1.000000   1.000000
    445         -0.782879       -0.782879   1.000000   1.000000
    446         -0.779620       -0.779620   1.000000   1.000000
    447         -0.777855       -0.777855   1.000000   1.000000
    448         -0.775587       -0.775587   1.000000   1.000000
    449         -0.775325       -0.775325   1.000000   1.000000
    450         -0.734825       -0.734825   1.000000   1.000000
    451         -0.734758       -0.734758   1.000000   1.000000
    452         -0.734758       -0.734758   1.000000   1.000000
    453         -0.731937       -0.731937   1.000000   1.000000
    454         -0.731937       -0.731937   1.000000   1.000000
    455         -0.731425       -0.731425   1.000000   1.000000
    456         -0.723465       -0.723465   1.000000   1.000000
    457         -0.705947       -0.705947   1.000000   1.000000
    458         -0.699019       -0.699019   1.000000   1.000000
    459         -0.699019       -0.699019   1.000000   1.000000
    460         -0.695012       -0.695012   1.000000   1.000000
    461         -0.686234       -0.686234   1.000000   1.000000
    462         -0.671197       -0.671197   1.000000   1.000000
    463         -0.668131       -0.668131   1.000000   1.000000
    464         -0.668131       -0.668131   1.000000   1.000000