       N       E                     dE             d eps       ncg     rms          rms(c)
DAV:   1     0.155197595343E+05    0.15520E+05   -0.56068E+05 12296   0.190E+03
DAV:   2     0.225566441470E+04   -0.13264E+05   -0.12691E+05 12288   0.452E+02
DAV:   3    -0.387752652920E+03   -0.26434E+04   -0.23927E+04 12288   0.232E+02
DAV:   4    -0.608539237171E+03   -0.22079E+03   -0.20950E+03 13296   0.945E+01
DAV:   5    -0.614507252669E+03   -0.59680E+01   -0.59351E+01 13544   0.158E+01    0.112E+02
DAV:   6    -0.500675936665E+03    0.11383E+03   -0.13733E+03 13392   0.122E+02    0.555E+01
DAV:   7    -0.439384644117E+03    0.61291E+02   -0.30275E+02 13424   0.806E+01    0.297E+01
DAV:   8    -0.444555958686E+03   -0.51713E+01   -0.96777E+01 14360   0.104E+02    0.349E+01
DAV:   9    -0.436009926541E+03    0.85460E+01   -0.35955E+01 15824   0.765E+01    0.318E+01
DAV:  10    -0.426723547274E+03    0.92864E+01   -0.36362E+01 17168   0.467E+01    0.233E+01
DAV:  11    -0.429324633004E+03   -0.26011E+01   -0.14459E+01 17696   0.377E+01    0.213E+01
DAV:  12    -0.436863808487E+03   -0.75392E+01   -0.40182E+01 13968   0.327E+01    0.188E+01
DAV:  13    -0.441623773595E+03   -0.47600E+01   -0.14090E+01 14408   0.307E+01    0.161E+01
DAV:  14    -0.450669300316E+03   -0.90455E+01   -0.15106E+01 14104   0.221E+01    0.911E+00
DAV:  15    -0.461835785988E+03   -0.11166E+02   -0.12497E+01 14680   0.248E+01    0.627E+00
DAV:  16    -0.485787904232E+03   -0.23952E+02   -0.21857E+01 15752   0.111E+01    0.562E+00
DAV:  17    -0.492898172860E+03   -0.71103E+01   -0.61806E+00 13552   0.789E+00    0.353E+00
DAV:  18    -0.496498814999E+03   -0.36006E+01   -0.20559E+00 13952   0.410E+00    0.294E+00
DAV:  19    -0.501621094993E+03   -0.51223E+01   -0.23927E+00 14680   0.425E+00    0.248E+00
DAV:  20    -0.507161574772E+03   -0.55405E+01   -0.35866E+00 15752   0.345E+00    0.229E+00
DAV:  21    -0.509967947471E+03   -0.28064E+01   -0.98532E-01 15296   0.380E+00    0.197E+00
DAV:  22    -0.512143508090E+03   -0.21756E+01   -0.10288E+00 15632   0.432E+00    0.131E+00
DAV:  23    -0.513878671777E+03   -0.17352E+01   -0.57677E-01 15720   0.190E+00    0.952E-01
DAV:  24    -0.514981424850E+03   -0.11028E+01   -0.16352E-01 14416   0.195E+00    0.761E-01
DAV:  25    -0.515696658319E+03   -0.71523E+00   -0.76471E-02 13728   0.167E+00    0.586E-01
DAV:  26    -0.516896177984E+03   -0.11995E+01   -0.54477E-02 14008   0.127E+00    0.372E-01
DAV:  27    -0.517404751034E+03   -0.50857E+00   -0.11609E-02 15088   0.589E-01    0.248E-01
DAV:  28    -0.517744765438E+03   -0.34001E+00   -0.93175E-03 14304   0.642E-01    0.173E-01
DAV:  29    -0.517822347531E+03   -0.77582E-01   -0.29733E-03 14536   0.396E-01    0.129E-01
DAV:  30    -0.517845674209E+03   -0.23327E-01   -0.16349E-03 13584   0.246E-01    0.582E-02
DAV:  31    -0.517850672812E+03   -0.49986E-02   -0.88405E-04 11576   0.171E-01    0.534E-02
DAV:  32    -0.517851261994E+03   -0.58918E-03   -0.24441E-04  8304   0.830E-02    0.275E-02
DAV:  33    -0.517851302415E+03   -0.40421E-04   -0.19364E-04  8128   0.692E-02
   1 F= -.57812117E+03 E0= -.57816144E+03  d E =-.578121E+03  mag=    -0.0029
       N       E                     dE             d eps       ncg     rms          rms(c)
DAV:   1    -0.518007806665E+03   -0.15654E+00   -0.33952E+01 12984   0.588E+00    0.419E-01
DAV:   2    -0.518075419315E+03   -0.67613E-01   -0.69465E-01 17896   0.185E+00    0.555E-01
DAV:   3    -0.518074350574E+03    0.10687E-02   -0.27571E-02 13728   0.151E+00    0.356E-01
DAV:   4    -0.518074092086E+03    0.25849E-03   -0.55807E-03 14096   0.125E+00    0.327E-01
DAV:   5    -0.518072659297E+03    0.14328E-02   -0.24962E-03 18008   0.779E-01    0.263E-01
DAV:   6    -0.518071757893E+03    0.90140E-03   -0.45182E-03 22136   0.621E-01    0.152E-01
DAV:   7    -0.518071433629E+03    0.32426E-03   -0.22816E-03 13992   0.675E-01    0.761E-02
DAV:   8    -0.518071423443E+03    0.10186E-04   -0.12738E-03 13128   0.266E-01
   2 F= -.57832059E+03 E0= -.57835975E+03  d E =-.199418E+00  mag=    -0.0019
       N       E                     dE             d eps       ncg     rms          rms(c)
DAV:   1    -0.517818765130E+03    0.25267E+00   -0.31233E+02 13040   0.184E+01    0.138E+00
DAV:   2    -0.518523552680E+03   -0.70479E+00   -0.71749E+00 18216   0.693E+00    0.195E+00
DAV:   3    -0.518505978421E+03    0.17574E-01   -0.31986E-01 13800   0.586E+00    0.115E+00
DAV:   4    -0.518498574158E+03    0.74043E-02   -0.81654E-02 14104   0.428E+00    0.101E+00
DAV:   5    -0.518487420682E+03    0.11153E-01   -0.38551E-02 16640   0.211E+00    0.830E-01
DAV:   6    -0.518483130803E+03    0.42899E-02   -0.41079E-02 15680   0.241E+00    0.663E-01
DAV:   7    -0.518474607290E+03    0.85235E-02   -0.45852E-02 17592   0.228E+00    0.165E-01
DAV:   8    -0.518476461364E+03   -0.18541E-02   -0.23010E-02 16160   0.565E-01    0.164E-01
DAV:   9    -0.518476588580E+03   -0.12722E-03   -0.46935E-03 12744   0.276E-01    0.107E-01
DAV:  10    -0.518476363279E+03    0.22530E-03   -0.18178E-04  7544   0.162E-01    0.590E-02
DAV:  11    -0.518476441395E+03   -0.78116E-04   -0.52103E-04 10048   0.109E-01
   3 F= -.57867113E+03 E0= -.57870662E+03  d E =-.549957E+00  mag=    -0.0009
       N       E                     dE             d eps       ncg     rms          rms(c)
DAV:   1    -0.518428096583E+03    0.48267E-01   -0.47692E+01 12904   0.701E+00    0.505E-01
DAV:   2    -0.518524851340E+03   -0.96755E-01   -0.99042E-01 18280   0.225E+00    0.669E-01
DAV:   3    -0.518523354474E+03    0.14969E-02   -0.39520E-02 13720   0.190E+00    0.435E-01
DAV:   4    -0.518522717903E+03    0.63657E-03   -0.10194E-02 14048   0.154E+00    0.392E-01
DAV:   5    -0.518520831442E+03    0.18865E-02   -0.41021E-03 20208   0.899E-01    0.319E-01
DAV:   6    -0.518519893563E+03    0.93788E-03   -0.62933E-03 21576   0.880E-01    0.213E-01
DAV:   7    -0.518518946345E+03    0.94722E-03   -0.40770E-03 15232   0.875E-01    0.763E-02
DAV:   8    -0.518519059580E+03   -0.11323E-03   -0.24067E-03 14304   0.270E-01    0.437E-02
DAV:   9    -0.518519128026E+03   -0.68446E-04   -0.87603E-04 11088   0.106E-01
   4 F= -.57865570E+03 E0= -.57868970E+03  d E =-.534528E+00  mag=    -0.0005
       N       E                     dE             d eps       ncg     rms          rms(c)
DAV:   1    -0.518614363422E+03   -0.95304E-01   -0.50937E+01 12528   0.728E+00    0.559E-01
DAV:   2    -0.518715916234E+03   -0.10155E+00   -0.10450E+00 18336   0.234E+00    0.682E-01
DAV:   3    -0.518716726405E+03   -0.81017E-03   -0.48543E-02 13832   0.240E+00    0.487E-01
DAV:   4    -0.518713957310E+03    0.27691E-02   -0.10498E-02 14688   0.182E+00    0.397E-01
DAV:   5    -0.518711963109E+03    0.19942E-02   -0.59082E-03 20376   0.997E-01    0.303E-01
DAV:   6    -0.518710711179E+03    0.12519E-02   -0.10323E-02 18936   0.727E-01    0.148E-01
DAV:   7    -0.518710615166E+03    0.96013E-04   -0.38508E-03 13696   0.687E-01    0.871E-02
DAV:   8    -0.518710616017E+03   -0.85169E-06   -0.15303E-03 12968   0.316E-01
   5 F= -.57881642E+03 E0= -.57884940E+03  d E =-.160726E+00  mag=    -0.0003
       N       E                     dE             d eps       ncg     rms          rms(c)
DAV:   1    -0.518685864547E+03    0.24751E-01   -0.55900E+01 12520   0.764E+00    0.588E-01
DAV:   2    -0.518797368214E+03   -0.11150E+00   -0.11509E+00 18440   0.241E+00    0.699E-01
DAV:   3    -0.518798195169E+03   -0.82696E-03   -0.51084E-02 13856   0.238E+00    0.509E-01
DAV:   4    -0.518795757428E+03    0.24377E-02   -0.12442E-02 14552   0.193E+00    0.416E-01
DAV:   5    -0.518793489265E+03    0.22682E-02   -0.63895E-03 21032   0.114E+00    0.322E-01
DAV:   6    -0.518792081601E+03    0.14077E-02   -0.10970E-02 20032   0.802E-01    0.162E-01
DAV:   7    -0.518791904461E+03    0.17714E-03   -0.39316E-03 13680   0.715E-01    0.902E-02
DAV:   8    -0.518791925478E+03   -0.21017E-04   -0.20054E-03 12912   0.304E-01    0.521E-02
DAV:   9    -0.518791965173E+03   -0.39695E-04   -0.94713E-04 11560   0.166E-01
   6 F= -.57887293E+03 E0= -.57890493E+03  d E =-.217234E+00  mag=    -0.0002
       N       E                     dE             d eps       ncg     rms          rms(c)
DAV:   1    -0.518768272242E+03    0.23653E-01   -0.43354E+01 13320   0.658E+00    0.509E-01
DAV:   2    -0.518858401161E+03   -0.90129E-01   -0.93429E-01 18544   0.261E+00    0.738E-01
DAV:   3    -0.518854310236E+03    0.40909E-02   -0.47736E-02 13352   0.154E+00    0.358E-01
DAV:   4    -0.518854346195E+03   -0.35959E-04   -0.10972E-02 13112   0.420E-01    0.349E-01
DAV:   5    -0.518854912197E+03   -0.56600E-03   -0.37914E-03 13896   0.103E+00    0.324E-01
DAV:   6    -0.518852569552E+03    0.23426E-02   -0.26920E-03 15192   0.111E+00    0.170E-01
DAV:   7    -0.518852193030E+03    0.37652E-03   -0.33632E-03 19624   0.806E-01    0.948E-02
DAV:   8    -0.518852142489E+03    0.50541E-04   -0.23709E-03 14560   0.475E-01    0.791E-02
DAV:   9    -0.518852137411E+03    0.50782E-05   -0.12305E-03 12496   0.219E-01
   7 F= -.57894389E+03 E0= -.57897591E+03  d E =-.709623E-01  mag=    -0.0001
       N       E                     dE             d eps       ncg     rms          rms(c)
DAV:   1    -0.518816672374E+03    0.35470E-01   -0.24332E+01 13304   0.492E+00    0.375E-01
DAV:   2    -0.518864734557E+03   -0.48062E-01   -0.49617E-01 18544   0.188E+00    0.523E-01
DAV:   3    -0.518863392219E+03    0.13423E-02   -0.31123E-02 13448   0.123E+00    0.265E-01
DAV:   4    -0.518863503769E+03   -0.11155E-03   -0.55668E-03 13768   0.628E-01    0.239E-01
DAV:   5    -0.518863377181E+03    0.12659E-03   -0.23545E-03 13608   0.621E-01    0.224E-01
DAV:   6    -0.518862704498E+03    0.67268E-03   -0.12476E-03 12752   0.604E-01    0.126E-01
DAV:   7    -0.518862403321E+03    0.30118E-03   -0.19928E-03 18176   0.536E-01    0.715E-02
DAV:   8    -0.518862332646E+03    0.70674E-04   -0.10791E-03 12696   0.314E-01
   8 F= -.57896225E+03 E0= -.57899432E+03  d E =-.893189E-01  mag=    -0.0001
       N       E                     dE             d eps       ncg     rms          rms(c)
DAV:   1    -0.518848243797E+03    0.14160E-01   -0.13165E+01 13032   0.364E+00    0.257E-01
DAV:   2    -0.518872098769E+03   -0.23855E-01   -0.24530E-01 18304   0.127E+00    0.347E-01
DAV:   3    -0.518871919574E+03    0.17920E-03   -0.15862E-02 13128   0.807E-01    0.201E-01
DAV:   4    -0.518871847631E+03    0.71943E-04   -0.30068E-03 13360   0.341E-01    0.180E-01
DAV:   5    -0.518872101230E+03   -0.25360E-03   -0.90472E-04 11480   0.604E-01    0.183E-01
DAV:   6    -0.518871687936E+03    0.41329E-03   -0.13338E-03 10808   0.846E-01    0.128E-01
DAV:   7    -0.518871043430E+03    0.64451E-03   -0.81923E-04 10992   0.499E-01    0.331E-02
DAV:   8    -0.518871165414E+03   -0.12198E-03   -0.16569E-03 16160   0.166E-01
   9 F= -.57898454E+03 E0= -.57901654E+03  d E =-.222922E-01  mag=    -0.0000
       N       E                     dE             d eps       ncg     rms          rms(c)
DAV:   1    -0.518823799417E+03    0.47244E-01   -0.22600E+01 12992   0.478E+00    0.352E-01
DAV:   2    -0.518865968898E+03   -0.42169E-01   -0.43445E-01 18384   0.176E+00    0.479E-01
DAV:   3    -0.518865227740E+03    0.74116E-03   -0.27964E-02 13104   0.116E+00    0.259E-01
DAV:   4    -0.518865246004E+03   -0.18264E-04   -0.56037E-03 13440   0.570E-01    0.244E-01
DAV:   5    -0.518865446855E+03   -0.20085E-03   -0.25005E-03 13400   0.790E-01    0.231E-01
DAV:   6    -0.518864601139E+03    0.84572E-03   -0.12179E-03 14512   0.758E-01    0.158E-01
DAV:   7    -0.518864016524E+03    0.58461E-03   -0.22960E-03 20256   0.587E-01    0.654E-02
DAV:   8    -0.518864067967E+03   -0.51443E-04   -0.12243E-03 12400   0.198E-01
  10 F= -.57899509E+03 E0= -.57902694E+03  d E =-.328363E-01  mag=    -0.0000
       N       E                     dE             d eps       ncg     rms          rms(c)
DAV:   1    -0.518838541459E+03    0.25475E-01   -0.12449E+01 12624   0.348E+00    0.285E-01
DAV:   2    -0.518861529322E+03   -0.22988E-01   -0.23374E-01 18672   0.149E+00    0.390E-01
DAV:   3    -0.518861243467E+03    0.28585E-03   -0.17282E-02 13248   0.138E+00    0.236E-01
DAV:   4    -0.518860636726E+03    0.60674E-03   -0.48283E-03 13560   0.781E-01    0.184E-01
DAV:   5    -0.518860592745E+03    0.43981E-04   -0.25616E-03 13368   0.395E-01    0.163E-01
DAV:   6    -0.518860470936E+03    0.12181E-03   -0.17223E-03 13168   0.461E-01
  11 F= -.57900988E+03 E0= -.57904200E+03  d E =-.147949E-01  mag=    -0.0000
       N       E                     dE             d eps       ncg     rms          rms(c)
DAV:   1    -0.518855520770E+03    0.50720E-02   -0.95248E-01 12864   0.105E+00    0.851E-02
DAV:   2    -0.518858987471E+03   -0.34667E-02   -0.15791E-02 22592   0.105E+00    0.198E-01
DAV:   3    -0.518857298339E+03    0.16891E-02   -0.56353E-03 19864   0.102E+00    0.644E-02
DAV:   4    -0.518857456108E+03   -0.15777E-03   -0.23017E-03 13088   0.215E-01    0.488E-02
DAV:   5    -0.518857506402E+03   -0.50293E-04   -0.76684E-04 11424   0.109E-01
  12 F= -.57901200E+03 E0= -.57904410E+03  d E =-.169081E-01  mag=    -0.0000
       N       E                     dE             d eps       ncg     rms          rms(c)
DAV:   1    -0.518843707426E+03    0.13749E-01   -0.37934E+00 12592   0.192E+00    0.142E-01
DAV:   2    -0.518850165081E+03   -0.64577E-02   -0.66575E-02 18440   0.606E-01    0.171E-01
DAV:   3    -0.518850225991E+03   -0.60910E-04   -0.48357E-03 13168   0.445E-01    0.118E-01
DAV:   4    -0.518850167468E+03    0.58523E-04   -0.70443E-04 11328   0.216E-01
  13 F= -.57901481E+03 E0= -.57904693E+03  d E =-.197273E-01  mag=    -0.0000
       N       E                     dE             d eps       ncg     rms          rms(c)
DAV:   1    -0.518841279062E+03    0.89469E-02   -0.41862E+00 12656   0.213E+00    0.163E-01
DAV:   2    -0.518852560699E+03   -0.11282E-01   -0.62803E-02 22840   0.167E+00    0.327E-01
DAV:   3    -0.518848015226E+03    0.45455E-02   -0.16173E-02 18440   0.170E+00    0.167E-01
DAV:   4    -0.518848558889E+03   -0.54366E-03   -0.89659E-03 13176   0.352E-01    0.114E-01
DAV:   5    -0.518848573515E+03   -0.14626E-04   -0.14455E-03 12256   0.183E-01
  14 F= -.57902090E+03 E0= -.57905291E+03  d E =-.608556E-02  mag=    -0.0000
       N       E                     dE             d eps       ncg     rms          rms(c)
DAV:   1    -0.518838333936E+03    0.10225E-01   -0.26466E+00 12672   0.170E+00    0.131E-01
DAV:   2    -0.518843949132E+03   -0.56152E-02   -0.45593E-02 21584   0.103E+00    0.228E-01
DAV:   3    -0.518842973655E+03    0.97548E-03   -0.75178E-03 15536   0.993E-01    0.134E-01
DAV:   4    -0.518843035084E+03   -0.61428E-04   -0.31034E-03 13216   0.431E-01    0.116E-01
DAV:   5    -0.518843054461E+03   -0.19377E-04   -0.16320E-03 12472   0.218E-01
  15 F= -.57902152E+03 E0= -.57905354E+03  d E =-.670555E-02  mag=    -0.0000
       N       E                     dE             d eps       ncg     rms          rms(c)
DAV:   1    -0.518827910373E+03    0.15125E-01   -0.40150E+00 12576   0.205E+00    0.142E-01
DAV:   2    -0.518834870135E+03   -0.69598E-02   -0.70568E-02 18400   0.635E-01    0.177E-01
DAV:   3    -0.518834988519E+03   -0.11838E-03   -0.42256E-03 13232   0.654E-01    0.144E-01
DAV:   4    -0.518834774873E+03    0.21365E-03   -0.10975E-03 12560   0.430E-01    0.109E-01
DAV:   5    -0.518834688237E+03    0.86636E-04   -0.35705E-04  7944   0.243E-01
  16 F= -.57902461E+03 E0= -.57905656E+03  d E =-.309099E-02  mag=    -0.0000
       N       E                     dE             d eps       ncg     rms          rms(c)
DAV:   1    -0.518833912060E+03    0.86281E-03   -0.19684E-02 18208   0.367E-01    0.713E-02
DAV:   2    -0.518834414830E+03   -0.50277E-03   -0.12683E-03 13328   0.710E-01    0.139E-01
DAV:   3    -0.518833834804E+03    0.58003E-03   -0.58495E-04 10024   0.510E-01    0.250E-02
DAV:   4    -0.518833844146E+03   -0.93424E-05   -0.13681E-04  7576   0.118E-01
  17 F= -.57902453E+03 E0= -.57905651E+03  d E =-.301149E-02  mag=    -0.0000
       N       E                     dE             d eps       ncg     rms          rms(c)
DAV:   1    -0.518827567020E+03    0.62678E-02   -0.21495E+00 13376   0.150E+00    0.920E-02
DAV:   2    -0.518831513085E+03   -0.39461E-02   -0.40129E-02 17952   0.418E-01    0.111E-01
DAV:   3    -0.518831602564E+03   -0.89479E-04   -0.19600E-03 12816   0.402E-01
  18 F= -.57902692E+03 E0= -.57905881E+03  d E =-.238618E-02  mag=    -0.0000
