unknown system                          
           1
    10.890000    0.000000    0.000000
     0.000000   10.890000    0.000000
     0.000000    0.000000   27.705000
   Cu   H 
   144     1
Direct configuration=     1
   0.00000000  0.00000000  0.00000000
   0.00000000  0.33333333  0.00000000
   0.00000000  0.66666667  0.00000000
   0.33333333  0.00000000  0.00000000
   0.33333333  0.33333333  0.00000000
   0.33333333  0.66666667  0.00000000
   0.66666667  0.00000000  0.00000000
   0.66666667  0.33333333  0.00000000
   0.66666667  0.66666667  0.00000000
   0.16666667  0.16666667  0.00000000
   0.16666667  0.50000000  0.00000000
   0.16666667  0.83333333  0.00000000
   0.50000000  0.16666667  0.00000000
   0.50000000  0.50000000  0.00000000
   0.50000000  0.83333333  0.00000000
   0.83333333  0.16666667  0.00000000
   0.83333333  0.50000000  0.00000000
   0.83333333  0.83333333  0.00000000
   0.00000000  0.16666667  0.06551164
   0.00000000  0.50000000  0.06551164
   0.00000000  0.83333333  0.06551164
   0.33333333  0.16666667  0.06551164
   0.33333333  0.50000000  0.06551164
   0.33333333  0.83333333  0.06551164
   0.66666667  0.16666667  0.06551164
   0.66666667  0.50000000  0.06551164
   0.66666667  0.83333333  0.06551164
   0.16666667  0.00000000  0.06551164
   0.16666667  0.33333333  0.06551164
   0.16666667  0.66666667  0.06551164
   0.50000000  0.00000000  0.06551164
   0.50000000  0.33333333  0.06551164
   0.50000000  0.66666667  0.06551164
   0.83333333  0.00000000  0.06551164
   0.83333333  0.33333333  0.06551164
   0.83333333  0.66666667  0.06551164
   0.00000000  0.00000000  0.13119553
   0.00000000  0.33333333  0.13119553
   0.00000000  0.66666667  0.13119553
   0.33333333  0.00000000  0.13119553
   0.33333333  0.33333333  0.13119553
   0.33333333  0.66666667  0.13119553
   0.66666667  0.00000000  0.13119553
   0.66666667  0.33333333  0.13119553
   0.66666667  0.66666667  0.13119553
   0.16666667  0.16666667  0.13119553
   0.16666667  0.50000000  0.13119553
   0.16666667  0.83333333  0.13119553
   0.50000000  0.16666667  0.13119553
   0.50000000  0.50000000  0.13119553
   0.50000000  0.83333333  0.13119553
   0.83333333  0.16666667  0.13119553
   0.83333333  0.50000000  0.13119553
   0.83333333  0.83333333  0.13119553
   0.00000000  0.16666667  0.19620680
   0.00000000  0.50000000  0.19620680
   0.00000000  0.83333333  0.19620680
   0.33333333  0.16666667  0.19620680
   0.33333333  0.50000000  0.19620680
   0.33333333  0.83333333  0.19620680
   0.66666667  0.16666667  0.19620680
   0.66666667  0.50000000  0.19620680
   0.66666667  0.83333333  0.19620680
   0.16666667  0.00000000  0.19620680
   0.16666667  0.33333333  0.19620680
   0.16666667  0.66666667  0.19620680
   0.50000000  0.00000000  0.19620680
   0.50000000  0.33333333  0.19620680
   0.50000000  0.66666667  0.19620680
   0.83333333  0.00000000  0.19620680
   0.83333333  0.33333333  0.19620680
   0.83333333  0.66666667  0.19620680
   0.00000000  0.00000000  0.25873860
   0.00000000  0.33333333  0.25873860
   0.00000000  0.66666667  0.25873860
   0.33333333  0.00000000  0.25873860
   0.33333333  0.33333333  0.25873860
   0.33333333  0.66666667  0.25873860
   0.66666667  0.00000000  0.25873860
   0.66666667  0.33333333  0.25873860
   0.66666667  0.66666667  0.25873860
   0.16666667  0.16666667  0.25873860
   0.16666667  0.50000000  0.25873860
   0.16666667  0.83333333  0.25873860
   0.50000000  0.16666667  0.25873860
   0.50000000  0.50000000  0.25873860
   0.50000000  0.83333333  0.25873860
   0.83333333  0.16666667  0.25873860
   0.83333333  0.50000000  0.25873860
   0.83333333  0.83333333  0.25873860
   0.00000000  0.16666667  0.32119954
   0.00000000  0.50000000  0.32119954
   0.00000000  0.83333333  0.32119954
   0.33333333  0.16666667  0.32119954
   0.33333333  0.50000000  0.32119954
   0.33333333  0.83333333  0.32119954
   0.66666667  0.16666667  0.32119954
   0.66666667  0.50000000  0.32119954
   0.66666667  0.83333333  0.32119954
   0.16666667  0.00000000  0.32119954
   0.16666667  0.33333333  0.32119954
   0.16666667  0.66666667  0.32119954
   0.50000000  0.00000000  0.32119954
   0.50000000  0.33333333  0.32119954
   0.50000000  0.66666667  0.32119954
   0.83333333  0.00000000  0.32119954
   0.83333333  0.33333333  0.32119954
   0.83333333  0.66666667  0.32119954
   0.00000000  0.00000000  0.38476372
   0.00000000  0.33333333  0.38476372
   0.00000000  0.66666667  0.38476372
   0.33333333  0.00000000  0.38476372
   0.33333333  0.33333333  0.38476372
   0.33333333  0.66666667  0.38476372
   0.66666667  0.00000000  0.38476372
   0.66666667  0.33333333  0.38476372
   0.66666667  0.66666667  0.38476372
   0.16666667  0.16666667  0.38476372
   0.16666667  0.50000000  0.38476372
   0.16666667  0.83333333  0.38476372
   0.50000000  0.16666667  0.38476372
   0.50000000  0.50000000  0.38476372
   0.50000000  0.83333333  0.38476372
   0.83333333  0.16666667  0.38476372
   0.83333333  0.50000000  0.38476372
   0.83333333  0.83333333  0.38476372
   0.00000000  0.16666667  0.44736473
   0.00000000  0.50000000  0.44736473
   0.00000000  0.83333333  0.44736473
   0.33333333  0.16666667  0.44736473
   0.33333333  0.50000000  0.44736473
   0.33333333  0.83333333  0.44736473
   0.66666667  0.16666667  0.44736473
   0.66666667  0.50000000  0.44736473
   0.66666667  0.83333333  0.44736473
   0.16666667  0.00000000  0.44736473
   0.16666667  0.33333333  0.44736473
   0.16666667  0.66666667  0.44736473
   0.50000000  0.00000000  0.44736473
   0.50000000  0.33333333  0.44736473
   0.50000000  0.66666667  0.44736473
   0.83333333  0.00000000  0.44736473
   0.83333333  0.33333333  0.44736473
   0.83333333  0.66666667  0.44736473
   0.33333333  0.33333333  0.50150658
Direct configuration=     2
   0.00000000  0.00000000  0.00000000
   0.00000000  0.33333333  0.00000000
   0.00000000  0.66666667  0.00000000
   0.33333333  0.00000000  0.00000000
   0.33333333  0.33333333  0.00000000
   0.33333333  0.66666667  0.00000000
   0.66666667  0.00000000  0.00000000
   0.66666667  0.33333333  0.00000000
   0.66666667  0.66666667  0.00000000
   0.16666667  0.16666667  0.00000000
   0.16666667  0.50000000  0.00000000
   0.16666667  0.83333333  0.00000000
   0.50000000  0.16666667  0.00000000
   0.50000000  0.50000000  0.00000000
   0.50000000  0.83333333  0.00000000
   0.83333333  0.16666667  0.00000000
   0.83333333  0.50000000  0.00000000
   0.83333333  0.83333333  0.00000000
   0.00000000  0.16666667  0.06551164
   0.00000000  0.50000000  0.06551164
   0.00000000  0.83333333  0.06551164
   0.33333333  0.16666667  0.06551164
   0.33333333  0.50000000  0.06551164
   0.33333333  0.83333333  0.06551164
   0.66666667  0.16666667  0.06551164
   0.66666667  0.50000000  0.06551164
   0.66666667  0.83333333  0.06551164
   0.16666667  0.00000000  0.06551164
   0.16666667  0.33333333  0.06551164
   0.16666667  0.66666667  0.06551164
   0.50000000  0.00000000  0.06551164
   0.50000000  0.33333333  0.06551164
   0.50000000  0.66666667  0.06551164
   0.83333333  0.00000000  0.06551164
   0.83333333  0.33333333  0.06551164
   0.83333333  0.66666667  0.06551164
   0.00000000  0.00000000  0.13119553
   0.00000000  0.33333333  0.13119553
   0.00000000  0.66666667  0.13119553
   0.33333333  0.00000000  0.13119553
   0.33333333  0.33333333  0.13119553
   0.33333333  0.66666667  0.13119553
   0.66666667  0.00000000  0.13119553
   0.66666667  0.33333333  0.13119553
   0.66666667  0.66666667  0.13119553
   0.16666667  0.16666667  0.13119553
   0.16666667  0.50000000  0.13119553
   0.16666667  0.83333333  0.13119553
   0.50000000  0.16666667  0.13119553
   0.50000000  0.50000000  0.13119553
   0.50000000  0.83333333  0.13119553
   0.83333333  0.16666667  0.13119553
   0.83333333  0.50000000  0.13119553
   0.83333333  0.83333333  0.13119553
   0.00004467  0.16666450  0.19574759
   0.00004467  0.50000217  0.19574759
   0.00000443  0.83333333  0.19573467
   0.33333333  0.16669432  0.19572231
   0.33333333  0.49997235  0.19572231
   0.33333333  0.83333333  0.19578850
   0.66662200  0.16666450  0.19574759
   0.66662200  0.50000217  0.19574759
   0.66666223  0.83333333  0.19573467
   0.16666450  0.00004467  0.19574759
   0.16669432  0.33333333  0.19572231
   0.16666450  0.66662200  0.19574759
   0.50000217  0.00004467  0.19574759
   0.49997235  0.33333333  0.19572231
   0.50000217  0.66662200  0.19574759
   0.83333333  0.00000443  0.19573467
   0.83333333  0.33333333  0.19578850
   0.83333333  0.66666223  0.19573467
   0.00000878  0.00000878  0.25867849
  -0.00003080  0.33333333  0.25871943
   0.00000878  0.66665789  0.25867849
   0.33333333 -0.00003080  0.25871943
   0.33333333  0.33333333  0.25868423
   0.33333333  0.66669746  0.25871943
   0.66665789  0.00000878  0.25867849
   0.66669746  0.33333333  0.25871943
   0.66665789  0.66665789  0.25867849
   0.16669094  0.16669094  0.25873292
   0.16669094  0.49997573  0.25873292
   0.16665873  0.83333333  0.25864584
   0.49997573  0.16669094  0.25873292
   0.49997573  0.49997573  0.25873292
   0.50000793  0.83333333  0.25864584
   0.83333333  0.16665873  0.25864584
   0.83333333  0.50000793  0.25864584
   0.83333333  0.83333333  0.25868596
  -0.00004102  0.16660874  0.32124663
  -0.00004102  0.50005793  0.32124663
   0.00001756  0.83333333  0.32129348
   0.33333333  0.16666128  0.32132751
   0.33333333  0.50000539  0.32132751
   0.33333333  0.83333333  0.32133457
   0.66670768  0.16660874  0.32124663
   0.66670768  0.50005793  0.32124663
   0.66664910  0.83333333  0.32129348
   0.16660874 -0.00004102  0.32124663
   0.16666128  0.33333333  0.32132751
   0.16660874  0.66670768  0.32124663
   0.50005793 -0.00004102  0.32124663
   0.50000539  0.33333333  0.32132751
   0.50005793  0.66670768  0.32124663
   0.83333333  0.00001756  0.32129348
   0.83333333  0.33333333  0.32133457
   0.83333333  0.66664910  0.32129348
  -0.00001331 -0.00001331  0.38481649
   0.00029526  0.33333333  0.38491545
  -0.00001331  0.66667998  0.38481649
   0.33333333  0.00029526  0.38491545
   0.33333333  0.33333333  0.38426332
   0.33333333  0.66637140  0.38491545
   0.66667998 -0.00001331  0.38481649
   0.66637140  0.33333333  0.38491545
   0.66667998  0.66667998  0.38481649
   0.16665505  0.16665505  0.38473104
   0.16665505  0.50001162  0.38473104
   0.16666713  0.83333333  0.38479688
   0.50001162  0.16665505  0.38473104
   0.50001162  0.50001162  0.38473104
   0.49999954  0.83333333  0.38479688
   0.83333333  0.16666713  0.38479688
   0.83333333  0.49999954  0.38479688
   0.83333333  0.83333333  0.38480773
  -0.00003242  0.16661759  0.44732283
  -0.00003242  0.50004908  0.44732283
   0.00003774  0.83333333  0.44734822
   0.33333333  0.16776989  0.44811171
   0.33333333  0.49889678  0.44811171
   0.33333333  0.83333333  0.44735854
   0.66669908  0.16661759  0.44732283
   0.66669908  0.50004908  0.44732283
   0.66662893  0.83333333  0.44734822
   0.16661759 -0.00003242  0.44732283
   0.16776989  0.33333333  0.44811171
   0.16661759  0.66669908  0.44732283
   0.50004908 -0.00003242  0.44732283
   0.49889678  0.33333333  0.44811171
   0.50004908  0.66669908  0.44732283
   0.83333333  0.00003774  0.44734822
   0.83333333  0.33333333  0.44735854
   0.83333333  0.66662893  0.44734822
   0.33333333  0.33333333  0.49900391
Direct configuration=     3
   0.00000000  0.00000000  0.00000000
   0.00000000  0.33333333  0.00000000
   0.00000000  0.66666667  0.00000000
   0.33333333  0.00000000  0.00000000
   0.33333333  0.33333333  0.00000000
   0.33333333  0.66666667  0.00000000
   0.66666667  0.00000000  0.00000000
   0.66666667  0.33333333  0.00000000
   0.66666667  0.66666667  0.00000000
   0.16666667  0.16666667  0.00000000
   0.16666667  0.50000000  0.00000000
   0.16666667  0.83333333  0.00000000
   0.50000000  0.16666667  0.00000000
   0.50000000  0.50000000  0.00000000
   0.50000000  0.83333333  0.00000000
   0.83333333  0.16666667  0.00000000
   0.83333333  0.50000000  0.00000000
   0.83333333  0.83333333  0.00000000
   0.00000000  0.16666667  0.06551164
   0.00000000  0.50000000  0.06551164
   0.00000000  0.83333333  0.06551164
   0.33333333  0.16666667  0.06551164
   0.33333333  0.50000000  0.06551164
   0.33333333  0.83333333  0.06551164
   0.66666667  0.16666667  0.06551164
   0.66666667  0.50000000  0.06551164
   0.66666667  0.83333333  0.06551164
   0.16666667  0.00000000  0.06551164
   0.16666667  0.33333333  0.06551164
   0.16666667  0.66666667  0.06551164
   0.50000000  0.00000000  0.06551164
   0.50000000  0.33333333  0.06551164
   0.50000000  0.66666667  0.06551164
   0.83333333  0.00000000  0.06551164
   0.83333333  0.33333333  0.06551164
   0.83333333  0.66666667  0.06551164
   0.00000000  0.00000000  0.13119553
   0.00000000  0.33333333  0.13119553
   0.00000000  0.66666667  0.13119553
   0.33333333  0.00000000  0.13119553
   0.33333333  0.33333333  0.13119553
   0.33333333  0.66666667  0.13119553
   0.66666667  0.00000000  0.13119553
   0.66666667  0.33333333  0.13119553
   0.66666667  0.66666667  0.13119553
   0.16666667  0.16666667  0.13119553
   0.16666667  0.50000000  0.13119553
   0.16666667  0.83333333  0.13119553
   0.50000000  0.16666667  0.13119553
   0.50000000  0.50000000  0.13119553
   0.50000000  0.83333333  0.13119553
   0.83333333  0.16666667  0.13119553
   0.83333333  0.50000000  0.13119553
   0.83333333  0.83333333  0.13119553
   0.00017868  0.16665799  0.19436998
   0.00017868  0.50000868  0.19436998
   0.00001774  0.83333333  0.19431831
   0.33333333  0.16677727  0.19426886
   0.33333333  0.49988939  0.19426886
   0.33333333  0.83333333  0.19453359
   0.66648799  0.16665799  0.19436998
   0.66648799  0.50000868  0.19436998
   0.66664893  0.83333333  0.19431831
   0.16665799  0.00017868  0.19436998
   0.16677727  0.33333333  0.19426886
   0.16665799  0.66648799  0.19436998
   0.50000868  0.00017868  0.19436998
   0.49988939  0.33333333  0.19426886
   0.50000868  0.66648799  0.19436998
   0.83333333  0.00001774  0.19431831
   0.83333333  0.33333333  0.19453359
   0.83333333  0.66664893  0.19431831
   0.00003512  0.00003512  0.25849815
  -0.00012319  0.33333333  0.25866193
   0.00003512  0.66663154  0.25849815
   0.33333333 -0.00012319  0.25866193
   0.33333333  0.33333333  0.25852112
   0.33333333  0.66678986  0.25866193
   0.66663154  0.00003512  0.25849815
   0.66678986  0.33333333  0.25866193
   0.66663154  0.66663154  0.25849815
   0.16676376  0.16676376  0.25871589
   0.16676376  0.49990291  0.25871589
   0.16663493  0.83333333  0.25836756
   0.49990291  0.16676376  0.25871589
   0.49990291  0.49990291  0.25871589
   0.50003174  0.83333333  0.25836756
   0.83333333  0.16663493  0.25836756
   0.83333333  0.50003174  0.25836756
   0.83333333  0.83333333  0.25852806
  -0.00016407  0.16643496  0.32138790
  -0.00016407  0.50023171  0.32138790
   0.00007025  0.83333333  0.32157530
   0.33333333  0.16664510  0.32171142
   0.33333333  0.50002156  0.32171142
   0.33333333  0.83333333  0.32173965
   0.66683074  0.16643496  0.32138790
   0.66683074  0.50023171  0.32138790
   0.66659642  0.83333333  0.32157530
   0.16643496 -0.00016407  0.32138790
   0.16664510  0.33333333  0.32171142
   0.16643496  0.66683074  0.32138790
   0.50023171 -0.00016407  0.32138790
   0.50002156  0.33333333  0.32171142
   0.50023171  0.66683074  0.32138790
   0.83333333  0.00007025  0.32157530
   0.83333333  0.33333333  0.32173965
   0.83333333  0.66659642  0.32157530
  -0.00005324 -0.00005324  0.38497481
   0.00118105  0.33333333  0.38537067
  -0.00005324  0.66671991  0.38497481
   0.33333333  0.00118105  0.38537067
   0.33333333  0.33333333  0.38276214
   0.33333333  0.66548562  0.38537067
   0.66671991 -0.00005324  0.38497481
   0.66548562  0.33333333  0.38537067
   0.66671991  0.66671991  0.38497481
   0.16662021  0.16662021  0.38463300
   0.16662021  0.50004646  0.38463300
   0.16666851  0.83333333  0.38489635
   0.50004646  0.16662021  0.38463300
   0.50004646  0.50004646  0.38463300
   0.49999816  0.83333333  0.38489635
   0.83333333  0.16666851  0.38489635
   0.83333333  0.49999816  0.38489635
   0.83333333  0.83333333  0.38493978
  -0.00012967  0.16647034  0.44719712
  -0.00012967  0.50019633  0.44719712
   0.00015095  0.83333333  0.44729870
   0.33333333  0.17107955  0.45035266
   0.33333333  0.49558712  0.45035266
   0.33333333  0.83333333  0.44733997
   0.66679634  0.16647034  0.44719712
   0.66679634  0.50019633  0.44719712
   0.66651572  0.83333333  0.44729870
   0.16647034 -0.00012967  0.44719712
   0.17107955  0.33333333  0.45035266
   0.16647034  0.66679634  0.44719712
   0.50019633 -0.00012967  0.44719712
   0.49558712  0.33333333  0.45035266
   0.50019633  0.66679634  0.44719712
   0.83333333  0.00015095  0.44729870
   0.83333333  0.33333333  0.44733997
   0.83333333  0.66651572  0.44729870
   0.33333333  0.33333333  0.49149589
Direct configuration=     4
   0.00000000  0.00000000  0.00000000
   0.00000000  0.33333333  0.00000000
   0.00000000  0.66666667  0.00000000
   0.33333333  0.00000000  0.00000000
   0.33333333  0.33333333  0.00000000
   0.33333333  0.66666667  0.00000000
   0.66666667  0.00000000  0.00000000
   0.66666667  0.33333333  0.00000000
   0.66666667  0.66666667  0.00000000
   0.16666667  0.16666667  0.00000000
   0.16666667  0.50000000  0.00000000
   0.16666667  0.83333333  0.00000000
   0.50000000  0.16666667  0.00000000
   0.50000000  0.50000000  0.00000000
   0.50000000  0.83333333  0.00000000
   0.83333333  0.16666667  0.00000000
   0.83333333  0.50000000  0.00000000
   0.83333333  0.83333333  0.00000000
   0.00000000  0.16666667  0.06551164
   0.00000000  0.50000000  0.06551164
   0.00000000  0.83333333  0.06551164
   0.33333333  0.16666667  0.06551164
   0.33333333  0.50000000  0.06551164
   0.33333333  0.83333333  0.06551164
   0.66666667  0.16666667  0.06551164
   0.66666667  0.50000000  0.06551164
   0.66666667  0.83333333  0.06551164
   0.16666667  0.00000000  0.06551164
   0.16666667  0.33333333  0.06551164
   0.16666667  0.66666667  0.06551164
   0.50000000  0.00000000  0.06551164
   0.50000000  0.33333333  0.06551164
   0.50000000  0.66666667  0.06551164
   0.83333333  0.00000000  0.06551164
   0.83333333  0.33333333  0.06551164
   0.83333333  0.66666667  0.06551164
   0.00000000  0.00000000  0.13119553
   0.00000000  0.33333333  0.13119553
   0.00000000  0.66666667  0.13119553
   0.33333333  0.00000000  0.13119553
   0.33333333  0.33333333  0.13119553
   0.33333333  0.66666667  0.13119553
   0.66666667  0.00000000  0.13119553
   0.66666667  0.33333333  0.13119553
   0.66666667  0.66666667  0.13119553
   0.16666667  0.16666667  0.13119553
   0.16666667  0.50000000  0.13119553
   0.16666667  0.83333333  0.13119553
   0.50000000  0.16666667  0.13119553
   0.50000000  0.50000000  0.13119553
   0.50000000  0.83333333  0.13119553
   0.83333333  0.16666667  0.13119553
   0.83333333  0.50000000  0.13119553
   0.83333333  0.83333333  0.13119553
   0.00023158  0.16665542  0.19382617
   0.00023158  0.50001125  0.19382617
   0.00002299  0.83333333  0.19375921
   0.33333333  0.16681002  0.19369512
   0.33333333  0.49985665  0.19369512
   0.33333333  0.83333333  0.19403823
   0.66643509  0.16665542  0.19382617
   0.66643509  0.50001125  0.19382617
   0.66664368  0.83333333  0.19375921
   0.16665542  0.00023158  0.19382617
   0.16681002  0.33333333  0.19369512
   0.16665542  0.66643509  0.19382617
   0.50001125  0.00023158  0.19382617
   0.49985665  0.33333333  0.19369512
   0.50001125  0.66643509  0.19382617
   0.83333333  0.00002299  0.19375921
   0.83333333  0.33333333  0.19403823
   0.83333333  0.66664368  0.19375921
   0.00004552  0.00004552  0.25842697
  -0.00015966  0.33333333  0.25863924
   0.00004552  0.66662114  0.25842697
   0.33333333 -0.00015966  0.25863924
   0.33333333  0.33333333  0.25845673
   0.33333333  0.66682633  0.25863924
   0.66662114  0.00004552  0.25842697
   0.66682633  0.33333333  0.25863924
   0.66662114  0.66662114  0.25842697
   0.16679250  0.16679250  0.25870916
   0.16679250  0.49987416  0.25870916
   0.16662553  0.83333333  0.25825771
   0.49987416  0.16679250  0.25870916
   0.49987416  0.49987416  0.25870916
   0.50004113  0.83333333  0.25825771
   0.83333333  0.16662553  0.25825771
   0.83333333  0.50004113  0.25825771
   0.83333333  0.83333333  0.25846573
  -0.00021265  0.16636636  0.32144367
  -0.00021265  0.50030031  0.32144367
   0.00009105  0.83333333  0.32168655
   0.33333333  0.16663872  0.32186296
   0.33333333  0.50002795  0.32186296
   0.33333333  0.83333333  0.32189955
   0.66687931  0.16636636  0.32144367
   0.66687931  0.50030031  0.32144367
   0.66657562  0.83333333  0.32168655
   0.16636636 -0.00021265  0.32144367
   0.16663872  0.33333333  0.32186296
   0.16636636  0.66687931  0.32144367
   0.50030031 -0.00021265  0.32144367
   0.50002795  0.33333333  0.32186296
   0.50030031  0.66687931  0.32144367
   0.83333333  0.00009105  0.32168655
   0.83333333  0.33333333  0.32189955
   0.83333333  0.66657562  0.32168655
  -0.00006901 -0.00006901  0.38503730
   0.00153071  0.33333333  0.38555036
  -0.00006901  0.66673567  0.38503730
   0.33333333  0.00153071  0.38555036
   0.33333333  0.33333333  0.38216955
   0.33333333  0.66513596  0.38555036
   0.66673567 -0.00006901  0.38503730
   0.66513596  0.33333333  0.38555036
   0.66673567  0.66673567  0.38503730
   0.16660645  0.16660645  0.38459429
   0.16660645  0.50006022  0.38459429
   0.16666905  0.83333333  0.38493562
   0.50006022  0.16660645  0.38459429
   0.50006022  0.50006022  0.38459429
   0.49999761  0.83333333  0.38493562
   0.83333333  0.16666905  0.38493562
   0.83333333  0.49999761  0.38493562
   0.83333333  0.83333333  0.38499191
  -0.00016806  0.16641222  0.44714750
  -0.00016806  0.50025445  0.44714750
   0.00019564  0.83333333  0.44727915
   0.33333333  0.17238602  0.45123727
   0.33333333  0.49428064  0.45123727
   0.33333333  0.83333333  0.44733265
   0.66683472  0.16641222  0.44714750
   0.66683472  0.50025445  0.44714750
   0.66647103  0.83333333  0.44727915
   0.16641222 -0.00016806  0.44714750
   0.17238602  0.33333333  0.45123727
   0.16641222  0.66683472  0.44714750
   0.50025445 -0.00016806  0.44714750
   0.49428064  0.33333333  0.45123727
   0.50025445  0.66683472  0.44714750
   0.83333333  0.00019564  0.44727915
   0.83333333  0.33333333  0.44733265
   0.83333333  0.66647103  0.44727915
   0.33333333  0.33333333  0.48853214
Direct configuration=     5
   0.00000000  0.00000000  0.00000000
   0.00000000  0.33333333  0.00000000
   0.00000000  0.66666667  0.00000000
   0.33333333  0.00000000  0.00000000
   0.33333333  0.33333333  0.00000000
   0.33333333  0.66666667  0.00000000
   0.66666667  0.00000000  0.00000000
   0.66666667  0.33333333  0.00000000
   0.66666667  0.66666667  0.00000000
   0.16666667  0.16666667  0.00000000
   0.16666667  0.50000000  0.00000000
   0.16666667  0.83333333  0.00000000
   0.50000000  0.16666667  0.00000000
   0.50000000  0.50000000  0.00000000
   0.50000000  0.83333333  0.00000000
   0.83333333  0.16666667  0.00000000
   0.83333333  0.50000000  0.00000000
   0.83333333  0.83333333  0.00000000
   0.00000000  0.16666667  0.06551164
   0.00000000  0.50000000  0.06551164
   0.00000000  0.83333333  0.06551164
   0.33333333  0.16666667  0.06551164
   0.33333333  0.50000000  0.06551164
   0.33333333  0.83333333  0.06551164
   0.66666667  0.16666667  0.06551164
   0.66666667  0.50000000  0.06551164
   0.66666667  0.83333333  0.06551164
   0.16666667  0.00000000  0.06551164
   0.16666667  0.33333333  0.06551164
   0.16666667  0.66666667  0.06551164
   0.50000000  0.00000000  0.06551164
   0.50000000  0.33333333  0.06551164
   0.50000000  0.66666667  0.06551164
   0.83333333  0.00000000  0.06551164
   0.83333333  0.33333333  0.06551164
   0.83333333  0.66666667  0.06551164
   0.00000000  0.00000000  0.13119553
   0.00000000  0.33333333  0.13119553
   0.00000000  0.66666667  0.13119553
   0.33333333  0.00000000  0.13119553
   0.33333333  0.33333333  0.13119553
   0.33333333  0.66666667  0.13119553
   0.66666667  0.00000000  0.13119553
   0.66666667  0.33333333  0.13119553
   0.66666667  0.66666667  0.13119553
   0.16666667  0.16666667  0.13119553
   0.16666667  0.50000000  0.13119553
   0.16666667  0.83333333  0.13119553
   0.50000000  0.16666667  0.13119553
   0.50000000  0.50000000  0.13119553
   0.50000000  0.83333333  0.13119553
   0.83333333  0.16666667  0.13119553
   0.83333333  0.50000000  0.13119553
   0.83333333  0.83333333  0.13119553
   0.00029268  0.16672071  0.19388363
   0.00029268  0.49994596  0.19388363
  -0.00000847  0.83333333  0.19378301
   0.33333333  0.16676720  0.19379807
   0.33333333  0.49989947  0.19379807
   0.33333333  0.83333333  0.19406243
   0.66637399  0.16672071  0.19388363
   0.66637399  0.49994596  0.19388363
   0.66667513  0.83333333  0.19378301
   0.16672071  0.00029268  0.19388363
   0.16676720  0.33333333  0.19379807
   0.16672071  0.66637399  0.19388363
   0.49994596  0.00029268  0.19388363
   0.49989947  0.33333333  0.19379807
   0.49994596  0.66637399  0.19388363
   0.83333333 -0.00000847  0.19378301
   0.83333333  0.33333333  0.19406243
   0.83333333  0.66667513  0.19378301
  -0.00002118 -0.00002118  0.25788770
  -0.00010757  0.33333333  0.25816615
  -0.00002118  0.66668785  0.25788770
   0.33333333 -0.00010757  0.25816615
   0.33333333  0.33333333  0.25794118
   0.33333333  0.66677423  0.25816615
   0.66668785 -0.00002118  0.25788770
   0.66677423  0.33333333  0.25816615
   0.66668785  0.66668785  0.25788770
   0.16688819  0.16688819  0.25819785
   0.16688819  0.49977848  0.25819785
   0.16661391  0.83333333  0.25775437
   0.49977848  0.16688819  0.25819785
   0.49977848  0.49977848  0.25819785
   0.50005275  0.83333333  0.25775437
   0.83333333  0.16661391  0.25775437
   0.83333333  0.50005275  0.25775437
   0.83333333  0.83333333  0.25798371
  -0.00036937  0.16646319  0.32138725
  -0.00036937  0.50020348  0.32138725
   0.00002080  0.83333333  0.32154250
   0.33333333  0.16593414  0.32158840
   0.33333333  0.50073253  0.32158840
   0.33333333  0.83333333  0.32192526
   0.66703604  0.16646319  0.32138725
   0.66703604  0.50020348  0.32138725
   0.66664587  0.83333333  0.32154250
   0.16646319 -0.00036937  0.32138725
   0.16593414  0.33333333  0.32158840
   0.16646319  0.66703604  0.32138725
   0.50020348 -0.00036937  0.32138725
   0.50073253  0.33333333  0.32158840
   0.50020348  0.66703604  0.32138725
   0.83333333  0.00002080  0.32154250
   0.83333333  0.33333333  0.32192526
   0.83333333  0.66664587  0.32154250
  -0.00008651 -0.00008651  0.38510382
   0.00245656  0.33333333  0.38601169
  -0.00008651  0.66675318  0.38510382
   0.33333333  0.00245656  0.38601169
   0.33333333  0.33333333  0.38251450
   0.33333333  0.66421011  0.38601169
   0.66675318 -0.00008651  0.38510382
   0.66421011  0.33333333  0.38601169
   0.66675318  0.66675318  0.38510382
   0.16711410  0.16711410  0.38515978
   0.16711410  0.49955256  0.38515978
   0.16687117  0.83333333  0.38501554
   0.49955256  0.16711410  0.38515978
   0.49955256  0.49955256  0.38515978
   0.49979550  0.83333333  0.38501554
   0.83333333  0.16687117  0.38501554
   0.83333333  0.49979550  0.38501554
   0.83333333  0.83333333  0.38510646
   0.00031381  0.16666999  0.44722115
   0.00031381  0.49999668  0.44722115
   0.00015866  0.83333333  0.44735595
   0.33333333  0.17286846  0.45181150
   0.33333333  0.49379821  0.45181150
   0.33333333  0.83333333  0.44737631
   0.66635285  0.16666999  0.44722115
   0.66635285  0.49999668  0.44722115
   0.66650801  0.83333333  0.44735595
   0.16666999  0.00031381  0.44722115
   0.17286846  0.33333333  0.45181150
   0.16666999  0.66635285  0.44722115
   0.49999668  0.00031381  0.44722115
   0.49379821  0.33333333  0.45181150
   0.49999668  0.66635285  0.44722115
   0.83333333  0.00015866  0.44735595
   0.83333333  0.33333333  0.44737631
   0.83333333  0.66650801  0.44735595
   0.33333333  0.33333333  0.48347570
Direct configuration=     6
   0.00000000  0.00000000  0.00000000
   0.00000000  0.33333333  0.00000000
   0.00000000  0.66666667  0.00000000
   0.33333333  0.00000000  0.00000000
   0.33333333  0.33333333  0.00000000
   0.33333333  0.66666667  0.00000000
   0.66666667  0.00000000  0.00000000
   0.66666667  0.33333333  0.00000000
   0.66666667  0.66666667  0.00000000
   0.16666667  0.16666667  0.00000000
   0.16666667  0.50000000  0.00000000
   0.16666667  0.83333333  0.00000000
   0.50000000  0.16666667  0.00000000
   0.50000000  0.50000000  0.00000000
   0.50000000  0.83333333  0.00000000
   0.83333333  0.16666667  0.00000000
   0.83333333  0.50000000  0.00000000
   0.83333333  0.83333333  0.00000000
   0.00000000  0.16666667  0.06551164
   0.00000000  0.50000000  0.06551164
   0.00000000  0.83333333  0.06551164
   0.33333333  0.16666667  0.06551164
   0.33333333  0.50000000  0.06551164
   0.33333333  0.83333333  0.06551164
   0.66666667  0.16666667  0.06551164
   0.66666667  0.50000000  0.06551164
   0.66666667  0.83333333  0.06551164
   0.16666667  0.00000000  0.06551164
   0.16666667  0.33333333  0.06551164
   0.16666667  0.66666667  0.06551164
   0.50000000  0.00000000  0.06551164
   0.50000000  0.33333333  0.06551164
   0.50000000  0.66666667  0.06551164
   0.83333333  0.00000000  0.06551164
   0.83333333  0.33333333  0.06551164
   0.83333333  0.66666667  0.06551164
   0.00000000  0.00000000  0.13119553
   0.00000000  0.33333333  0.13119553
   0.00000000  0.66666667  0.13119553
   0.33333333  0.00000000  0.13119553
   0.33333333  0.33333333  0.13119553
   0.33333333  0.66666667  0.13119553
   0.66666667  0.00000000  0.13119553
   0.66666667  0.33333333  0.13119553
   0.66666667  0.66666667  0.13119553
   0.16666667  0.16666667  0.13119553
   0.16666667  0.50000000  0.13119553
   0.16666667  0.83333333  0.13119553
   0.50000000  0.16666667  0.13119553
   0.50000000  0.50000000  0.13119553
   0.50000000  0.83333333  0.13119553
   0.83333333  0.16666667  0.13119553
   0.83333333  0.50000000  0.13119553
   0.83333333  0.83333333  0.13119553
   0.00035665  0.16678908  0.19394379