       N       E                     dE             d eps       ncg     rms          rms(c)
DAV:   1     0.401162347596E+04    0.40116E+04   -0.15819E+05  3408   0.171E+03
DAV:   2     0.446172187286E+03   -0.35655E+04   -0.34176E+04  3408   0.404E+02
DAV:   3    -0.126346823053E+03   -0.57252E+03   -0.51546E+03  3408   0.207E+02
DAV:   4    -0.164091087306E+03   -0.37744E+02   -0.36581E+02  3840   0.750E+01
DAV:   5    -0.164984243649E+03   -0.89316E+00   -0.89032E+00  3848   0.107E+01    0.574E+01
DAV:   6    -0.135170889537E+03    0.29813E+02   -0.39938E+02  3652   0.121E+02    0.298E+01
DAV:   7    -0.114286544793E+03    0.20884E+02   -0.96744E+01  3736   0.725E+01    0.138E+01
DAV:   8    -0.112933693891E+03    0.13529E+01   -0.25048E+01  3944   0.646E+01    0.138E+01
DAV:   9    -0.110410304240E+03    0.25234E+01   -0.67629E+00  4712   0.332E+01    0.102E+01
DAV:  10    -0.110196884220E+03    0.21342E+00   -0.11217E+01  4404   0.209E+01    0.826E+00
DAV:  11    -0.113922903896E+03   -0.37260E+01   -0.41276E+00  3856   0.306E+01    0.667E+00
DAV:  12    -0.118385556394E+03   -0.44627E+01   -0.37631E+00  4072   0.187E+01    0.285E+00
DAV:  13    -0.127290674457E+03   -0.89051E+01   -0.60601E+00  5072   0.135E+01    0.309E+00
DAV:  14    -0.131532825441E+03   -0.42422E+01   -0.29179E+00  4704   0.122E+01    0.249E+00
DAV:  15    -0.135552361061E+03   -0.40195E+01   -0.41336E+00  4096   0.991E+00    0.120E+00
DAV:  16    -0.136983623134E+03   -0.14313E+01   -0.15538E+00  3832   0.483E+00    0.122E+00
DAV:  17    -0.137577578393E+03   -0.59396E+00   -0.38289E-01  4064   0.241E+00    0.658E-01
DAV:  18    -0.138009484696E+03   -0.43191E+00   -0.74487E-02  4768   0.147E+00    0.499E-01
DAV:  19    -0.138451507833E+03   -0.44202E+00   -0.73258E-02  4752   0.243E+00    0.336E-01
DAV:  20    -0.138768113676E+03   -0.31661E+00   -0.21780E-02  4736   0.142E+00    0.267E-01
DAV:  21    -0.139065731928E+03   -0.29762E+00   -0.14582E-02  4148   0.108E+00    0.241E-01
DAV:  22    -0.139327441592E+03   -0.26171E+00   -0.16748E-02  4364   0.951E-01    0.195E-01
DAV:  23    -0.139451497838E+03   -0.12406E+00   -0.56452E-03  4064   0.534E-01    0.772E-02
DAV:  24    -0.139484015771E+03   -0.32518E-01   -0.13142E-03  3392   0.168E-01    0.470E-02
DAV:  25    -0.139503548017E+03   -0.19532E-01   -0.13078E-03  3036   0.255E-01    0.410E-02
DAV:  26    -0.139510889597E+03   -0.73416E-02   -0.33217E-04  2496   0.144E-01    0.226E-02
DAV:  27    -0.139513076989E+03   -0.21874E-02   -0.14532E-04  2440   0.643E-02    0.144E-02
DAV:  28    -0.139513928471E+03   -0.85148E-03   -0.60334E-05  2224   0.650E-02    0.775E-03
DAV:  29    -0.139514060702E+03   -0.13223E-03   -0.30316E-05  2232   0.322E-02
   1 F= -.15376863E+03 E0= -.15375377E+03  d E =-.153769E+03  mag=    -0.0011
       N       E                     dE             d eps       ncg     rms          rms(c)
DAV:   1    -0.139518348425E+03   -0.44200E-02   -0.10398E+01  3756   0.612E+00    0.277E-01
DAV:   2    -0.139536728745E+03   -0.18380E-01   -0.19493E-01  5120   0.247E+00    0.360E-01
DAV:   3    -0.139535850382E+03    0.87836E-03   -0.13623E-02  3672   0.184E+00    0.174E-01
DAV:   4    -0.139535811901E+03    0.38481E-04   -0.28097E-03  3736   0.640E-01    0.157E-01
DAV:   5    -0.139535764705E+03    0.47197E-04   -0.13473E-03  3356   0.600E-01
   2 F= -.15379988E+03 E0= -.15378355E+03  d E =-.312489E-01  mag=    -0.0008
       N       E                     dE             d eps       ncg     rms          rms(c)
DAV:   1    -0.139530689341E+03    0.51226E-02   -0.72685E+00  3736   0.510E+00    0.234E-01
DAV:   2    -0.139543215498E+03   -0.12526E-01   -0.13054E-01  5136   0.213E+00    0.277E-01
DAV:   3    -0.139543119743E+03    0.95754E-04   -0.12758E-02  3620   0.196E+00    0.160E-01
DAV:   4    -0.139543045234E+03    0.74509E-04   -0.28840E-03  3572   0.673E-01    0.119E-01
DAV:   5    -0.139543055576E+03   -0.10342E-04   -0.12788E-03  3472   0.448E-01
   3 F= -.15381523E+03 E0= -.15379778E+03  d E =-.465981E-01  mag=    -0.0005
       N       E                     dE             d eps       ncg     rms          rms(c)
DAV:   1    -0.139479993507E+03    0.63052E-01   -0.29110E+01  3724   0.102E+01    0.509E-01
DAV:   2    -0.139533517811E+03   -0.53524E-01   -0.57303E-01  5080   0.449E+00    0.613E-01
DAV:   3    -0.139530610583E+03    0.29072E-02   -0.39441E-02  3632   0.359E+00    0.299E-01
DAV:   4    -0.139530204438E+03    0.40615E-03   -0.89804E-03  3860   0.127E+00    0.255E-01
DAV:   5    -0.139530151667E+03    0.52771E-04   -0.51494E-03  3644   0.892E-01    0.226E-01
DAV:   6    -0.139529617337E+03    0.53433E-03   -0.43578E-03  4248   0.583E-01    0.863E-02
DAV:   7    -0.139529548168E+03    0.69169E-04   -0.68482E-04  2912   0.471E-01
   4 F= -.15381805E+03 E0= -.15379866E+03  d E =-.494234E-01  mag=    -0.0003
       N       E                     dE             d eps       ncg     rms          rms(c)
DAV:   1    -0.139530952884E+03   -0.13355E-02   -0.57689E+00  3744   0.450E+00    0.145E-01
DAV:   2    -0.139540862498E+03   -0.99096E-02   -0.10252E-01  4888   0.113E+00    0.183E-01
DAV:   3    -0.139540586409E+03    0.27609E-03   -0.11650E-03  3492   0.268E-01    0.143E-01
DAV:   4    -0.139540505167E+03    0.81242E-04   -0.36949E-04  2096   0.294E-01
   5 F= -.15382170E+03 E0= -.15380309E+03  d E =-.530652E-01  mag=    -0.0002
       N       E                     dE             d eps       ncg     rms          rms(c)
DAV:   1    -0.139527971830E+03    0.12615E-01   -0.46186E+00  3760   0.417E+00    0.142E-01
DAV:   2    -0.139536174942E+03   -0.82031E-02   -0.82180E-02  4976   0.142E+00    0.204E-01
DAV:   3    -0.139536199980E+03   -0.25038E-04   -0.73658E-03  3552   0.119E+00    0.141E-01
DAV:   4    -0.139536120969E+03    0.79011E-04   -0.14702E-03  3264   0.494E-01
   6 F= -.15383103E+03 E0= -.15381180E+03  d E =-.933788E-02  mag=    -0.0002
       N       E                     dE             d eps       ncg     rms          rms(c)
DAV:   1    -0.139456640757E+03    0.79559E-01   -0.32716E+01  3752   0.110E+01    0.423E-01
DAV:   2    -0.139516557846E+03   -0.59917E-01   -0.63067E-01  5028   0.374E+00    0.590E-01
DAV:   3    -0.139514168159E+03    0.23897E-02   -0.25356E-02  3724   0.208E+00    0.358E-01
DAV:   4    -0.139513626488E+03    0.54167E-03   -0.52886E-03  3792   0.929E-01    0.337E-01
DAV:   5    -0.139512768359E+03    0.85813E-03   -0.41505E-03  4232   0.155E+00    0.295E-01
DAV:   6    -0.139511197130E+03    0.15712E-02   -0.63312E-03  6172   0.118E+00    0.624E-02
DAV:   7    -0.139511285411E+03   -0.88280E-04   -0.17277E-03  3580   0.289E-01
   7 F= -.15384259E+03 E0= -.15382150E+03  d E =-.208890E-01  mag=    -0.0001
       N       E                     dE             d eps       ncg     rms          rms(c)
DAV:   1    -0.139488126036E+03    0.23071E-01   -0.87282E+00  3756   0.564E+00    0.210E-01
DAV:   2    -0.139503123956E+03   -0.14998E-01   -0.15227E-01  5040   0.217E+00    0.286E-01
DAV:   3    -0.139502616080E+03    0.50788E-03   -0.96444E-03  3732   0.159E+00    0.164E-01
DAV:   4    -0.139502596485E+03    0.19595E-04   -0.27672E-03  3484   0.619E-01    0.150E-01
DAV:   5    -0.139502461565E+03    0.13492E-03   -0.10822E-03  3252   0.449E-01
   8 F= -.15385217E+03 E0= -.15383022E+03  d E =-.958667E-02  mag=    -0.0001
       N       E                     dE             d eps       ncg     rms          rms(c)
DAV:   1    -0.139334438779E+03    0.16816E+00   -0.78966E+01  3752   0.172E+01    0.711E-01
DAV:   2    -0.139485132967E+03   -0.15069E+00   -0.15387E+00  5152   0.774E+00    0.996E-01
DAV:   3    -0.139473751867E+03    0.11381E-01   -0.79056E-02  4216   0.528E+00    0.528E-01
DAV:   4    -0.139472931815E+03    0.82005E-03   -0.22611E-02  3876   0.185E+00    0.490E-01
DAV:   5    -0.139471764093E+03    0.11677E-02   -0.13205E-02  3696   0.136E+00    0.422E-01
DAV:   6    -0.139468368894E+03    0.33952E-02   -0.16350E-02  4904   0.114E+00    0.130E-01
DAV:   7    -0.139468276120E+03    0.92774E-04   -0.22796E-03  4032   0.609E-01    0.495E-02
DAV:   8    -0.139468276657E+03   -0.53681E-06   -0.43455E-04  2368   0.298E-01
   9 F= -.15387329E+03 E0= -.15384838E+03  d E =-.307023E-01  mag=    -0.0000
       N       E                     dE             d eps       ncg     rms          rms(c)
DAV:   1    -0.138782219259E+03    0.68606E+00   -0.32280E+02  3784   0.363E+01    0.154E+00
DAV:   2    -0.139461222529E+03   -0.67900E+00   -0.68630E+00  5428   0.185E+01    0.236E+00
DAV:   3    -0.139383823505E+03    0.77399E-01   -0.37203E-01  5044   0.116E+01    0.115E+00
DAV:   4    -0.139381296091E+03    0.25274E-02   -0.95614E-02  4076   0.347E+00    0.106E+00
DAV:   5    -0.139377412340E+03    0.38838E-02   -0.55819E-02  3548   0.258E+00    0.905E-01
DAV:   6    -0.139361056183E+03    0.16356E-01   -0.40822E-02  5176   0.196E+00    0.285E-01
DAV:   7    -0.139359917551E+03    0.11386E-02   -0.12704E-02  5280   0.106E+00    0.112E-01
DAV:   8    -0.139359818403E+03    0.99148E-04   -0.16879E-03  3600   0.698E-01
  10 F= -.15387583E+03 E0= -.15384569E+03  d E =-.332457E-01  mag=    -0.0000
       N       E                     dE             d eps       ncg     rms          rms(c)
DAV:   1    -0.139262459080E+03    0.97458E-01   -0.94943E+01  3756   0.190E+01    0.608E-01
DAV:   2    -0.139438818081E+03   -0.17636E+00   -0.18243E+00  4648   0.420E+00    0.751E-01
DAV:   3    -0.139434409310E+03    0.44088E-02   -0.48468E-02  3972   0.159E+00    0.605E-01
DAV:   4    -0.139432331259E+03    0.20781E-02   -0.71190E-03  3616   0.154E+00    0.522E-01
DAV:   5    -0.139428186843E+03    0.41444E-02   -0.38815E-03  5700   0.123E+00    0.387E-01
DAV:   6    -0.139426015945E+03    0.21709E-02   -0.64021E-03  6220   0.202E+00    0.185E-01
DAV:   7    -0.139424639831E+03    0.13761E-02   -0.39151E-03  6076   0.130E+00    0.899E-02
DAV:   8    -0.139424711877E+03   -0.72047E-04   -0.17907E-03  3656   0.313E-01
  11 F= -.15387982E+03 E0= -.15385259E+03  d E =-.372334E-01  mag=    -0.0000
       N       E                     dE             d eps       ncg     rms          rms(c)
DAV:   1    -0.139363640692E+03    0.60999E-01   -0.25567E+01  3704   0.969E+00    0.338E-01
DAV:   2    -0.139411424231E+03   -0.47784E-01   -0.48864E-01  5116   0.343E+00    0.526E-01
DAV:   3    -0.139409431586E+03    0.19926E-02   -0.20795E-02  3584   0.228E+00    0.319E-01
DAV:   4    -0.139409142803E+03    0.28878E-03   -0.55478E-03  3644   0.867E-01    0.306E-01
DAV:   5    -0.139407818122E+03    0.13247E-02   -0.39689E-03  4152   0.102E+00    0.238E-01
DAV:   6    -0.139406901892E+03    0.91623E-03   -0.59328E-03  5660   0.888E-01    0.634E-02
DAV:   7    -0.139406888975E+03    0.12917E-04   -0.63662E-04  2536   0.146E-01
  12 F= -.15388768E+03 E0= -.15385906E+03  d E =-.786038E-02  mag=    -0.0000
