unknown system                          
           1
     7.260000    0.000000    0.000000
     0.000000    7.260000    0.000000
     0.000000    0.000000   22.260000
   Cu
    40
Direct configuration=     1
   0.00000000  0.00000000  0.00000000
   0.00000000  0.50000000  0.00000000
   0.50000000  0.00000000  0.00000000
   0.50000000  0.50000000  0.00000000
   0.25000000  0.25000000  0.00000000
   0.25000000  0.75000000  0.00000000
   0.75000000  0.25000000  0.00000000
   0.75000000  0.75000000  0.00000000
   0.00000000  0.25000000  0.08153639
   0.00000000  0.75000000  0.08153639
   0.50000000  0.25000000  0.08153639
   0.50000000  0.75000000  0.08153639
   0.25000000  0.00000000  0.08153639
   0.25000000  0.50000000  0.08153639
   0.75000000  0.00000000  0.08153639
   0.75000000  0.50000000  0.08153639
   0.00000000  0.00000000  0.16307278
   0.00000000  0.50000000  0.16307278
   0.50000000  0.00000000  0.16307278
   0.50000000  0.50000000  0.16307278
   0.25000000  0.25000000  0.16307278
   0.25000000  0.75000000  0.16307278
   0.75000000  0.25000000  0.16307278
   0.75000000  0.75000000  0.16307278
   0.00000000  0.25000000  0.24460917
   0.00000000  0.75000000  0.24460917
   0.50000000  0.25000000  0.24460917
   0.50000000  0.75000000  0.24460917
   0.25000000  0.00000000  0.24460917
   0.25000000  0.50000000  0.24460917
   0.75000000  0.00000000  0.24460917
   0.75000000  0.50000000  0.24460917
   0.00000000  0.00000000  0.32614556
   0.00000000  0.50000000  0.32614556
   0.50000000  0.00000000  0.32614556
   0.50000000  0.50000000  0.32614556
   0.25000000  0.25000000  0.32614556
   0.25000000  0.75000000  0.32614556
   0.75000000  0.25000000  0.32614556
   0.75000000  0.75000000  0.32614556
Direct configuration=     2
   0.00000000  0.00000000  0.00000000
   0.00000000  0.50000000  0.00000000
   0.50000000  0.00000000  0.00000000
   0.50000000  0.50000000  0.00000000
   0.25000000  0.25000000  0.00000000
   0.25000000  0.75000000  0.00000000
   0.75000000  0.25000000  0.00000000
   0.75000000  0.75000000  0.00000000
   0.00000000  0.25000000  0.08153639
   0.00000000  0.75000000  0.08153639
   0.50000000  0.25000000  0.08153639
   0.50000000  0.75000000  0.08153639
   0.25000000  0.00000000  0.08153639
   0.25000000  0.50000000  0.08153639
   0.75000000  0.00000000  0.08153639
   0.75000000  0.50000000  0.08153639
  -0.00000000  0.00000000  0.16307791
  -0.00000000  0.50000000  0.16307791
   0.50000000  0.00000000  0.16307791
   0.50000000  0.50000000  0.16307791
   0.25000000  0.25000000  0.16307791
   0.25000000  0.75000000  0.16307791
   0.75000000  0.25000000  0.16307791
   0.75000000  0.75000000  0.16307791
  -0.00000000  0.25000000  0.24492829
   0.00000000  0.75000000  0.24492829
   0.50000000  0.25000000  0.24492829
   0.50000000  0.75000000  0.24492829
   0.25000000 -0.00000000  0.24492829
   0.25000000  0.50000000  0.24492829
   0.75000000 -0.00000000  0.24492829
   0.75000000  0.50000000  0.24492829
  -0.00000000  0.00000000  0.32555098
  -0.00000000  0.50000000  0.32555098
   0.50000000 -0.00000000  0.32555098
   0.50000000  0.50000000  0.32555098
   0.25000000  0.25000000  0.32555098
   0.25000000  0.75000000  0.32555098
   0.75000000  0.25000000  0.32555098
   0.75000000  0.75000000  0.32555098
Direct configuration=     3
   0.00000000  0.00000000  0.00000000
   0.00000000  0.50000000  0.00000000
   0.50000000  0.00000000  0.00000000
   0.50000000  0.50000000  0.00000000
   0.25000000  0.25000000  0.00000000
   0.25000000  0.75000000  0.00000000
   0.75000000  0.25000000  0.00000000
   0.75000000  0.75000000  0.00000000
   0.00000000  0.25000000  0.08153639
   0.00000000  0.75000000  0.08153639
   0.50000000  0.25000000  0.08153639
   0.50000000  0.75000000  0.08153639
   0.25000000  0.00000000  0.08153639
   0.25000000  0.50000000  0.08153639
   0.75000000  0.00000000  0.08153639
   0.75000000  0.50000000  0.08153639
  -0.00000000  0.00000000  0.16308219
  -0.00000000  0.50000000  0.16308219
   0.50000000  0.00000000  0.16308219
   0.50000000  0.50000000  0.16308219
   0.25000000  0.25000000  0.16308219
   0.25000000  0.75000000  0.16308219
   0.75000000  0.25000000  0.16308219
   0.75000000  0.75000000  0.16308219
  -0.00000000  0.25000000  0.24519498
   0.00000000  0.75000000  0.24519498
   0.50000000  0.25000000  0.24519498
   0.50000000  0.75000000  0.24519498
   0.25000000 -0.00000000  0.24519498
   0.25000000  0.50000000  0.24519498
   0.75000000 -0.00000000  0.24519498
   0.75000000  0.50000000  0.24519498
  -0.00000000  0.00000000  0.32505410
  -0.00000000  0.50000000  0.32505410
   0.50000000 -0.00000000  0.32505410
   0.50000000  0.50000000  0.32505410
   0.25000000  0.25000000  0.32505410
   0.25000000  0.75000000  0.32505410
   0.75000000  0.25000000  0.32505410
   0.75000000  0.75000000  0.32505410
Direct configuration=     4
   0.00000000  0.00000000  0.00000000
   0.00000000  0.50000000  0.00000000
   0.50000000  0.00000000  0.00000000
   0.50000000  0.50000000  0.00000000
   0.25000000  0.25000000  0.00000000
   0.25000000  0.75000000  0.00000000
   0.75000000  0.25000000  0.00000000
   0.75000000  0.75000000  0.00000000
   0.00000000  0.25000000  0.08153639
   0.00000000  0.75000000  0.08153639
   0.50000000  0.25000000  0.08153639
   0.50000000  0.75000000  0.08153639
   0.25000000  0.00000000  0.08153639
   0.25000000  0.50000000  0.08153639
   0.75000000  0.00000000  0.08153639
   0.75000000  0.50000000  0.08153639
  -0.00000000  0.00000000  0.16309076
  -0.00000000  0.50000000  0.16309076
   0.50000000  0.00000000  0.16309076
   0.50000000  0.50000000  0.16309076
   0.25000000  0.25000000  0.16309076
   0.25000000  0.75000000  0.16309076
   0.75000000  0.25000000  0.16309076
   0.75000000  0.75000000  0.16309076
  -0.00000000  0.25000000  0.24572835
   0.00000000  0.75000000  0.24572835
   0.50000000  0.25000000  0.24572835
   0.50000000  0.75000000  0.24572835
   0.25000000 -0.00000000  0.24572835
   0.25000000  0.50000000  0.24572835
   0.75000000 -0.00000000  0.24572835
   0.75000000  0.50000000  0.24572835
  -0.00000000  0.00000000  0.32406035
  -0.00000000  0.50000000  0.32406035
   0.50000000 -0.00000000  0.32406035
   0.50000000  0.50000000  0.32406035
   0.25000000  0.25000000  0.32406035
   0.25000000  0.75000000  0.32406035
   0.75000000  0.25000000  0.32406035
   0.75000000  0.75000000  0.32406035
Direct configuration=     5
   0.00000000  0.00000000  0.00000000
   0.00000000  0.50000000  0.00000000
   0.50000000  0.00000000  0.00000000
   0.50000000  0.50000000  0.00000000
   0.25000000  0.25000000  0.00000000
   0.25000000  0.75000000  0.00000000
   0.75000000  0.25000000  0.00000000
   0.75000000  0.75000000  0.00000000
   0.00000000  0.25000000  0.08153639
   0.00000000  0.75000000  0.08153639
   0.50000000  0.25000000  0.08153639
   0.50000000  0.75000000  0.08153639
   0.25000000  0.00000000  0.08153639
   0.25000000  0.50000000  0.08153639
   0.75000000  0.00000000  0.08153639
   0.75000000  0.50000000  0.08153639
  -0.00000000  0.00000000  0.16308694
  -0.00000000  0.50000000  0.16308694
   0.50000000  0.00000000  0.16308694
   0.50000000  0.50000000  0.16308694
   0.25000000  0.25000000  0.16308694
   0.25000000  0.75000000  0.16308694
   0.75000000  0.25000000  0.16308694
   0.75000000  0.75000000  0.16308694
  -0.00000000  0.25000000  0.24549070
   0.00000000  0.75000000  0.24549070
   0.50000000  0.25000000  0.24549070
   0.50000000  0.75000000  0.24549070
   0.25000000 -0.00000000  0.24549070
   0.25000000  0.50000000  0.24549070
   0.75000000 -0.00000000  0.24549070
   0.75000000  0.50000000  0.24549070
  -0.00000000  0.00000000  0.32450313
  -0.00000000  0.50000000  0.32450313
   0.50000000 -0.00000000  0.32450313
   0.50000000  0.50000000  0.32450313
   0.25000000  0.25000000  0.32450313
   0.25000000  0.75000000  0.32450313
   0.75000000  0.25000000  0.32450313
   0.75000000  0.75000000  0.32450313
Direct configuration=     6
   0.00000000  0.00000000  0.00000000
   0.00000000  0.50000000  0.00000000
   0.50000000  0.00000000  0.00000000
   0.50000000  0.50000000  0.00000000
   0.25000000  0.25000000  0.00000000
   0.25000000  0.75000000  0.00000000
   0.75000000  0.25000000  0.00000000
   0.75000000  0.75000000  0.00000000
   0.00000000  0.25000000  0.08153639
   0.00000000  0.75000000  0.08153639
   0.50000000  0.25000000  0.08153639
   0.50000000  0.75000000  0.08153639
   0.25000000  0.00000000  0.08153639
   0.25000000  0.50000000  0.08153639
   0.75000000  0.00000000  0.08153639
   0.75000000  0.50000000  0.08153639
  -0.00000000  0.00000000  0.16323663
  -0.00000000  0.50000000  0.16323663
   0.50000000  0.00000000  0.16323663
   0.50000000  0.50000000  0.16323663
   0.25000000  0.25000000  0.16323663
   0.25000000  0.75000000  0.16323663
   0.75000000  0.25000000  0.16323663
   0.75000000  0.75000000  0.16323663
   0.00000000  0.25000000  0.24523919
   0.00000000  0.75000000  0.24523919
   0.50000000  0.25000000  0.24523919
   0.50000000  0.75000000  0.24523919
   0.25000000 -0.00000000  0.24523919
   0.25000000  0.50000000  0.24523919
   0.75000000 -0.00000000  0.24523919
   0.75000000  0.50000000  0.24523919
  -0.00000000  0.00000000  0.32415687
  -0.00000000  0.50000000  0.32415687
   0.50000000 -0.00000000  0.32415687
   0.50000000  0.50000000  0.32415687
   0.25000000  0.25000000  0.32415687
   0.25000000  0.75000000  0.32415687
   0.75000000  0.25000000  0.32415687
   0.75000000  0.75000000  0.32415687
Direct configuration=     7
   0.00000000  0.00000000  0.00000000
   0.00000000  0.50000000  0.00000000
   0.50000000  0.00000000  0.00000000
   0.50000000  0.50000000  0.00000000
   0.25000000  0.25000000  0.00000000
   0.25000000  0.75000000  0.00000000
   0.75000000  0.25000000  0.00000000
   0.75000000  0.75000000  0.00000000
   0.00000000  0.25000000  0.08153639
   0.00000000  0.75000000  0.08153639
   0.50000000  0.25000000  0.08153639
   0.50000000  0.75000000  0.08153639
   0.25000000  0.00000000  0.08153639
   0.25000000  0.50000000  0.08153639
   0.75000000  0.00000000  0.08153639
   0.75000000  0.50000000  0.08153639
  -0.00000000  0.00000000  0.16363429
  -0.00000000  0.50000000  0.16363429
   0.50000000  0.00000000  0.16363429
   0.50000000  0.50000000  0.16363429
   0.25000000  0.25000000  0.16363429
   0.25000000  0.75000000  0.16363429
   0.75000000  0.25000000  0.16363429
   0.75000000  0.75000000  0.16363429
   0.00000000  0.25000000  0.24457102
   0.00000000  0.75000000  0.24457102
   0.50000000  0.25000000  0.24457102
   0.50000000  0.75000000  0.24457102
   0.25000000 -0.00000000  0.24457102
   0.25000000  0.50000000  0.24457102
   0.75000000 -0.00000000  0.24457102
   0.75000000  0.50000000  0.24457102
  -0.00000000  0.00000000  0.32323701
  -0.00000000  0.50000000  0.32323701
   0.50000000 -0.00000000  0.32323701
   0.50000000  0.50000000  0.32323701
   0.25000000  0.25000000  0.32323701
   0.25000000  0.75000000  0.32323701
   0.75000000  0.25000000  0.32323701
   0.75000000  0.75000000  0.32323701
Direct configuration=     8
   0.00000000  0.00000000  0.00000000
   0.00000000  0.50000000  0.00000000
   0.50000000  0.00000000  0.00000000
   0.50000000  0.50000000  0.00000000
   0.25000000  0.25000000  0.00000000
   0.25000000  0.75000000  0.00000000
   0.75000000  0.25000000  0.00000000
   0.75000000  0.75000000  0.00000000
   0.00000000  0.25000000  0.08153639
   0.00000000  0.75000000  0.08153639
   0.50000000  0.25000000  0.08153639
   0.50000000  0.75000000  0.08153639
   0.25000000  0.00000000  0.08153639
   0.25000000  0.50000000  0.08153639
   0.75000000  0.00000000  0.08153639
   0.75000000  0.50000000  0.08153639
  -0.00000000  0.00000000  0.16336908
  -0.00000000  0.50000000  0.16336908
   0.50000000  0.00000000  0.16336908
   0.50000000  0.50000000  0.16336908
   0.25000000  0.25000000  0.16336908
   0.25000000  0.75000000  0.16336908
   0.75000000  0.25000000  0.16336908
   0.75000000  0.75000000  0.16336908
   0.00000000  0.25000000  0.24425943
   0.00000000  0.75000000  0.24425943
   0.50000000  0.25000000  0.24425943
   0.50000000  0.75000000  0.24425943
   0.25000000 -0.00000000  0.24425943
   0.25000000  0.50000000  0.24425943
   0.75000000 -0.00000000  0.24425943
   0.75000000  0.50000000  0.24425943
  -0.00000000  0.00000000  0.32276469
  -0.00000000  0.50000000  0.32276469
   0.50000000 -0.00000000  0.32276469
   0.50000000  0.50000000  0.32276469
   0.25000000  0.25000000  0.32276469
   0.25000000  0.75000000  0.32276469
   0.75000000  0.25000000  0.32276469
   0.75000000  0.75000000  0.32276469
Direct configuration=     9
   0.00000000  0.00000000  0.00000000
   0.00000000  0.50000000  0.00000000
   0.50000000  0.00000000  0.00000000
   0.50000000  0.50000000  0.00000000
   0.25000000  0.25000000  0.00000000
   0.25000000  0.75000000  0.00000000
   0.75000000  0.25000000  0.00000000
   0.75000000  0.75000000  0.00000000
   0.00000000  0.25000000  0.08153639
   0.00000000  0.75000000  0.08153639
   0.50000000  0.25000000  0.08153639
   0.50000000  0.75000000  0.08153639
   0.25000000  0.00000000  0.08153639
   0.25000000  0.50000000  0.08153639
   0.75000000  0.00000000  0.08153639
   0.75000000  0.50000000  0.08153639
  -0.00000000  0.00000000  0.16257344
  -0.00000000  0.50000000  0.16257344
   0.50000000  0.00000000  0.16257344
   0.50000000  0.50000000  0.16257344
   0.25000000  0.25000000  0.16257344
   0.25000000  0.75000000  0.16257344
   0.75000000  0.25000000  0.16257344
   0.75000000  0.75000000  0.16257344
  -0.00000000  0.25000000  0.24332465
   0.00000000  0.75000000  0.24332465
   0.50000000  0.25000000  0.24332465
   0.50000000  0.75000000  0.24332465
   0.25000000 -0.00000000  0.24332465
   0.25000000  0.50000000  0.24332465
   0.75000000  0.00000000  0.24332465
   0.75000000  0.50000000  0.24332465
  -0.00000000  0.00000000  0.32134773
   0.00000000  0.50000000  0.32134773
   0.50000000  0.00000000  0.32134773
   0.50000000  0.50000000  0.32134773
   0.25000000  0.25000000  0.32134773
   0.25000000  0.75000000  0.32134773
   0.75000000  0.25000000  0.32134773
   0.75000000  0.75000000  0.32134773
Direct configuration=    10
   0.00000000  0.00000000  0.00000000
   0.00000000  0.50000000  0.00000000
   0.50000000  0.00000000  0.00000000
   0.50000000  0.50000000  0.00000000
   0.25000000  0.25000000  0.00000000
   0.25000000  0.75000000  0.00000000
   0.75000000  0.25000000  0.00000000
   0.75000000  0.75000000  0.00000000
   0.00000000  0.25000000  0.08153639
   0.00000000  0.75000000  0.08153639
   0.50000000  0.25000000  0.08153639
   0.50000000  0.75000000  0.08153639
   0.25000000  0.00000000  0.08153639
   0.25000000  0.50000000  0.08153639
   0.75000000  0.00000000  0.08153639
   0.75000000  0.50000000  0.08153639
  -0.00000000  0.00000000  0.16098218
  -0.00000000  0.50000000  0.16098218
   0.50000000  0.00000000  0.16098218
   0.50000000  0.50000000  0.16098218
   0.25000000  0.25000000  0.16098218
   0.25000000  0.75000000  0.16098218
   0.75000000  0.25000000  0.16098218
   0.75000000  0.75000000  0.16098218
  -0.00000000  0.25000000  0.24145510
   0.00000000  0.75000000  0.24145510
   0.50000000  0.25000000  0.24145510
   0.50000000  0.75000000  0.24145510
   0.25000000 -0.00000000  0.24145510
   0.25000000  0.50000000  0.24145510
   0.75000000  0.00000000  0.24145510
   0.75000000  0.50000000  0.24145510
  -0.00000000  0.00000000  0.31851380
   0.00000000  0.50000000  0.31851380
   0.50000000  0.00000000  0.31851380
   0.50000000  0.50000000  0.31851380
   0.25000000  0.25000000  0.31851380
   0.25000000  0.75000000  0.31851380
   0.75000000  0.25000000  0.31851380
   0.75000000  0.75000000  0.31851380
Direct configuration=    11
   0.00000000  0.00000000  0.00000000
   0.00000000  0.50000000  0.00000000
   0.50000000  0.00000000  0.00000000
   0.50000000  0.50000000  0.00000000
   0.25000000  0.25000000  0.00000000
   0.25000000  0.75000000  0.00000000
   0.75000000  0.25000000  0.00000000
   0.75000000  0.75000000  0.00000000
   0.00000000  0.25000000  0.08153639
   0.00000000  0.75000000  0.08153639
   0.50000000  0.25000000  0.08153639
   0.50000000  0.75000000  0.08153639
   0.25000000  0.00000000  0.08153639
   0.25000000  0.50000000  0.08153639
   0.75000000  0.00000000  0.08153639
   0.75000000  0.50000000  0.08153639
  -0.00000000  0.00000000  0.16185435
  -0.00000000  0.50000000  0.16185435
   0.50000000  0.00000000  0.16185435
   0.50000000  0.50000000  0.16185435
   0.25000000  0.25000000  0.16185435
   0.25000000  0.75000000  0.16185435
   0.75000000  0.25000000  0.16185435
   0.75000000  0.75000000  0.16185435
  -0.00000000  0.25000000  0.24247980
   0.00000000  0.75000000  0.24247980
   0.50000000  0.25000000  0.24247980
   0.50000000  0.75000000  0.24247980
   0.25000000 -0.00000000  0.24247980
   0.25000000  0.50000000  0.24247980
   0.75000000  0.00000000  0.24247980
   0.75000000  0.50000000  0.24247980
  -0.00000000  0.00000000  0.32006707
   0.00000000  0.50000000  0.32006707
   0.50000000  0.00000000  0.32006707
   0.50000000  0.50000000  0.32006707
   0.25000000  0.25000000  0.32006707
   0.25000000  0.75000000  0.32006707
   0.75000000  0.25000000  0.32006707
   0.75000000  0.75000000  0.32006707
Direct configuration=    12
   0.00000000  0.00000000  0.00000000
   0.00000000  0.50000000  0.00000000
   0.50000000  0.00000000  0.00000000
   0.50000000  0.50000000  0.00000000
   0.25000000  0.25000000  0.00000000
   0.25000000  0.75000000  0.00000000
   0.75000000  0.25000000  0.00000000
   0.75000000  0.75000000  0.00000000
   0.00000000  0.25000000  0.08153639
   0.00000000  0.75000000  0.08153639
   0.50000000  0.25000000  0.08153639
   0.50000000  0.75000000  0.08153639
   0.25000000  0.00000000  0.08153639
   0.25000000  0.50000000  0.08153639
   0.75000000  0.00000000  0.08153639
   0.75000000  0.50000000  0.08153639
  -0.00000000  0.00000000  0.16143283
  -0.00000000  0.50000000  0.16143283
   0.50000000  0.00000000  0.16143283
   0.50000000  0.50000000  0.16143283
   0.25000000  0.25000000  0.16143283
   0.25000000  0.75000000  0.16143283
   0.75000000  0.25000000  0.16143283
   0.75000000  0.75000000  0.16143283
  -0.00000000  0.25000000  0.24154376
   0.00000000  0.75000000  0.24154376
   0.50000000  0.25000000  0.24154376
   0.50000000  0.75000000  0.24154376
   0.25000000 -0.00000000  0.24154376
   0.25000000  0.50000000  0.24154376
   0.75000000  0.00000000  0.24154376
   0.75000000  0.50000000  0.24154376
  -0.00000000  0.00000000  0.31975879
   0.00000000  0.50000000  0.31975879
   0.50000000  0.00000000  0.31975879
   0.50000000  0.50000000  0.31975879
   0.25000000  0.25000000  0.31975879
   0.25000000  0.75000000  0.31975879
   0.75000000  0.25000000  0.31975879
   0.75000000  0.75000000  0.31975879
