  34  34   0   0
  0.2629040E+02  0.7260000E-09  0.5133596E-09  0.2398379E-08  0.5000000E-15
  1.000000000000000E-004
  CAR 
 unknown system                          
     11.87512826    -10.22632778  301      0.85800759      1.00000000
    -10.226  0.0000E+00  0.0000E+00  0.0000E+00  0.0000E+00
    -10.153  0.0000E+00  0.0000E+00  0.0000E+00  0.0000E+00
    -10.079  0.0000E+00  0.0000E+00  0.0000E+00  0.0000E+00
    -10.005  0.0000E+00  0.0000E+00  0.0000E+00  0.0000E+00
     -9.932  0.0000E+00  0.0000E+00  0.0000E+00  0.0000E+00
     -9.858 -0.5398E-31 -0.5398E-31 -0.3977E-32 -0.3977E-32
     -9.784 -0.1829E-28 -0.1829E-28 -0.1351E-29 -0.1351E-29
     -9.711 -0.4723E-26 -0.4723E-26 -0.3493E-27 -0.3493E-27
     -9.637 -0.9272E-24 -0.9272E-24 -0.6866E-25 -0.6866E-25
     -9.563 -0.1383E-21 -0.1383E-21 -0.1026E-22 -0.1026E-22
     -9.490 -0.1568E-19 -0.1568E-19 -0.1165E-20 -0.1165E-20
     -9.416 -0.1349E-17 -0.1349E-17 -0.1005E-18 -0.1005E-18
     -9.342 -0.8523E-16 -0.8523E-16 -0.6379E-17 -0.6379E-17
     -9.269 -0.4200E-14 -0.4200E-14 -0.3158E-15 -0.3158E-15
     -9.195 -0.1565E-12 -0.1565E-12 -0.1184E-13 -0.1184E-13
     -9.121 -0.4402E-11 -0.4402E-11 -0.3361E-12 -0.3361E-12
     -9.048 -0.9329E-10 -0.9329E-10 -0.7209E-11 -0.7209E-11
     -8.974 -0.1484E-08 -0.1484E-08 -0.1166E-09 -0.1166E-09
     -8.900 -0.1765E-07 -0.1765E-07 -0.1417E-08 -0.1417E-08
     -8.827 -0.1558E-06 -0.1558E-06 -0.1289E-07 -0.1289E-07
     -8.753 -0.1009E-05 -0.1009E-05 -0.8720E-07 -0.8720E-07
     -8.679 -0.4700E-05 -0.4700E-05 -0.4334E-06 -0.4334E-06
     -8.606 -0.1516E-04 -0.1516E-04 -0.1550E-05 -0.1550E-05
     -8.532 -0.3067E-04 -0.3067E-04 -0.3810E-05 -0.3810E-05
     -8.458 -0.2444E-04 -0.2444E-04 -0.5610E-05 -0.5610E-05
     -8.385  0.5573E-04  0.5573E-04 -0.1505E-05 -0.1505E-05
     -8.311  0.2192E-03  0.2192E-03  0.1464E-04  0.1464E-04
     -8.237  0.3740E-03  0.3740E-03  0.4220E-04  0.4220E-04
     -8.164  0.4719E-03  0.4719E-03  0.7696E-04  0.7696E-04
     -8.090  0.7622E-03  0.7622E-03  0.1331E-03  0.1331E-03
     -8.016  0.1692E-02  0.1692E-02  0.2578E-03  0.2578E-03
     -7.943  0.3316E-02  0.3316E-02  0.5020E-03  0.5020E-03
     -7.869  0.4835E-02  0.4835E-02  0.8583E-03  0.8583E-03
     -7.795  0.5099E-02  0.5099E-02  0.1234E-02  0.1234E-02
     -7.721  0.3839E-02  0.3839E-02  0.1517E-02  0.1517E-02
     -7.648  0.2086E-02  0.2086E-02  0.1670E-02  0.1670E-02
     -7.574  0.1021E-02  0.1021E-02  0.1746E-02  0.1746E-02
     -7.500  0.7911E-03  0.7911E-03  0.1804E-02  0.1804E-02
     -7.427  0.8319E-03  0.8319E-03  0.1865E-02  0.1865E-02
     -7.353  0.9567E-03  0.9567E-03  0.1936E-02  0.1936E-02
     -7.279  0.1462E-02  0.1462E-02  0.2043E-02  0.2043E-02
     -7.206  0.2231E-02  0.2231E-02  0.2208E-02  0.2208E-02
     -7.132  0.2563E-02  0.2563E-02  0.2396E-02  0.2396E-02
     -7.058  0.2181E-02  0.2181E-02  0.2557E-02  0.2557E-02
     -6.985  0.1704E-02  0.1704E-02  0.2683E-02  0.2683E-02
     -6.911  0.1717E-02  0.1717E-02  0.2809E-02  0.2809E-02
     -6.837  0.1944E-02  0.1944E-02  0.2952E-02  0.2952E-02
     -6.764  0.1770E-02  0.1770E-02  0.3083E-02  0.3083E-02
     -6.690  0.1187E-02  0.1187E-02  0.3170E-02  0.3170E-02
     -6.616  0.7419E-03  0.7419E-03  0.3225E-02  0.3225E-02
     -6.543  0.7725E-03  0.7725E-03  0.3282E-02  0.3282E-02
     -6.469  0.1243E-02  0.1243E-02  0.3373E-02  0.3373E-02
     -6.395  0.2161E-02  0.2161E-02  0.3533E-02  0.3533E-02
     -6.322  0.3413E-02  0.3413E-02  0.3784E-02  0.3784E-02
     -6.248  0.4241E-02  0.4241E-02  0.4096E-02  0.4096E-02
     -6.174  0.3851E-02  0.3851E-02  0.4380E-02  0.4380E-02
     -6.101  0.2555E-02  0.2555E-02  0.4568E-02  0.4568E-02
     -6.027  0.1434E-02  0.1434E-02  0.4674E-02  0.4674E-02
     -5.953  0.1016E-02  0.1016E-02  0.4749E-02  0.4749E-02
     -5.880  0.1027E-02  0.1027E-02  0.4824E-02  0.4824E-02
     -5.806  0.1163E-02  0.1163E-02  0.4910E-02  0.4910E-02
     -5.732  0.1419E-02  0.1419E-02  0.5015E-02  0.5015E-02
     -5.659  0.2026E-02  0.2026E-02  0.5164E-02  0.5164E-02
     -5.585  0.3346E-02  0.3346E-02  0.5410E-02  0.5410E-02
     -5.511  0.5173E-02  0.5173E-02  0.5792E-02  0.5792E-02
     -5.438  0.6246E-02  0.6246E-02  0.6252E-02  0.6252E-02
     -5.364  0.5431E-02  0.5431E-02  0.6652E-02  0.6652E-02
     -5.290  0.3265E-02  0.3265E-02  0.6892E-02  0.6892E-02
     -5.217  0.1486E-02  0.1486E-02  0.7002E-02  0.7002E-02
     -5.143  0.1367E-02  0.1367E-02  0.7103E-02  0.7103E-02
     -5.069  0.3105E-02  0.3105E-02  0.7331E-02  0.7331E-02
     -4.996  0.5973E-02  0.5973E-02  0.7771E-02  0.7771E-02
     -4.922  0.8439E-02  0.8439E-02  0.8393E-02  0.8393E-02
     -4.848  0.9067E-02  0.9067E-02  0.9061E-02  0.9061E-02
     -4.775  0.7704E-02  0.7704E-02  0.9629E-02  0.9629E-02
     -4.701  0.5232E-02  0.5232E-02  0.1001E-01  0.1001E-01
     -4.627  0.2588E-02  0.2588E-02  0.1020E-01  0.1020E-01
     -4.554  0.6285E-03  0.6285E-03  0.1025E-01  0.1025E-01
     -4.480  0.2639E-03  0.2639E-03  0.1027E-01  0.1027E-01
     -4.406  0.2044E-02  0.2044E-02  0.1042E-01  0.1042E-01
     -4.333  0.5575E-02  0.5575E-02  0.1083E-01  0.1083E-01
     -4.259  0.9397E-02  0.9397E-02  0.1152E-01  0.1152E-01
     -4.185  0.1177E-01  0.1177E-01  0.1239E-01  0.1239E-01
     -4.112  0.1215E-01  0.1215E-01  0.1329E-01  0.1329E-01
     -4.038  0.1190E-01  0.1190E-01  0.1416E-01  0.1416E-01
     -3.964  0.1303E-01  0.1303E-01  0.1512E-01  0.1512E-01
     -3.891  0.1597E-01  0.1597E-01  0.1630E-01  0.1630E-01
     -3.817  0.1911E-01  0.1911E-01  0.1771E-01  0.1771E-01
     -3.743  0.2093E-01  0.2093E-01  0.1925E-01  0.1925E-01
     -3.670  0.2199E-01  0.2199E-01  0.2087E-01  0.2087E-01
     -3.596  0.2356E-01  0.2356E-01  0.2261E-01  0.2261E-01
     -3.522  0.2524E-01  0.2524E-01  0.2447E-01  0.2447E-01
     -3.449  0.2631E-01  0.2631E-01  0.2640E-01  0.2640E-01
     -3.375  0.2828E-01  0.2828E-01  0.2849E-01  0.2849E-01
     -3.301  0.3321E-01  0.3321E-01  0.3093E-01  0.3093E-01
     -3.228  0.3967E-01  0.3967E-01  0.3386E-01  0.3386E-01
     -3.154  0.4346E-01  0.4346E-01  0.3706E-01  0.3706E-01
     -3.080  0.4281E-01  0.4281E-01  0.4021E-01  0.4021E-01
     -3.007  0.4019E-01  0.4019E-01  0.4317E-01  0.4317E-01
     -2.933  0.3816E-01  0.3816E-01  0.4598E-01  0.4598E-01
     -2.859  0.3678E-01  0.3678E-01  0.4869E-01  0.4869E-01
     -2.786  0.3620E-01  0.3620E-01  0.5136E-01  0.5136E-01
     -2.712  0.3828E-01  0.3828E-01  0.5418E-01  0.5418E-01
     -2.638  0.4381E-01  0.4381E-01  0.5741E-01  0.5741E-01
     -2.564  0.5047E-01  0.5047E-01  0.6112E-01  0.6112E-01
     -2.491  0.5514E-01  0.5514E-01  0.6519E-01  0.6519E-01
     -2.417  0.5699E-01  0.5699E-01  0.6939E-01  0.6939E-01
     -2.343  0.5757E-01  0.5757E-01  0.7363E-01  0.7363E-01
     -2.270  0.5920E-01  0.5920E-01  0.7799E-01  0.7799E-01
     -2.196  0.6334E-01  0.6334E-01  0.8265E-01  0.8265E-01
     -2.122  0.6974E-01  0.6974E-01  0.8779E-01  0.8779E-01
     -2.049  0.7637E-01  0.7637E-01  0.9342E-01  0.9342E-01
     -1.975  0.8027E-01  0.8027E-01  0.9933E-01  0.9933E-01
     -1.901  0.7935E-01  0.7935E-01  0.1052E+00  0.1052E+00
     -1.828  0.7420E-01  0.7420E-01  0.1106E+00  0.1106E+00
     -1.754  0.6755E-01  0.6755E-01  0.1156E+00  0.1156E+00
     -1.680  0.6180E-01  0.6180E-01  0.1202E+00  0.1202E+00
     -1.607  0.5812E-01  0.5812E-01  0.1245E+00  0.1245E+00
     -1.533  0.5742E-01  0.5742E-01  0.1287E+00  0.1287E+00
     -1.459  0.6036E-01  0.6036E-01  0.1331E+00  0.1331E+00
     -1.386  0.6567E-01  0.6567E-01  0.1380E+00  0.1380E+00
     -1.312  0.7042E-01  0.7042E-01  0.1432E+00  0.1432E+00
     -1.238  0.7324E-01  0.7324E-01  0.1486E+00  0.1486E+00
     -1.165  0.7538E-01  0.7538E-01  0.1541E+00  0.1541E+00
     -1.091  0.7777E-01  0.7777E-01  0.1598E+00  0.1598E+00
     -1.017  0.7966E-01  0.7966E-01  0.1657E+00  0.1657E+00
     -0.944  0.8174E-01  0.8174E-01  0.1717E+00  0.1717E+00
     -0.870  0.8723E-01  0.8723E-01  0.1782E+00  0.1782E+00
     -0.796  0.9673E-01  0.9673E-01  0.1853E+00  0.1853E+00
     -0.723  0.1038E+00  0.1038E+00  0.1929E+00  0.1929E+00
     -0.649  0.9876E-01  0.9876E-01  0.2002E+00  0.2002E+00
     -0.575  0.7844E-01  0.7844E-01  0.2060E+00  0.2060E+00
     -0.502  0.5023E-01  0.5023E-01  0.2097E+00  0.2097E+00
     -0.428  0.2604E-01  0.2604E-01  0.2116E+00  0.2116E+00
     -0.354  0.1262E-01  0.1262E-01  0.2125E+00  0.2125E+00
     -0.281  0.8504E-02  0.8504E-02  0.2132E+00  0.2132E+00
     -0.207  0.8526E-02  0.8526E-02  0.2138E+00  0.2138E+00
     -0.133  0.8652E-02  0.8652E-02  0.2144E+00  0.2144E+00
     -0.060  0.7244E-02  0.7244E-02  0.2150E+00  0.2150E+00
      0.014  0.4452E-02  0.4452E-02  0.2153E+00  0.2153E+00
      0.088  0.1663E-02  0.1663E-02  0.2154E+00  0.2154E+00
      0.161  0.5440E-03  0.5440E-03  0.2154E+00  0.2154E+00
      0.235  0.1767E-02  0.1767E-02  0.2156E+00  0.2156E+00
      0.309  0.4494E-02  0.4494E-02  0.2159E+00  0.2159E+00
      0.382  0.7128E-02  0.7128E-02  0.2164E+00  0.2164E+00
      0.456  0.8751E-02  0.8751E-02  0.2171E+00  0.2171E+00
      0.530  0.9789E-02  0.9789E-02  0.2178E+00  0.2178E+00
      0.603  0.1103E-01  0.1103E-01  0.2186E+00  0.2186E+00
      0.677  0.1210E-01  0.1210E-01  0.2195E+00  0.2195E+00
      0.751  0.1164E-01  0.1164E-01  0.2204E+00  0.2204E+00
      0.824  0.9085E-02  0.9085E-02  0.2210E+00  0.2210E+00
      0.898  0.5825E-02  0.5825E-02  0.2215E+00  0.2215E+00
      0.972  0.3968E-02  0.3968E-02  0.2217E+00  0.2217E+00
      1.045  0.4416E-02  0.4416E-02  0.2221E+00  0.2221E+00
      1.119  0.6196E-02  0.6196E-02  0.2225E+00  0.2225E+00
      1.193  0.7563E-02  0.7563E-02  0.2231E+00  0.2231E+00
      1.266  0.7562E-02  0.7562E-02  0.2236E+00  0.2236E+00
      1.340  0.6332E-02  0.6332E-02  0.2241E+00  0.2241E+00
      1.414  0.4616E-02  0.4616E-02  0.2245E+00  0.2245E+00
      1.487  0.3651E-02  0.3651E-02  0.2247E+00  0.2247E+00
      1.561  0.4440E-02  0.4440E-02  0.2250E+00  0.2250E+00
      1.635  0.6229E-02  0.6229E-02  0.2255E+00  0.2255E+00
      1.708  0.6967E-02  0.6967E-02  0.2260E+00  0.2260E+00
      1.782  0.6023E-02  0.6023E-02  0.2265E+00  0.2265E+00
      1.856  0.5009E-02  0.5009E-02  0.2268E+00  0.2268E+00
      1.929  0.5389E-02  0.5389E-02  0.2272E+00  0.2272E+00
      2.003  0.6805E-02  0.6805E-02  0.2277E+00  0.2277E+00
      2.077  0.8073E-02  0.8073E-02  0.2283E+00  0.2283E+00
      2.150  0.8449E-02  0.8449E-02  0.2289E+00  0.2289E+00
      2.224  0.7822E-02  0.7822E-02  0.2295E+00  0.2295E+00
      2.298  0.6683E-02  0.6683E-02  0.2300E+00  0.2300E+00
      2.372  0.5957E-02  0.5957E-02  0.2305E+00  0.2305E+00
      2.445  0.6253E-02  0.6253E-02  0.2309E+00  0.2309E+00
      2.519  0.7126E-02  0.7126E-02  0.2314E+00  0.2314E+00
      2.593  0.7381E-02  0.7381E-02  0.2320E+00  0.2320E+00
      2.666  0.6311E-02  0.6311E-02  0.2325E+00  0.2325E+00
      2.740  0.4571E-02  0.4571E-02  0.2328E+00  0.2328E+00
      2.814  0.3409E-02  0.3409E-02  0.2330E+00  0.2330E+00
      2.887  0.3241E-02  0.3241E-02  0.2333E+00  0.2333E+00
      2.961  0.3741E-02  0.3741E-02  0.2336E+00  0.2336E+00
      3.035  0.4845E-02  0.4845E-02  0.2339E+00  0.2339E+00
      3.108  0.6405E-02  0.6405E-02  0.2344E+00  0.2344E+00
      3.182  0.7356E-02  0.7356E-02  0.2349E+00  0.2349E+00
      3.256  0.6795E-02  0.6795E-02  0.2354E+00  0.2354E+00
      3.329  0.5505E-02  0.5505E-02  0.2358E+00  0.2358E+00
      3.403  0.5077E-02  0.5077E-02  0.2362E+00  0.2362E+00
      3.477  0.5837E-02  0.5837E-02  0.2366E+00  0.2366E+00
      3.550  0.6601E-02  0.6601E-02  0.2371E+00  0.2371E+00
      3.624  0.6206E-02  0.6206E-02  0.2376E+00  0.2376E+00
      3.698  0.4810E-02  0.4810E-02  0.2379E+00  0.2379E+00
      3.771  0.3704E-02  0.3704E-02  0.2382E+00  0.2382E+00
      3.845  0.3833E-02  0.3833E-02  0.2385E+00  0.2385E+00
      3.919  0.4879E-02  0.4879E-02  0.2388E+00  0.2388E+00
      3.992  0.6079E-02  0.6079E-02  0.2393E+00  0.2393E+00
      4.066  0.7071E-02  0.7071E-02  0.2398E+00  0.2398E+00
      4.140  0.7541E-02  0.7541E-02  0.2404E+00  0.2404E+00
      4.213  0.7131E-02  0.7131E-02  0.2409E+00  0.2409E+00
      4.287  0.6233E-02  0.6233E-02  0.2414E+00  0.2414E+00
      4.361  0.5716E-02  0.5716E-02  0.2418E+00  0.2418E+00
      4.434  0.5602E-02  0.5602E-02  0.2422E+00  0.2422E+00
      4.508  0.5179E-02  0.5179E-02  0.2426E+00  0.2426E+00
      4.582  0.4384E-02  0.4384E-02  0.2429E+00  0.2429E+00
      4.655  0.4024E-02  0.4024E-02  0.2432E+00  0.2432E+00
      4.729  0.4734E-02  0.4734E-02  0.2435E+00  0.2435E+00
      4.803  0.6212E-02  0.6212E-02  0.2440E+00  0.2440E+00
      4.876  0.7423E-02  0.7423E-02  0.2445E+00  0.2445E+00
      4.950  0.7561E-02  0.7561E-02  0.2451E+00  0.2451E+00
      5.024  0.6706E-02  0.6706E-02  0.2456E+00  0.2456E+00
      5.097  0.5364E-02  0.5364E-02  0.2460E+00  0.2460E+00
      5.171  0.4007E-02  0.4007E-02  0.2463E+00  0.2463E+00
      5.245  0.3356E-02  0.3356E-02  0.2465E+00  0.2465E+00
      5.318  0.4211E-02  0.4211E-02  0.2468E+00  0.2468E+00
      5.392  0.6482E-02  0.6482E-02  0.2473E+00  0.2473E+00
      5.466  0.8934E-02  0.8934E-02  0.2480E+00  0.2480E+00
      5.539  0.1032E-01  0.1032E-01  0.2487E+00  0.2487E+00
      5.613  0.1051E-01  0.1051E-01  0.2495E+00  0.2495E+00
      5.687  0.1027E-01  0.1027E-01  0.2503E+00  0.2503E+00
      5.760  0.1013E-01  0.1013E-01  0.2510E+00  0.2510E+00
      5.834  0.9912E-02  0.9912E-02  0.2517E+00  0.2517E+00
      5.908  0.9469E-02  0.9469E-02  0.2524E+00  0.2524E+00
      5.981  0.9086E-02  0.9086E-02  0.2531E+00  0.2531E+00
      6.055  0.9001E-02  0.9001E-02  0.2538E+00  0.2538E+00
      6.129  0.9106E-02  0.9106E-02  0.2544E+00  0.2544E+00
      6.202  0.9276E-02  0.9276E-02  0.2551E+00  0.2551E+00
      6.276  0.9367E-02  0.9367E-02  0.2558E+00  0.2558E+00
      6.350  0.9121E-02  0.9121E-02  0.2565E+00  0.2565E+00
      6.423  0.8607E-02  0.8607E-02  0.2571E+00  0.2571E+00
      6.497  0.8334E-02  0.8334E-02  0.2577E+00  0.2577E+00
      6.571  0.8550E-02  0.8550E-02  0.2584E+00  0.2584E+00
      6.644  0.8825E-02  0.8825E-02  0.2590E+00  0.2590E+00
      6.718  0.8724E-02  0.8724E-02  0.2597E+00  0.2597E+00
      6.792  0.8430E-02  0.8430E-02  0.2603E+00  0.2603E+00
      6.865  0.8488E-02  0.8488E-02  0.2609E+00  0.2609E+00
      6.939  0.9201E-02  0.9201E-02  0.2616E+00  0.2616E+00
      7.013  0.1010E-01  0.1010E-01  0.2623E+00  0.2623E+00
      7.086  0.1025E-01  0.1025E-01  0.2631E+00  0.2631E+00
      7.160  0.9667E-02  0.9667E-02  0.2638E+00  0.2638E+00
      7.234  0.9543E-02  0.9543E-02  0.2645E+00  0.2645E+00
      7.307  0.1033E-01  0.1033E-01  0.2653E+00  0.2653E+00
      7.381  0.1097E-01  0.1097E-01  0.2661E+00  0.2661E+00
      7.455  0.1052E-01  0.1052E-01  0.2668E+00  0.2668E+00
      7.529  0.9236E-02  0.9236E-02  0.2675E+00  0.2675E+00
      7.602  0.8031E-02  0.8031E-02  0.2681E+00  0.2681E+00
      7.676  0.7768E-02  0.7768E-02  0.2687E+00  0.2687E+00
      7.750  0.8816E-02  0.8816E-02  0.2693E+00  0.2693E+00
      7.823  0.1073E-01  0.1073E-01  0.2701E+00  0.2701E+00
      7.897  0.1255E-01  0.1255E-01  0.2711E+00  0.2711E+00
      7.971  0.1348E-01  0.1348E-01  0.2720E+00  0.2720E+00
      8.044  0.1321E-01  0.1321E-01  0.2730E+00  0.2730E+00
      8.118  0.1182E-01  0.1182E-01  0.2739E+00  0.2739E+00
      8.192  0.1016E-01  0.1016E-01  0.2746E+00  0.2746E+00
      8.265  0.9385E-02  0.9385E-02  0.2753E+00  0.2753E+00
      8.339  0.9595E-02  0.9595E-02  0.2760E+00  0.2760E+00
      8.413  0.9650E-02  0.9650E-02  0.2767E+00  0.2767E+00
      8.486  0.8926E-02  0.8926E-02  0.2774E+00  0.2774E+00
      8.560  0.8258E-02  0.8258E-02  0.2780E+00  0.2780E+00
      8.634  0.8803E-02  0.8803E-02  0.2787E+00  0.2787E+00
      8.707  0.1050E-01  0.1050E-01  0.2794E+00  0.2794E+00
      8.781  0.1198E-01  0.1198E-01  0.2803E+00  0.2803E+00
      8.855  0.1217E-01  0.1217E-01  0.2812E+00  0.2812E+00
      8.928  0.1150E-01  0.1150E-01  0.2821E+00  0.2821E+00
      9.002  0.1093E-01  0.1093E-01  0.2829E+00  0.2829E+00
      9.076  0.1047E-01  0.1047E-01  0.2836E+00  0.2836E+00
      9.149  0.9658E-02  0.9658E-02  0.2843E+00  0.2843E+00
      9.223  0.8753E-02  0.8753E-02  0.2850E+00  0.2850E+00
      9.297  0.8243E-02  0.8243E-02  0.2856E+00  0.2856E+00
      9.370  0.8075E-02  0.8075E-02  0.2862E+00  0.2862E+00
      9.444  0.8028E-02  0.8028E-02  0.2868E+00  0.2868E+00
      9.518  0.8134E-02  0.8134E-02  0.2874E+00  0.2874E+00
      9.591  0.8366E-02  0.8366E-02  0.2880E+00  0.2880E+00
      9.665  0.8255E-02  0.8255E-02  0.2886E+00  0.2886E+00
      9.739  0.7227E-02  0.7227E-02  0.2891E+00  0.2891E+00
      9.812  0.5413E-02  0.5413E-02  0.2895E+00  0.2895E+00
      9.886  0.3539E-02  0.3539E-02  0.2898E+00  0.2898E+00
      9.960  0.2021E-02  0.2021E-02  0.2900E+00  0.2900E+00
     10.033  0.8675E-03  0.8675E-03  0.2900E+00  0.2900E+00
     10.107  0.1345E-03  0.1345E-03  0.2900E+00  0.2900E+00
     10.181 -0.1422E-03 -0.1422E-03  0.2900E+00  0.2900E+00
     10.254 -0.1355E-03 -0.1355E-03  0.2900E+00  0.2900E+00
     10.328 -0.6315E-04 -0.6315E-04  0.2900E+00  0.2900E+00
     10.402 -0.1915E-04 -0.1915E-04  0.2900E+00  0.2900E+00
     10.475 -0.4071E-05 -0.4071E-05  0.2900E+00  0.2900E+00
     10.549 -0.6259E-06 -0.6258E-06  0.2900E+00  0.2900E+00
     10.623 -0.7077E-07 -0.7077E-07  0.2900E+00  0.2900E+00
     10.696 -0.5944E-08 -0.5944E-08  0.2900E+00  0.2900E+00
     10.770 -0.3734E-09 -0.3734E-09  0.2900E+00  0.2900E+00
     10.844 -0.1761E-10 -0.1761E-10  0.2900E+00  0.2900E+00
     10.917 -0.6259E-12 -0.6259E-12  0.2900E+00  0.2900E+00
     10.991 -0.1680E-13 -0.1680E-13  0.2900E+00  0.2900E+00
     11.065 -0.3416E-15 -0.3416E-15  0.2900E+00  0.2900E+00
     11.138 -0.5023E-17 -0.5023E-17  0.2900E+00  0.2900E+00
     11.212  0.0000E+00  0.0000E+00  0.2900E+00  0.2900E+00
     11.286  0.0000E+00  0.0000E+00  0.2900E+00  0.2900E+00
     11.359  0.0000E+00  0.0000E+00  0.2900E+00  0.2900E+00
     11.433  0.0000E+00  0.0000E+00  0.2900E+00  0.2900E+00
     11.507  0.0000E+00  0.0000E+00  0.2900E+00  0.2900E+00
     11.580  0.0000E+00  0.0000E+00  0.2900E+00  0.2900E+00
     11.654  0.0000E+00  0.0000E+00  0.2900E+00  0.2900E+00
     11.728  0.0000E+00  0.0000E+00  0.2900E+00  0.2900E+00
     11.801  0.0000E+00  0.0000E+00  0.2900E+00  0.2900E+00
     11.875  0.0000E+00  0.0000E+00  0.2900E+00  0.2900E+00
