<?xml version="1.0" encoding="ISO-8859-1"?>
<modeling>
 <generator>
  <i name="program" type="string">vasp </i>
  <i name="version" type="string">6.3.2  </i>
  <i name="subversion" type="string">27Jun22 (build Aug 17 2022 15:43:34) complex                          parallel </i>
  <i name="platform" type="string">tv2STDVTST </i>
  <i name="date" type="string">2025 02 17 </i>
  <i name="time" type="string">16:04:41 </i>
 </generator>
 <incar>
  <i type="int" name="ISTART">     0</i>
  <i type="string" name="PREC">Normal</i>
  <i type="int" name="ISPIN">     2</i>
  <i type="int" name="ICHARG">     2</i>
  <i type="int" name="IBRION">     2</i>
  <i name="EDIFF">      0.00020000</i>
  <i name="EDIFFG">     -0.03000000</i>
  <i type="int" name="NSW">   800</i>
  <i type="int" name="ISIF">     2</i>
  <i type="int" name="ISYM">     1</i>
  <i name="ENCUT">    400.00000000</i>
  <i name="POTIM">      0.50000000</i>
  <i type="logical" name="LREAL"> F  </i>
  <i type="int" name="ISMEAR">     1</i>
  <i name="SIGMA">      0.20000000</i>
  <i type="logical" name="LWAVE"> F  </i>
  <i type="logical" name="LCHARG"> F  </i>
  <i type="string" name="GGA">PE</i>
  <i type="int" name="IVDW">    11</i>
 </incar>
 <primitive_cell>
  <structure name="primitive_cell" >
   <crystal>
    <varray name="basis" >
     <v>       7.26000023       0.00000000       0.00000000 </v>
     <v>       0.00000000       5.13359547       0.00000000 </v>
     <v>       0.00000000       0.00000000      23.98379135 </v>
    </varray>
    <i name="volume">    893.87360752 </i>
    <varray name="rec_basis" >
     <v>       0.13774104       0.00000000       0.00000000 </v>
     <v>       0.00000000       0.19479525       0.00000000 </v>
     <v>       0.00000000       0.00000000       0.04169483 </v>
    </varray>
   </crystal>
   <varray name="positions" >
    <v>       0.00000000       0.00000000       0.00000000 </v>
    <v>       0.00000000       0.50000000       0.00000000 </v>
    <v>       0.50000000       0.00000000       0.00000000 </v>
    <v>       0.50000000       0.50000000       0.00000000 </v>
    <v>       0.25000000       0.25000000       0.05351109 </v>
    <v>       0.25000000       0.75000000       0.05351109 </v>
    <v>       0.75000000       0.25000000       0.05351109 </v>
    <v>       0.75000000       0.75000000       0.05351109 </v>
    <v>       0.00000000       0.00000000       0.10541371 </v>
    <v>       0.00000000       0.50000000       0.10541371 </v>
    <v>       0.50000000       0.00000000       0.10541371 </v>
    <v>       0.50000000       0.50000000       0.10541371 </v>
    <v>       0.25000000       0.25000000       0.15715010 </v>
    <v>       0.25000000       0.75000000       0.15715010 </v>
    <v>       0.75000000       0.25000000       0.15715010 </v>
    <v>       0.75000000       0.75000000       0.15715010 </v>
    <v>       0.00000000       0.00000000       0.20866257 </v>
    <v>       0.00000000       0.50000000       0.20866257 </v>
    <v>       0.50000000       0.00000000       0.20866257 </v>
    <v>       0.50000000       0.50000000       0.20866257 </v>
    <v>       0.25000000       0.25000000       0.25947965 </v>
    <v>       0.25000000       0.75000000       0.25947965 </v>
    <v>       0.75000000       0.25000000       0.25947965 </v>
    <v>       0.75000000       0.75000000       0.25947965 </v>
    <v>       0.00000000       0.00000000       0.31415415 </v>
    <v>       0.00000000       0.50000000       0.31415415 </v>
    <v>       0.50000000       0.00000000       0.31415415 </v>
    <v>       0.50000000       0.50000000       0.31415415 </v>
    <v>       0.25000000       0.25000000       0.36181799 </v>
    <v>       0.25000000       0.75000000       0.36181799 </v>
    <v>       0.75000000       0.25000000       0.36181799 </v>
    <v>       0.75000000       0.75000000       0.36181799 </v>
    <v>       0.75000000       0.50000000       0.42690792 </v>
    <v>       0.75000000       0.60275482       0.44890201 </v>
   </varray>
  </structure>
  <varray name="primitive_index" >
   <v type="int" >        1 </v>
   <v type="int" >        2 </v>
   <v type="int" >        3 </v>
   <v type="int" >        4 </v>
   <v type="int" >        5 </v>
   <v type="int" >        6 </v>
   <v type="int" >        7 </v>
   <v type="int" >        8 </v>
   <v type="int" >        9 </v>
   <v type="int" >       10 </v>
   <v type="int" >       11 </v>
   <v type="int" >       12 </v>
   <v type="int" >       13 </v>
   <v type="int" >       14 </v>
   <v type="int" >       15 </v>
   <v type="int" >       16 </v>
   <v type="int" >       17 </v>
   <v type="int" >       18 </v>
   <v type="int" >       19 </v>
   <v type="int" >       20 </v>
   <v type="int" >       21 </v>
   <v type="int" >       22 </v>
   <v type="int" >       23 </v>
   <v type="int" >       24 </v>
   <v type="int" >       25 </v>
   <v type="int" >       26 </v>
   <v type="int" >       27 </v>
   <v type="int" >       28 </v>
   <v type="int" >       29 </v>
   <v type="int" >       30 </v>
   <v type="int" >       31 </v>
   <v type="int" >       32 </v>
   <v type="int" >       33 </v>
   <v type="int" >       34 </v>
  </varray>
 </primitive_cell>
 <kpoints>
  <generation param="Monkhorst-Pack">
   <v type="int" name="divisions">       3        3        1 </v>
   <v name="usershift">      0.00000000       0.00000000       0.00000000 </v>
   <v name="genvec1">      0.33333333       0.00000000       0.00000000 </v>
   <v name="genvec2">      0.00000000       0.33333333       0.00000000 </v>
   <v name="genvec3">      0.00000000       0.00000000       1.00000000 </v>
   <v name="shift">      0.00000000       0.00000000       0.00000000 </v>
  </generation>
  <varray name="kpointlist" >
   <v>       0.00000000       0.00000000       0.00000000 </v>
   <v>       0.33333333       0.00000000       0.00000000 </v>
   <v>       0.00000000       0.33333333       0.00000000 </v>
   <v>       0.33333333       0.33333333       0.00000000 </v>
  </varray>
  <varray name="weights" >
   <v>       0.11111111 </v>
   <v>       0.22222222 </v>
   <v>       0.22222222 </v>
   <v>       0.44444444 </v>
  </varray>
 </kpoints>
 <parameters>
  <separator name="general" >
   <i type="string" name="SYSTEM">unknown system</i>
   <i type="logical" name="LCOMPAT"> F  </i>
  </separator>
  <separator name="electronic" >
   <i type="string" name="PREC">normal</i>
   <i name="ENMAX">    400.00000000</i>
   <i name="ENAUG">    586.98000000</i>
   <i name="EDIFF">      0.00020000</i>
   <i type="int" name="IALGO">    38</i>
   <i type="int" name="IWAVPR">    11</i>
   <i type="int" name="NBANDS">   232</i>
   <i type="int" name="NBANDSLOW">    -1</i>
   <i type="int" name="NBANDSHIGH">    -1</i>
   <i name="NELECT">    354.00000000</i>
   <i type="int" name="TURBO">     0</i>
   <i type="int" name="IRESTART">     0</i>
   <i type="int" name="NREBOOT">     0</i>
   <i type="int" name="NMIN">     0</i>
   <i name="EREF">      0.00000000</i>
   <separator name="electronic smearing" >
    <i type="int" name="ISMEAR">     1</i>
    <i name="SIGMA">      0.20000000</i>
    <i name="KSPACING">      0.50000000</i>
    <i type="logical" name="KGAMMA"> T  </i>
    <i type="logical" name="KBLOWUP"> T  </i>
   </separator>
   <separator name="electronic projectors" >
    <i type="logical" name="LREAL"> F  </i>
    <v name="ROPT">      0.00000000      0.00000000</v>
    <i type="int" name="LMAXPAW">  -100</i>
    <i type="int" name="LMAXMIX">     2</i>
    <i type="logical" name="NLSPLINE"> F  </i>
   </separator>
   <separator name="electronic startup" >
    <i type="int" name="ISTART">     0</i>
    <i type="int" name="ICHARG">     2</i>
    <i type="int" name="INIWAV">     1</i>
   </separator>
   <separator name="electronic spin" >
    <i type="int" name="ISPIN">     2</i>
    <i type="logical" name="LNONCOLLINEAR"> F  </i>
    <v name="MAGMOM">      1.00000000      1.00000000      1.00000000      1.00000000      1.00000000      1.00000000      1.00000000      1.00000000      1.00000000      1.00000000      1.00000000      1.00000000      1.00000000      1.00000000      1.00000000      1.00000000      1.00000000      1.00000000      1.00000000      1.00000000
      1.00000000      1.00000000      1.00000000      1.00000000      1.00000000      1.00000000      1.00000000      1.00000000      1.00000000      1.00000000      1.00000000      1.00000000      1.00000000      1.00000000</v>
    <i name="NUPDOWN">     -1.00000000</i>
    <i type="logical" name="LSORBIT"> F  </i>
    <v name="SAXIS">      0.00000000      0.00000000      1.00000000</v>
    <i type="logical" name="LSPIRAL"> F  </i>
    <v name="QSPIRAL">      0.00000000      0.00000000      0.00000000</v>
    <i type="logical" name="LZEROZ"> F  </i>
   </separator>
   <separator name="electronic exchange-correlation" >
    <i type="logical" name="LASPH"> F  </i>
    <i type="logical" name="LMETAGGA"> F  </i>
   </separator>
   <separator name="electronic convergence" >
    <i type="int" name="NELM">    60</i>
    <i type="int" name="NELMDL">    -5</i>
    <i type="int" name="NELMIN">     2</i>
    <i name="ENINI">    400.00000000</i>
    <separator name="electronic convergence detail" >
     <i type="logical" name="LDIAG"> T  </i>
     <i type="logical" name="LSUBROT"> F  </i>
     <i name="WEIMIN">      0.00100000</i>
     <i name="EBREAK">      0.00000022</i>
     <i name="DEPER">      0.30000000</i>
     <i type="int" name="NRMM">     4</i>
     <i name="TIME">      0.40000000</i>
    </separator>
   </separator>
   <separator name="electronic mixer" >
    <i name="AMIX">      0.40000000</i>
    <i name="BMIX">      1.00000000</i>
    <i name="AMIN">      0.10000000</i>
    <i name="AMIX_MAG">      1.60000000</i>
    <i name="BMIX_MAG">      1.00000000</i>
    <separator name="electronic mixer details" >
     <i type="int" name="IMIX">     4</i>
     <i type="logical" name="MIXFIRST"> F  </i>
     <i type="int" name="MAXMIX">   -45</i>
     <i name="WC">    100.00000000</i>
     <i type="int" name="INIMIX">     1</i>
     <i type="int" name="MIXPRE">     1</i>
     <i type="int" name="MREMOVE">     5</i>
    </separator>
   </separator>
   <separator name="electronic dipolcorrection" >
    <i type="logical" name="LDIPOL"> F  </i>
    <i type="logical" name="LMONO"> F  </i>
    <i type="int" name="IDIPOL">     0</i>
    <i name="EPSILON">      1.00000000</i>
    <v name="DIPOL">   -100.00000000   -100.00000000   -100.00000000</v>
    <i name="EFIELD">      0.00000000</i>
   </separator>
  </separator>
  <separator name="grids" >
   <i type="int" name="NGX">    36</i>
   <i type="int" name="NGY">    28</i>
   <i type="int" name="NGZ">   120</i>
   <i type="int" name="NGXF">    72</i>
   <i type="int" name="NGYF">    56</i>
   <i type="int" name="NGZF">   240</i>
   <i type="logical" name="ADDGRID"> F  </i>
  </separator>
  <separator name="ionic" >
   <i type="int" name="NSW">   800</i>
   <i type="int" name="IBRION">     2</i>
   <i type="int" name="MDALGO">     0</i>
   <i type="int" name="ISIF">     2</i>
   <i name="PSTRESS">      0.00000000</i>
   <i name="EDIFFG">     -0.03000000</i>
   <i type="int" name="NFREE">     1</i>
   <i name="POTIM">      0.50000000</i>
   <i name="SMASS">     -3.00000000</i>
   <i name="SCALEE">      1.00000000</i>
  </separator>
  <separator name="ionic md" >
   <i name="TEBEG">      0.00010000</i>
   <i name="TEEND">      0.00010000</i>
   <i type="int" name="NBLOCK">     1</i>
   <i type="int" name="KBLOCK">   800</i>
   <i type="int" name="NPACO">   256</i>
   <i name="APACO">     10.00000000</i>
  </separator>
  <separator name="symmetry" >
   <i type="int" name="ISYM">     1</i>
   <i name="SYMPREC">      0.00001000</i>
  </separator>
  <separator name="dos" >
   <i type="int" name="LORBIT">     0</i>
   <v name="RWIGS">     -1.00000000     -1.00000000</v>
   <i type="int" name="NEDOS">   301</i>
   <i name="EMIN">     10.00000000</i>
   <i name="EMAX">    -10.00000000</i>
   <i name="EFERMI">      0.00000000</i>
  </separator>
  <separator name="writing" >
   <i type="int" name="NWRITE">     2</i>
   <i type="logical" name="LWAVE"> F  </i>
   <i type="logical" name="LDOWNSAMPLE"> F  </i>
   <i type="logical" name="LCHARG"> F  </i>
   <i type="logical" name="LPARD"> F  </i>
   <i type="logical" name="LVTOT"> F  </i>
   <i type="logical" name="LVHAR"> F  </i>
   <i type="logical" name="LELF"> F  </i>
   <i type="logical" name="LOPTICS"> F  </i>
   <v name="STM">      0.00000000      0.00000000      0.00000000      0.00000000      0.00000000      0.00000000      0.00000000</v>
  </separator>
  <separator name="performance" >
   <i type="int" name="NPAR">     4</i>
   <i type="int" name="NSIM">     4</i>
   <i type="int" name="NBLK">    -1</i>
   <i type="logical" name="LPLANE"> T  </i>
   <i type="logical" name="LSCALAPACK"> T  </i>
   <i type="logical" name="LSCAAWARE"> F  </i>
   <i type="logical" name="LSCALU"> F  </i>
   <i type="logical" name="LASYNC"> F  </i>
   <i type="logical" name="LORBITALREAL"> F  </i>
  </separator>
  <separator name="miscellaneous" >
   <i type="int" name="IDIOT">     3</i>
   <i type="int" name="PHON_NSTRUCT">    -1</i>
   <i type="logical" name="LMUSIC"> F  </i>
   <v name="POMASS">     63.54600000      1.00000000</v>
   <v name="DARWINR">      0.00000000      0.00000000</v>
   <v name="DARWINV">      1.00000000      1.00000000</v>
   <i type="logical" name="LCORR"> T  </i>
  </separator>
  <i type="logical" name="GGA_COMPAT"> T  </i>
  <i type="logical" name="LBERRY"> F  </i>
  <i type="int" name="ICORELEVEL">     0</i>
  <i type="logical" name="LDAU"> F  </i>
  <i type="int" name="I_CONSTRAINED_M">     0</i>
  <separator name="electronic exchange-correlation" >
   <i type="string" name="GGA">PE</i>
   <i type="int" name="VOSKOWN">     0</i>
   <i type="logical" name="LHFCALC"> F  </i>
   <i type="string" name="PRECFOCK"></i>
   <i type="logical" name="LSYMGRAD"> F  </i>
   <i type="logical" name="LHFONE"> F  </i>
   <i type="logical" name="LRHFCALC"> F  </i>
   <i type="logical" name="LTHOMAS"> F  </i>
   <i type="logical" name="LMODELHF"> F  </i>
   <i type="logical" name="LFOCKACE"> F  </i>
   <i name="ENCUT4O">     -1.00000000</i>
   <i type="int" name="EXXOEP">     0</i>
   <i type="int" name="FOURORBIT">     0</i>
   <i name="AEXX">      0.00000000</i>
   <i name="HFALPHA">      0.00000000</i>
   <i name="MCALPHA">      0.00000000</i>
   <i name="ALDAX">      1.00000000</i>
   <i name="AGGAX">      1.00000000</i>
   <i name="ALDAC">      1.00000000</i>
   <i name="AGGAC">      1.00000000</i>
   <i type="int" name="NKREDX">     1</i>
   <i type="int" name="NKREDY">     1</i>
   <i type="int" name="NKREDZ">     1</i>
   <i type="logical" name="SHIFTRED"> F  </i>
   <i type="logical" name="ODDONLY"> F  </i>
   <i type="logical" name="EVENONLY"> F  </i>
   <i type="int" name="LMAXFOCK">     0</i>
   <i type="int" name="NMAXFOCKAE">     0</i>
   <i type="logical" name="LFOCKAEDFT"> F  </i>
   <i name="HFSCREEN">      0.00000000</i>
   <i name="HFSCREENC">      0.00000000</i>
   <i type="int" name="NBANDSGWLOW">     0</i>
  </separator>
  <separator name="vdW DFT" >
   <i type="logical" name="LUSE_VDW"> F  </i>
   <i name="Zab_VDW">     -0.84910000</i>
   <i name="PARAM1">      0.12340000</i>
   <i name="PARAM2">      1.00000000</i>
   <i name="PARAM3">      0.00000000</i>
  </separator>
  <separator name="model GW" >
   <i type="int" name="MODEL_GW">     0</i>
   <i name="MODEL_EPS0">     15.77424013</i>
   <i name="MODEL_ALPHA">      1.00000000</i>
  </separator>
  <separator name="linear response parameters" >
   <i type="logical" name="LEPSILON"> F  </i>
   <i type="logical" name="LRPA"> F  </i>
   <i type="logical" name="LNABLA"> F  </i>
   <i type="logical" name="LVEL"> F  </i>
   <i name="CSHIFT">      0.10000000</i>
   <i name="OMEGAMAX">     -1.00000000</i>
   <i name="DEG_THRESHOLD">      0.00200000</i>
   <i name="RTIME">     -0.10000000</i>
   <i name="WPLASMAI">      0.00000000</i>
   <v name="DFIELD">      0.00000000      0.00000000      0.00000000</v>
   <v name="WPLASMA">      0.00000000      0.00000000      0.00000000      0.00000000      0.00000000      0.00000000      0.00000000      0.00000000      0.00000000</v>
  </separator>
  <separator name="orbital magnetization" >
   <i type="logical" name="NUCIND"> F  </i>
   <v name="MAGPOS">      0.00000000      0.00000000      0.00000000</v>
   <i type="logical" name="LNICSALL"> T  </i>
   <i type="logical" name="ORBITALMAG"> F  </i>
   <i type="logical" name="LMAGBLOCH"> F  </i>
   <i type="logical" name="LCHIMAG"> F  </i>
   <i type="logical" name="LGAUGE"> T  </i>
   <i type="int" name="MAGATOM">     0</i>
   <v name="MAGDIPOL">      0.00000000      0.00000000      0.00000000</v>
   <v name="AVECCONST">      0.00000000      0.00000000      0.00000000</v>
  </separator>
  <separator name="response functions" >
   <i type="logical" name="LFINITE_TEMPERATURE"> F  </i>
   <i type="logical" name="LADDER"> F  </i>
   <i type="logical" name="LRPAFORCE"> F  </i>
   <i type="logical" name="LFXC"> F  </i>
   <i type="logical" name="LHARTREE"> T  </i>
   <i type="int" name="IBSE">     0</i>
   <v type="int" name="KPOINT">    -1     0     0     0</v>
   <i type="logical" name="LTCTC"> F  </i>
   <i type="logical" name="LTCTE"> F  </i>
   <i type="logical" name="LTETE"> F  </i>
   <i type="logical" name="LTRIPLET"> F  </i>
   <i type="logical" name="LFXCEPS"> F  </i>
   <i type="logical" name="LFXHEG"> F  </i>
   <i type="int" name="NATURALO">     2</i>
   <i type="logical" name="LHOLEGF"> F  </i>
   <i type="logical" name="L2ORDER"> F  </i>
   <i type="logical" name="LDMP1"> F  </i>
   <i type="logical" name="LMP2LT"> F  </i>
   <i type="logical" name="LSMP2LT"> F  </i>
   <i type="logical" name="LGWLF"> F  </i>
   <i name="ENCUTGW">     -2.00000000</i>
   <i name="ENCUTGWSOFT">     -2.00000000</i>
   <i name="ENCUTLF">     -1.00000000</i>
   <i type="logical" name="LESF_SPLINES"> F  </i>
   <i type="int" name="LMAXMP2">    -1</i>
   <i name="SCISSOR">      0.00000000</i>
   <i type="int" name="NOMEGA">     0</i>
   <i type="int" name="NOMEGAR">     0</i>
   <i type="int" name="NBANDSGW">    -1</i>
   <i type="int" name="NBANDSO">    -1</i>
   <i type="int" name="NBANDSV">    -1</i>
   <i type="int" name="NELMGW">     1</i>
   <i type="int" name="NELMHF">     1</i>
   <i type="int" name="DIM">     3</i>
   <i type="int" name="IESPILON">     4</i>
   <i type="int" name="ANTIRES">     0</i>
   <i name="OMEGAMAX">    -30.00000000</i>
   <i name="OMEGAMIN">    -30.00000000</i>
   <i name="OMEGATL">   -200.00000000</i>
   <i type="int" name="OMEGAGRID">     0</i>
   <i name="CSHIFT">     -0.10000000</i>
   <i type="logical" name="LSELFENERGY"> F  </i>
   <i type="logical" name="LSPECTRAL"> F  </i>
   <i type="logical" name="LSPECTRALGW"> F  </i>
   <i type="logical" name="LSINGLES"> F  </i>
   <i type="logical" name="LFERMIGW"> F  </i>
   <i type="logical" name="ODDONLYGW"> F  </i>
   <i type="logical" name="EVENONLYGW"> F  </i>
   <i type="int" name="NKREDLFX">     1</i>
   <i type="int" name="NKREDLFY">     1</i>
   <i type="int" name="NKREDLFZ">     1</i>
   <i type="int" name="MAXMEM">  2800</i>
   <i type="int" name="TELESCOPE">     0</i>
   <i type="int" name="NTAUPAR">    -1</i>
   <i type="int" name="NOMEGAPAR">    -1</i>
   <i name="DAMP_NEWTON">      0.80000001</i>
   <i name="LAMBDA">      1.00000000</i>
  </separator>
  <separator name="External order field" >
   <i name="OFIELD_KAPPA">      0.00000000</i>
   <v name="OFIELD_K">      0.00000000      0.00000000      0.00000000</v>
   <i name="OFIELD_Q6_NEAR">      0.00000000</i>
   <i name="OFIELD_Q6_FAR">      0.00000000</i>
   <i name="OFIELD_A">      0.00000000</i>
  </separator>
  <separator name="optional k-points parameters" >
   <i type="int" name="KPOINTS_OPT_MODE">     1</i>
   <i type="logical" name="LKPOINTS_OPT"> F  </i>
  </separator>
 </parameters>
 <atominfo>
  <atoms>      34 </atoms>
  <types>       2 </types>
  <array name="atoms" >
   <dimension dim="1">ion</dimension>
   <field type="string">element</field>
   <field type="int">atomtype</field>
   <set>
    <rc><c>Cu</c><c>   1</c></rc>
    <rc><c>Cu</c><c>   1</c></rc>
    <rc><c>Cu</c><c>   1</c></rc>
    <rc><c>Cu</c><c>   1</c></rc>
    <rc><c>Cu</c><c>   1</c></rc>
    <rc><c>Cu</c><c>   1</c></rc>
    <rc><c>Cu</c><c>   1</c></rc>
    <rc><c>Cu</c><c>   1</c></rc>
    <rc><c>Cu</c><c>   1</c></rc>
    <rc><c>Cu</c><c>   1</c></rc>
    <rc><c>Cu</c><c>   1</c></rc>
    <rc><c>Cu</c><c>   1</c></rc>
    <rc><c>Cu</c><c>   1</c></rc>
    <rc><c>Cu</c><c>   1</c></rc>
    <rc><c>Cu</c><c>   1</c></rc>
    <rc><c>Cu</c><c>   1</c></rc>
    <rc><c>Cu</c><c>   1</c></rc>
    <rc><c>Cu</c><c>   1</c></rc>
    <rc><c>Cu</c><c>   1</c></rc>
    <rc><c>Cu</c><c>   1</c></rc>
    <rc><c>Cu</c><c>   1</c></rc>
    <rc><c>Cu</c><c>   1</c></rc>
    <rc><c>Cu</c><c>   1</c></rc>
    <rc><c>Cu</c><c>   1</c></rc>
    <rc><c>Cu</c><c>   1</c></rc>
    <rc><c>Cu</c><c>   1</c></rc>
    <rc><c>Cu</c><c>   1</c></rc>
    <rc><c>Cu</c><c>   1</c></rc>
    <rc><c>Cu</c><c>   1</c></rc>
    <rc><c>Cu</c><c>   1</c></rc>
    <rc><c>Cu</c><c>   1</c></rc>
    <rc><c>Cu</c><c>   1</c></rc>
    <rc><c>H </c><c>   2</c></rc>
    <rc><c>H </c><c>   2</c></rc>
   </set>
  </array>
  <array name="atomtypes" >
   <dimension dim="1">type</dimension>
   <field type="int">atomspertype</field>
   <field type="string">element</field>
   <field>mass</field>
   <field>valence</field>
   <field type="string">pseudopotential</field>
   <set>
    <rc><c>  32</c><c>Cu</c><c>     63.54600000</c><c>     11.00000000</c><c>  PAW_PBE Cu 22Jun2005                  </c></rc>
    <rc><c>   2</c><c>H </c><c>      1.00000000</c><c>      1.00000000</c><c>  PAW_PBE H 15Jun2001                   </c></rc>
   </set>
  </array>
 </atominfo>
 <structure name="initialpos" >
  <crystal>
   <varray name="basis" >
    <v>       7.26000023       0.00000000       0.00000000 </v>
    <v>       0.00000000       5.13359547       0.00000000 </v>
    <v>       0.00000000       0.00000000      23.98379135 </v>
   </varray>
   <i name="volume">    893.87360752 </i>
   <varray name="rec_basis" >
    <v>       0.13774104       0.00000000       0.00000000 </v>
    <v>       0.00000000       0.19479525       0.00000000 </v>
    <v>       0.00000000       0.00000000       0.04169483 </v>
   </varray>
  </crystal>
  <varray name="positions" >
   <v>       0.00000000       0.00000000       0.00000000 </v>
   <v>       0.00000000       0.50000000       0.00000000 </v>
   <v>       0.50000000       0.00000000       0.00000000 </v>
   <v>       0.50000000       0.50000000       0.00000000 </v>
   <v>       0.25000000       0.25000000       0.05351109 </v>
   <v>       0.25000000       0.75000000       0.05351109 </v>
   <v>       0.75000000       0.25000000       0.05351109 </v>
   <v>       0.75000000       0.75000000       0.05351109 </v>
   <v>       0.00000000       0.00000000       0.10541371 </v>
   <v>       0.00000000       0.50000000       0.10541371 </v>
   <v>       0.50000000       0.00000000       0.10541371 </v>
   <v>       0.50000000       0.50000000       0.10541371 </v>
   <v>       0.25000000       0.25000000       0.15715010 </v>
   <v>       0.25000000       0.75000000       0.15715010 </v>
   <v>       0.75000000       0.25000000       0.15715010 </v>
   <v>       0.75000000       0.75000000       0.15715010 </v>
   <v>       0.00000000       0.00000000       0.20866257 </v>
   <v>       0.00000000       0.50000000       0.20866257 </v>
   <v>       0.50000000       0.00000000       0.20866257 </v>
   <v>       0.50000000       0.50000000       0.20866257 </v>
   <v>       0.25000000       0.25000000       0.25947965 </v>
   <v>       0.25000000       0.75000000       0.25947965 </v>
   <v>       0.75000000       0.25000000       0.25947965 </v>
   <v>       0.75000000       0.75000000       0.25947965 </v>
   <v>       0.00000000       0.00000000       0.31415415 </v>
   <v>       0.00000000       0.50000000       0.31415415 </v>
   <v>       0.50000000       0.00000000       0.31415415 </v>
   <v>       0.50000000       0.50000000       0.31415415 </v>
   <v>       0.25000000       0.25000000       0.36181799 </v>
   <v>       0.25000000       0.75000000       0.36181799 </v>
   <v>       0.75000000       0.25000000       0.36181799 </v>
   <v>       0.75000000       0.75000000       0.36181799 </v>
   <v>       0.75000000       0.50000000       0.42690792 </v>
   <v>       0.75000000       0.60275482       0.44890201 </v>
  </varray>
  <varray name="selective"  type="logical" >
   <v type="logical" >  F  F  F </v>
   <v type="logical" >  F  F  F </v>
   <v type="logical" >  F  F  F </v>
   <v type="logical" >  F  F  F </v>
   <v type="logical" >  F  F  F </v>
   <v type="logical" >  F  F  F </v>
   <v type="logical" >  F  F  F </v>
   <v type="logical" >  F  F  F </v>
   <v type="logical" >  F  F  F </v>
   <v type="logical" >  F  F  F </v>
   <v type="logical" >  F  F  F </v>
   <v type="logical" >  F  F  F </v>
   <v type="logical" >  T  T  T </v>
   <v type="logical" >  T  T  T </v>
   <v type="logical" >  T  T  T </v>
   <v type="logical" >  T  T  T </v>
   <v type="logical" >  T  T  T </v>
   <v type="logical" >  T  T  T </v>
   <v type="logical" >  T  T  T </v>
   <v type="logical" >  T  T  T </v>
   <v type="logical" >  T  T  T </v>
   <v type="logical" >  T  T  T </v>
   <v type="logical" >  T  T  T </v>
   <v type="logical" >  T  T  T </v>
   <v type="logical" >  T  T  T </v>
   <v type="logical" >  T  T  T </v>
   <v type="logical" >  T  T  T </v>
   <v type="logical" >  T  T  T </v>
   <v type="logical" >  T  T  T </v>
   <v type="logical" >  T  T  T </v>
   <v type="logical" >  T  T  T </v>
   <v type="logical" >  T  T  T </v>
   <v type="logical" >  T  T  T </v>
   <v type="logical" >  T  T  T </v>
  </varray>
  <nose>
   <v>      -3.00000000       0.00000000       0.00010000       0.00010000 </v>
  </nose>
 </structure>
 <calculation>
  <scstep>
   <time name="dav">    7.72    7.79</time>
   <time name="total">    7.81    7.88</time>
   <energy>
    <i name="alphaZ">    844.48149002 </i>
    <i name="ewald"> 173071.19875782 </i>
    <i name="hartreedc">-216208.79868672 </i>
    <i name="XCdc">   1468.52589778 </i>
    <i name="pawpsdc">  39302.70853331 </i>
    <i name="pawaedc"> -42689.07521165 </i>
    <i name="eentropy">      0.01513631 </i>
    <i name="bandstr">   2946.03099687 </i>
    <i name="atom">  44535.60175172 </i>
    <i name="e_fr_energy">   3270.68866546 </i>
    <i name="e_wo_entrp">   3270.67352915 </i>
    <i name="e_0_energy">   3270.68362002 </i>
   </energy>
  </scstep>
  <scstep>
   <time name="dav">    7.61    7.68</time>
   <time name="total">    7.61    7.68</time>
   <energy>
    <i name="e_fr_energy">    383.10575069 </i>
    <i name="e_wo_entrp">    383.11608763 </i>
    <i name="e_0_energy">    383.10919633 </i>
   </energy>
  </scstep>
  <scstep>
   <time name="dav">    7.61    7.68</time>
   <time name="total">    7.61    7.68</time>
   <energy>
    <i name="e_fr_energy">   -100.84415475 </i>
    <i name="e_wo_entrp">   -100.86720750 </i>
    <i name="e_0_energy">   -100.85183900 </i>
   </energy>
  </scstep>
  <scstep>
   <time name="dav">    8.38    8.46</time>
   <time name="total">    8.38    8.46</time>
   <energy>
    <i name="e_fr_energy">   -133.94289478 </i>
    <i name="e_wo_entrp">   -133.96532382 </i>
    <i name="e_0_energy">   -133.95037113 </i>
   </energy>
  </scstep>
  <scstep>
   <time name="dav">    8.36    8.44</time>
   <time name="total">    8.74    8.82</time>
   <energy>
    <i name="e_fr_energy">   -134.71336288 </i>
    <i name="e_wo_entrp">   -134.73696554 </i>
    <i name="e_0_energy">   -134.72123044 </i>
   </energy>
  </scstep>
  <scstep>
   <time name="dav">    8.14    8.21</time>
   <time name="total">    8.59    8.66</time>
   <energy>
    <i name="e_fr_energy">   -107.96096778 </i>
    <i name="e_wo_entrp">   -107.95919932 </i>
    <i name="e_0_energy">   -107.96037829 </i>
   </energy>
  </scstep>
  <scstep>
   <time name="dav">    8.21    8.28</time>
   <time name="total">    8.65    8.73</time>
   <energy>
    <i name="e_fr_energy">    -94.78262049 </i>
    <i name="e_wo_entrp">    -94.77421659 </i>
    <i name="e_0_energy">    -94.77981919 </i>
   </energy>
  </scstep>
  <scstep>
   <time name="dav">    8.49    8.57</time>
   <time name="total">    8.94    9.02</time>
   <energy>
    <i name="e_fr_energy">    -93.52937860 </i>
    <i name="e_wo_entrp">    -93.53578683 </i>
    <i name="e_0_energy">    -93.53151468 </i>
   </energy>
  </scstep>
  <scstep>
   <time name="dav">    9.77    9.86</time>
   <time name="total">   10.20   10.29</time>
   <energy>
    <i name="e_fr_energy">    -91.61335368 </i>
    <i name="e_wo_entrp">    -91.61242772 </i>
    <i name="e_0_energy">    -91.61304502 </i>
   </energy>
  </scstep>
  <scstep>
   <time name="dav">   10.25   10.34</time>
   <time name="total">   10.70   10.79</time>
   <energy>
    <i name="e_fr_energy">    -93.22556570 </i>
    <i name="e_wo_entrp">    -93.23069080 </i>
    <i name="e_0_energy">    -93.22727406 </i>
   </energy>
  </scstep>
  <scstep>
   <time name="dav">   10.50   10.59</time>
   <time name="total">   10.93   11.03</time>
   <energy>
    <i name="e_fr_energy">    -92.92474090 </i>
    <i name="e_wo_entrp">    -92.90835427 </i>
    <i name="e_0_energy">    -92.91927869 </i>
   </energy>
  </scstep>
  <scstep>
   <time name="dav">    9.62    9.71</time>
   <time name="total">   10.08   10.17</time>
   <energy>
    <i name="e_fr_energy">    -95.21845245 </i>
    <i name="e_wo_entrp">    -95.17840973 </i>
    <i name="e_0_energy">    -95.20510488 </i>
   </energy>
  </scstep>
  <scstep>
   <time name="dav">    9.09    9.17</time>
   <time name="total">    9.54    9.63</time>
   <energy>
    <i name="e_fr_energy">   -100.19318526 </i>
    <i name="e_wo_entrp">   -100.17413915 </i>
    <i name="e_0_energy">   -100.18683656 </i>
   </energy>
  </scstep>
  <scstep>
   <time name="dav">    9.18    9.26</time>
   <time name="total">    9.63    9.71</time>
   <energy>
    <i name="e_fr_energy">   -105.51837393 </i>
    <i name="e_wo_entrp">   -105.50929948 </i>
    <i name="e_0_energy">   -105.51534911 </i>
   </energy>
  </scstep>
  <scstep>
   <time name="dav">    9.73    9.81</time>
   <time name="total">   10.18   10.27</time>
   <energy>
    <i name="e_fr_energy">   -110.26140403 </i>
    <i name="e_wo_entrp">   -110.29010005 </i>
    <i name="e_0_energy">   -110.27096937 </i>
   </energy>
  </scstep>
  <scstep>
   <time name="dav">    8.29    8.36</time>
   <time name="total">    8.75    8.82</time>
   <energy>
    <i name="e_fr_energy">   -112.95649736 </i>
    <i name="e_wo_entrp">   -113.00330260 </i>
    <i name="e_0_energy">   -112.97209911 </i>
   </energy>
  </scstep>
  <scstep>
   <time name="dav">    8.37    8.45</time>
   <time name="total">    8.83    8.91</time>
   <energy>
    <i name="e_fr_energy">   -114.54824522 </i>
    <i name="e_wo_entrp">   -114.59693855 </i>
    <i name="e_0_energy">   -114.56447633 </i>
   </energy>
  </scstep>
  <scstep>
   <time name="dav">    8.57    8.64</time>
   <time name="total">    9.03    9.11</time>
   <energy>
    <i name="e_fr_energy">   -116.02240556 </i>
    <i name="e_wo_entrp">   -116.05561649 </i>
    <i name="e_0_energy">   -116.03347587 </i>
   </energy>
  </scstep>
  <scstep>
   <time name="dav">    8.51    8.57</time>
   <time name="total">    8.96    9.04</time>
   <energy>
    <i name="e_fr_energy">   -116.71616055 </i>
    <i name="e_wo_entrp">   -116.74536149 </i>
    <i name="e_0_energy">   -116.72589419 </i>
   </energy>
  </scstep>
  <scstep>
   <time name="dav">    8.63    8.71</time>
   <time name="total">    9.07    9.15</time>
   <energy>
    <i name="e_fr_energy">   -117.05207313 </i>
    <i name="e_wo_entrp">   -117.08123789 </i>
    <i name="e_0_energy">   -117.06179472 </i>
   </energy>
  </scstep>
  <scstep>
   <time name="dav">    8.63    8.70</time>
   <time name="total">    9.08    9.15</time>
   <energy>
    <i name="e_fr_energy">   -117.24324394 </i>
    <i name="e_wo_entrp">   -117.27350995 </i>
    <i name="e_0_energy">   -117.25333261 </i>
   </energy>
  </scstep>
  <scstep>
   <time name="dav">    9.05    9.13</time>
   <time name="total">    9.50    9.58</time>
   <energy>
    <i name="e_fr_energy">   -117.53687420 </i>
    <i name="e_wo_entrp">   -117.56835739 </i>
    <i name="e_0_energy">   -117.54736860 </i>
   </energy>
  </scstep>
  <scstep>
   <time name="dav">    8.34    8.42</time>
   <time name="total">    8.80    8.88</time>
   <energy>
    <i name="e_fr_energy">   -117.68746823 </i>
    <i name="e_wo_entrp">   -117.71904631 </i>
    <i name="e_0_energy">   -117.69799426 </i>
   </energy>
  </scstep>
  <scstep>
   <time name="dav">    8.98    9.06</time>
   <time name="total">    9.44    9.51</time>
   <energy>
    <i name="e_fr_energy">   -117.83624728 </i>
    <i name="e_wo_entrp">   -117.86808599 </i>
    <i name="e_0_energy">   -117.84686018 </i>
   </energy>
  </scstep>
  <scstep>
   <time name="dav">    9.36    9.43</time>
   <time name="total">    9.81    9.89</time>
   <energy>
    <i name="e_fr_energy">   -117.97212881 </i>
    <i name="e_wo_entrp">   -118.00451624 </i>
    <i name="e_0_energy">   -117.98292462 </i>
   </energy>
  </scstep>
  <scstep>
   <time name="dav">    9.30    9.38</time>
   <time name="total">    9.76    9.85</time>
   <energy>
    <i name="e_fr_energy">   -118.15802372 </i>
    <i name="e_wo_entrp">   -118.19038739 </i>
    <i name="e_0_energy">   -118.16881161 </i>
   </energy>
  </scstep>
  <scstep>
   <time name="dav">    7.94    8.02</time>
   <time name="total">    8.41    8.48</time>
   <energy>
    <i name="e_fr_energy">   -118.21577963 </i>
    <i name="e_wo_entrp">   -118.24841385 </i>
    <i name="e_0_energy">   -118.22665770 </i>
   </energy>
  </scstep>
  <scstep>
   <time name="dav">    6.80    6.86</time>
   <time name="total">    7.25    7.31</time>
   <energy>
    <i name="e_fr_energy">   -118.24174739 </i>
    <i name="e_wo_entrp">   -118.27437826 </i>
    <i name="e_0_energy">   -118.25262435 </i>
   </energy>
  </scstep>
  <scstep>
   <time name="dav">    6.45    6.50</time>
   <time name="total">    6.91    6.97</time>
   <energy>
    <i name="e_fr_energy">   -118.25079921 </i>
    <i name="e_wo_entrp">   -118.28338854 </i>
    <i name="e_0_energy">   -118.26166232 </i>
   </energy>
  </scstep>
  <scstep>
   <time name="dav">    5.84    5.90</time>
   <time name="total">    6.31    6.37</time>
   <energy>
    <i name="e_fr_energy">   -118.25249637 </i>
    <i name="e_wo_entrp">   -118.28510332 </i>
    <i name="e_0_energy">   -118.26336536 </i>
   </energy>
  </scstep>
  <scstep>
   <time name="dav">    5.83    5.88</time>
   <time name="total">    6.29    6.34</time>
   <energy>
    <i name="e_fr_energy">   -118.25383357 </i>
    <i name="e_wo_entrp">   -118.28643753 </i>
    <i name="e_0_energy">   -118.26470156 </i>
   </energy>
  </scstep>
  <scstep>
   <time name="dav">    5.61    5.66</time>
   <time name="total">    6.07    6.12</time>
   <energy>
    <i name="e_fr_energy">   -118.25411210 </i>
    <i name="e_wo_entrp">   -118.28663634 </i>
    <i name="e_0_energy">   -118.26495351 </i>
   </energy>
  </scstep>
  <scstep>
   <time name="dav">    5.68    5.73</time>
   <time name="total">    5.76    5.81</time>
   <energy>
    <i name="alphaZ">    844.48149002 </i>
    <i name="ewald"> 173071.19875782 </i>
    <i name="hartreedc">-215837.70537680 </i>
    <i name="XCdc">   1431.90726492 </i>
    <i name="pawpsdc">  41955.03789418 </i>
    <i name="pawaedc"> -45403.05152555 </i>
    <i name="eentropy">      0.03257919 </i>
    <i name="bandstr">   -715.75701375 </i>
    <i name="atom">  44535.60175172 </i>
    <i name="e_fr_energy">   -118.25417824 </i>
    <i name="e_wo_entrp">   -118.28675744 </i>
    <i name="e_0_energy">   -118.26503797 </i>
   </energy>
  </scstep>
  <structure>
   <crystal>
    <varray name="basis" >
     <v>       7.26000023       0.00000000       0.00000000 </v>
     <v>       0.00000000       5.13359547       0.00000000 </v>
     <v>       0.00000000       0.00000000      23.98379135 </v>
    </varray>
    <i name="volume">    893.87360752 </i>
    <varray name="rec_basis" >
     <v>       0.13774104       0.00000000       0.00000000 </v>
     <v>       0.00000000       0.19479525       0.00000000 </v>
     <v>       0.00000000       0.00000000       0.04169483 </v>
    </varray>
   </crystal>
   <varray name="positions" >
    <v>       0.00000000       0.00000000       0.00000000 </v>
    <v>       0.00000000       0.50000000       0.00000000 </v>
    <v>       0.50000000       0.00000000       0.00000000 </v>
    <v>       0.50000000       0.50000000       0.00000000 </v>
    <v>       0.25000000       0.25000000       0.05351109 </v>
    <v>       0.25000000       0.75000000       0.05351109 </v>
    <v>       0.75000000       0.25000000       0.05351109 </v>
    <v>       0.75000000       0.75000000       0.05351109 </v>
    <v>       0.00000000       0.00000000       0.10541371 </v>
    <v>       0.00000000       0.50000000       0.10541371 </v>
    <v>       0.50000000       0.00000000       0.10541371 </v>
    <v>       0.50000000       0.50000000       0.10541371 </v>
    <v>       0.25000000       0.25000000       0.15715010 </v>
    <v>       0.25000000       0.75000000       0.15715010 </v>
    <v>       0.75000000       0.25000000       0.15715010 </v>
    <v>       0.75000000       0.75000000       0.15715010 </v>
    <v>       0.00000000       0.00000000       0.20866257 </v>
    <v>       0.00000000       0.50000000       0.20866257 </v>
    <v>       0.50000000       0.00000000       0.20866257 </v>
    <v>       0.50000000       0.50000000       0.20866257 </v>
    <v>       0.25000000       0.25000000       0.25947965 </v>
    <v>       0.25000000       0.75000000       0.25947965 </v>
    <v>       0.75000000       0.25000000       0.25947965 </v>
    <v>       0.75000000       0.75000000       0.25947965 </v>
    <v>       0.00000000       0.00000000       0.31415415 </v>
    <v>       0.00000000       0.50000000       0.31415415 </v>
    <v>       0.50000000       0.00000000       0.31415415 </v>
    <v>       0.50000000       0.50000000       0.31415415 </v>
    <v>       0.25000000       0.25000000       0.36181799 </v>
    <v>       0.25000000       0.75000000       0.36181799 </v>
    <v>       0.75000000       0.25000000       0.36181799 </v>
    <v>       0.75000000       0.75000000       0.36181799 </v>
    <v>       0.75000000       0.50000000       0.42690792 </v>
    <v>       0.75000000       0.60275482       0.44890201 </v>
   </varray>
  </structure>
  <varray name="forces" >
   <v>       0.01600685      -0.00707338       0.44683162 </v>
   <v>       0.02603174       0.00684569       0.44132838 </v>
   <v>      -0.01600685      -0.00707338       0.44683162 </v>
   <v>      -0.02603174       0.00684569       0.44132838 </v>
   <v>       0.00000000       0.01982737      -0.47596028 </v>
   <v>       0.00000000      -0.01976412      -0.48768725 </v>
   <v>       0.00000000      -0.00421029      -0.42733192 </v>
   <v>       0.00000000       0.00520468      -0.42978279 </v>
   <v>       0.00387882       0.00016872      -0.02410752 </v>
   <v>      -0.00403924      -0.00098985      -0.01828505 </v>
   <v>      -0.00387882       0.00016872      -0.02410752 </v>
   <v>       0.00403924      -0.00098985      -0.01828505 </v>
   <v>       0.00000000       0.00859383      -0.00483299 </v>
   <v>       0.00000000      -0.01011776      -0.00155868 </v>
   <v>       0.00000000       0.00287351       0.04409525 </v>
   <v>       0.00000000      -0.00229659       0.03722357 </v>
   <v>      -0.00239695       0.00543818      -0.01264611 </v>
   <v>       0.01982295      -0.00456512       0.00242529 </v>
   <v>       0.00239695       0.00543818      -0.01264611 </v>
   <v>      -0.01982295      -0.00456512       0.00242529 </v>
   <v>       0.00000000      -0.01095519      -0.02129654 </v>
   <v>       0.00000000       0.01142863      -0.01421224 </v>
   <v>       0.00000000       0.06204620       0.04458628 </v>
   <v>       0.00000000      -0.05208518       0.09789059 </v>
   <v>       0.01368627       0.00437408       0.03771847 </v>
   <v>       0.06153668      -0.01390745      -0.08828034 </v>
   <v>      -0.01368627       0.00437408       0.03771847 </v>
   <v>      -0.06153668      -0.01390745      -0.08828034 </v>
   <v>       0.00000000      -0.00520688       0.00752620 </v>
   <v>       0.00000000       0.00746170      -0.00533469 </v>
   <v>       0.00000000      -0.27841483      -0.24675597 </v>
   <v>       0.00000000       0.04614243       0.08731439 </v>
   <v>       0.00000000      -0.70619172      -0.68450590 </v>
   <v>       0.00000000       0.94508247       0.91065349 </v>
  </varray>
  <varray name="stress" >
   <v>     -31.69738019       0.00000000       0.00000000 </v>
   <v>       0.00000000     -27.53332146       1.53336765 </v>
   <v>       0.00000000       1.53336779      -5.95678873 </v>
  </varray>
  <energy>
   <i name="e_fr_energy">   -130.61473931 </i>
   <i name="e_wo_entrp">   -130.64731850 </i>
   <i name="e_0_energy">   -130.62559904 </i>
  </energy>
  <time name="totalsc">  300.73  303.31</time>
 </calculation>
 <calculation>
  <scstep>
   <time name="dav">    7.67    7.73</time>
   <time name="total">    8.13    8.20</time>
   <energy>
    <i name="alphaZ">    844.48149002 </i>
    <i name="ewald"> 173109.49960244 </i>
    <i name="hartreedc">-215877.23666817 </i>
    <i name="XCdc">   1431.82680701 </i>
    <i name="pawpsdc">  41954.89041370 </i>
    <i name="pawaedc"> -45402.89386989 </i>
    <i name="eentropy">      0.03182979 </i>
    <i name="bandstr">   -714.42823818 </i>
    <i name="atom">  44535.60175172 </i>
    <i name="e_fr_energy">   -118.22688156 </i>
    <i name="e_wo_entrp">   -118.25871135 </i>
    <i name="e_0_energy">   -118.23749149 </i>
   </energy>
  </scstep>
  <scstep>
   <time name="dav">   10.07   10.16</time>
   <time name="total">   10.53   10.62</time>
   <energy>
    <i name="e_fr_energy">   -118.23343420 </i>
    <i name="e_wo_entrp">   -118.26498066 </i>
    <i name="e_0_energy">   -118.24394968 </i>
   </energy>
  </scstep>
  <scstep>
   <time name="dav">    8.68    8.75</time>
   <time name="total">    9.13    9.21</time>
   <energy>
    <i name="e_fr_energy">   -118.23324202 </i>
    <i name="e_wo_entrp">   -118.26581224 </i>
    <i name="e_0_energy">   -118.24409876 </i>
   </energy>
  </scstep>
  <scstep>
   <time name="dav">    8.40    8.47</time>
   <time name="total">    8.85    8.92</time>
   <energy>
    <i name="e_fr_energy">   -118.23252019 </i>
    <i name="e_wo_entrp">   -118.26459818 </i>
    <i name="e_0_energy">   -118.24321286 </i>
   </energy>
  </scstep>
  <scstep>
   <time name="dav">   10.39   10.49</time>
   <time name="total">   10.84   10.95</time>
   <energy>
    <i name="e_fr_energy">   -118.23027238 </i>
    <i name="e_wo_entrp">   -118.26200896 </i>
    <i name="e_0_energy">   -118.24085124 </i>
   </energy>
  </scstep>
  <scstep>
   <time name="dav">    9.81    9.91</time>
   <time name="total">   10.26   10.36</time>
   <energy>
    <i name="e_fr_energy">   -118.23001194 </i>
    <i name="e_wo_entrp">   -118.26226582 </i>
    <i name="e_0_energy">   -118.24076323 </i>
   </energy>
  </scstep>
  <scstep>
   <time name="dav">    7.75    7.82</time>
   <time name="total">    7.83    7.90</time>
   <energy>
    <i name="alphaZ">    844.48149002 </i>
    <i name="ewald"> 173109.49960244 </i>
    <i name="hartreedc">-215871.90579081 </i>
    <i name="XCdc">   1431.68736173 </i>
    <i name="pawpsdc">  41950.18272387 </i>
    <i name="pawaedc"> -45398.16402057 </i>
    <i name="eentropy">      0.03198298 </i>
    <i name="bandstr">   -719.64512535 </i>
    <i name="atom">  44535.60175172 </i>
    <i name="e_fr_energy">   -118.23002396 </i>
    <i name="e_wo_entrp">   -118.26200694 </i>
    <i name="e_0_energy">   -118.24068495 </i>
   </energy>
  </scstep>
  <structure>
   <crystal>
    <varray name="basis" >
     <v>       7.26000023       0.00000000       0.00000000 </v>
     <v>       0.00000000       5.13359547       0.00000000 </v>
     <v>       0.00000000       0.00000000      23.98379135 </v>
    </varray>
    <i name="volume">    893.87360752 </i>
    <varray name="rec_basis" >
     <v>       0.13774104       0.00000000       0.00000000 </v>
     <v>       0.00000000       0.19479525       0.00000000 </v>
     <v>       0.00000000       0.00000000       0.04169483 </v>
    </varray>
   </crystal>
   <varray name="positions" >
    <v>       0.00000000       0.00000000       0.00000000 </v>
    <v>       0.00000000       0.50000000       0.00000000 </v>
    <v>       0.50000000       0.00000000       0.00000000 </v>
    <v>       0.50000000       0.50000000       0.00000000 </v>
    <v>       0.25000000       0.25000000       0.05351109 </v>
    <v>       0.25000000       0.75000000       0.05351109 </v>
    <v>       0.75000000       0.25000000       0.05351109 </v>
    <v>       0.75000000       0.75000000       0.05351109 </v>
    <v>       0.00000000       0.00000000       0.10541371 </v>
    <v>       0.00000000       0.50000000       0.10541371 </v>
    <v>       0.50000000       0.00000000       0.10541371 </v>
    <v>       0.50000000       0.50000000       0.10541371 </v>
    <v>       0.25000000       0.25008076       0.15714037 </v>
    <v>       0.25000000       0.74990492       0.15714696 </v>
    <v>       0.75000000       0.25002700       0.15723879 </v>
    <v>       0.75000000       0.74997842       0.15722497 </v>
    <v>      -0.00001593       0.00005110       0.20863713 </v>
    <v>       0.00013172       0.49995710       0.20866745 </v>
    <v>       0.50001593       0.00005110       0.20863713 </v>
    <v>       0.49986828       0.49995710       0.20866745 </v>
    <v>       0.25000000       0.24989705       0.25943682 </v>
    <v>       0.25000000       0.75010740       0.25945107 </v>
    <v>       0.75000000       0.25058308       0.25956934 </v>
    <v>       0.75000000       0.74951053       0.25967656 </v>
    <v>       0.00009095       0.00004111       0.31423002 </v>
    <v>       0.00040891       0.49986931       0.31397658 </v>
    <v>       0.49990905       0.00004111       0.31423002 </v>
    <v>       0.49959109       0.49986931       0.31397658 </v>
    <v>       0.25000000       0.24995107       0.36183313 </v>
    <v>       0.25000000       0.75007012       0.36180726 </v>
    <v>       0.75000000       0.24738361       0.36132165 </v>
    <v>       0.75000000       0.75043362       0.36199362 </v>
    <v>       0.75000000       0.49336361       0.42553106 </v>
    <v>       0.75000000       0.61163617       0.45073376 </v>
   </varray>
  </structure>
  <varray name="forces" >
   <v>       0.01686204      -0.00856390       0.44532294 </v>
   <v>       0.02704977       0.00759463       0.43944832 </v>
   <v>      -0.01686204      -0.00856390       0.44532294 </v>
   <v>      -0.02704977       0.00759463       0.43944832 </v>
   <v>       0.00000000       0.01876630      -0.47515017 </v>
   <v>       0.00000000      -0.01955661      -0.48837321 </v>
   <v>       0.00000000      -0.00338648      -0.42005912 </v>
   <v>       0.00000000       0.00455561      -0.42275222 </v>
   <v>       0.00121714      -0.00038514      -0.02293149 </v>
   <v>      -0.00797881      -0.00172643      -0.01671231 </v>
   <v>      -0.00121714      -0.00038514      -0.02293149 </v>
   <v>       0.00797881      -0.00172643      -0.01671231 </v>
   <v>       0.00000000       0.00143288      -0.00748162 </v>
   <v>       0.00000000      -0.00381660      -0.00419534 </v>
   <v>       0.00000000       0.00263131       0.02692231 </v>
   <v>       0.00000000      -0.00110627       0.03283863 </v>
   <v>      -0.00884786       0.00092905       0.00106945 </v>
   <v>       0.00975932      -0.00024416      -0.00575418 </v>
   <v>       0.00884786       0.00092905       0.00106945 </v>
   <v>      -0.00975932      -0.00024416      -0.00575418 </v>
   <v>       0.00000000      -0.01437497      -0.01568316 </v>
   <v>       0.00000000       0.01333830      -0.01249867 </v>
   <v>       0.00000000       0.02960143      -0.01086953 </v>
   <v>       0.00000000      -0.02045712       0.07179184 </v>
   <v>       0.02746418      -0.01457956       0.00494735 </v>
   <v>       0.03802804      -0.00679996      -0.06025850 </v>
   <v>      -0.02746418      -0.01457956       0.00494735 </v>
   <v>      -0.03802804      -0.00679996      -0.06025850 </v>
   <v>       0.00000000      -0.00205763       0.00803415 </v>
   <v>       0.00000000       0.00279609      -0.00097633 </v>
   <v>       0.00000000      -0.14226634      -0.08758447 </v>
   <v>       0.00000000      -0.08181155       0.20441324 </v>
   <v>       0.00000000       0.79878264       0.70268317 </v>
   <v>       0.00000000      -0.53552007      -0.67132266 </v>
  </varray>
  <varray name="stress" >
   <v>     -31.09703886       0.00000000       0.00000000 </v>
   <v>       0.00000000     -28.74725835       0.16909399 </v>
   <v>       0.00000000       0.16909406      -7.51063023 </v>
  </varray>
  <energy>
   <i name="e_fr_energy">   -130.60988339 </i>
   <i name="e_wo_entrp">   -130.64186636 </i>
   <i name="e_0_energy">   -130.62054438 </i>
  </energy>
  <time name="totalsc">   80.64   81.35</time>
 </calculation>
 <calculation>
  <scstep>
   <time name="dav">    7.65    7.72</time>
   <time name="total">    8.11    8.18</time>
   <energy>
    <i name="alphaZ">    844.48149002 </i>
    <i name="ewald"> 173087.56511432 </i>
    <i name="hartreedc">-215848.94083381 </i>
    <i name="XCdc">   1431.73236112 </i>
    <i name="pawpsdc">  41950.32122627 </i>
    <i name="pawaedc"> -45398.33600621 </i>
    <i name="eentropy">      0.03258961 </i>
    <i name="bandstr">   -720.73410205 </i>
    <i name="atom">  44535.60175172 </i>
    <i name="e_fr_energy">   -118.27640901 </i>
    <i name="e_wo_entrp">   -118.30899862 </i>
    <i name="e_0_energy">   -118.28727222 </i>
   </energy>
  </scstep>
  <scstep>
   <time name="dav">    9.92   10.01</time>
   <time name="total">   10.38   10.47</time>
   <energy>
    <i name="e_fr_energy">   -118.27989903 </i>
    <i name="e_wo_entrp">   -118.31255431 </i>
    <i name="e_0_energy">   -118.29078412 </i>
   </energy>
  </scstep>
  <scstep>
   <time name="dav">    8.38    8.46</time>
   <time name="total">    8.83    8.90</time>
   <energy>
    <i name="e_fr_energy">   -118.27992801 </i>
    <i name="e_wo_entrp">   -118.31192299 </i>
    <i name="e_0_energy">   -118.29059300 </i>
   </energy>
  </scstep>
  <scstep>
   <time name="dav">    8.83    8.91</time>
   <time name="total">    9.29    9.37</time>
   <energy>
    <i name="e_fr_energy">   -118.28005864 </i>
    <i name="e_wo_entrp">   -118.31273881 </i>
    <i name="e_0_energy">   -118.29095203 </i>
   </energy>
  </scstep>
  <scstep>
   <time name="dav">    8.32    8.39</time>
   <time name="total">    8.77    8.84</time>
   <energy>
    <i name="e_fr_energy">   -118.27897141 </i>
    <i name="e_wo_entrp">   -118.31150157 </i>
    <i name="e_0_energy">   -118.28981480 </i>
   </energy>
  </scstep>
  <scstep>
   <time name="dav">    6.04    6.09</time>
   <time name="total">    6.12    6.18</time>
   <energy>
    <i name="alphaZ">    844.48149002 </i>
    <i name="ewald"> 173087.56511432 </i>
    <i name="hartreedc">-215851.21318305 </i>
    <i name="XCdc">   1431.80957989 </i>
    <i name="pawpsdc">  41953.06411531 </i>
    <i name="pawaedc"> -45401.10369178 </i>
    <i name="eentropy">      0.03231183 </i>
    <i name="bandstr">   -718.51629096 </i>
    <i name="atom">  44535.60175172 </i>
    <i name="e_fr_energy">   -118.27880269 </i>
    <i name="e_wo_entrp">   -118.31111452 </i>
    <i name="e_0_energy">   -118.28957330 </i>
   </energy>
  </scstep>
  <structure>
   <crystal>
    <varray name="basis" >
     <v>       7.26000023       0.00000000       0.00000000 </v>
     <v>       0.00000000       5.13359547       0.00000000 </v>
     <v>       0.00000000       0.00000000      23.98379135 </v>
    </varray>
    <i name="volume">    893.87360752 </i>
    <varray name="rec_basis" >
     <v>       0.13774104       0.00000000       0.00000000 </v>
     <v>       0.00000000       0.19479525       0.00000000 </v>
     <v>       0.00000000       0.00000000       0.04169483 </v>
    </varray>
   </crystal>
   <varray name="positions" >
    <v>       0.00000000       0.00000000       0.00000000 </v>
    <v>       0.00000000       0.50000000       0.00000000 </v>
    <v>       0.50000000       0.00000000       0.00000000 </v>
    <v>       0.50000000       0.50000000       0.00000000 </v>
    <v>       0.25000000       0.25000000       0.05351109 </v>
    <v>       0.25000000       0.75000000       0.05351109 </v>
    <v>       0.75000000       0.25000000       0.05351109 </v>
    <v>       0.75000000       0.75000000       0.05351109 </v>
    <v>       0.00000000       0.00000000       0.10541371 </v>
    <v>       0.00000000       0.50000000       0.10541371 </v>
    <v>       0.50000000       0.00000000       0.10541371 </v>
    <v>       0.50000000       0.50000000       0.10541371 </v>
    <v>       0.25000000       0.25003477       0.15714591 </v>
    <v>       0.25000000       0.74995907       0.15714875 </v>
    <v>       0.75000000       0.25001162       0.15718828 </v>
    <v>       0.75000000       0.74999071       0.15718233 </v>
    <v>      -0.00000686       0.00002200       0.20865162 </v>
    <v>       0.00005671       0.49998153       0.20866467 </v>
    <v>       0.50000686       0.00002200       0.20865162 </v>
    <v>       0.49994329       0.49998153       0.20866467 </v>
    <v>       0.25000000       0.24995568       0.25946121 </v>
    <v>       0.25000000       0.75004623       0.25946735 </v>
    <v>       0.75000000       0.25025101       0.25951826 </v>
    <v>       0.75000000       0.74978929       0.25956442 </v>
    <v>       0.00003915       0.00001770       0.31418681 </v>
    <v>       0.00017603       0.49994374       0.31407771 </v>
    <v>       0.49996085       0.00001770       0.31418681 </v>
    <v>       0.49982397       0.49994374       0.31407771 </v>
    <v>       0.25000000       0.24997894       0.36182451 </v>
    <v>       0.25000000       0.75003019       0.36181337 </v>
    <v>       0.75000000       0.24887368       0.36160432 </v>
    <v>       0.75000000       0.75018667       0.36189360 </v>
    <v>       0.75000000       0.49714311       0.42631520 </v>
    <v>       0.75000000       0.60657813       0.44969056 </v>
   </varray>
  </structure>
  <varray name="forces" >
   <v>       0.01636239      -0.00666685       0.44716148 </v>
   <v>       0.02669507       0.00757616       0.44160147 </v>
   <v>      -0.01636239      -0.00666685       0.44716148 </v>
   <v>      -0.02669507       0.00757616       0.44160147 </v>
   <v>       0.00000000       0.02059316      -0.47571247 </v>
   <v>       0.00000000      -0.01941393      -0.48765084 </v>
   <v>       0.00000000      -0.00298549      -0.42426831 </v>
   <v>       0.00000000       0.00553969      -0.42729003 </v>
   <v>       0.00331972       0.00094913      -0.02330459 </v>
   <v>      -0.00527908      -0.00091777      -0.01728816 </v>
   <v>      -0.00331972       0.00094913      -0.02330459 </v>
   <v>       0.00527908      -0.00091777      -0.01728816 </v>
   <v>       0.00000000       0.00875848      -0.00460166 </v>
   <v>       0.00000000      -0.00943532      -0.00047847 </v>
   <v>       0.00000000       0.00430026       0.04794500 </v>
   <v>       0.00000000      -0.00162088       0.04353993 </v>
   <v>      -0.00437210       0.00605235      -0.00657457 </v>
   <v>       0.02096092      -0.00391291       0.00330356 </v>
   <v>       0.00437210       0.00605235      -0.00657457 </v>
   <v>      -0.02096092      -0.00391291       0.00330356 </v>
   <v>       0.00000000      -0.01323839      -0.02017879 </v>
   <v>       0.00000000       0.01483461      -0.01290537 </v>
   <v>       0.00000000       0.06028983       0.03207869 </v>
   <v>       0.00000000      -0.04842664       0.10424567 </v>
   <v>       0.02503466      -0.00063047       0.03070310 </v>
   <v>       0.06595688      -0.01238086      -0.09222322 </v>
   <v>      -0.02503466      -0.00063047       0.03070310 </v>
   <v>      -0.06595688      -0.01238086      -0.09222322 </v>
   <v>       0.00000000      -0.00450113       0.00505018 </v>
   <v>       0.00000000       0.00820858      -0.00861086 </v>
   <v>       0.00000000      -0.24769406      -0.21570381 </v>
   <v>       0.00000000      -0.00723296       0.14478008 </v>
   <v>       0.00000000       0.18741952       0.15131231 </v>
   <v>       0.00000000       0.06446710      -0.01830938 </v>
  </varray>
  <varray name="stress" >
   <v>     -31.81503767       0.00000000       0.00000000 </v>
   <v>       0.00000000     -28.68414007       0.75061891 </v>
   <v>       0.00000000       0.75061902      -7.17411248 </v>
  </varray>
  <energy>
   <i name="e_fr_energy">   -130.64213797 </i>
   <i name="e_wo_entrp">   -130.67444980 </i>
   <i name="e_0_energy">   -130.65290858 </i>
  </energy>
  <time name="totalsc">   66.59   67.22</time>
 </calculation>
 <calculation>
  <scstep>
   <time name="dav">    7.93    8.00</time>
   <time name="total">    8.39    8.46</time>
   <energy>
    <i name="alphaZ">    844.48149002 </i>
    <i name="ewald"> 173114.57860697 </i>
    <i name="hartreedc">-215878.06825598 </i>
    <i name="XCdc">   1431.81258167 </i>
    <i name="pawpsdc">  41953.03290149 </i>
    <i name="pawaedc"> -45401.06078919 </i>
    <i name="eentropy">      0.03267542 </i>
    <i name="bandstr">   -718.69390460 </i>
    <i name="atom">  44535.60175172 </i>
    <i name="e_fr_energy">   -118.28294248 </i>
    <i name="e_wo_entrp">   -118.31561790 </i>
    <i name="e_0_energy">   -118.29383429 </i>
   </energy>
  </scstep>
  <scstep>
   <time name="dav">    9.98   10.07</time>
   <time name="total">   10.44   10.53</time>
   <energy>
    <i name="e_fr_energy">   -118.28668774 </i>
    <i name="e_wo_entrp">   -118.31927550 </i>
    <i name="e_0_energy">   -118.29755032 </i>
   </energy>
  </scstep>
  <scstep>
   <time name="dav">    8.06    8.14</time>
   <time name="total">    8.52    8.59</time>
   <energy>
    <i name="e_fr_energy">   -118.28665429 </i>
    <i name="e_wo_entrp">   -118.31931901 </i>
    <i name="e_0_energy">   -118.29754253 </i>
   </energy>
  </scstep>
  <scstep>
   <time name="dav">    6.11    6.17</time>
   <time name="total">    6.19    6.25</time>
   <energy>
    <i name="alphaZ">    844.48149002 </i>
    <i name="ewald"> 173114.57860697 </i>
    <i name="hartreedc">-215878.16095894 </i>
    <i name="XCdc">   1431.80601166 </i>
    <i name="pawpsdc">  41953.57444916 </i>
    <i name="pawaedc"> -45401.53375323 </i>
    <i name="eentropy">      0.03261396 </i>
    <i name="bandstr">   -718.66682799 </i>
    <i name="atom">  44535.60175172 </i>
    <i name="e_fr_energy">   -118.28661666 </i>
    <i name="e_wo_entrp">   -118.31923061 </i>
    <i name="e_0_energy">   -118.29748798 </i>
   </energy>
  </scstep>
  <structure>
   <crystal>
    <varray name="basis" >
     <v>       7.26000023       0.00000000       0.00000000 </v>
     <v>       0.00000000       5.13359547       0.00000000 </v>
     <v>       0.00000000       0.00000000      23.98379135 </v>
    </varray>
    <i name="volume">    893.87360752 </i>
    <varray name="rec_basis" >
     <v>       0.13774104       0.00000000       0.00000000 </v>
     <v>       0.00000000       0.19479525       0.00000000 </v>
     <v>       0.00000000       0.00000000       0.04169483 </v>
    </varray>
   </crystal>
   <varray name="positions" >
    <v>       0.00000000       0.00000000       0.00000000 </v>
    <v>       0.00000000       0.50000000       0.00000000 </v>
    <v>       0.50000000       0.00000000       0.00000000 </v>
    <v>       0.50000000       0.50000000       0.00000000 </v>
    <v>       0.25000000       0.25000000       0.05351109 </v>
    <v>       0.25000000       0.75000000       0.05351109 </v>
    <v>       0.75000000       0.25000000       0.05351109 </v>
    <v>       0.75000000       0.75000000       0.05351109 </v>
    <v>       0.00000000       0.00000000       0.10541371 </v>
    <v>       0.00000000       0.50000000       0.10541371 </v>
    <v>       0.50000000       0.00000000       0.10541371 </v>
    <v>       0.50000000       0.50000000       0.10541371 </v>
    <v>       0.25000000       0.25011390       0.15713696 </v>
    <v>       0.25000000       0.74987319       0.15714765 </v>
    <v>       0.75000000       0.25004951       0.15728055 </v>
    <v>       0.75000000       0.74997555       0.15726569 </v>
    <v>      -0.00003382       0.00007633       0.20863795 </v>
    <v>       0.00019025       0.49994565       0.20867093 </v>
    <v>       0.50003382       0.00007633       0.20863795 </v>
    <v>       0.49980975       0.49994565       0.20867093 </v>
    <v>       0.25000000       0.24983753       0.25942195 </v>
    <v>       0.25000000       0.75017802       0.25944215 </v>
    <v>       0.75000000       0.25079785       0.25958233 </v>
    <v>       0.75000000       0.74934843       0.25976535 </v>
    <v>       0.00019355       0.00001560       0.31424736 </v>
    <v>       0.00059581       0.49983060       0.31389969 </v>
    <v>       0.49980645       0.00001560       0.31424736 </v>
    <v>       0.49940419       0.49983060       0.31389969 </v>
    <v>       0.25000000       0.24993769       0.36183467 </v>
    <v>       0.25000000       0.75010393       0.36179720 </v>
    <v>       0.75000000       0.24661008       0.36118172 </v>
    <v>       0.75000000       0.75015976       0.36216514 </v>
    <v>       0.75000000       0.49819383       0.42647909 </v>
    <v>       0.75000000       0.60779738       0.44979867 </v>
   </varray>
  </structure>
  <varray name="forces" >
   <v>       0.01592213      -0.00846132       0.44603935 </v>
   <v>       0.02663795       0.00635244       0.44027631 </v>
   <v>      -0.01592213      -0.00846132       0.44603935 </v>
   <v>      -0.02663795       0.00635244       0.44027631 </v>
   <v>       0.00000000       0.01843739      -0.47691622 </v>
   <v>       0.00000000      -0.02049172      -0.48828679 </v>
   <v>       0.00000000      -0.00436880      -0.41830328 </v>
   <v>       0.00000000       0.00428885      -0.42163890 </v>
   <v>      -0.00068759      -0.00091320      -0.02222714 </v>
   <v>      -0.01031211      -0.00222135      -0.01660412 </v>
   <v>       0.00068759      -0.00091320      -0.02222714 </v>
   <v>       0.01031211      -0.00222135      -0.01660412 </v>
   <v>       0.00000000      -0.00230877      -0.00956830 </v>
   <v>       0.00000000      -0.00084914      -0.00661854 </v>
   <v>       0.00000000       0.00117653       0.01679532 </v>
   <v>       0.00000000      -0.00132407       0.02980747 </v>
   <v>      -0.01222445      -0.00263997       0.00371253 </v>
   <v>       0.00624775       0.00210667      -0.00920194 </v>
   <v>       0.01222445      -0.00263997       0.00371253 </v>
   <v>      -0.00624775       0.00210667      -0.00920194 </v>
   <v>       0.00000000      -0.01573602      -0.01462053 </v>
   <v>       0.00000000       0.01282786      -0.01380509 </v>
   <v>       0.00000000       0.01599694      -0.01902526 </v>
   <v>       0.00000000      -0.00969382       0.06457708 </v>
   <v>       0.02228879      -0.02160824       0.00629337 </v>
   <v>       0.02086578      -0.00442995      -0.03655054 </v>
   <v>      -0.02228879      -0.02160824       0.00629337 </v>
   <v>      -0.02086578      -0.00442995      -0.03655054 </v>
   <v>       0.00000000       0.00030339       0.00743411 </v>
   <v>       0.00000000      -0.00230881       0.00154295 </v>
   <v>       0.00000000      -0.11743894      -0.09310555 </v>
   <v>       0.00000000      -0.06487788       0.10275186 </v>
   <v>       0.00000000       0.18613793       0.14617537 </v>
   <v>       0.00000000       0.06385894      -0.03067132 </v>
  </varray>
  <varray name="stress" >
   <v>     -29.95763151       0.00000000       0.00000000 </v>
   <v>       0.00000000     -26.80869130       0.78829466 </v>
   <v>       0.00000000       0.78829468      -5.30988330 </v>
  </varray>
  <energy>
   <i name="e_fr_energy">   -130.65041742 </i>
   <i name="e_wo_entrp">   -130.68303138 </i>
   <i name="e_0_energy">   -130.66128874 </i>
  </energy>
  <time name="totalsc">   48.57   49.01</time>
 </calculation>
 <calculation>
  <scstep>
   <time name="dav">    7.89    7.96</time>
   <time name="total">    8.34    8.42</time>
   <energy>
    <i name="alphaZ">    844.48149002 </i>
    <i name="ewald"> 173149.54305456 </i>
    <i name="hartreedc">-215913.13769017 </i>
    <i name="XCdc">   1431.81876799 </i>
    <i name="pawpsdc">  41953.67071805 </i>
    <i name="pawaedc"> -45401.66747207 </i>
    <i name="eentropy">      0.03295357 </i>
    <i name="bandstr">   -718.62982657 </i>
    <i name="atom">  44535.60175172 </i>
    <i name="e_fr_energy">   -118.28625290 </i>
    <i name="e_wo_entrp">   -118.31920647 </i>
    <i name="e_0_energy">   -118.29723742 </i>
   </energy>
  </scstep>
  <scstep>
   <time name="dav">    9.94   10.03</time>
   <time name="total">   10.40   10.49</time>
   <energy>
    <i name="e_fr_energy">   -118.29310244 </i>
    <i name="e_wo_entrp">   -118.32593457 </i>
    <i name="e_0_energy">   -118.30404648 </i>
   </energy>
  </scstep>
  <scstep>
   <time name="dav">    7.96    8.03</time>
   <time name="total">    8.41    8.48</time>
   <energy>
    <i name="e_fr_energy">   -118.29298900 </i>
    <i name="e_wo_entrp">   -118.32603289 </i>
    <i name="e_0_energy">   -118.30400363 </i>
   </energy>
  </scstep>
  <scstep>
   <time name="dav">    7.43    7.50</time>
   <time name="total">    7.51    7.58</time>
   <energy>
    <i name="alphaZ">    844.48149002 </i>
    <i name="ewald"> 173149.54305456 </i>
    <i name="hartreedc">-215913.09110242 </i>
    <i name="XCdc">   1431.81409478 </i>
    <i name="pawpsdc">  41954.87681174 </i>
    <i name="pawaedc"> -45402.86336795 </i>
    <i name="eentropy">      0.03296082 </i>
    <i name="bandstr">   -718.68852785 </i>
    <i name="atom">  44535.60175172 </i>
    <i name="e_fr_energy">   -118.29283458 </i>
    <i name="e_wo_entrp">   -118.32579540 </i>
    <i name="e_0_energy">   -118.30382152 </i>
   </energy>
  </scstep>
  <structure>
   <crystal>
    <varray name="basis" >
     <v>       7.26000023       0.00000000       0.00000000 </v>
     <v>       0.00000000       5.13359547       0.00000000 </v>
     <v>       0.00000000       0.00000000      23.98379135 </v>
    </varray>
    <i name="volume">    893.87360752 </i>
    <varray name="rec_basis" >
     <v>       0.13774104       0.00000000       0.00000000 </v>
     <v>       0.00000000       0.19479525       0.00000000 </v>
     <v>       0.00000000       0.00000000       0.04169483 </v>
    </varray>
   </crystal>
   <varray name="positions" >
    <v>       0.00000000       0.00000000       0.00000000 </v>
    <v>       0.00000000       0.50000000       0.00000000 </v>
    <v>       0.50000000       0.00000000       0.00000000 </v>
    <v>       0.50000000       0.50000000       0.00000000 </v>
    <v>       0.25000000       0.25000000       0.05351109 </v>
    <v>       0.25000000       0.75000000       0.05351109 </v>
    <v>       0.75000000       0.25000000       0.05351109 </v>
    <v>       0.75000000       0.75000000       0.05351109 </v>
    <v>       0.00000000       0.00000000       0.10541371 </v>
    <v>       0.00000000       0.50000000       0.10541371 </v>
    <v>       0.50000000       0.00000000       0.10541371 </v>
    <v>       0.50000000       0.50000000       0.10541371 </v>
    <v>       0.25000000       0.25021617       0.15712540 </v>
    <v>       0.25000000       0.74976222       0.15714624 </v>
    <v>       0.75000000       0.25009846       0.15739978 </v>
    <v>       0.75000000       0.74995597       0.15737340 </v>
    <v>      -0.00006867       0.00014653       0.20862028 </v>
    <v>       0.00036281       0.49989929       0.20867903 </v>
    <v>       0.50006867       0.00014653       0.20862028 </v>
    <v>       0.49963719       0.49989929       0.20867903 </v>
    <v>       0.25000000       0.24968486       0.25937122 </v>
    <v>       0.25000000       0.75034831       0.25940959 </v>
    <v>       0.75000000       0.25150449       0.25966512 </v>
    <v>       0.75000000       0.74877873       0.26002500 </v>
    <v>       0.00039306       0.00001290       0.31432561 </v>
    <v>       0.00113827       0.49968440       0.31366964 </v>
    <v>       0.49960694       0.00001290       0.31432561 </v>
    <v>       0.49886173       0.49968440       0.31366964 </v>
    <v>       0.25000000       0.24988440       0.36184781 </v>
    <v>       0.25000000       0.75019922       0.36177630 </v>
    <v>       0.75000000       0.24368497       0.36063562 </v>
    <v>       0.75000000       0.75012498       0.36251604 </v>
    <v>       0.75000000       0.49955162       0.42669089 </v>
    <v>       0.75000000       0.60937294       0.44993838 </v>
   </varray>
  </structure>
  <varray name="forces" >
   <v>       0.01516635      -0.00871819       0.44744500 </v>
   <v>       0.02654173       0.00613870       0.44126350 </v>
   <v>      -0.01516635      -0.00871819       0.44744500 </v>
   <v>      -0.02654173       0.00613870       0.44126350 </v>
   <v>       0.00000000       0.01784228      -0.47740787 </v>
   <v>       0.00000000      -0.02063041      -0.48757999 </v>
   <v>       0.00000000      -0.00399722      -0.41068967 </v>
   <v>       0.00000000       0.00430750      -0.41438020 </v>
   <v>      -0.00478734      -0.00133442      -0.01998049 </v>
   <v>      -0.01566989      -0.00251770      -0.01484983 </v>
   <v>       0.00478734      -0.00133442      -0.01998049 </v>
   <v>       0.01566989      -0.00251770      -0.01484983 </v>
   <v>       0.00000000      -0.01059686      -0.01406636 </v>
   <v>       0.00000000       0.00725116      -0.01136084 </v>
   <v>       0.00000000       0.00012774      -0.00508632 </v>
   <v>       0.00000000      -0.00011283       0.02574856 </v>
   <v>      -0.01990584      -0.00890484       0.01419980 </v>
   <v>      -0.00332595       0.00845821      -0.02077419 </v>
   <v>       0.01990584      -0.00890484       0.01419980 </v>
   <v>       0.00332595       0.00845821      -0.02077419 </v>
   <v>       0.00000000      -0.02016230      -0.01231786 </v>
   <v>       0.00000000       0.01524343      -0.01655007 </v>
   <v>       0.00000000      -0.01658696      -0.07133066 </v>
   <v>       0.00000000       0.02185170       0.04655895 </v>
   <v>       0.03052173      -0.04406827      -0.01373948 </v>
   <v>      -0.00914629       0.00219560       0.00176366 </v>
   <v>      -0.03052173      -0.04406827      -0.01373948 </v>
   <v>       0.00914629       0.00219560       0.00176366 </v>
   <v>       0.00000000       0.00532763       0.00984614 </v>
   <v>       0.00000000      -0.01015209       0.00952044 </v>
   <v>       0.00000000      -0.01276212      -0.00580757 </v>
   <v>       0.00000000      -0.12579128       0.07114608 </v>
   <v>       0.00000000       0.18032526       0.13740111 </v>
   <v>       0.00000000       0.06601719      -0.04429978 </v>
  </varray>
  <varray name="stress" >
   <v>     -29.77759710       0.00000000       0.00000000 </v>
   <v>       0.00000000     -26.65184195       0.81790565 </v>
   <v>       0.00000000       0.81790579      -5.09909385 </v>
  </varray>
  <energy>
   <i name="e_fr_energy">   -130.65722683 </i>
   <i name="e_wo_entrp">   -130.69018765 </i>
   <i name="e_0_energy">   -130.66821377 </i>
  </energy>
  <time name="totalsc">   49.74   50.15</time>
 </calculation>
 <calculation>
  <scstep>
   <time name="dav">    7.87    7.94</time>
   <time name="total">    8.33    8.40</time>
   <energy>
    <i name="alphaZ">    844.48149002 </i>
    <i name="ewald"> 173219.65205236 </i>
    <i name="hartreedc">-215983.39266796 </i>
    <i name="XCdc">   1431.84562007 </i>
    <i name="pawpsdc">  41955.23129192 </i>
    <i name="pawaedc"> -45403.28414244 </i>
    <i name="eentropy">      0.03353933 </i>
    <i name="bandstr">   -718.43332157 </i>
    <i name="atom">  44535.60175172 </i>
    <i name="e_fr_energy">   -118.26438655 </i>
    <i name="e_wo_entrp">   -118.29792588 </i>
    <i name="e_0_energy">   -118.27556633 </i>
   </energy>
  </scstep>
  <scstep>
   <time name="dav">   10.03   10.12</time>
   <time name="total">   10.48   10.58</time>
   <energy>
    <i name="e_fr_energy">   -118.29451333 </i>
    <i name="e_wo_entrp">   -118.32792643 </i>
    <i name="e_0_energy">   -118.30565103 </i>
   </energy>
  </scstep>
  <scstep>
   <time name="dav">    8.01    8.08</time>
   <time name="total">    8.45    8.53</time>
   <energy>
    <i name="e_fr_energy">   -118.29370159 </i>
    <i name="e_wo_entrp">   -118.32750962 </i>
    <i name="e_0_energy">   -118.30497093 </i>
   </energy>
  </scstep>
  <scstep>
   <time name="dav">    7.96    8.03</time>
   <time name="total">    8.42    8.50</time>
   <energy>
    <i name="e_fr_energy">   -118.29314217 </i>
    <i name="e_wo_entrp">   -118.32675700 </i>
    <i name="e_0_energy">   -118.30434711 </i>
   </energy>
  </scstep>
  <scstep>
   <time name="dav">    9.22    9.30</time>
   <time name="total">    9.68    9.77</time>
   <energy>
    <i name="e_fr_energy">   -118.29265570 </i>
    <i name="e_wo_entrp">   -118.32619576 </i>
    <i name="e_0_energy">   -118.30383572 </i>
   </energy>
  </scstep>
  <scstep>
   <time name="dav">   11.24   11.35</time>
   <time name="total">   11.69   11.81</time>
   <energy>
    <i name="e_fr_energy">   -118.29215908 </i>
    <i name="e_wo_entrp">   -118.32583859 </i>
    <i name="e_0_energy">   -118.30338559 </i>
   </energy>
  </scstep>
  <scstep>
   <time name="dav">    7.07    7.14</time>
   <time name="total">    7.15    7.22</time>
   <energy>
    <i name="alphaZ">    844.48149002 </i>
    <i name="ewald"> 173219.65205236 </i>
    <i name="hartreedc">-215983.96618232 </i>
    <i name="XCdc">   1431.83906616 </i>
    <i name="pawpsdc">  41960.26042504 </i>
    <i name="pawaedc"> -45408.49690549 </i>
    <i name="eentropy">      0.03346357 </i>
    <i name="bandstr">   -717.69725840 </i>
    <i name="atom">  44535.60175172 </i>
    <i name="e_fr_energy">   -118.29209733 </i>
    <i name="e_wo_entrp">   -118.32556090 </i>
    <i name="e_0_energy">   -118.30325185 </i>
   </energy>
  </scstep>
  <structure>
   <crystal>
    <varray name="basis" >
     <v>       7.26000023       0.00000000       0.00000000 </v>
     <v>       0.00000000       5.13359547       0.00000000 </v>
     <v>       0.00000000       0.00000000      23.98379135 </v>
    </varray>
    <i name="volume">    893.87360752 </i>
    <varray name="rec_basis" >
     <v>       0.13774104       0.00000000       0.00000000 </v>
     <v>       0.00000000       0.19479525       0.00000000 </v>
     <v>       0.00000000       0.00000000       0.04169483 </v>
    </varray>
   </crystal>
   <varray name="positions" >
    <v>       0.00000000       0.00000000       0.00000000 </v>
    <v>       0.00000000       0.50000000       0.00000000 </v>
    <v>       0.50000000       0.00000000       0.00000000 </v>
    <v>       0.50000000       0.50000000       0.00000000 </v>
    <v>       0.25000000       0.25000000       0.05351109 </v>
    <v>       0.25000000       0.75000000       0.05351109 </v>
    <v>       0.75000000       0.25000000       0.05351109 </v>
    <v>       0.75000000       0.75000000       0.05351109 </v>
    <v>       0.00000000       0.00000000       0.10541371 </v>
    <v>       0.00000000       0.50000000       0.10541371 </v>
    <v>       0.50000000       0.00000000       0.10541371 </v>
    <v>       0.50000000       0.50000000       0.10541371 </v>
    <v>       0.25000000       0.25042070       0.15710227 </v>
    <v>       0.25000000       0.74954028       0.15714341 </v>
    <v>       0.75000000       0.25019637       0.15763826 </v>
    <v>       0.75000000       0.74991680       0.15758884 </v>
    <v>      -0.00013837       0.00028693       0.20858494 </v>
    <v>       0.00070795       0.49980656       0.20869521 </v>
    <v>       0.50013837       0.00028693       0.20858494 </v>
    <v>       0.49929205       0.49980656       0.20869521 </v>
    <v>       0.25000000       0.24937951       0.25926976 </v>
    <v>       0.25000000       0.75068889       0.25934446 </v>
    <v>       0.75000000       0.25291778       0.25983070 </v>
    <v>       0.75000000       0.74763934       0.26054431 </v>
    <v>       0.00079209       0.00000750       0.31448211 </v>
    <v>       0.00222319       0.49939199       0.31320956 </v>
    <v>       0.49920791       0.00000750       0.31448211 </v>
    <v>       0.49777681       0.49939199       0.31320956 </v>
    <v>       0.25000000       0.24977782       0.36187408 </v>
    <v>       0.25000000       0.75038980       0.36173450 </v>
    <v>       0.75000000       0.23783475       0.35954342 </v>
    <v>       0.75000000       0.75005543       0.36321784 </v>
    <v>       0.75000000       0.50226719       0.42711448 </v>
    <v>       0.75000000       0.61252406       0.45021780 </v>
   </varray>
  </structure>
  <varray name="forces" >
   <v>       0.01363566      -0.00799330       0.45016393 </v>
   <v>       0.02651718       0.00673710       0.44333747 </v>
   <v>      -0.01363566      -0.00799330       0.45016393 </v>
   <v>      -0.02651718       0.00673710       0.44333747 </v>
   <v>       0.00000000       0.01795267      -0.47748195 </v>
   <v>       0.00000000      -0.01986647      -0.48533239 </v>
   <v>       0.00000000      -0.00207365      -0.39648700 </v>
   <v>       0.00000000       0.00551711      -0.40085660 </v>
   <v>      -0.01129439      -0.00101670      -0.01375693 </v>
   <v>      -0.02470134      -0.00207430      -0.00923731 </v>
   <v>       0.01129439      -0.00101670      -0.01375693 </v>
   <v>       0.02470134      -0.00207430      -0.00923731 </v>
   <v>       0.00000000      -0.02434661      -0.01787636 </v>
   <v>       0.00000000       0.02288118      -0.01558334 </v>
   <v>       0.00000000      -0.00064446      -0.04134200 </v>
   <v>       0.00000000       0.00311081       0.02098548 </v>
   <v>      -0.03180394      -0.01860527       0.03779030 </v>
   <v>      -0.01885740       0.02078413      -0.03853058 </v>
   <v>       0.03180394      -0.01860527       0.03779030 </v>
   <v>       0.01885740       0.02078413      -0.03853058 </v>
   <v>       0.00000000      -0.02820367      -0.00860855 </v>
   <v>       0.00000000       0.02190183      -0.02221404 </v>
   <v>       0.00000000      -0.07427002      -0.17918359 </v>
   <v>       0.00000000       0.08243100       0.01107670 </v>
   <v>       0.05228700      -0.08792028      -0.05218091 </v>
   <v>      -0.06641619       0.01547059       0.07684458 </v>
   <v>      -0.05228700      -0.08792028      -0.05218091 </v>
   <v>       0.06641619       0.01547059       0.07684458 </v>
   <v>       0.00000000       0.01505661       0.01179832 </v>
   <v>       0.00000000      -0.02265548       0.02202584 </v>
   <v>       0.00000000       0.15797548       0.14770755 </v>
   <v>       0.00000000      -0.23092928       0.01043225 </v>
[...]
       <r>    10.5490    -0.0005   232.0000 </r>
       <r>    10.6227    -0.0001   232.0000 </r>
       <r>    10.6964    -0.0000   232.0000 </r>
       <r>    10.7701    -0.0000   232.0000 </r>
       <r>    10.8437    -0.0000   232.0000 </r>
       <r>    10.9174    -0.0000   232.0000 </r>
       <r>    10.9911    -0.0000   232.0000 </r>
       <r>    11.0647    -0.0000   232.0000 </r>
       <r>    11.1384    -0.0000   232.0000 </r>
       <r>    11.2121     0.0000   232.0000 </r>
       <r>    11.2858     0.0000   232.0000 </r>
       <r>    11.3594     0.0000   232.0000 </r>
       <r>    11.4331     0.0000   232.0000 </r>
       <r>    11.5068     0.0000   232.0000 </r>
       <r>    11.5804     0.0000   232.0000 </r>
       <r>    11.6541     0.0000   232.0000 </r>
       <r>    11.7278     0.0000   232.0000 </r>
       <r>    11.8015     0.0000   232.0000 </r>
       <r>    11.8751     0.0000   232.0000 </r>
      </set>
      <set comment="spin 2">
       <r>   -10.2263     0.0000     0.0000 </r>
       <r>   -10.1527     0.0000     0.0000 </r>
       <r>   -10.0790     0.0000     0.0000 </r>
       <r>   -10.0053     0.0000     0.0000 </r>
       <r>    -9.9316     0.0000     0.0000 </r>
       <r>    -9.8580    -0.0000    -0.0000 </r>
       <r>    -9.7843    -0.0000    -0.0000 </r>
       <r>    -9.7106    -0.0000    -0.0000 </r>
       <r>    -9.6370    -0.0000    -0.0000 </r>
       <r>    -9.5633    -0.0000    -0.0000 </r>
       <r>    -9.4896    -0.0000    -0.0000 </r>
       <r>    -9.4159    -0.0000    -0.0000 </r>
       <r>    -9.3423    -0.0000    -0.0000 </r>
       <r>    -9.2686    -0.0000    -0.0000 </r>
       <r>    -9.1949    -0.0000    -0.0000 </r>
       <r>    -9.1213    -0.0000    -0.0000 </r>
       <r>    -9.0476    -0.0000    -0.0000 </r>
       <r>    -8.9739    -0.0000    -0.0000 </r>
       <r>    -8.9002    -0.0000    -0.0000 </r>
       <r>    -8.8266    -0.0001    -0.0000 </r>
       <r>    -8.7529    -0.0008    -0.0001 </r>
       <r>    -8.6792    -0.0038    -0.0003 </r>
       <r>    -8.6056    -0.0121    -0.0012 </r>
       <r>    -8.5319    -0.0245    -0.0030 </r>
       <r>    -8.4582    -0.0195    -0.0045 </r>
       <r>    -8.3845     0.0446    -0.0012 </r>
       <r>    -8.3109     0.1754     0.0117 </r>
       <r>    -8.2372     0.2992     0.0338 </r>
       <r>    -8.1635     0.3775     0.0616 </r>
       <r>    -8.0899     0.6098     0.1065 </r>
       <r>    -8.0162     1.3536     0.2062 </r>
       <r>    -7.9425     2.6525     0.4016 </r>
       <r>    -7.8688     3.8683     0.6866 </r>
       <r>    -7.7952     4.0793     0.9871 </r>
       <r>    -7.7215     3.0711     1.2134 </r>
       <r>    -7.6478     1.6686     1.3363 </r>
       <r>    -7.5742     0.8167     1.3965 </r>
       <r>    -7.5005     0.6329     1.4431 </r>
       <r>    -7.4268     0.6655     1.4921 </r>
       <r>    -7.3531     0.7654     1.5485 </r>
       <r>    -7.2795     1.1693     1.6347 </r>
       <r>    -7.2058     1.7845     1.7661 </r>
       <r>    -7.1321     2.0502     1.9172 </r>
       <r>    -7.0585     1.7446     2.0457 </r>
       <r>    -6.9848     1.3630     2.1461 </r>
       <r>    -6.9111     1.3739     2.2473 </r>
       <r>    -6.8374     1.5554     2.3619 </r>
       <r>    -6.7638     1.4159     2.4662 </r>
       <r>    -6.6901     0.9498     2.5362 </r>
       <r>    -6.6164     0.5936     2.5799 </r>
       <r>    -6.5428     0.6180     2.6255 </r>
       <r>    -6.4691     0.9940     2.6987 </r>
       <r>    -6.3954     1.7290     2.8261 </r>
       <r>    -6.3217     2.7302     3.0272 </r>
       <r>    -6.2481     3.3925     3.2771 </r>
       <r>    -6.1744     3.0809     3.5041 </r>
       <r>    -6.1007     2.0437     3.6547 </r>
       <r>    -6.0271     1.1475     3.7392 </r>
       <r>    -5.9534     0.8125     3.7991 </r>
       <r>    -5.8797     0.8214     3.8596 </r>
       <r>    -5.8060     0.9306     3.9282 </r>
       <r>    -5.7324     1.1353     4.0118 </r>
       <r>    -5.6587     1.6212     4.1312 </r>
       <r>    -5.5850     2.6764     4.3284 </r>
       <r>    -5.5114     4.1382     4.6333 </r>
       <r>    -5.4377     4.9972     5.0014 </r>
       <r>    -5.3640     4.3445     5.3215 </r>
       <r>    -5.2903     2.6121     5.5139 </r>
       <r>    -5.2167     1.1888     5.6015 </r>
       <r>    -5.1430     1.0935     5.6821 </r>
       <r>    -5.0693     2.4843     5.8651 </r>
       <r>    -4.9956     4.7785     6.2171 </r>
       <r>    -4.9220     6.7510     6.7145 </r>
       <r>    -4.8483     7.2535     7.2489 </r>
       <r>    -4.7746     6.1634     7.7029 </r>
       <r>    -4.7010     4.1858     8.0113 </r>
       <r>    -4.6273     2.0706     8.1638 </r>
       <r>    -4.5536     0.5028     8.2009 </r>
       <r>    -4.4799     0.2111     8.2164 </r>
       <r>    -4.4063     1.6353     8.3369 </r>
       <r>    -4.3326     4.4604     8.6655 </r>
       <r>    -4.2589     7.5176     9.2193 </r>
       <r>    -4.1853     9.4164     9.9131 </r>
       <r>    -4.1116     9.7215    10.6293 </r>
       <r>    -4.0379     9.5220    11.3308 </r>
       <r>    -3.9642    10.4218    12.0986 </r>
       <r>    -3.8906    12.7792    13.0400 </r>
       <r>    -3.8169    15.2919    14.1666 </r>
       <r>    -3.7432    16.7413    15.4000 </r>
       <r>    -3.6696    17.5948    16.6962 </r>
       <r>    -3.5959    18.8512    18.0850 </r>
       <r>    -3.5222    20.1893    19.5724 </r>
       <r>    -3.4485    21.0446    21.1228 </r>
       <r>    -3.3749    22.6268    22.7897 </r>
       <r>    -3.3012    26.5643    24.7467 </r>
       <r>    -3.2275    31.7324    27.0845 </r>
       <r>    -3.1539    34.7646    29.6457 </r>
       <r>    -3.0802    34.2447    32.1685 </r>
       <r>    -3.0065    32.1494    34.5370 </r>
       <r>    -2.9328    30.5279    36.7861 </r>
       <r>    -2.8592    29.4244    38.9538 </r>
       <r>    -2.7855    28.9580    41.0872 </r>
       <r>    -2.7118    30.6223    43.3432 </r>
       <r>    -2.6382    35.0467    45.9251 </r>
       <r>    -2.5645    40.3733    48.8995 </r>
       <r>    -2.4908    44.1133    52.1494 </r>
       <r>    -2.4171    45.5909    55.5081 </r>
       <r>    -2.3435    46.0593    58.9014 </r>
       <r>    -2.2698    47.3569    62.3903 </r>
       <r>    -2.1961    50.6697    66.1232 </r>
       <r>    -2.1225    55.7911    70.2334 </r>
       <r>    -2.0488    61.0949    74.7343 </r>
       <r>    -1.9751    64.2170    79.4653 </r>
       <r>    -1.9014    63.4806    84.1420 </r>
       <r>    -1.8278    59.3578    88.5150 </r>
       <r>    -1.7541    54.0361    92.4959 </r>
       <r>    -1.6804    49.4408    96.1383 </r>
       <r>    -1.6068    46.4948    99.5636 </r>
       <r>    -1.5331    45.9365   102.9478 </r>
       <r>    -1.4594    48.2883   106.5053 </r>
       <r>    -1.3857    52.5357   110.3757 </r>
       <r>    -1.3121    56.3389   114.5263 </r>
       <r>    -1.2384    58.5884   118.8426 </r>
       <r>    -1.1647    60.3030   123.2852 </r>
       <r>    -1.0911    62.2194   127.8690 </r>
       <r>    -1.0174    63.7305   132.5641 </r>
       <r>    -0.9437    65.3924   137.3817 </r>
       <r>    -0.8700    69.7806   142.5225 </r>
       <r>    -0.7964    77.3861   148.2236 </r>
       <r>    -0.7227    83.0227   154.3401 </r>
       <r>    -0.6490    79.0102   160.1609 </r>
       <r>    -0.5754    62.7510   164.7838 </r>
       <r>    -0.5017    40.1805   167.7440 </r>
       <r>    -0.4280    20.8341   169.2789 </r>
       <r>    -0.3543    10.0947   170.0226 </r>
       <r>    -0.2807     6.8031   170.5237 </r>
       <r>    -0.2070     6.8206   171.0262 </r>
       <r>    -0.1333     6.9219   171.5362 </r>
       <r>    -0.0597     5.7948   171.9631 </r>
       <r>     0.0140     3.5620   172.2255 </r>
       <r>     0.0877     1.3305   172.3235 </r>
       <r>     0.1614     0.4352   172.3556 </r>
       <r>     0.2350     1.4137   172.4597 </r>
       <r>     0.3087     3.5949   172.7246 </r>
       <r>     0.3824     5.7027   173.1447 </r>
       <r>     0.4560     7.0012   173.6605 </r>
       <r>     0.5297     7.8310   174.2374 </r>
       <r>     0.6034     8.8212   174.8873 </r>
       <r>     0.6771     9.6835   175.6007 </r>
       <r>     0.7507     9.3100   176.2866 </r>
       <r>     0.8244     7.2678   176.8220 </r>
       <r>     0.8981     4.6601   177.1653 </r>
       <r>     0.9717     3.1742   177.3992 </r>
       <r>     1.0454     3.5327   177.6594 </r>
       <r>     1.1191     4.9572   178.0246 </r>
       <r>     1.1928     6.0505   178.4704 </r>
       <r>     1.2664     6.0494   178.9160 </r>
       <r>     1.3401     5.0657   179.2892 </r>
       <r>     1.4138     3.6927   179.5613 </r>
       <r>     1.4874     2.9209   179.7765 </r>
       <r>     1.5611     3.5522   180.0382 </r>
       <r>     1.6348     4.9832   180.4053 </r>
       <r>     1.7085     5.5733   180.8159 </r>
       <r>     1.7821     4.8183   181.1709 </r>
       <r>     1.8558     4.0076   181.4661 </r>
       <r>     1.9295     4.3109   181.7837 </r>
       <r>     2.0031     5.4436   182.1847 </r>
       <r>     2.0768     6.4587   182.6606 </r>
       <r>     2.1505     6.7595   183.1585 </r>
       <r>     2.2242     6.2577   183.6196 </r>
       <r>     2.2978     5.3464   184.0134 </r>
       <r>     2.3715     4.7657   184.3645 </r>
       <r>     2.4452     5.0020   184.7330 </r>
       <r>     2.5188     5.7010   185.1530 </r>
       <r>     2.5925     5.9046   185.5880 </r>
       <r>     2.6662     5.0491   185.9600 </r>
       <r>     2.7399     3.6571   186.2294 </r>
       <r>     2.8135     2.7272   186.4304 </r>
       <r>     2.8872     2.5931   186.6214 </r>
       <r>     2.9609     2.9925   186.8419 </r>
       <r>     3.0345     3.8757   187.1274 </r>
       <r>     3.1082     5.1237   187.5049 </r>
       <r>     3.1819     5.8851   187.9384 </r>
       <r>     3.2556     5.4357   188.3389 </r>
       <r>     3.3292     4.4041   188.6633 </r>
       <r>     3.4029     4.0617   188.9626 </r>
       <r>     3.4766     4.6692   189.3066 </r>
       <r>     3.5502     5.2811   189.6956 </r>
       <r>     3.6239     4.9650   190.0614 </r>
       <r>     3.6976     3.8477   190.3449 </r>
       <r>     3.7713     2.9636   190.5632 </r>
       <r>     3.8449     3.0661   190.7891 </r>
       <r>     3.9186     3.9034   191.0766 </r>
       <r>     3.9923     4.8631   191.4349 </r>
       <r>     4.0659     5.6569   191.8517 </r>
       <r>     4.1396     6.0330   192.2961 </r>
       <r>     4.2133     5.7051   192.7164 </r>
       <r>     4.2870     4.9862   193.0838 </r>
       <r>     4.3606     4.5725   193.4206 </r>
       <r>     4.4343     4.4814   193.7508 </r>
       <r>     4.5080     4.1433   194.0560 </r>
       <r>     4.5816     3.5070   194.3144 </r>
       <r>     4.6553     3.2191   194.5515 </r>
       <r>     4.7290     3.7870   194.8305 </r>
       <r>     4.8027     4.9697   195.1967 </r>
       <r>     4.8763     5.9382   195.6341 </r>
       <r>     4.9500     6.0485   196.0797 </r>
       <r>     5.0237     5.3647   196.4750 </r>
       <r>     5.0973     4.2916   196.7911 </r>
       <r>     5.1710     3.2057   197.0273 </r>
       <r>     5.2447     2.6845   197.2251 </r>
       <r>     5.3184     3.3685   197.4732 </r>
       <r>     5.3920     5.1858   197.8553 </r>
       <r>     5.4657     7.1476   198.3819 </r>
       <r>     5.5394     8.2551   198.9900 </r>
       <r>     5.6130     8.4087   199.6095 </r>
       <r>     5.6867     8.2175   200.2149 </r>
       <r>     5.7604     8.1001   200.8117 </r>
       <r>     5.8341     7.9295   201.3958 </r>
       <r>     5.9077     7.5750   201.9539 </r>
       <r>     5.9814     7.2686   202.4894 </r>
       <r>     6.0551     7.2005   203.0199 </r>
       <r>     6.1287     7.2845   203.5565 </r>
       <r>     6.2024     7.4210   204.1032 </r>
       <r>     6.2761     7.4934   204.6553 </r>
       <r>     6.3498     7.2971   205.1929 </r>
       <r>     6.4234     6.8855   205.7001 </r>
       <r>     6.4971     6.6674   206.1913 </r>
       <r>     6.5708     6.8401   206.6952 </r>
       <r>     6.6445     7.0601   207.2154 </r>
       <r>     6.7181     6.9790   207.7295 </r>
       <r>     6.7918     6.7437   208.2263 </r>
       <r>     6.8655     6.7900   208.7266 </r>
       <r>     6.9391     7.3610   209.2689 </r>
       <r>     7.0128     8.0788   209.8641 </r>
       <r>     7.0865     8.1961   210.4679 </r>
       <r>     7.1602     7.7334   211.0376 </r>
       <r>     7.2338     7.6345   211.6001 </r>
       <r>     7.3075     8.2603   212.2086 </r>
       <r>     7.3812     8.7762   212.8552 </r>
       <r>     7.4548     8.4184   213.4754 </r>
       <r>     7.5285     7.3891   214.0197 </r>
       <r>     7.6022     6.4250   214.4931 </r>
       <r>     7.6759     6.2144   214.9509 </r>
       <r>     7.7495     7.0532   215.4705 </r>
       <r>     7.8232     8.5859   216.1030 </r>
       <r>     7.8969    10.0375   216.8425 </r>
       <r>     7.9705    10.7871   217.6372 </r>
       <r>     8.0442    10.5665   218.4157 </r>
       <r>     8.1179     9.4565   219.1123 </r>
       <r>     8.1916     8.1252   219.7109 </r>
       <r>     8.2652     7.5077   220.2640 </r>
       <r>     8.3389     7.6763   220.8296 </r>
       <r>     8.4126     7.7202   221.3983 </r>
       <r>     8.4862     7.1408   221.9244 </r>
       <r>     8.5599     6.6061   222.4111 </r>
       <r>     8.6336     7.0423   222.9299 </r>
       <r>     8.7073     8.3996   223.5487 </r>
       <r>     8.7809     9.5855   224.2549 </r>
       <r>     8.8546     9.7352   224.9721 </r>
       <r>     8.9283     9.1971   225.6496 </r>
       <r>     9.0019     8.7431   226.2938 </r>
       <r>     9.0756     8.3734   226.9106 </r>
       <r>     9.1493     7.7268   227.4799 </r>
       <r>     9.2230     7.0025   227.9958 </r>
       <r>     9.2966     6.5946   228.4816 </r>
       <r>     9.3703     6.4600   228.9575 </r>
       <r>     9.4440     6.4223   229.4307 </r>
       <r>     9.5176     6.5076   229.9101 </r>
       <r>     9.5913     6.6932   230.4032 </r>
       <r>     9.6650     6.6043   230.8897 </r>
       <r>     9.7387     5.7817   231.3157 </r>
       <r>     9.8123     4.3303   231.6347 </r>
       <r>     9.8860     2.8315   231.8433 </r>
       <r>     9.9597     1.6171   231.9624 </r>
       <r>    10.0333     0.6940   232.0136 </r>
       <r>    10.1070     0.1076   232.0215 </r>
       <r>    10.1807    -0.1137   232.0131 </r>
       <r>    10.2544    -0.1084   232.0051 </r>
       <r>    10.3280    -0.0505   232.0014 </r>
       <r>    10.4017    -0.0153   232.0003 </r>
       <r>    10.4754    -0.0033   232.0000 </r>
       <r>    10.5490    -0.0005   232.0000 </r>
       <r>    10.6227    -0.0001   232.0000 </r>
       <r>    10.6964    -0.0000   232.0000 </r>
       <r>    10.7701    -0.0000   232.0000 </r>
       <r>    10.8437    -0.0000   232.0000 </r>
       <r>    10.9174    -0.0000   232.0000 </r>
       <r>    10.9911    -0.0000   232.0000 </r>
       <r>    11.0647    -0.0000   232.0000 </r>
       <r>    11.1384    -0.0000   232.0000 </r>
       <r>    11.2121     0.0000   232.0000 </r>
       <r>    11.2858     0.0000   232.0000 </r>
       <r>    11.3594     0.0000   232.0000 </r>
       <r>    11.4331     0.0000   232.0000 </r>
       <r>    11.5068     0.0000   232.0000 </r>
       <r>    11.5804     0.0000   232.0000 </r>
       <r>    11.6541     0.0000   232.0000 </r>
       <r>    11.7278     0.0000   232.0000 </r>
       <r>    11.8015     0.0000   232.0000 </r>
       <r>    11.8751     0.0000   232.0000 </r>
      </set>
     </set>
    </array>
   </total>
  </dos>
 </calculation>
 <structure name="finalpos" >
  <crystal>
   <varray name="basis" >
    <v>       7.26000023       0.00000000       0.00000000 </v>
    <v>       0.00000000       5.13359547       0.00000000 </v>
    <v>       0.00000000       0.00000000      23.98379135 </v>
   </varray>
   <i name="volume">    893.87360752 </i>
   <varray name="rec_basis" >
    <v>       0.13774104       0.00000000       0.00000000 </v>
    <v>       0.00000000       0.19479525       0.00000000 </v>
    <v>       0.00000000       0.00000000       0.04169483 </v>
   </varray>
  </crystal>
  <varray name="positions" >
   <v>       0.00000000       0.00000000       0.00000000 </v>
   <v>       0.00000000       0.50000000       0.00000000 </v>
   <v>       0.50000000       0.00000000       0.00000000 </v>
   <v>       0.50000000       0.50000000       0.00000000 </v>
   <v>       0.25000000       0.25000000       0.05351109 </v>
   <v>       0.25000000       0.75000000       0.05351109 </v>
   <v>       0.75000000       0.25000000       0.05351109 </v>
   <v>       0.75000000       0.75000000       0.05351109 </v>
   <v>       0.00000000       0.00000000       0.10541371 </v>
   <v>       0.00000000       0.50000000       0.10541371 </v>
   <v>       0.50000000       0.00000000       0.10541371 </v>
   <v>       0.50000000       0.50000000       0.10541371 </v>
   <v>       0.25000000       0.24515700       0.15701097 </v>
   <v>       0.25000000       0.74505519       0.15710036 </v>
   <v>       0.75000000       0.24505668       0.15745441 </v>
   <v>       0.75000000       0.74482363       0.15784686 </v>
   <v>      -0.00011873      -0.00963851       0.20859967 </v>
   <v>      -0.00024948       0.49049566       0.20863435 </v>
   <v>       0.50011873      -0.00963851       0.20859967 </v>
   <v>       0.50024948       0.49049566       0.20863435 </v>
   <v>       0.25000000       0.23695040       0.25908231 </v>
   <v>       0.25000000       0.73678033       0.25919496 </v>
   <v>       0.75000000       0.23738983       0.25951758 </v>
   <v>       0.75000000       0.73719690       0.26127245 </v>
   <v>       0.00127436      -0.01563585       0.31383498 </v>
   <v>       0.00117728       0.48401138       0.31379054 </v>
   <v>       0.49872564      -0.01563585       0.31383498 </v>
   <v>       0.49882272       0.48401138       0.31379054 </v>
   <v>       0.25000000       0.23473470       0.36189657 </v>
   <v>       0.25000000       0.73450411       0.36168952 </v>
   <v>       0.75000000       0.23145160       0.36056844 </v>
   <v>       0.75000000       0.73182608       0.36357673 </v>
   <v>       0.75000000       0.64418767       0.43416179 </v>
   <v>       0.75000000       0.80194455       0.43494592 </v>
  </varray>
  <varray name="selective"  type="logical" >
   <v type="logical" >  F  F  F </v>
   <v type="logical" >  F  F  F </v>
   <v type="logical" >  F  F  F </v>
   <v type="logical" >  F  F  F </v>
   <v type="logical" >  F  F  F </v>
   <v type="logical" >  F  F  F </v>
   <v type="logical" >  F  F  F </v>
   <v type="logical" >  F  F  F </v>
   <v type="logical" >  F  F  F </v>
   <v type="logical" >  F  F  F </v>
   <v type="logical" >  F  F  F </v>
   <v type="logical" >  F  F  F </v>
   <v type="logical" >  T  T  T </v>
   <v type="logical" >  T  T  T </v>
   <v type="logical" >  T  T  T </v>
   <v type="logical" >  T  T  T </v>
   <v type="logical" >  T  T  T </v>
   <v type="logical" >  T  T  T </v>
   <v type="logical" >  T  T  T </v>
   <v type="logical" >  T  T  T </v>
   <v type="logical" >  T  T  T </v>
   <v type="logical" >  T  T  T </v>
   <v type="logical" >  T  T  T </v>
   <v type="logical" >  T  T  T </v>
   <v type="logical" >  T  T  T </v>
   <v type="logical" >  T  T  T </v>
   <v type="logical" >  T  T  T </v>
   <v type="logical" >  T  T  T </v>
   <v type="logical" >  T  T  T </v>
   <v type="logical" >  T  T  T </v>
   <v type="logical" >  T  T  T </v>
   <v type="logical" >  T  T  T </v>
   <v type="logical" >  T  T  T </v>
   <v type="logical" >  T  T  T </v>
  </varray>
  <nose>
   <v>      -3.00000000       0.00000000       0.00010000       0.00010000 </v>
  </nose>
 </structure>
</modeling>
