unknown system                          
           1
     7.260000    0.000000    0.000000
     0.000000    5.133595    0.000000
     0.000000    0.000000   23.983791
   Cu   H 
    32     2
Direct configuration=     1
   0.00000000  0.00000000  0.00000000
   0.00000000  0.50000000  0.00000000
   0.50000000  0.00000000  0.00000000
   0.50000000  0.50000000  0.00000000
   0.25000000  0.25000000  0.05351109
   0.25000000  0.75000000  0.05351109
   0.75000000  0.25000000  0.05351109
   0.75000000  0.75000000  0.05351109
   0.00000000  0.00000000  0.10541371
   0.00000000  0.50000000  0.10541371
   0.50000000  0.00000000  0.10541371
   0.50000000  0.50000000  0.10541371
   0.25000000  0.25000000  0.15715010
   0.25000000  0.75000000  0.15715010
   0.75000000  0.25000000  0.15715010
   0.75000000  0.75000000  0.15715010
   0.00000000  0.00000000  0.20866257
   0.00000000  0.50000000  0.20866257
   0.50000000  0.00000000  0.20866257
   0.50000000  0.50000000  0.20866257
   0.25000000  0.25000000  0.25947965
   0.25000000  0.75000000  0.25947965
   0.75000000  0.25000000  0.25947965
   0.75000000  0.75000000  0.25947965
   0.00000000  0.00000000  0.31415415
   0.00000000  0.50000000  0.31415415
   0.50000000  0.00000000  0.31415415
   0.50000000  0.50000000  0.31415415
   0.25000000  0.25000000  0.36181799
   0.25000000  0.75000000  0.36181799
   0.75000000  0.25000000  0.36181799
   0.75000000  0.75000000  0.36181799
   0.75000000  0.50000000  0.42690792
   0.75000000  0.60275482  0.44890201
Direct configuration=     2
   0.00000000  0.00000000  0.00000000
   0.00000000  0.50000000  0.00000000
   0.50000000  0.00000000  0.00000000
   0.50000000  0.50000000  0.00000000
   0.25000000  0.25000000  0.05351109
   0.25000000  0.75000000  0.05351109
   0.75000000  0.25000000  0.05351109
   0.75000000  0.75000000  0.05351109
   0.00000000  0.00000000  0.10541371
   0.00000000  0.50000000  0.10541371
   0.50000000  0.00000000  0.10541371
   0.50000000  0.50000000  0.10541371
   0.25000000  0.25008076  0.15714037
   0.25000000  0.74990492  0.15714696
   0.75000000  0.25002700  0.15723879
   0.75000000  0.74997842  0.15722497
  -0.00001593  0.00005110  0.20863713
   0.00013172  0.49995710  0.20866745
   0.50001593  0.00005110  0.20863713
   0.49986828  0.49995710  0.20866745
   0.25000000  0.24989705  0.25943682
   0.25000000  0.75010740  0.25945107
   0.75000000  0.25058308  0.25956934
   0.75000000  0.74951053  0.25967656
   0.00009095  0.00004111  0.31423002
   0.00040891  0.49986931  0.31397658
   0.49990905  0.00004111  0.31423002
   0.49959109  0.49986931  0.31397658
   0.25000000  0.24995107  0.36183313
   0.25000000  0.75007012  0.36180726
   0.75000000  0.24738361  0.36132165
   0.75000000  0.75043362  0.36199362
   0.75000000  0.49336361  0.42553106
   0.75000000  0.61163617  0.45073376
Direct configuration=     3
   0.00000000  0.00000000  0.00000000
   0.00000000  0.50000000  0.00000000
   0.50000000  0.00000000  0.00000000
   0.50000000  0.50000000  0.00000000
   0.25000000  0.25000000  0.05351109
   0.25000000  0.75000000  0.05351109
   0.75000000  0.25000000  0.05351109
   0.75000000  0.75000000  0.05351109
   0.00000000  0.00000000  0.10541371
   0.00000000  0.50000000  0.10541371
   0.50000000  0.00000000  0.10541371
   0.50000000  0.50000000  0.10541371
   0.25000000  0.25003477  0.15714591
   0.25000000  0.74995907  0.15714875
   0.75000000  0.25001162  0.15718828
   0.75000000  0.74999071  0.15718233
  -0.00000686  0.00002200  0.20865162
   0.00005671  0.49998153  0.20866467
   0.50000686  0.00002200  0.20865162
   0.49994329  0.49998153  0.20866467
   0.25000000  0.24995568  0.25946121
   0.25000000  0.75004623  0.25946735
   0.75000000  0.25025101  0.25951826
   0.75000000  0.74978929  0.25956442
   0.00003915  0.00001770  0.31418681
   0.00017603  0.49994374  0.31407771
   0.49996085  0.00001770  0.31418681
   0.49982397  0.49994374  0.31407771
   0.25000000  0.24997894  0.36182451
   0.25000000  0.75003019  0.36181337
   0.75000000  0.24887368  0.36160432
   0.75000000  0.75018667  0.36189360
   0.75000000  0.49714311  0.42631520
   0.75000000  0.60657813  0.44969056
Direct configuration=     4
   0.00000000  0.00000000  0.00000000
   0.00000000  0.50000000  0.00000000
   0.50000000  0.00000000  0.00000000
   0.50000000  0.50000000  0.00000000
   0.25000000  0.25000000  0.05351109
   0.25000000  0.75000000  0.05351109
   0.75000000  0.25000000  0.05351109
   0.75000000  0.75000000  0.05351109
   0.00000000  0.00000000  0.10541371
   0.00000000  0.50000000  0.10541371
   0.50000000  0.00000000  0.10541371
   0.50000000  0.50000000  0.10541371
   0.25000000  0.25011390  0.15713696
   0.25000000  0.74987319  0.15714765
   0.75000000  0.25004951  0.15728055
   0.75000000  0.74997555  0.15726569
  -0.00003382  0.00007633  0.20863795
   0.00019025  0.49994565  0.20867093
   0.50003382  0.00007633  0.20863795
   0.49980975  0.49994565  0.20867093
   0.25000000  0.24983753  0.25942195
   0.25000000  0.75017802  0.25944215
   0.75000000  0.25079785  0.25958233
   0.75000000  0.74934843  0.25976535
   0.00019355  0.00001560  0.31424736
   0.00059581  0.49983060  0.31389969
   0.49980645  0.00001560  0.31424736
   0.49940419  0.49983060  0.31389969
   0.25000000  0.24993769  0.36183467
   0.25000000  0.75010393  0.36179720
   0.75000000  0.24661008  0.36118172
   0.75000000  0.75015976  0.36216514
   0.75000000  0.49819383  0.42647909
   0.75000000  0.60779738  0.44979867
Direct configuration=     5
   0.00000000  0.00000000  0.00000000
   0.00000000  0.50000000  0.00000000
   0.50000000  0.00000000  0.00000000
   0.50000000  0.50000000  0.00000000
   0.25000000  0.25000000  0.05351109
   0.25000000  0.75000000  0.05351109
   0.75000000  0.25000000  0.05351109
   0.75000000  0.75000000  0.05351109
   0.00000000  0.00000000  0.10541371
   0.00000000  0.50000000  0.10541371
   0.50000000  0.00000000  0.10541371
   0.50000000  0.50000000  0.10541371
   0.25000000  0.25021617  0.15712540
   0.25000000  0.74976222  0.15714624
   0.75000000  0.25009846  0.15739978
   0.75000000  0.74995597  0.15737340
  -0.00006867  0.00014653  0.20862028
   0.00036281  0.49989929  0.20867903
   0.50006867  0.00014653  0.20862028
   0.49963719  0.49989929  0.20867903
   0.25000000  0.24968486  0.25937122
   0.25000000  0.75034831  0.25940959
   0.75000000  0.25150449  0.25966512
   0.75000000  0.74877873  0.26002500
   0.00039306  0.00001290  0.31432561
   0.00113827  0.49968440  0.31366964
   0.49960694  0.00001290  0.31432561
   0.49886173  0.49968440  0.31366964
   0.25000000  0.24988440  0.36184781
   0.25000000  0.75019922  0.36177630
   0.75000000  0.24368497  0.36063562
   0.75000000  0.75012498  0.36251604
   0.75000000  0.49955162  0.42669089
   0.75000000  0.60937294  0.44993838
Direct configuration=     6
   0.00000000  0.00000000  0.00000000
   0.00000000  0.50000000  0.00000000
   0.50000000  0.00000000  0.00000000
   0.50000000  0.50000000  0.00000000
   0.25000000  0.25000000  0.05351109
   0.25000000  0.75000000  0.05351109
   0.75000000  0.25000000  0.05351109
   0.75000000  0.75000000  0.05351109
   0.00000000  0.00000000  0.10541371
   0.00000000  0.50000000  0.10541371
   0.50000000  0.00000000  0.10541371
   0.50000000  0.50000000  0.10541371
   0.25000000  0.25042070  0.15710227
   0.25000000  0.74954028  0.15714341
   0.75000000  0.25019637  0.15763826
   0.75000000  0.74991680  0.15758884
  -0.00013837  0.00028693  0.20858494
   0.00070795  0.49980656  0.20869521
   0.50013837  0.00028693  0.20858494
   0.49929205  0.49980656  0.20869521
   0.25000000  0.24937951  0.25926976
   0.25000000  0.75068889  0.25934446
   0.75000000  0.25291778  0.25983070
   0.75000000  0.74763934  0.26054431
   0.00079209  0.00000750  0.31448211
   0.00222319  0.49939199  0.31320956
   0.49920791  0.00000750  0.31448211
   0.49777681  0.49939199  0.31320956
   0.25000000  0.24977782  0.36187408
   0.25000000  0.75038980  0.36173450
   0.75000000  0.23783475  0.35954342
   0.75000000  0.75005543  0.36321784
   0.75000000  0.50226719  0.42711448
   0.75000000  0.61252406  0.45021780
Direct configuration=     7
   0.00000000  0.00000000  0.00000000
   0.00000000  0.50000000  0.00000000
   0.50000000  0.00000000  0.00000000
   0.50000000  0.50000000  0.00000000
   0.25000000  0.25000000  0.05351109
   0.25000000  0.75000000  0.05351109
   0.75000000  0.25000000  0.05351109
   0.75000000  0.75000000  0.05351109
   0.00000000  0.00000000  0.10541371
   0.00000000  0.50000000  0.10541371
   0.50000000  0.00000000  0.10541371
   0.50000000  0.50000000  0.10541371
   0.25000000  0.25030094  0.15711581
   0.25000000  0.74967024  0.15714507
   0.75000000  0.25013904  0.15749862
   0.75000000  0.74993974  0.15746269
  -0.00009756  0.00020472  0.20860563
   0.00050586  0.49986086  0.20868573
   0.50009756  0.00020472  0.20860563
   0.49949414  0.49986086  0.20868573
   0.25000000  0.24955831  0.25932917
   0.25000000  0.75048947  0.25938259
   0.75000000  0.25209024  0.25973374
   0.75000000  0.74830650  0.26024023
   0.00055844  0.00001066  0.31439048
   0.00158792  0.49956321  0.31347896
   0.49944156  0.00001066  0.31439048
   0.49841208  0.49956321  0.31347896
   0.25000000  0.24984023  0.36185869
   0.25000000  0.75027821  0.36175898
   0.75000000  0.24126030  0.36018295
   0.75000000  0.75009616  0.36280691
   0.75000000  0.50067711  0.42686645
   0.75000000  0.61067895  0.45005419
Direct configuration=     8
   0.00000000  0.00000000  0.00000000
   0.00000000  0.50000000  0.00000000
   0.50000000  0.00000000  0.00000000
   0.50000000  0.50000000  0.00000000
   0.25000000  0.25000000  0.05351109
   0.25000000  0.75000000  0.05351109
   0.75000000  0.25000000  0.05351109
   0.75000000  0.75000000  0.05351109
   0.00000000  0.00000000  0.10541371
   0.00000000  0.50000000  0.10541371
   0.50000000  0.00000000  0.10541371
   0.50000000  0.50000000  0.10541371
   0.25000000  0.25036082  0.15710904
   0.25000000  0.74960526  0.15714424
   0.75000000  0.25016771  0.15756844
   0.75000000  0.74992827  0.15752576
  -0.00011796  0.00024582  0.20859529
   0.00060690  0.49983371  0.20869047
   0.50011796  0.00024582  0.20859529
   0.49939310  0.49983371  0.20869047
   0.25000000  0.24946891  0.25929947
   0.25000000  0.75058918  0.25936353
   0.75000000  0.25250401  0.25978222
   0.75000000  0.74797292  0.26039227
   0.00067527  0.00000908  0.31443629
   0.00190555  0.49947760  0.31334426
   0.49932473  0.00000908  0.31443629
   0.49809445  0.49947760  0.31334426
   0.25000000  0.24980902  0.36186638
   0.25000000  0.75033400  0.36174674
   0.75000000  0.23954752  0.35986319
   0.75000000  0.75007580  0.36301238
   0.75000000  0.50147215  0.42699046
   0.75000000  0.61160151  0.45013600
Direct configuration=     9
   0.00000000  0.00000000  0.00000000
   0.00000000  0.50000000  0.00000000
   0.50000000  0.00000000  0.00000000
   0.50000000  0.50000000  0.00000000
   0.25000000  0.25000000  0.05351109
   0.25000000  0.75000000  0.05351109
   0.75000000  0.25000000  0.05351109
   0.75000000  0.75000000  0.05351109
   0.00000000  0.00000000  0.10541371
   0.00000000  0.50000000  0.10541371
   0.50000000  0.00000000  0.10541371
   0.50000000  0.50000000  0.10541371
   0.25000000  0.25032596  0.15711298
   0.25000000  0.74964309  0.15714472
   0.75000000  0.25015102  0.15752779
   0.75000000  0.74993494  0.15748904
  -0.00010608  0.00022189  0.20860131
   0.00054808  0.49984951  0.20868771
   0.50010608  0.00022189  0.20860131
   0.49945192  0.49984951  0.20868771
   0.25000000  0.24952096  0.25931676
   0.25000000  0.75053113  0.25937463
   0.75000000  0.25226311  0.25975400
   0.75000000  0.74816713  0.26030376
   0.00060725  0.00001000  0.31440962
   0.00172063  0.49952744  0.31342268
   0.49939275  0.00001000  0.31440962
   0.49827937  0.49952744  0.31342268
   0.25000000  0.24982719  0.36186191
   0.25000000  0.75030152  0.36175386
   0.75000000  0.24054470  0.36004935
   0.75000000  0.75008765  0.36289275
   0.75000000  0.50100927  0.42691826
   0.75000000  0.61106439  0.45008837
Direct configuration=    10
   0.00000000  0.00000000  0.00000000
   0.00000000  0.50000000  0.00000000
   0.50000000  0.00000000  0.00000000
   0.50000000  0.50000000  0.00000000
   0.25000000  0.25000000  0.05351109
   0.25000000  0.75000000  0.05351109
   0.75000000  0.25000000  0.05351109
   0.75000000  0.75000000  0.05351109
   0.00000000  0.00000000  0.10541371
   0.00000000  0.50000000  0.10541371
   0.50000000  0.00000000  0.10541371
   0.50000000  0.50000000  0.10541371
   0.25000000  0.25019354  0.15706033
   0.25000000  0.74976869  0.15710735
   0.75000000  0.25020111  0.15754903
   0.75000000  0.74995313  0.15762918
  -0.00036978  0.00011151  0.20866201
   0.00056756  0.50001665  0.20861355
   0.50036978  0.00011151  0.20866201
   0.49943244  0.50001665  0.20861355
   0.25000000  0.24912483  0.25925422
   0.25000000  0.75090160  0.25930014
   0.75000000  0.25215402  0.25946780
   0.75000000  0.74847385  0.26055165
   0.00110804 -0.00082199  0.31437415
   0.00171425  0.49956868  0.31337836
   0.49889196 -0.00082199  0.31437415
   0.49828575  0.49956868  0.31337836
   0.25000000  0.24993708  0.36190636
   0.25000000  0.75017456  0.36179070
   0.75000000  0.23961471  0.35989650
   0.75000000  0.74778511  0.36321981
   0.75000000  0.50383021  0.42735172
   0.75000000  0.61265963  0.44998225
Direct configuration=    11
   0.00000000  0.00000000  0.00000000
   0.00000000  0.50000000  0.00000000
   0.50000000  0.00000000  0.00000000
   0.50000000  0.50000000  0.00000000
   0.25000000  0.25000000  0.05351109
   0.25000000  0.75000000  0.05351109
   0.75000000  0.25000000  0.05351109
   0.75000000  0.75000000  0.05351109
   0.00000000  0.00000000  0.10541371
   0.00000000  0.50000000  0.10541371
   0.50000000  0.00000000  0.10541371
   0.50000000  0.50000000  0.10541371
   0.25000000  0.25018069  0.15705522
   0.25000000  0.74978087  0.15710372
   0.75000000  0.25020597  0.15755109
   0.75000000  0.74995490  0.15764278
  -0.00039537  0.00010080  0.20866790
   0.00056945  0.50003287  0.20860636
   0.50039537  0.00010080  0.20866790
   0.49943055  0.50003287  0.20860636
   0.25000000  0.24908639  0.25924815
   0.25000000  0.75093755  0.25929291
   0.75000000  0.25214344  0.25944003
   0.75000000  0.74850361  0.26057571
   0.00115663 -0.00090272  0.31437071
   0.00171363  0.49957268  0.31337406
   0.49884337 -0.00090272  0.31437071
   0.49828637  0.49957268  0.31337406
   0.25000000  0.24994774  0.36191067
   0.25000000  0.75016224  0.36179428
   0.75000000  0.23952446  0.35988167
   0.75000000  0.74756168  0.36325155
   0.75000000  0.50410395  0.42739378
   0.75000000  0.61281443  0.44997195
Direct configuration=    12
   0.00000000  0.00000000  0.00000000
   0.00000000  0.50000000  0.00000000
   0.50000000  0.00000000  0.00000000
   0.50000000  0.50000000  0.00000000
   0.25000000  0.25000000  0.05351109
   0.25000000  0.75000000  0.05351109
   0.75000000  0.25000000  0.05351109
   0.75000000  0.75000000  0.05351109
   0.00000000  0.00000000  0.10541371
   0.00000000  0.50000000  0.10541371
   0.50000000  0.00000000  0.10541371
   0.50000000  0.50000000  0.10541371
   0.25000000  0.25005634  0.15702870
   0.25000000  0.74989257  0.15707880
   0.75000000  0.25022300  0.15750674
   0.75000000  0.74996980  0.15770886
  -0.00053368  0.00000858  0.20870094
   0.00056285  0.50015108  0.20856220
   0.50053368  0.00000858  0.20870094
   0.49943715  0.50015108  0.20856220
   0.25000000  0.24891949  0.25921859
   0.25000000  0.75104013  0.25924667
   0.75000000  0.25192809  0.25925843
   0.75000000  0.74880074  0.26070699
   0.00137900 -0.00144949  0.31434010
   0.00160243  0.49949803  0.31339260
   0.49862100 -0.00144949  0.31434010
   0.49839757  0.49949803  0.31339260
   0.25000000  0.25003146  0.36192605
   0.25000000  0.74998842  0.36182537
   0.75000000  0.23927078  0.35984022
   0.75000000  0.74594349  0.36340223
   0.75000000  0.50494248  0.42747557
   0.75000000  0.61512020  0.45011345
Direct configuration=    13
   0.00000000  0.00000000  0.00000000
   0.00000000  0.50000000  0.00000000
   0.50000000  0.00000000  0.00000000
   0.50000000  0.50000000  0.00000000
   0.25000000  0.25000000  0.05351109
   0.25000000  0.75000000  0.05351109
   0.75000000  0.25000000  0.05351109
   0.75000000  0.75000000  0.05351109
   0.00000000  0.00000000  0.10541371
   0.00000000  0.50000000  0.10541371
   0.50000000  0.00000000  0.10541371
   0.50000000  0.50000000  0.10541371
   0.25000000  0.24985053  0.15698481
   0.25000000  0.75007744  0.15703756
   0.75000000  0.25025119  0.15743333
   0.75000000  0.74999448  0.15781822
  -0.00076259 -0.00014404  0.20875562
   0.00055194  0.50034672  0.20848913
   0.50076259 -0.00014404  0.20875562
   0.49944806  0.50034672  0.20848913
   0.25000000  0.24864327  0.25916967
   0.25000000  0.75120989  0.25917014
   0.75000000  0.25157168  0.25895789
   0.75000000  0.74929250  0.26092428
   0.00174704 -0.00235441  0.31428946
   0.00141838  0.49937448  0.31342329
   0.49825296 -0.00235441  0.31428946
   0.49858162  0.49937448  0.31342329
   0.25000000  0.25017001  0.36195152
   0.25000000  0.74970074  0.36187683
   0.75000000  0.23885093  0.35977163
   0.75000000  0.74326532  0.36365162
   0.75000000  0.50633027  0.42761094
   0.75000000  0.61893634  0.45034763
Direct configuration=    14
   0.00000000  0.00000000  0.00000000
   0.00000000  0.50000000  0.00000000
   0.50000000  0.00000000  0.00000000
   0.50000000  0.50000000  0.00000000
   0.25000000  0.25000000  0.05351109
   0.25000000  0.75000000  0.05351109
   0.75000000  0.25000000  0.05351109
   0.75000000  0.75000000  0.05351109
   0.00000000  0.00000000  0.10541371
   0.00000000  0.50000000  0.10541371
   0.50000000  0.00000000  0.10541371
   0.50000000  0.50000000  0.10541371
   0.25000000  0.24976405  0.15696636
   0.25000000  0.75015512  0.15702023
   0.75000000  0.25026303  0.15740249
   0.75000000  0.75000484  0.15786418
  -0.00085877 -0.00020817  0.20877859
   0.00054736  0.50042892  0.20845842
   0.50085877 -0.00020817  0.20877859
   0.49945264  0.50042892  0.20845842
   0.25000000  0.24852720  0.25914912
   0.25000000  0.75128122  0.25913798
   0.75000000  0.25142192  0.25883161
   0.75000000  0.74949913  0.26101558
   0.00190169 -0.00273465  0.31426817
   0.00134105  0.49932256  0.31343619
   0.49809831 -0.00273465  0.31426817
   0.49865895  0.49932256  0.31343619
   0.25000000  0.25022823  0.36196222
   0.25000000  0.74957986  0.36189845
   0.75000000  0.23867452  0.35974280
   0.75000000  0.74213999  0.36375641
   0.75000000  0.50691341  0.42766782
   0.75000000  0.62053982  0.45044603
Direct configuration=    15
   0.00000000  0.00000000  0.00000000
   0.00000000  0.50000000  0.00000000
   0.50000000  0.00000000  0.00000000
   0.50000000  0.50000000  0.00000000
   0.25000000  0.25000000  0.05351109
   0.25000000  0.75000000  0.05351109
   0.75000000  0.25000000  0.05351109
   0.75000000  0.75000000  0.05351109
   0.00000000  0.00000000  0.10541371
   0.00000000  0.50000000  0.10541371
   0.50000000  0.00000000  0.10541371
   0.50000000  0.50000000  0.10541371
   0.25000000  0.24964018  0.15695525
   0.25000000  0.75025822  0.15699685
   0.75000000  0.25027559  0.15730754
   0.75000000  0.75001985  0.15791341
  -0.00092425 -0.00028747  0.20878928
   0.00054733  0.50051934  0.20843659
   0.50092425 -0.00028747  0.20878928
   0.49945267  0.50051934  0.20843659
   0.25000000  0.24850444  0.25913187
   0.25000000  0.75115744  0.25910188
   0.75000000  0.25123017  0.25872599
   0.75000000  0.74970430  0.26114619
   0.00195609 -0.00320332  0.31425533
   0.00123575  0.49900505  0.31345650
   0.49804391 -0.00320332  0.31425533
   0.49876425  0.49900505  0.31345650
   0.25000000  0.25027417  0.36195833
   0.25000000  0.74929533  0.36193382
   0.75000000  0.23822661  0.35969342
   0.75000000  0.74053469  0.36391163
   0.75000000  0.50866601  0.42790191
   0.75000000  0.62285780  0.45043681
Direct configuration=    16
   0.00000000  0.00000000  0.00000000
   0.00000000  0.50000000  0.00000000
   0.50000000  0.00000000  0.00000000
   0.50000000  0.50000000  0.00000000
   0.25000000  0.25000000  0.05351109
   0.25000000  0.75000000  0.05351109
   0.75000000  0.25000000  0.05351109
   0.75000000  0.75000000  0.05351109
   0.00000000  0.00000000  0.10541371
   0.00000000  0.50000000  0.10541371
   0.50000000  0.00000000  0.10541371
   0.50000000  0.50000000  0.10541371
   0.25000000  0.24926857  0.15692192
   0.25000000  0.75056754  0.15692672
   0.75000000  0.25031325  0.15702270
   0.75000000  0.75006486  0.15806113
  -0.00112068 -0.00052535  0.20882136
   0.00054724  0.50079059  0.20837108
   0.50112068 -0.00052535  0.20882136
   0.49945276  0.50079059  0.20837108
   0.25000000  0.24843614  0.25908011
   0.25000000  0.75078608  0.25899357
   0.75000000  0.25065492  0.25840914
   0.75000000  0.75031980  0.26153805
   0.00211929 -0.00460935  0.31421680
   0.00091984  0.49805250  0.31351744
   0.49788071 -0.00460935  0.31421680
   0.49908016  0.49805250  0.31351744
   0.25000000  0.25041199  0.36194668
   0.25000000  0.74844176  0.36203994
   0.75000000  0.23688288  0.35954528
   0.75000000  0.73571880  0.36437730
   0.75000000  0.51392382  0.42860418
   0.75000000  0.62981174  0.45040913
Direct configuration=    17
   0.00000000  0.00000000  0.00000000
   0.00000000  0.50000000  0.00000000
   0.50000000  0.00000000  0.00000000
   0.50000000  0.50000000  0.00000000
   0.25000000  0.25000000  0.05351109
   0.25000000  0.75000000  0.05351109
   0.75000000  0.25000000  0.05351109
   0.75000000  0.75000000  0.05351109
   0.00000000  0.00000000  0.10541371
   0.00000000  0.50000000  0.10541371
   0.50000000  0.00000000  0.10541371
   0.50000000  0.50000000  0.10541371
   0.25000000  0.24852536  0.15685527
   0.25000000  0.75118617  0.15678647
   0.75000000  0.25038857  0.15645302
   0.75000000  0.75015488  0.15835656
  -0.00151355 -0.00100111  0.20888551
   0.00054708  0.50133310  0.20824007
   0.50151355 -0.00100111  0.20888551
   0.49945292  0.50133310  0.20824007
   0.25000000  0.24829955  0.25897661
   0.25000000  0.75004336  0.25877696
   0.75000000  0.24950442  0.25777543
   0.75000000  0.75155081  0.26232177
   0.00244569 -0.00742139  0.31413973
   0.00028803  0.49614740  0.31363933
   0.49755431 -0.00742139  0.31413973
   0.49971197  0.49614740  0.31363933
   0.25000000  0.25068764  0.36192337
   0.25000000  0.74673461  0.36225219
   0.75000000  0.23419542  0.35924900
   0.75000000  0.72608700  0.36530863
   0.75000000  0.52443944  0.43000871
   0.75000000  0.64371961  0.45035377
Direct configuration=    18
   0.00000000  0.00000000  0.00000000
   0.00000000  0.50000000  0.00000000
   0.50000000  0.00000000  0.00000000
   0.50000000  0.50000000  0.00000000
   0.25000000  0.25000000  0.05351109
   0.25000000  0.75000000  0.05351109
   0.75000000  0.25000000  0.05351109
   0.75000000  0.75000000  0.05351109
   0.00000000  0.00000000  0.10541371
   0.00000000  0.50000000  0.10541371
   0.50000000  0.00000000  0.10541371
   0.50000000  0.50000000  0.10541371
   0.25000000  0.24898666  0.15689664
   0.25000000  0.75080220  0.15687352
   0.75000000  0.25034182  0.15680661
   0.75000000  0.75009900  0.15817319
  -0.00126970 -0.00070581  0.20884569
   0.00054718  0.50099637  0.20832139
   0.50126970 -0.00070581  0.20884569
   0.49945282  0.50099637  0.20832139
   0.25000000  0.24838433  0.25904085
   0.25000000  0.75050435  0.25891141
   0.75000000  0.25021852  0.25816876
   0.75000000  0.75078674  0.26183533
   0.00224310 -0.00567600  0.31418756
   0.00068019  0.49732986  0.31356368
   0.49775690 -0.00567600  0.31418756
   0.49931981  0.49732986  0.31356368
   0.25000000  0.25051655  0.36193784
   0.25000000  0.74779421  0.36212045
   0.75000000  0.23586349  0.35943290
   0.75000000  0.73206532  0.36473057
   0.75000000  0.51791255  0.42913694
   0.75000000  0.63508720  0.45038813
Direct configuration=    19
   0.00000000  0.00000000  0.00000000
   0.00000000  0.50000000  0.00000000
   0.50000000  0.00000000  0.00000000
   0.50000000  0.50000000  0.00000000
   0.25000000  0.25000000  0.05351109
   0.25000000  0.75000000  0.05351109
   0.75000000  0.25000000  0.05351109
   0.75000000  0.75000000  0.05351109
   0.00000000  0.00000000  0.10541371
   0.00000000  0.50000000  0.10541371
   0.50000000  0.00000000  0.10541371
   0.50000000  0.50000000  0.10541371
   0.25000000  0.24901720  0.15692623
   0.25000000  0.75076951  0.15684701
   0.75000000  0.25040382  0.15666320
   0.75000000  0.75011552  0.15819832
  -0.00110842 -0.00065418  0.20878241
   0.00048324  0.50090656  0.20836479
   0.50110842 -0.00065418  0.20878241
   0.49951676  0.50090656  0.20836479
   0.25000000  0.24852824  0.25905140
   0.25000000  0.74982732  0.25894459
   0.75000000  0.25026689  0.25826297
   0.75000000  0.75042610  0.26197042
   0.00194621 -0.00612962  0.31426037
   0.00075380  0.49618634  0.31354294
   0.49805379 -0.00612962  0.31426037
   0.49924620  0.49618634  0.31354294
   0.25000000  0.25011451  0.36187848
   0.25000000  0.74718939  0.36213273
   0.75000000  0.23379753  0.35931687
   0.75000000  0.73079976  0.36498862
   0.75000000  0.52085118  0.42956179
   0.75000000  0.64059182  0.45029959
Direct configuration=    20
   0.00000000  0.00000000  0.00000000
   0.00000000  0.50000000  0.00000000
   0.50000000  0.00000000  0.00000000
   0.50000000  0.50000000  0.00000000
   0.25000000  0.25000000  0.05351109
   0.25000000  0.75000000  0.05351109
   0.75000000  0.25000000  0.05351109
   0.75000000  0.75000000  0.05351109
   0.00000000  0.00000000  0.10541371
   0.00000000  0.50000000  0.10541371
   0.50000000  0.00000000  0.10541371
   0.50000000  0.50000000  0.10541371
   0.25000000  0.24908450  0.15699145
   0.25000000  0.75069746  0.15678857
   0.75000000  0.25054047  0.15634713
   0.75000000  0.75015193  0.15825371
  -0.00075296 -0.00054038  0.20864293
   0.00034232  0.50070862  0.20846045
   0.50075296 -0.00054038  0.20864293
   0.49965768  0.50070862  0.20846045
   0.25000000  0.24884542  0.25907466
   0.25000000  0.74833515  0.25901773
   0.75000000  0.25037349  0.25847062
   0.75000000  0.74963126  0.26226815
   0.00129185 -0.00712941  0.31442082
   0.00091606  0.49366602  0.31349724
   0.49870815 -0.00712941  0.31442082
   0.49908394  0.49366602  0.31349724
   0.25000000  0.24922842  0.36174767
   0.25000000  0.74585638  0.36215978
   0.75000000  0.22924420  0.35906115
   0.75000000  0.72801049  0.36555735
   0.75000000  0.52732790  0.43049816
   0.75000000  0.65272393  0.45010443
Direct configuration=    21
   0.00000000  0.00000000  0.00000000
   0.00000000  0.50000000  0.00000000
   0.50000000  0.00000000  0.00000000
   0.50000000  0.50000000  0.00000000
   0.25000000  0.25000000  0.05351109
   0.25000000  0.75000000  0.05351109
   0.75000000  0.25000000  0.05351109
   0.75000000  0.75000000  0.05351109
   0.00000000  0.00000000  0.10541371
   0.00000000  0.50000000  0.10541371
   0.50000000  0.00000000  0.10541371
   0.50000000  0.50000000  0.10541371
   0.25000000  0.24921910  0.15712189
   0.25000000  0.75055336  0.15667169
   0.75000000  0.25081378  0.15571497
   0.75000000  0.75022474  0.15836448
  -0.00004203 -0.00031277  0.20836398
   0.00006049  0.50031274  0.20865176
   0.50004203 -0.00031277  0.20836398
   0.49993951  0.50031274  0.20865176
   0.25000000  0.24947977  0.25912117
   0.25000000  0.74535080  0.25916399
   0.75000000  0.25058669  0.25888590
   0.75000000  0.74804159  0.26286360
  -0.00001685 -0.00912899  0.31474174
   0.00124057  0.48862538  0.31340585
   0.50001685 -0.00912899  0.31474174
   0.49875943  0.48862538  0.31340585
   0.25000000  0.24745625  0.36148604
   0.25000000  0.74319036  0.36221390
   0.75000000  0.22013754  0.35854970
   0.75000000  0.72243196  0.36669482
   0.75000000  0.54028132  0.43237090
   0.75000000  0.67698816  0.44971412
Direct configuration=    22
   0.00000000  0.00000000  0.00000000
   0.00000000  0.50000000  0.00000000
   0.50000000  0.00000000  0.00000000
   0.50000000  0.50000000  0.00000000
   0.25000000  0.25000000  0.05351109
   0.25000000  0.75000000  0.05351109
   0.75000000  0.25000000  0.05351109
   0.75000000  0.75000000  0.05351109
   0.00000000  0.00000000  0.10541371
   0.00000000  0.50000000  0.10541371
   0.50000000  0.00000000  0.10541371
   0.50000000  0.50000000  0.10541371
   0.25000000  0.24912852  0.15703412
   0.25000000  0.75065033  0.15675034
   0.75000000  0.25062986  0.15614037
   0.75000000  0.75017574  0.15828994
  -0.00052043 -0.00046593  0.20855169
   0.00025014  0.50057914  0.20852302
   0.50052043 -0.00046593  0.20855169
   0.49974986  0.50057914  0.20852302
   0.25000000  0.24905290  0.25908987
   0.25000000  0.74735905  0.25906557
   0.75000000  0.25044322  0.25860644
   0.75000000  0.74911132  0.26246290
   0.00086381 -0.00778342  0.31452579
   0.00102220  0.49201736  0.31346735
   0.49913619 -0.00778342  0.31452579
   0.49897780  0.49201736  0.31346735
   0.25000000  0.24864879  0.36166210
   0.25000000  0.74498439  0.36217748
   0.75000000  0.22626565  0.35889386
   0.75000000  0.72618590  0.36592939
   0.75000000  0.53156462  0.43111069
   0.75000000  0.66066012  0.44997677
Direct configuration=    23
   0.00000000  0.00000000  0.00000000
   0.00000000  0.50000000  0.00000000
   0.50000000  0.00000000  0.00000000
   0.50000000  0.50000000  0.00000000
   0.25000000  0.25000000  0.05351109
   0.25000000  0.75000000  0.05351109
   0.75000000  0.25000000  0.05351109
   0.75000000  0.75000000  0.05351109
   0.00000000  0.00000000  0.10541371
   0.00000000  0.50000000  0.10541371
   0.50000000  0.00000000  0.10541371
   0.50000000  0.50000000  0.10541371
   0.25000000  0.24938167  0.15706352
   0.25000000  0.75041755  0.15677195
   0.75000000  0.25067872  0.15620740
   0.75000000  0.75021733  0.15830995
  -0.00038227 -0.00039424  0.20853962
   0.00006868  0.50038413  0.20856630
   0.50038227 -0.00039424  0.20853962