  34  34   0   0
  0.1991679E+02  0.5133596E-09  0.5133596E-09  0.2967047E-08  0.5000000E-15
  1.000000000000000E-004
  CAR 
 unknown system                          
     14.82175415     -9.13384242  301      2.16501399      1.00000000
     -9.134  0.0000E+00  0.0000E+00  0.0000E+00  0.0000E+00
     -9.054  0.0000E+00  0.0000E+00  0.0000E+00  0.0000E+00
     -8.974  0.0000E+00  0.0000E+00  0.0000E+00  0.0000E+00
     -8.894  0.0000E+00  0.0000E+00  0.0000E+00  0.0000E+00
     -8.814  0.0000E+00  0.0000E+00  0.0000E+00  0.0000E+00
     -8.735 -0.5936E-30 -0.5936E-30 -0.4740E-31 -0.4740E-31
     -8.655 -0.2863E-27 -0.2863E-27 -0.2291E-28 -0.2291E-28
     -8.575 -0.1002E-24 -0.1002E-24 -0.8026E-26 -0.8026E-26
     -8.495 -0.2542E-22 -0.2542E-22 -0.2038E-23 -0.2038E-23
     -8.415 -0.4670E-20 -0.4670E-20 -0.3749E-21 -0.3749E-21
     -8.335 -0.6209E-18 -0.6209E-18 -0.4995E-19 -0.4995E-19
     -8.255 -0.5777E-16 -0.5777E-16 -0.4663E-17 -0.4663E-17
     -8.176 -0.3997E-14 -0.3997E-14 -0.3238E-15 -0.3238E-15
     -8.096 -0.1991E-12 -0.1991E-12 -0.1622E-13 -0.1622E-13
     -8.016 -0.7130E-11 -0.7130E-11 -0.5856E-12 -0.5856E-12
     -7.936 -0.1831E-09 -0.1831E-09 -0.1520E-10 -0.1520E-10
     -7.856 -0.3354E-08 -0.3354E-08 -0.2830E-09 -0.2830E-09
     -7.776 -0.4357E-07 -0.4357E-07 -0.3762E-08 -0.3762E-08
     -7.697 -0.3969E-06 -0.3969E-06 -0.3545E-07 -0.3545E-07
     -7.617 -0.2487E-05 -0.2487E-05 -0.2341E-06 -0.2341E-06
     -7.537 -0.1032E-04 -0.1032E-04 -0.1058E-05 -0.1058E-05
     -7.457 -0.2562E-04 -0.2562E-04 -0.3104E-05 -0.3104E-05
     -7.377 -0.2282E-04 -0.2282E-04 -0.4927E-05 -0.4927E-05
     -7.297  0.7123E-04  0.7123E-04  0.7614E-06  0.7614E-06
     -7.217  0.2979E-03  0.2979E-03  0.2455E-04  0.2455E-04
     -7.138  0.5222E-03  0.5222E-03  0.6625E-04  0.6625E-04
     -7.058  0.5199E-03  0.5199E-03  0.1078E-03  0.1078E-03
     -6.978  0.3016E-03  0.3016E-03  0.1318E-03  0.1318E-03
     -6.898  0.1549E-03  0.1549E-03  0.1442E-03  0.1442E-03
     -6.818  0.2715E-03  0.2715E-03  0.1659E-03  0.1659E-03
     -6.738  0.4838E-03  0.4838E-03  0.2045E-03  0.2045E-03
     -6.658  0.4663E-03  0.4663E-03  0.2418E-03  0.2418E-03
     -6.579  0.1637E-03  0.1637E-03  0.2548E-03  0.2548E-03
     -6.499 -0.3153E-04 -0.3153E-04  0.2523E-03  0.2523E-03
     -6.419  0.4914E-03  0.4914E-03  0.2916E-03  0.2916E-03
     -6.339  0.1900E-02  0.1900E-02  0.4432E-03  0.4432E-03
     -6.259  0.3259E-02  0.3259E-02  0.7035E-03  0.7035E-03
     -6.179  0.3310E-02  0.3310E-02  0.9678E-03  0.9678E-03
     -6.099  0.2259E-02  0.2259E-02  0.1148E-02  0.1148E-02
     -6.020  0.1702E-02  0.1702E-02  0.1284E-02  0.1284E-02
     -5.940  0.2432E-02  0.2432E-02  0.1478E-02  0.1478E-02
     -5.860  0.3317E-02  0.3317E-02  0.1743E-02  0.1743E-02
     -5.780  0.2909E-02  0.2909E-02  0.1975E-02  0.1975E-02
     -5.700  0.1415E-02  0.1415E-02  0.2088E-02  0.2088E-02
     -5.620  0.1066E-03  0.1066E-03  0.2097E-02  0.2097E-02
     -5.541 -0.3756E-03 -0.3756E-03  0.2067E-02  0.2067E-02
     -5.461  0.2174E-04  0.2174E-04  0.2069E-02  0.2069E-02
     -5.381  0.1403E-02  0.1403E-02  0.2181E-02  0.2181E-02
     -5.301  0.3239E-02  0.3239E-02  0.2439E-02  0.2439E-02
     -5.221  0.4005E-02  0.4005E-02  0.2759E-02  0.2759E-02
     -5.141  0.2907E-02  0.2907E-02  0.2991E-02  0.2991E-02
     -5.061  0.1048E-02  0.1048E-02  0.3075E-02  0.3075E-02
     -4.982 -0.1529E-03 -0.1529E-03  0.3063E-02  0.3063E-02
     -4.902 -0.3455E-03 -0.3455E-03  0.3035E-02  0.3035E-02
     -4.822  0.3613E-03  0.3613E-03  0.3064E-02  0.3064E-02
     -4.742  0.1802E-02  0.1802E-02  0.3208E-02  0.3208E-02
     -4.662  0.3308E-02  0.3308E-02  0.3472E-02  0.3472E-02
     -4.582  0.4283E-02  0.4283E-02  0.3814E-02  0.3814E-02
     -4.502  0.5077E-02  0.5077E-02  0.4220E-02  0.4220E-02
     -4.423  0.5920E-02  0.5920E-02  0.4692E-02  0.4692E-02
     -4.343  0.5886E-02  0.5886E-02  0.5162E-02  0.5162E-02
     -4.263  0.4370E-02  0.4370E-02  0.5511E-02  0.5511E-02
     -4.183  0.2605E-02  0.2605E-02  0.5719E-02  0.5719E-02
     -4.103  0.2223E-02  0.2223E-02  0.5897E-02  0.5897E-02
     -4.023  0.3170E-02  0.3170E-02  0.6150E-02  0.6150E-02
     -3.943  0.4540E-02  0.4540E-02  0.6512E-02  0.6512E-02
     -3.864  0.6110E-02  0.6110E-02  0.7000E-02  0.7000E-02
     -3.784  0.7498E-02  0.7498E-02  0.7599E-02  0.7599E-02
     -3.704  0.7796E-02  0.7796E-02  0.8221E-02  0.8221E-02
     -3.624  0.7168E-02  0.7168E-02  0.8794E-02  0.8794E-02
     -3.544  0.7012E-02  0.7012E-02  0.9354E-02  0.9354E-02
     -3.464  0.7825E-02  0.7825E-02  0.9979E-02  0.9979E-02
     -3.384  0.8240E-02  0.8240E-02  0.1064E-01  0.1064E-01
     -3.305  0.7114E-02  0.7114E-02  0.1120E-01  0.1120E-01
     -3.225  0.5148E-02  0.5148E-02  0.1162E-01  0.1162E-01
     -3.145  0.3735E-02  0.3735E-02  0.1191E-01  0.1191E-01
     -3.065  0.3827E-02  0.3827E-02  0.1222E-01  0.1222E-01
     -2.985  0.5513E-02  0.5513E-02  0.1266E-01  0.1266E-01
     -2.905  0.7760E-02  0.7760E-02  0.1328E-01  0.1328E-01
     -2.826  0.1004E-01  0.1004E-01  0.1408E-01  0.1408E-01
     -2.746  0.1358E-01  0.1358E-01  0.1517E-01  0.1517E-01
     -2.666  0.1922E-01  0.1922E-01  0.1670E-01  0.1670E-01
     -2.586  0.2578E-01  0.2578E-01  0.1876E-01  0.1876E-01
     -2.506  0.3104E-01  0.3104E-01  0.2124E-01  0.2124E-01
     -2.426  0.3271E-01  0.3271E-01  0.2385E-01  0.2385E-01
     -2.346  0.2974E-01  0.2974E-01  0.2622E-01  0.2622E-01
     -2.267  0.2465E-01  0.2465E-01  0.2819E-01  0.2819E-01
     -2.187  0.2237E-01  0.2237E-01  0.2998E-01  0.2998E-01
     -2.107  0.2556E-01  0.2556E-01  0.3202E-01  0.3202E-01
     -2.027  0.3289E-01  0.3289E-01  0.3465E-01  0.3465E-01
     -1.947  0.4106E-01  0.4106E-01  0.3792E-01  0.3792E-01
     -1.867  0.4660E-01  0.4660E-01  0.4165E-01  0.4165E-01
     -1.787  0.4780E-01  0.4780E-01  0.4546E-01  0.4546E-01
     -1.708  0.4532E-01  0.4532E-01  0.4908E-01  0.4908E-01
     -1.628  0.4076E-01  0.4076E-01  0.5234E-01  0.5234E-01
     -1.548  0.3662E-01  0.3662E-01  0.5526E-01  0.5526E-01
     -1.468  0.3522E-01  0.3522E-01  0.5807E-01  0.5807E-01
     -1.388  0.3701E-01  0.3701E-01  0.6103E-01  0.6103E-01
     -1.308  0.4224E-01  0.4224E-01  0.6440E-01  0.6440E-01
     -1.228  0.5066E-01  0.5066E-01  0.6845E-01  0.6845E-01
     -1.149  0.5848E-01  0.5848E-01  0.7312E-01  0.7312E-01
     -1.069  0.6135E-01  0.6135E-01  0.7802E-01  0.7802E-01
     -0.989  0.6183E-01  0.6183E-01  0.8295E-01  0.8295E-01
     -0.909  0.6652E-01  0.6652E-01  0.8826E-01  0.8826E-01
     -0.829  0.7478E-01  0.7478E-01  0.9424E-01  0.9424E-01
     -0.749  0.7946E-01  0.7946E-01  0.1006E+00  0.1006E+00
     -0.670  0.7804E-01  0.7804E-01  0.1068E+00  0.1068E+00
     -0.590  0.7424E-01  0.7424E-01  0.1127E+00  0.1127E+00
     -0.510  0.7120E-01  0.7120E-01  0.1184E+00  0.1184E+00
     -0.430  0.6929E-01  0.6929E-01  0.1240E+00  0.1240E+00
     -0.350  0.6842E-01  0.6842E-01  0.1294E+00  0.1294E+00
     -0.270  0.6786E-01  0.6786E-01  0.1348E+00  0.1348E+00
     -0.190  0.6578E-01  0.6578E-01  0.1401E+00  0.1401E+00
     -0.111  0.6281E-01  0.6281E-01  0.1451E+00  0.1451E+00
     -0.031  0.6133E-01  0.6133E-01  0.1500E+00  0.1500E+00
      0.049  0.6183E-01  0.6183E-01  0.1549E+00  0.1549E+00
      0.129  0.6609E-01  0.6609E-01  0.1602E+00  0.1602E+00
      0.209  0.7634E-01  0.7634E-01  0.1663E+00  0.1663E+00
      0.289  0.8768E-01  0.8768E-01  0.1733E+00  0.1733E+00
      0.369  0.9261E-01  0.9261E-01  0.1807E+00  0.1807E+00
      0.448  0.9234E-01  0.9234E-01  0.1881E+00  0.1881E+00
      0.528  0.9223E-01  0.9223E-01  0.1955E+00  0.1955E+00
      0.608  0.8892E-01  0.8892E-01  0.2026E+00  0.2026E+00
      0.688  0.7317E-01  0.7317E-01  0.2084E+00  0.2084E+00
      0.768  0.4509E-01  0.4509E-01  0.2120E+00  0.2120E+00
      0.848  0.1737E-01  0.1737E-01  0.2134E+00  0.2134E+00
      0.928  0.1627E-02  0.1627E-02  0.2135E+00  0.2135E+00
      1.007 -0.1692E-02 -0.1692E-02  0.2134E+00  0.2134E+00
      1.087  0.6294E-03  0.6294E-03  0.2134E+00  0.2134E+00
      1.167  0.2945E-02  0.2945E-02  0.2137E+00  0.2137E+00
      1.247  0.3964E-02  0.3964E-02  0.2140E+00  0.2140E+00
      1.327  0.4807E-02  0.4807E-02  0.2144E+00  0.2144E+00
      1.407  0.5941E-02  0.5941E-02  0.2148E+00  0.2148E+00
      1.486  0.6332E-02  0.6332E-02  0.2153E+00  0.2153E+00
      1.566  0.4969E-02  0.4969E-02  0.2157E+00  0.2157E+00
      1.646  0.2841E-02  0.2841E-02  0.2160E+00  0.2160E+00
      1.726  0.2676E-02  0.2676E-02  0.2162E+00  0.2162E+00
      1.806  0.6015E-02  0.6015E-02  0.2167E+00  0.2167E+00
      1.886  0.1110E-01  0.1110E-01  0.2175E+00  0.2175E+00
      1.966  0.1438E-01  0.1438E-01  0.2187E+00  0.2187E+00
      2.045  0.1412E-01  0.1412E-01  0.2198E+00  0.2198E+00
      2.125  0.1223E-01  0.1223E-01  0.2208E+00  0.2208E+00
      2.205  0.1127E-01  0.1127E-01  0.2217E+00  0.2217E+00
      2.285  0.1030E-01  0.1030E-01  0.2225E+00  0.2225E+00
      2.365  0.7189E-02  0.7189E-02  0.2231E+00  0.2231E+00
      2.445  0.3421E-02  0.3421E-02  0.2234E+00  0.2234E+00
      2.525  0.2384E-02  0.2384E-02  0.2236E+00  0.2236E+00
      2.604  0.4514E-02  0.4514E-02  0.2239E+00  0.2239E+00
      2.684  0.7399E-02  0.7399E-02  0.2245E+00  0.2245E+00
      2.764  0.8726E-02  0.8726E-02  0.2252E+00  0.2252E+00
      2.844  0.7732E-02  0.7732E-02  0.2258E+00  0.2258E+00
      2.924  0.5709E-02  0.5709E-02  0.2263E+00  0.2263E+00
      3.004  0.4719E-02  0.4719E-02  0.2267E+00  0.2267E+00
      3.084  0.4686E-02  0.4686E-02  0.2270E+00  0.2270E+00
      3.163  0.4008E-02  0.4008E-02  0.2274E+00  0.2274E+00
      3.243  0.2865E-02  0.2865E-02  0.2276E+00  0.2276E+00
      3.323  0.2953E-02  0.2953E-02  0.2278E+00  0.2278E+00
      3.403  0.4977E-02  0.4977E-02  0.2282E+00  0.2282E+00
      3.483  0.8239E-02  0.8239E-02  0.2289E+00  0.2289E+00
      3.563  0.1138E-01  0.1138E-01  0.2298E+00  0.2298E+00
      3.642  0.1272E-01  0.1272E-01  0.2308E+00  0.2308E+00
      3.722  0.1118E-01  0.1118E-01  0.2317E+00  0.2317E+00
      3.802  0.7675E-02  0.7675E-02  0.2323E+00  0.2323E+00
      3.882  0.4670E-02  0.4670E-02  0.2327E+00  0.2327E+00
      3.962  0.3454E-02  0.3454E-02  0.2329E+00  0.2329E+00
      4.042  0.2898E-02  0.2898E-02  0.2332E+00  0.2332E+00
      4.122  0.1758E-02  0.1758E-02  0.2333E+00  0.2333E+00
      4.201  0.4139E-03  0.4139E-03  0.2334E+00  0.2334E+00
      4.281 -0.3929E-03 -0.3929E-03  0.2333E+00  0.2333E+00
      4.361 -0.5138E-03 -0.5138E-03  0.2333E+00  0.2333E+00
      4.441  0.4123E-03  0.4123E-03  0.2333E+00  0.2333E+00
      4.521  0.2888E-02  0.2888E-02  0.2335E+00  0.2335E+00
      4.601  0.5871E-02  0.5871E-02  0.2340E+00  0.2340E+00
      4.681  0.7073E-02  0.7073E-02  0.2346E+00  0.2346E+00
      4.760  0.6052E-02  0.6052E-02  0.2351E+00  0.2351E+00
      4.840  0.4506E-02  0.4506E-02  0.2354E+00  0.2354E+00
      4.920  0.3206E-02  0.3206E-02  0.2357E+00  0.2357E+00
      5.000  0.1723E-02  0.1723E-02  0.2358E+00  0.2358E+00
      5.080  0.2754E-03  0.2754E-03  0.2358E+00  0.2358E+00
      5.160 -0.4233E-03 -0.4233E-03  0.2358E+00  0.2358E+00
      5.240  0.9920E-04  0.9920E-04  0.2358E+00  0.2358E+00
      5.319  0.2081E-02  0.2081E-02  0.2360E+00  0.2360E+00
      5.399  0.4968E-02  0.4968E-02  0.2364E+00  0.2364E+00
      5.479  0.7233E-02  0.7233E-02  0.2370E+00  0.2370E+00
      5.559  0.8107E-02  0.8107E-02  0.2376E+00  0.2376E+00
      5.639  0.8567E-02  0.8567E-02  0.2383E+00  0.2383E+00
      5.719  0.9213E-02  0.9213E-02  0.2390E+00  0.2390E+00
      5.798  0.8998E-02  0.8998E-02  0.2397E+00  0.2397E+00
      5.878  0.7440E-02  0.7440E-02  0.2403E+00  0.2403E+00
      5.958  0.5488E-02  0.5488E-02  0.2408E+00  0.2408E+00
      6.038  0.3776E-02  0.3776E-02  0.2411E+00  0.2411E+00
      6.118  0.2457E-02  0.2457E-02  0.2413E+00  0.2413E+00
      6.198  0.2376E-02  0.2376E-02  0.2415E+00  0.2415E+00
      6.278  0.4581E-02  0.4581E-02  0.2418E+00  0.2418E+00
      6.357  0.8089E-02  0.8089E-02  0.2425E+00  0.2425E+00
      6.437  0.9792E-02  0.9792E-02  0.2433E+00  0.2433E+00
      6.517  0.8369E-02  0.8369E-02  0.2439E+00  0.2439E+00
      6.597  0.5969E-02  0.5969E-02  0.2444E+00  0.2444E+00
      6.677  0.4603E-02  0.4603E-02  0.2448E+00  0.2448E+00
      6.757  0.4304E-02  0.4304E-02  0.2451E+00  0.2451E+00
      6.837  0.4970E-02  0.4970E-02  0.2455E+00  0.2455E+00
      6.916  0.6273E-02  0.6273E-02  0.2460E+00  0.2460E+00
      6.996  0.7031E-02  0.7031E-02  0.2466E+00  0.2466E+00
      7.076  0.7359E-02  0.7360E-02  0.2472E+00  0.2472E+00
      7.156  0.8564E-02  0.8564E-02  0.2478E+00  0.2478E+00
      7.236  0.1026E-01  0.1026E-01  0.2487E+00  0.2487E+00
      7.316  0.1109E-01  0.1109E-01  0.2495E+00  0.2495E+00
      7.396  0.1072E-01  0.1072E-01  0.2504E+00  0.2504E+00
      7.475  0.8873E-02  0.8873E-02  0.2511E+00  0.2511E+00
      7.555  0.5680E-02  0.5680E-02  0.2516E+00  0.2516E+00
      7.635  0.3287E-02  0.3287E-02  0.2518E+00  0.2518E+00
      7.715  0.3645E-02  0.3645E-02  0.2521E+00  0.2521E+00
      7.795  0.5801E-02  0.5801E-02  0.2526E+00  0.2526E+00
      7.875  0.7846E-02  0.7846E-02  0.2532E+00  0.2532E+00
      7.954  0.9475E-02  0.9474E-02  0.2540E+00  0.2540E+00
      8.034  0.1041E-01  0.1041E-01  0.2548E+00  0.2548E+00
      8.114  0.9317E-02  0.9317E-02  0.2555E+00  0.2555E+00
      8.194  0.6603E-02  0.6604E-02  0.2561E+00  0.2561E+00
      8.274  0.4704E-02  0.4705E-02  0.2564E+00  0.2564E+00
      8.354  0.4851E-02  0.4851E-02  0.2568E+00  0.2568E+00
      8.434  0.6828E-02  0.6828E-02  0.2574E+00  0.2574E+00
      8.513  0.1024E-01  0.1024E-01  0.2582E+00  0.2582E+00
      8.593  0.1318E-01  0.1318E-01  0.2592E+00  0.2592E+00
      8.673  0.1273E-01  0.1273E-01  0.2603E+00  0.2603E+00
      8.753  0.8750E-02  0.8750E-02  0.2610E+00  0.2610E+00
      8.833  0.4513E-02  0.4512E-02  0.2613E+00  0.2613E+00
      8.913  0.2995E-02  0.2995E-02  0.2616E+00  0.2616E+00
      8.993  0.4065E-02  0.4065E-02  0.2619E+00  0.2619E+00
      9.072  0.5324E-02  0.5324E-02  0.2623E+00  0.2623E+00
      9.152  0.5287E-02  0.5287E-02  0.2627E+00  0.2627E+00
      9.232  0.5273E-02  0.5274E-02  0.2631E+00  0.2631E+00
      9.312  0.7186E-02  0.7186E-02  0.2637E+00  0.2637E+00
      9.392  0.1021E-01  0.1021E-01  0.2645E+00  0.2645E+00
      9.472  0.1155E-01  0.1155E-01  0.2655E+00  0.2655E+00
      9.552  0.9917E-02  0.9917E-02  0.2663E+00  0.2663E+00
      9.631  0.6853E-02  0.6853E-02  0.2668E+00  0.2668E+00
      9.711  0.4898E-02  0.4898E-02  0.2672E+00  0.2672E+00
      9.791  0.4895E-02  0.4896E-02  0.2676E+00  0.2676E+00
      9.871  0.5863E-02  0.5864E-02  0.2681E+00  0.2681E+00
      9.951  0.7381E-02  0.7381E-02  0.2686E+00  0.2686E+00
     10.031  0.9905E-02  0.9905E-02  0.2694E+00  0.2694E+00
     10.110  0.1208E-01  0.1208E-01  0.2704E+00  0.2704E+00
     10.190  0.1125E-01  0.1125E-01  0.2713E+00  0.2713E+00
     10.270  0.7816E-02  0.7817E-02  0.2719E+00  0.2719E+00
     10.350  0.5068E-02  0.5068E-02  0.2723E+00  0.2723E+00
     10.430  0.4814E-02  0.4814E-02  0.2727E+00  0.2727E+00
     10.510  0.6561E-02  0.6561E-02  0.2732E+00  0.2732E+00
     10.590  0.9315E-02  0.9315E-02  0.2740E+00  0.2740E+00
     10.669  0.1179E-01  0.1179E-01  0.2749E+00  0.2749E+00
     10.749  0.1259E-01  0.1259E-01  0.2759E+00  0.2759E+00
     10.829  0.1191E-01  0.1191E-01  0.2769E+00  0.2769E+00
     10.909  0.1133E-01  0.1133E-01  0.2778E+00  0.2778E+00
     10.989  0.1079E-01  0.1079E-01  0.2786E+00  0.2786E+00
     11.069  0.9156E-02  0.9156E-02  0.2794E+00  0.2794E+00
     11.149  0.7841E-02  0.7841E-02  0.2800E+00  0.2800E+00
     11.228  0.9902E-02  0.9902E-02  0.2808E+00  0.2808E+00
     11.308  0.1503E-01  0.1503E-01  0.2820E+00  0.2820E+00
     11.388  0.1811E-01  0.1811E-01  0.2834E+00  0.2834E+00
     11.468  0.1501E-01  0.1501E-01  0.2846E+00  0.2846E+00
     11.548  0.8395E-02  0.8394E-02  0.2853E+00  0.2853E+00
     11.628  0.4342E-02  0.4342E-02  0.2856E+00  0.2856E+00
     11.708  0.4936E-02  0.4936E-02  0.2860E+00  0.2860E+00
     11.787  0.7561E-02  0.7561E-02  0.2866E+00  0.2866E+00
     11.867  0.8899E-02  0.8899E-02  0.2874E+00  0.2874E+00
     11.947  0.7481E-02  0.7480E-02  0.2880E+00  0.2880E+00
     12.027  0.4318E-02  0.4318E-02  0.2883E+00  0.2883E+00
     12.107  0.1713E-02  0.1713E-02  0.2884E+00  0.2884E+00
     12.187  0.7427E-03  0.7427E-03  0.2885E+00  0.2885E+00
     12.266  0.7377E-03  0.7376E-03  0.2886E+00  0.2886E+00
     12.346  0.1069E-02  0.1069E-02  0.2886E+00  0.2886E+00
     12.426  0.1725E-02  0.1725E-02  0.2888E+00  0.2888E+00
     12.506  0.2375E-02  0.2375E-02  0.2890E+00  0.2890E+00
     12.586  0.2517E-02  0.2517E-02  0.2892E+00  0.2892E+00
     12.666  0.2367E-02  0.2367E-02  0.2894E+00  0.2894E+00
     12.746  0.2447E-02  0.2447E-02  0.2896E+00  0.2896E+00
     12.825  0.2559E-02  0.2559E-02  0.2898E+00  0.2898E+00
     12.905  0.2072E-02  0.2072E-02  0.2899E+00  0.2899E+00
     12.985  0.1048E-02  0.1048E-02  0.2900E+00  0.2900E+00
     13.065  0.1980E-03  0.1980E-03  0.2900E+00  0.2900E+00
     13.145 -0.1140E-03 -0.1140E-03  0.2900E+00  0.2900E+00
     13.225 -0.1019E-03 -0.1018E-03  0.2900E+00  0.2900E+00
     13.305 -0.3878E-04 -0.3878E-04  0.2900E+00  0.2900E+00
     13.384 -0.9049E-05 -0.9048E-05  0.2900E+00  0.2900E+00
     13.464 -0.1409E-05 -0.1409E-05  0.2900E+00  0.2900E+00
     13.544 -0.1515E-06 -0.1515E-06  0.2900E+00  0.2900E+00
     13.624 -0.1144E-07 -0.1144E-07  0.2900E+00  0.2900E+00
     13.704 -0.6134E-09 -0.6133E-09  0.2900E+00  0.2900E+00
     13.784 -0.2349E-10 -0.2348E-10  0.2900E+00  0.2900E+00
     13.864 -0.6452E-12 -0.6451E-12  0.2900E+00  0.2900E+00
     13.943 -0.1275E-13 -0.1275E-13  0.2900E+00  0.2900E+00
     14.023 -0.1807E-15 -0.1807E-15  0.2900E+00  0.2900E+00
     14.103 -0.2317E-17 -0.2317E-17  0.2900E+00  0.2900E+00
     14.183  0.0000E+00  0.0000E+00  0.2900E+00  0.2900E+00
     14.263  0.0000E+00  0.0000E+00  0.2900E+00  0.2900E+00
     14.343  0.0000E+00  0.0000E+00  0.2900E+00  0.2900E+00
     14.422  0.0000E+00  0.0000E+00  0.2900E+00  0.2900E+00
     14.502  0.0000E+00  0.0000E+00  0.2900E+00  0.2900E+00
     14.582  0.0000E+00  0.0000E+00  0.2900E+00  0.2900E+00
     14.662  0.0000E+00  0.0000E+00  0.2900E+00  0.2900E+00
     14.742  0.0000E+00  0.0000E+00  0.2900E+00  0.2900E+00
     14.822  0.0000E+00  0.0000E+00  0.2900E+00  0.2900E+00
