   34   34  800    2
  0.1991679E+02  0.5133595E-09  0.5133595E-09  0.2967047E-08  0.5000000E-15
  1.000000000000000E-004
  CAR 
 unknown system                          
    354      3    232
 
  0.0000000E+00  0.0000000E+00  0.0000000E+00  0.1111111E+00
      1         -7.133842       -7.133842   1.000000   1.000000
      2         -6.732631       -6.732631   1.000000   1.000000
      3         -6.097255       -6.097255   1.000000   1.000000
      4         -5.255429       -5.255429   1.000000   1.000000
      5         -4.335963       -4.335963   1.000000   1.000000
      6         -3.623001       -3.623001   1.000000   1.000000
      7         -3.411205       -3.411205   1.000000   1.000000
      8         -3.028212       -3.028212   1.000000   1.000000
      9         -2.906706       -2.906706   1.000000   1.000000
     10         -2.906695       -2.906695   1.000000   1.000000
     11         -2.906575       -2.906575   1.000000   1.000000
     12         -2.899744       -2.899744   1.000000   1.000000
     13         -2.719933       -2.719933   1.000000   1.000000
     14         -2.719927       -2.719927   1.000000   1.000000
     15         -2.719339       -2.719339   1.000000   1.000000
     16         -2.698376       -2.698376   1.000000   1.000000
     17         -2.698021       -2.698021   1.000000   1.000000
     18         -2.698013       -2.698013   1.000000   1.000000
     19         -2.579409       -2.579409   1.000000   1.000000
     20         -2.579405       -2.579405   1.000000   1.000000
     21         -2.578146       -2.578146   1.000000   1.000000
     22         -2.439226       -2.439226   1.000000   1.000000
     23         -2.439217       -2.439217   1.000000   1.000000
     24         -2.438703       -2.438703   1.000000   1.000000
     25         -2.393086       -2.393086   1.000000   1.000000
     26         -2.393081       -2.393081   1.000000   1.000000
     27         -2.392071       -2.392071   1.000000   1.000000
     28         -2.247800       -2.247800   1.000000   1.000000
     29         -2.247800       -2.247800   1.000000   1.000000
     30         -2.247594       -2.247594   1.000000   1.000000
     31         -2.128781       -2.128781   1.000000   1.000000
     32         -2.128778       -2.128778   1.000000   1.000000
     33         -2.127918       -2.127918   1.000000   1.000000
     34         -2.123585       -2.123585   1.000000   1.000000
     35         -2.123579       -2.123579   1.000000   1.000000
     36         -2.119816       -2.119816   1.000000   1.000000
     37         -2.111071       -2.111071   1.000000   1.000000
     38         -2.111067       -2.111067   1.000000   1.000000
     39         -2.109567       -2.109567   1.000000   1.000000
     40         -1.939185       -1.939185   1.000000   1.000000
     41         -1.939006       -1.939006   1.000000   1.000000
     42         -1.939005       -1.939005   1.000000   1.000000
     43         -1.694142       -1.694142   1.000000   1.000000
     44         -1.694140       -1.694140   1.000000   1.000000
     45         -1.693212       -1.693212   1.000000   1.000000
     46         -1.380183       -1.380183   1.000000   1.000000
     47         -1.380181       -1.380181   1.000000   1.000000
     48         -1.377519       -1.377519   1.000000   1.000000
     49         -1.075253       -1.075253   1.000000   1.000000
     50         -1.075251       -1.075251   1.000000   1.000000
     51         -1.073031       -1.073031   1.000000   1.000000
     52         -0.969323       -0.969323   1.000000   1.000000
     53         -0.955983       -0.955983   1.000000   1.000000
     54         -0.939715       -0.939715   1.000000   1.000000
     55         -0.939714       -0.939714   1.000000   1.000000
     56         -0.939459       -0.939459   1.000000   1.000000
     57         -0.885104       -0.885104   1.000000   1.000000
     58         -0.885103       -0.885103   1.000000   1.000000
     59         -0.880771       -0.880771   1.000000   1.000000
     60         -0.880768       -0.880768   1.000000   1.000000
     61         -0.879178       -0.879178   1.000000   1.000000
     62         -0.879175       -0.879175   1.000000   1.000000
     63         -0.879086       -0.879086   1.000000   1.000000
     64         -0.816878       -0.816878   1.000000   1.000000
     65         -0.808798       -0.808798   1.000000   1.000000
     66         -0.808795       -0.808795   1.000000   1.000000
     67         -0.804835       -0.804835   1.000000   1.000000
     68         -0.790283       -0.790283   1.000000   1.000000
     69         -0.790282       -0.790282   1.000000   1.000000
     70         -0.789172       -0.789172   1.000000   1.000000
     71         -0.788822       -0.788822   1.000000   1.000000
     72         -0.786381       -0.786381   1.000000   1.000000
     73         -0.786377       -0.786377   1.000000   1.000000
     74         -0.783768       -0.783768   1.000000   1.000000
     75         -0.783764       -0.783764   1.000000   1.000000
     76         -0.783615       -0.783615   1.000000   1.000000
     77         -0.783163       -0.783163   1.000000   1.000000
     78         -0.783159       -0.783159   1.000000   1.000000
     79         -0.738303       -0.738303   1.000000   1.000000
     80         -0.738299       -0.738299   1.000000   1.000000
     81         -0.728715       -0.728715   1.000000   1.000000
     82         -0.698241       -0.698241   1.000000   1.000000
     83         -0.698237       -0.698237   1.000000   1.000000
     84         -0.687630       -0.687630   1.000000   1.000000
     85         -0.687626       -0.687626   1.000000   1.000000
     86         -0.685316       -0.685316   1.000000   1.000000
     87         -0.608396       -0.608396   1.000000   1.000000
     88         -0.608392       -0.608392   1.000000   1.000000
     89         -0.588722       -0.588722   1.000000   1.000000
     90         -0.588718       -0.588718   1.000000   1.000000
     91         -0.554254       -0.554254   1.000000   1.000000
     92         -0.554253       -0.554253   1.000000   1.000000
     93         -0.552046       -0.552046   1.000000   1.000000
     94         -0.470018       -0.470018   1.000000   1.000000
     95         -0.463346       -0.463346   1.000000   1.000000
     96         -0.463343       -0.463343   1.000000   1.000000
     97         -0.461109       -0.461109   1.000000   1.000000
     98         -0.261847       -0.261847   1.000000   1.000000
     99         -0.261846       -0.261846   1.000000   1.000000
    100         -0.258948       -0.258948   1.000000   1.000000
    101         -0.206124       -0.206124   1.000000   1.000000
    102         -0.206121       -0.206121   1.000000   1.000000
    103         -0.204171       -0.204171   1.000000   1.000000
    104         -0.028638       -0.028638   1.000000   1.000000
    105         -0.028638       -0.028638   1.000000   1.000000
    106         -0.019795       -0.019795   1.000000   1.000000
    107         -0.019793       -0.019793   1.000000   1.000000
    108          0.012578        0.012578   1.000000   1.000000
    109          0.015909        0.015909   1.000000   1.000000
    110          0.015911        0.015911   1.000000   1.000000
    111          0.019236        0.019236   1.000000   1.000000
    112          0.019237        0.019237   1.000000   1.000000
    113          0.025540        0.025540   1.000000   1.000000
    114          0.025541        0.025541   1.000000   1.000000
    115          0.029102        0.029102   1.000000   1.000000
    116          0.077265        0.077265   1.000000   1.000000
    117          0.077266        0.077266   1.000000   1.000000
    118          0.230827        0.230827   1.000000   1.000000
    119          0.230828        0.230828   1.000000   1.000000
    120          0.280354        0.280354   1.000000   1.000000
    121          0.280355        0.280355   1.000000   1.000000
    122          0.282595        0.282595   1.000000   1.000000
    123          0.310877        0.310877   1.000000   1.000000
    124          0.311064        0.311064   1.000000   1.000000
    125          0.311065        0.311065   1.000000   1.000000
    126          0.378629        0.378629   1.000000   1.000000
    127          0.385875        0.385875   1.000000   1.000000
    128          0.385877        0.385877   1.000000   1.000000
    129          0.475702        0.475702   1.000000   1.000000
    130          0.475703        0.475703   1.000000   1.000000
    131          0.476708        0.476708   1.000000   1.000000
    132          0.495319        0.495319   1.000000   1.000000
    133          0.499445        0.499445   1.000000   1.000000
    134          0.499448        0.499448   1.000000   1.000000
    135          0.522273        0.522273   1.000000   1.000000
    136          0.522274        0.522274   1.000000   1.000000
    137          0.543454        0.543454   1.000000   1.000000
    138          0.543463        0.543463   1.000000   1.000000
    139          0.543652        0.543652   1.000000   1.000000
    140          0.546815        0.546815   1.000000   1.000000
    141          0.547019        0.547019   1.000000   1.000000
    142          0.547025        0.547025   1.000000   1.000000
    143          0.573767        0.573767   1.000000   1.000000
    144          0.573775        0.573775   1.000000   1.000000
    145          0.574523        0.574523   1.000000   1.000000
    146          0.580563        0.580563   1.000000   1.000000
    147          0.580570        0.580570   1.000000   1.000000
    148          0.581170        0.581170   1.000000   1.000000
    149          0.600429        0.600429   1.000000   1.000000
    150          0.600437        0.600437   1.000000   1.000000
    151          0.600584        0.600584   1.000000   1.000000
    152          0.603241        0.603241   1.000000   1.000000
    153          0.603241        0.603241   1.000000   1.000000
    154          0.646210        0.646210   1.000000   1.000000
    155          0.647663        0.647663   1.000000   1.000000
    156          0.647669        0.647669   1.000000   1.000000
    157          0.654346        0.654346   1.000000   1.000000
    158          0.654355        0.654355   1.000000   1.000000
    159          0.656890        0.656890   1.000000   1.000000
    160          0.676026        0.676026   1.000000   1.000000
    161          0.676034        0.676034   1.000000   1.000000
    162          0.679846        0.679846   1.000000   1.000000
    163          0.700562        0.700562   1.000000   1.000000
    164          0.700570        0.700570   1.000000   1.000000
    165          0.702676        0.702676   1.000000   1.000000
    166          0.737856        0.737856   1.000000   1.000000
    167          0.737861        0.737861   1.000000   1.000000
    168          0.738574        0.738574   1.000000   1.000000
    169          1.474931        1.474931   1.000006   1.000006
    170          1.474948        1.474948   1.000006   1.000006
    171          1.475177        1.475177   1.000006   1.000006
    172          1.631591        1.631591   1.000531   1.000531
    173          1.965420        1.965420   1.024916   1.024916
    174          2.103630        2.103630   0.746669   0.746669
    175          2.103644        2.103644   0.746620   0.746620
    176          2.104992        2.104992   0.741737   0.741737
    177          2.643308        2.643308  -0.001855  -0.001855
    178          2.643318        2.643318  -0.001854  -0.001854
    179          2.644915        2.644915  -0.001793  -0.001793
    180          3.031969        3.031969  -0.000000  -0.000000
    181          3.031976        3.031976  -0.000000  -0.000000
    182          3.034341        3.034341  -0.000000  -0.000000
    183          3.292836        3.292836  -0.000000  -0.000000
    184          3.292842        3.292842  -0.000000  -0.000000
    185          3.295517        3.295517  -0.000000  -0.000000
    186          3.487432        3.487432  -0.000000  -0.000000
    187          3.487441        3.487441  -0.000000  -0.000000
    188          3.489550        3.489550  -0.000000  -0.000000
    189          3.648548        3.648548  -0.000000  -0.000000
    190          3.648560        3.648560  -0.000000  -0.000000
    191          3.649247        3.649247  -0.000000  -0.000000
    192          3.733137        3.733137  -0.000000  -0.000000
    193          3.733154        3.733154  -0.000000  -0.000000
    194          3.733632        3.733632  -0.000000  -0.000000
    195          6.112522        6.112522  -0.000000  -0.000000
    196          6.123741        6.123741  -0.000000  -0.000000
    197          6.123759        6.123759  -0.000000  -0.000000
    198          6.300384        6.300369  -0.000000  -0.000000
    199          6.539621        6.539608  -0.000000  -0.000000
    200          6.549068        6.549068  -0.000000  -0.000000
    201          6.549083        6.549083  -0.000000  -0.000000
    202          6.636639        6.636636  -0.000000  -0.000000
    203          7.112818        7.112818  -0.000000  -0.000000
    204          7.112831        7.112831  -0.000000  -0.000000
    205          7.130531        7.130524  -0.000000  -0.000000
    206          7.359224        7.359215  -0.000000  -0.000000
    207          7.638701        7.638684   0.000000   0.000000
    208          7.719552        7.719552   0.000000   0.000000
    209          7.719565        7.719565   0.000000   0.000000
    210          7.970327        7.970299   0.000000   0.000000
    211          8.439857        8.439855   0.000000   0.000000
    212          8.471739        8.471739   0.000000   0.000000
    213          8.471748        8.471748   0.000000   0.000000
    214          8.830554        8.830535   0.000000   0.000000
    215          9.349917        9.349904   0.000000   0.000000
    216          9.427247        9.427247   0.000000   0.000000
    217          9.427254        9.427254   0.000000   0.000000
    218          9.546141        9.546132   0.000000   0.000000
    219         10.107555       10.107553   0.000000   0.000000
    220         10.126413       10.126413   0.000000   0.000000
    221         10.126427       10.126427   0.000000   0.000000
    222         10.535046       10.535046   0.000000   0.000000
    223         10.535047       10.535047   0.000000   0.000000
    224         10.701579       10.701570   0.000000   0.000000
    225         10.744487       10.744479   0.000000   0.000000
    226         11.324741       11.324741   0.000000   0.000000
    227         11.324750       11.324750   0.000000   0.000000
    228         11.340345       11.340336   0.000000   0.000000
    229         11.365747       11.365747   0.000000   0.000000
    230         11.365750       11.365750   0.000000   0.000000
    231         11.646411       11.646397   0.000000   0.000000
    232         11.941422       11.941422   0.000000   0.000000
 
  0.3333333E+00  0.5551115E-16  0.0000000E+00  0.6666667E+00
      1         -6.263910       -6.263910   1.000000   1.000000
      2         -5.878582       -5.878582   1.000000   1.000000
      3         -5.271040       -5.271040   1.000000   1.000000
      4         -4.474359       -4.474359   1.000000   1.000000
      5         -4.040680       -4.040680   1.000000   1.000000
      6         -3.777435       -3.777435   1.000000   1.000000
      7         -3.655038       -3.655038   1.000000   1.000000
      8         -3.461225       -3.461225   1.000000   1.000000
      9         -3.388080       -3.388080   1.000000   1.000000
     10         -2.979074       -2.979074   1.000000   1.000000
     11         -2.861472       -2.861472   1.000000   1.000000
     12         -2.710255       -2.710255   1.000000   1.000000
     13         -2.710163       -2.710163   1.000000   1.000000
     14         -2.606865       -2.606865   1.000000   1.000000
     15         -2.557909       -2.557909   1.000000   1.000000
     16         -2.557851       -2.557851   1.000000   1.000000
     17         -2.491763       -2.491763   1.000000   1.000000
     18         -2.460251       -2.460251   1.000000   1.000000
     19         -2.460202       -2.460202   1.000000   1.000000
     20         -2.415876       -2.415876   1.000000   1.000000
     21         -2.408278       -2.408278   1.000000   1.000000
     22         -2.407130       -2.407130   1.000000   1.000000
     23         -2.292500       -2.292500   1.000000   1.000000
     24         -2.290201       -2.290201   1.000000   1.000000
     25         -2.289690       -2.289690   1.000000   1.000000
     26         -2.123584       -2.123584   1.000000   1.000000
     27         -2.123458       -2.123458   1.000000   1.000000
     28         -2.018660       -2.018660   1.000000   1.000000
     29         -2.018607       -2.018607   1.000000   1.000000
     30         -2.018059       -2.018059   1.000000   1.000000
     31         -2.014692       -2.014692   1.000000   1.000000
     32         -1.914594       -1.914594   1.000000   1.000000
     33         -1.914137       -1.914137   1.000000   1.000000
     34         -1.890681       -1.890681   1.000000   1.000000
     35         -1.890636       -1.890636   1.000000   1.000000
     36         -1.886482       -1.886482   1.000000   1.000000
     37         -1.857005       -1.857005   1.000000   1.000000
     38         -1.726615       -1.726615   1.000000   1.000000
     39         -1.726121       -1.726121   1.000000   1.000000
     40         -1.700065       -1.700065   1.000000   1.000000
     41         -1.695392       -1.695392   1.000000   1.000000
     42         -1.693349       -1.693349   1.000000   1.000000
     43         -1.529118       -1.529118   1.000000   1.000000
     44         -1.527360       -1.527360   1.000000   1.000000
     45         -1.523630       -1.523630   1.000000   1.000000
     46         -1.462152       -1.462152   1.000000   1.000000
     47         -1.459678       -1.459678   1.000000   1.000000
     48         -1.408824       -1.408824   1.000000   1.000000
     49         -1.341676       -1.341676   1.000000   1.000000
     50         -1.306024       -1.306024   1.000000   1.000000
     51         -1.304074       -1.304074   1.000000   1.000000
     52         -1.282537       -1.282537   1.000000   1.000000
     53         -1.251907       -1.251907   1.000000   1.000000
     54         -1.194538       -1.194538   1.000000   1.000000
     55         -1.193928       -1.193928   1.000000   1.000000
     56         -1.193300       -1.193300   1.000000   1.000000
     57         -1.164549       -1.164549   1.000000   1.000000
     58         -1.163946       -1.163946   1.000000   1.000000
     59         -1.129730       -1.129730   1.000000   1.000000
     60         -1.127182       -1.127182   1.000000   1.000000
     61         -1.108308       -1.108308   1.000000   1.000000
     62         -1.108072       -1.108072   1.000000   1.000000
     63         -1.098338       -1.098338   1.000000   1.000000
     64         -1.092978       -1.092978   1.000000   1.000000
     65         -1.044357       -1.044357   1.000000   1.000000
     66         -0.999339       -0.999339   1.000000   1.000000
     67         -0.998953       -0.998953   1.000000   1.000000
     68         -0.933217       -0.933217   1.000000   1.000000
     69         -0.892163       -0.892163   1.000000   1.000000
     70         -0.881126       -0.881126   1.000000   1.000000
     71         -0.860718       -0.860718   1.000000   1.000000
     72         -0.860366       -0.860366   1.000000   1.000000
     73         -0.843142       -0.843142   1.000000   1.000000
     74         -0.836032       -0.836032   1.000000   1.000000
     75         -0.818080       -0.818080   1.000000   1.000000
     76         -0.815906       -0.815906   1.000000   1.000000
     77         -0.775404       -0.775404   1.000000   1.000000
     78         -0.769898       -0.769898   1.000000   1.000000
     79         -0.721326       -0.721326   1.000000   1.000000
     80         -0.702892       -0.702892   1.000000   1.000000
     81         -0.699284       -0.699284   1.000000   1.000000
     82         -0.694139       -0.694139   1.000000   1.000000
     83         -0.669248       -0.669248   1.000000   1.000000
     84         -0.667994       -0.667994   1.000000   1.000000
     85         -0.662119       -0.662119   1.000000   1.000000
     86         -0.650293       -0.650293   1.000000   1.000000
     87         -0.645213       -0.645213   1.000000   1.000000
     88         -0.595812       -0.595812   1.000000   1.000000
     89         -0.595557       -0.595557   1.000000   1.000000
     90         -0.593767       -0.593767   1.000000   1.000000
     91         -0.587824       -0.587824   1.000000   1.000000
     92         -0.567098       -0.567098   1.000000   1.000000
     93         -0.530367       -0.530367   1.000000   1.000000
     94         -0.497331       -0.497331   1.000000   1.000000
     95         -0.487365       -0.487365   1.000000   1.000000
     96         -0.473271       -0.473271   1.000000   1.000000
     97         -0.472593       -0.472593   1.000000   1.000000
     98         -0.471985       -0.471985   1.000000   1.000000
     99         -0.467517       -0.467517   1.000000   1.000000
    100         -0.458481       -0.458481   1.000000   1.000000
    101         -0.446457       -0.446457   1.000000   1.000000
    102         -0.445952       -0.445952   1.000000   1.000000
    103         -0.369535       -0.369535   1.000000   1.000000
    104         -0.354454       -0.354454   1.000000   1.000000
    105         -0.353263       -0.353263   1.000000   1.000000
    106         -0.321971       -0.321971   1.000000   1.000000
    107         -0.297828       -0.297828   1.000000   1.000000
    108         -0.284394       -0.284394   1.000000   1.000000
    109         -0.273075       -0.273075   1.000000   1.000000
    110         -0.271158       -0.271158   1.000000   1.000000
    111         -0.258698       -0.258698   1.000000   1.000000
    112         -0.258522       -0.258522   1.000000   1.000000
    113         -0.257652       -0.257652   1.000000   1.000000
    114         -0.203311       -0.203311   1.000000   1.000000
    115         -0.188883       -0.188883   1.000000   1.000000
    116         -0.175564       -0.175564   1.000000   1.000000
    117         -0.133521       -0.133521   1.000000   1.000000
    118         -0.131227       -0.131227   1.000000   1.000000
    119         -0.087559       -0.087559   1.000000   1.000000
    120         -0.063632       -0.063632   1.000000   1.000000
    121         -0.058467       -0.058467   1.000000   1.000000
    122         -0.018434       -0.018434   1.000000   1.000000
    123          0.016413        0.016413   1.000000   1.000000
    124          0.018126        0.018126   1.000000   1.000000
    125          0.024395        0.024395   1.000000   1.000000
    126          0.071533        0.071533   1.000000   1.000000
    127          0.093345        0.093345   1.000000   1.000000
    128          0.150244        0.150244   1.000000   1.000000
    129          0.151285        0.151285   1.000000   1.000000
    130          0.157350        0.157350   1.000000   1.000000
    131          0.195217        0.195217   1.000000   1.000000
    132          0.209360        0.209360   1.000000   1.000000
    133          0.210664        0.210664   1.000000   1.000000
    134          0.219139        0.219139   1.000000   1.000000
    135          0.225481        0.225481   1.000000   1.000000
    136          0.226220        0.226220   1.000000   1.000000
    137          0.232614        0.232614   1.000000   1.000000
    138          0.242607        0.242607   1.000000   1.000000
    139          0.254425        0.254425   1.000000   1.000000
    140          0.255246        0.255246   1.000000   1.000000
    141          0.256462        0.256462   1.000000   1.000000
    142          0.277426        0.277426   1.000000   1.000000
    143          0.316162        0.316162   1.000000   1.000000
    144          0.317420        0.317420   1.000000   1.000000
    145          0.324063        0.324063   1.000000   1.000000
    146          0.342085        0.342085   1.000000   1.000000
    147          0.346500        0.346500   1.000000   1.000000
    148          0.371706        0.371706   1.000000   1.000000
    149          0.375166        0.375166   1.000000   1.000000
    150          0.399904        0.399904   1.000000   1.000000
    151          0.419761        0.419761   1.000000   1.000000
    152          0.434049        0.434049   1.000000   1.000000
    153          0.436673        0.436673   1.000000   1.000000
    154          0.453966        0.453966   1.000000   1.000000
    155          0.540642        0.540642   1.000000   1.000000
    156          0.541390        0.541390   1.000000   1.000000
    157          0.542334        0.542334   1.000000   1.000000
    158          0.570892        0.570892   1.000000   1.000000
    159          0.576096        0.576096   1.000000   1.000000
    160          0.584406        0.584406   1.000000   1.000000
    161          0.585752        0.585752   1.000000   1.000000
    162          0.605908        0.605908   1.000000   1.000000
    163          0.607054        0.607054   1.000000   1.000000
    164          0.628820        0.628820   1.000000   1.000000
    165          0.652815        0.652815   1.000000   1.000000
    166          0.653395        0.653395   1.000000   1.000000
    167          0.675199        0.675199   1.000000   1.000000
    168          0.675548        0.675548   1.000000   1.000000
    169          0.714632        0.714632   1.000000   1.000000
    170          0.715253        0.715253   1.000000   1.000000
    171          1.111863        1.111863   1.000000   1.000000
    172          1.489011        1.489011   1.000010   1.000010
    173          1.846512        1.846512   1.023412   1.023412
    174          1.846804        1.846804   1.023480   1.023480
    175          1.951515        1.951515   1.030788   1.030788
    176          2.003540        2.003540   0.991909   0.991909
    177          2.003584        2.003584   0.991854   0.991854
    178          2.264019        2.264019   0.132646   0.132646
    179          2.264802        2.264802   0.130485   0.130485
    180          2.601173        2.601173  -0.004271  -0.004271
    181          2.783165        2.783165  -0.000056  -0.000056
    182          2.784350        2.784350  -0.000054  -0.000054
    183          3.068952        3.068952  -0.000000  -0.000000
    184          3.586412        3.586412  -0.000000  -0.000000
    185          3.587235        3.587235  -0.000000  -0.000000
    186          3.725552        3.725552  -0.000000  -0.000000
    187          3.973708        3.973708  -0.000000  -0.000000
    188          4.616447        4.616447  -0.000000  -0.000000
    189          4.620009        4.620009  -0.000000  -0.000000
    190          5.485702        5.485702  -0.000000  -0.000000
    191          5.714208        5.714208  -0.000000  -0.000000
    192          5.720146        5.720146  -0.000000  -0.000000
    193          6.373905        6.373905  -0.000000  -0.000000
    194          6.377816        6.377816  -0.000000  -0.000000
    195          6.685705        6.685704  -0.000000  -0.000000
    196          6.925484        6.925484  -0.000000  -0.000000
    197          6.927863        6.927863  -0.000000  -0.000000
    198          7.163310        7.163294  -0.000000  -0.000000
    199          7.238563        7.238559  -0.000000  -0.000000
    200          7.419800        7.419800  -0.000000  -0.000000
    201          7.442011        7.442009  -0.000000  -0.000000
    202          7.800476        7.800469   0.000000   0.000000
    203          7.997706        7.997706   0.000000   0.000000
    204          8.048031        8.048029   0.000000   0.000000
    205          8.306017        8.305982   0.000000   0.000000
    206          8.538349        8.538343   0.000000   0.000000
    207          8.580766        8.580766   0.000000   0.000000
    208          8.610921        8.610918   0.000000   0.000000
    209          8.998083        8.998081   0.000000   0.000000
    210          9.105208        9.105193   0.000000   0.000000
    211          9.323968        9.323968   0.000000   0.000000
    212          9.419180        9.419178   0.000000   0.000000
    213          9.494291        9.494279   0.000000   0.000000
    214          9.762571        9.762556   0.000000   0.000000
    215         10.080822       10.080822   0.000000   0.000000
    216         10.093097       10.093084   0.000000   0.000000
    217         10.140058       10.140052   0.000000   0.000000
    218         10.337915       10.337893   0.000000   0.000000
    219         10.502464       10.502453   0.000000   0.000000
    220         10.674377       10.674377   0.000000   0.000000
    221         10.684643       10.684641   0.000000   0.000000
    222         10.797535       10.797535   0.000000   0.000000
    223         10.916501       10.916477   0.000000   0.000000
    224         10.978996       10.978994   0.000000   0.000000
    225         10.984947       10.984947   0.000000   0.000000
    226         11.149539       11.149533   0.000000   0.000000
    227         11.267061       11.267055   0.000000   0.000000
    228         11.365306       11.365305   0.000000   0.000000
    229         11.377598       11.377581   0.000000   0.000000
    230         11.731654       11.731650   0.000000   0.000000
    231         11.837423       11.837420   0.000000   0.000000