       N       E                     dE             d eps       ncg     rms          rms(c)
DAV:   1     0.345340813019E+04    0.34534E+04   -0.12530E+05  2784   0.193E+03
DAV:   2     0.485668235539E+03   -0.29677E+04   -0.28317E+04  2784   0.448E+02
DAV:   3    -0.924660519152E+02   -0.57813E+03   -0.52574E+03  2792   0.230E+02
DAV:   4    -0.138228469586E+03   -0.45762E+02   -0.43815E+02  3064   0.893E+01
DAV:   5    -0.139356784797E+03   -0.11283E+01   -0.11247E+01  3136   0.141E+01    0.527E+01
DAV:   6    -0.114898783469E+03    0.24458E+02   -0.30854E+02  3120   0.125E+02    0.273E+01
DAV:   7    -0.102558598296E+03    0.12340E+02   -0.79372E+01  3208   0.101E+02    0.167E+01
DAV:   8    -0.108996660654E+03   -0.64381E+01   -0.70394E+01  3608   0.130E+02    0.228E+01
DAV:   9    -0.992999693103E+02    0.96967E+01   -0.18551E+01  3968   0.681E+01    0.125E+01
DAV:  10    -0.996898637797E+02   -0.38989E+00   -0.68283E+00  3656   0.395E+01    0.112E+01
DAV:  11    -0.101070161623E+03   -0.13803E+01   -0.74420E+00  3224   0.350E+01    0.107E+01
DAV:  12    -0.101991727546E+03   -0.92157E+00   -0.13759E+01  3296   0.578E+01    0.113E+01
DAV:  13    -0.102385288182E+03   -0.39356E+00   -0.64953E+00  4168   0.475E+01    0.813E+00
DAV:  14    -0.103959571478E+03   -0.15743E+01   -0.39754E+00  4728   0.365E+01    0.720E+00
DAV:  15    -0.108699822497E+03   -0.47403E+01   -0.39039E+00  3848   0.243E+01    0.436E+00
DAV:  16    -0.111996285391E+03   -0.32965E+01   -0.32890E+00  3400   0.186E+01    0.293E+00
DAV:  17    -0.113843880446E+03   -0.18476E+01   -0.18631E+00  3536   0.119E+01    0.228E+00
DAV:  18    -0.114955414810E+03   -0.11115E+01   -0.10007E+00  3368   0.984E+00    0.218E+00
DAV:  19    -0.115612885552E+03   -0.65747E+00   -0.52597E-01  3840   0.870E+00    0.180E+00
DAV:  20    -0.116309282466E+03   -0.69640E+00   -0.41840E-01  3552   0.595E+00    0.155E+00
DAV:  21    -0.117148986511E+03   -0.83970E+00   -0.48141E-01  3816   0.574E+00    0.136E+00
DAV:  22    -0.117811337631E+03   -0.66235E+00   -0.41868E-01  4024   0.511E+00    0.114E+00
DAV:  23    -0.118230846897E+03   -0.41951E+00   -0.18096E-01  3576   0.372E+00    0.954E-01
DAV:  24    -0.118842631302E+03   -0.61178E+00   -0.15289E-01  3616   0.436E+00    0.806E-01
DAV:  25    -0.119804878171E+03   -0.96225E+00   -0.12031E-01  3760   0.470E+00    0.574E-01
DAV:  26    -0.120404704246E+03   -0.59983E+00   -0.53529E-02  3720   0.301E+00    0.419E-01
DAV:  27    -0.120614176398E+03   -0.20947E+00   -0.18942E-02  3336   0.200E+00    0.174E-01
DAV:  28    -0.120664027068E+03   -0.49851E-01   -0.70662E-03  3488   0.856E-01    0.141E-01
DAV:  29    -0.120672598496E+03   -0.85714E-02   -0.28762E-03  3072   0.698E-01    0.969E-02
DAV:  30    -0.120676790790E+03   -0.41923E-02   -0.12715E-03  2864   0.471E-01    0.604E-02
DAV:  31    -0.120680007582E+03   -0.32168E-02   -0.60763E-04  2080   0.309E-01    0.574E-02
DAV:  32    -0.120679980551E+03    0.27030E-04   -0.22479E-04  1872   0.208E-01
   1 F= -.13470982E+03 E0= -.13470253E+03  d E =-.134710E+03  mag=     0.0019
       N       E                     dE             d eps       ncg     rms          rms(c)
DAV:   1    -0.120724594172E+03   -0.44587E-01   -0.26650E+01  2944   0.103E+01    0.567E-01
DAV:   2    -0.120791426709E+03   -0.66833E-01   -0.64309E-01  4240   0.491E+00    0.862E-01
DAV:   3    -0.120797673558E+03   -0.62468E-02   -0.24766E-01  3328   0.732E+00    0.944E-01
DAV:   4    -0.120781730652E+03    0.15943E-01   -0.93665E-02  3376   0.491E+00    0.492E-01
DAV:   5    -0.120780750901E+03    0.97975E-03   -0.15669E-02  3912   0.274E+00    0.410E-01
DAV:   6    -0.120778992669E+03    0.17582E-02   -0.12302E-02  3816   0.214E+00    0.279E-01
DAV:   7    -0.120778362793E+03    0.62988E-03   -0.91321E-03  3320   0.189E+00    0.200E-01
DAV:   8    -0.120778212468E+03    0.15033E-03   -0.44558E-03  3584   0.120E+00    0.110E-01
DAV:   9    -0.120778132882E+03    0.79586E-04   -0.19122E-03  2936   0.658E-01
   2 F= -.13481998E+03 E0= -.13481140E+03  d E =-.110155E+00  mag=     0.0009
       N       E                     dE             d eps       ncg     rms          rms(c)
DAV:   1    -0.120768547093E+03    0.96654E-02   -0.98415E+00  2872   0.628E+00    0.325E-01
DAV:   2    -0.120794585459E+03   -0.26038E-01   -0.22438E-01  4400   0.347E+00    0.612E-01
DAV:   3    -0.120791167944E+03    0.34175E-02   -0.81679E-02  3432   0.450E+00    0.465E-01
DAV:   4    -0.120788578769E+03    0.25892E-02   -0.22819E-02  3336   0.253E+00    0.309E-01
DAV:   5    -0.120787927641E+03    0.65113E-03   -0.60544E-03  3328   0.167E+00    0.231E-01
DAV:   6    -0.120787486116E+03    0.44152E-03   -0.42925E-03  3320   0.112E+00    0.156E-01
DAV:   7    -0.120787456231E+03    0.29885E-04   -0.31137E-03  3192   0.102E+00    0.106E-01
DAV:   8    -0.120787421542E+03    0.34689E-04   -0.13816E-03  3304   0.637E-01
   3 F= -.13483888E+03 E0= -.13482964E+03  d E =-.129063E+00  mag=     0.0004
       N       E                     dE             d eps       ncg     rms          rms(c)
DAV:   1    -0.120812544762E+03   -0.25089E-01   -0.16233E+01  2840   0.823E+00    0.588E-01
DAV:   2    -0.120867767989E+03   -0.55223E-01   -0.47187E-01  4368   0.501E+00    0.952E-01
DAV:   3    -0.120853418975E+03    0.14349E-01   -0.19821E-01  3624   0.666E+00    0.689E-01
DAV:   4    -0.120852419248E+03    0.99973E-03   -0.49353E-02  3296   0.391E+00    0.625E-01
DAV:   5    -0.120847734073E+03    0.46852E-02   -0.23797E-02  3336   0.357E+00    0.358E-01
DAV:   6    -0.120846897068E+03    0.83700E-03   -0.15222E-02  3672   0.228E+00    0.253E-01
DAV:   7    -0.120846574333E+03    0.32274E-03   -0.69915E-03  3256   0.168E+00    0.141E-01
DAV:   8    -0.120846472693E+03    0.10164E-03   -0.36450E-03  3544   0.824E-01    0.679E-02
DAV:   9    -0.120846486239E+03   -0.13546E-04   -0.94636E-04  2576   0.458E-01
   4 F= -.13490231E+03 E0= -.13489269E+03  d E =-.634272E-01  mag=     0.0001
       N       E                     dE             d eps       ncg     rms          rms(c)
DAV:   1    -0.120846236480E+03    0.23621E-03   -0.18746E-01  2880   0.935E-01    0.763E-02
DAV:   2    -0.120847133350E+03   -0.89687E-03   -0.60717E-03  4560   0.805E-01    0.147E-01
DAV:   3    -0.120846783467E+03    0.34988E-03   -0.36731E-03  2624   0.102E+00    0.952E-02
DAV:   4    -0.120846753233E+03    0.30234E-04   -0.12468E-03  1776   0.677E-01
   5 F= -.13490340E+03 E0= -.13489389E+03  d E =-.645141E-01  mag=     0.0001
       N       E                     dE             d eps       ncg     rms          rms(c)
DAV:   1    -0.120858525818E+03   -0.11742E-01   -0.44667E+00  2816   0.458E+00    0.258E-01
DAV:   2    -0.120868518968E+03   -0.99931E-02   -0.11230E-01  3888   0.165E+00    0.298E-01
DAV:   3    -0.120868346034E+03    0.17293E-03   -0.73439E-03  3136   0.142E+00    0.243E-01
DAV:   4    -0.120868382902E+03   -0.36869E-04   -0.43262E-03  3176   0.140E+00    0.226E-01
DAV:   5    -0.120870808610E+03   -0.24257E-02   -0.15424E-02  2048   0.215E+00    0.357E-01
DAV:   6    -0.120868529552E+03    0.22791E-02   -0.19607E-02  2808   0.251E+00    0.213E-01
DAV:   7    -0.120867455359E+03    0.10742E-02   -0.16797E-03  2120   0.107E+00    0.614E-02
DAV:   8    -0.120867456561E+03   -0.12018E-05   -0.92573E-04  2560   0.355E-01
   6 F= -.13493103E+03 E0= -.13492160E+03  d E =-.276294E-01  mag=    -0.0000
       N       E                     dE             d eps       ncg     rms          rms(c)
DAV:   1    -0.120838143596E+03    0.29312E-01   -0.23054E+01  2800   0.104E+01    0.590E-01
DAV:   2    -0.120893146553E+03   -0.55003E-01   -0.59938E-01  3904   0.408E+00    0.765E-01
DAV:   3    -0.120903778097E+03   -0.10632E-01   -0.12202E-01  3216   0.576E+00    0.822E-01
DAV:   4    -0.120888695856E+03    0.15082E-01   -0.84576E-02  3520   0.490E+00    0.479E-01
DAV:   5    -0.120889910177E+03   -0.12143E-02   -0.13189E-02  3856   0.300E+00    0.478E-01
DAV:   6    -0.120888757726E+03    0.11525E-02   -0.21153E-02  4256   0.375E+00    0.412E-01
DAV:   7    -0.120885428481E+03    0.33292E-02   -0.11227E-02  3648   0.260E+00    0.142E-01
DAV:   8    -0.120885385054E+03    0.43427E-04   -0.49178E-03  3592   0.100E+00    0.859E-02
DAV:   9    -0.120885524517E+03   -0.13946E-03   -0.24462E-03  2928   0.549E-01    0.420E-02
DAV:  10    -0.120885575939E+03   -0.51421E-04   -0.73298E-04  2448   0.297E-01
   7 F= -.13496521E+03 E0= -.13495631E+03  d E =-.618167E-01  mag=    -0.0001
       N       E                     dE             d eps       ncg     rms          rms(c)
DAV:   1    -0.120875522605E+03    0.10002E-01   -0.32620E+00  2816   0.388E+00    0.208E-01
DAV:   2    -0.120883762517E+03   -0.82399E-02   -0.81315E-02  4080   0.182E+00    0.339E-01
DAV:   3    -0.120883588688E+03    0.17383E-03   -0.18247E-02  3408   0.219E+00    0.259E-01
DAV:   4    -0.120882628734E+03    0.95995E-03   -0.73162E-03  3144   0.152E+00    0.199E-01
DAV:   5    -0.120882520604E+03    0.10813E-03   -0.18607E-03  2816   0.103E+00
   8 F= -.13496839E+03 E0= -.13495958E+03  d E =-.649905E-01  mag=    -0.0001
       N       E                     dE             d eps       ncg     rms          rms(c)
DAV:   1    -0.120891224266E+03   -0.85955E-02   -0.25702E+00  2816   0.358E+00    0.285E-01
DAV:   2    -0.120899357710E+03   -0.81334E-02   -0.80269E-02  4856   0.247E+00    0.380E-01
DAV:   3    -0.120898361031E+03    0.99668E-03   -0.17237E-02  3824   0.275E+00    0.331E-01
DAV:   4    -0.120898161137E+03    0.19989E-03   -0.12000E-02  3376   0.198E+00    0.304E-01
DAV:   5    -0.120897094754E+03    0.10664E-02   -0.91189E-03  3192   0.178E+00    0.198E-01
DAV:   6    -0.120896724416E+03    0.37034E-03   -0.39318E-03  3384   0.140E+00    0.134E-01
DAV:   7    -0.120896468598E+03    0.25582E-03   -0.18371E-03  3032   0.940E-01    0.483E-02
DAV:   8    -0.120896527987E+03   -0.59389E-04   -0.90268E-04  2720   0.322E-01
   9 F= -.13498560E+03 E0= -.13497698E+03  d E =-.172161E-01  mag=    -0.0001
       N       E                     dE             d eps       ncg     rms          rms(c)
DAV:   1    -0.120870241354E+03    0.26227E-01   -0.13438E+01  2800   0.789E+00    0.533E-01
DAV:   2    -0.120913846625E+03   -0.43605E-01   -0.46783E-01  4088   0.375E+00    0.770E-01
DAV:   3    -0.120914133302E+03   -0.28668E-03   -0.71947E-02  3800   0.443E+00    0.644E-01
DAV:   4    -0.120907983842E+03    0.61495E-02   -0.25962E-02  3496   0.278E+00    0.491E-01
DAV:   5    -0.120912036227E+03   -0.40524E-02   -0.13823E-02  3904   0.292E+00    0.608E-01
DAV:   6    -0.120907115496E+03    0.49207E-02   -0.19279E-02  3456   0.399E+00    0.403E-01
DAV:   7    -0.120904634541E+03    0.24810E-02   -0.87824E-03  4056   0.201E+00    0.126E-01
DAV:   8    -0.120904578369E+03    0.56171E-04   -0.30484E-03  4000   0.756E-01    0.746E-02
DAV:   9    -0.120904565968E+03    0.12401E-04   -0.95719E-04  2736   0.431E-01
  10 F= -.13500201E+03 E0= -.13499388E+03  d E =-.336166E-01  mag=    -0.0001
       N       E                     dE             d eps       ncg     rms          rms(c)
DAV:   1    -0.120911744260E+03   -0.71659E-02   -0.14161E+00  2816   0.256E+00    0.168E-01
DAV:   2    -0.120915740960E+03   -0.39967E-02   -0.42551E-02  4024   0.105E+00    0.216E-01
DAV:   3    -0.120915736294E+03    0.46656E-05   -0.49444E-03  3184   0.125E+00    0.194E-01
DAV:   4    -0.120915435545E+03    0.30075E-03   -0.28278E-03  2608   0.938E-01    0.160E-01
DAV:   5    -0.120915451348E+03   -0.15803E-04   -0.15363E-03  2000   0.856E-01
  11 F= -.13501515E+03 E0= -.13500727E+03  d E =-.131471E-01  mag=    -0.0001
       N       E                     dE             d eps       ncg     rms          rms(c)
DAV:   1    -0.120907281441E+03    0.81541E-02   -0.12740E+01  2832   0.772E+00    0.538E-01
DAV:   2    -0.120948222326E+03   -0.40941E-01   -0.38854E-01  4504   0.480E+00    0.837E-01
DAV:   3    -0.120941659511E+03    0.65628E-02   -0.84978E-02  4232   0.523E+00    0.592E-01
DAV:   4    -0.120938459064E+03    0.32004E-02   -0.23886E-02  3408   0.322E+00    0.504E-01
DAV:   5    -0.120937240650E+03    0.12184E-02   -0.14649E-02  3488   0.279E+00    0.417E-01
DAV:   6    -0.120935587926E+03    0.16527E-02   -0.12572E-02  3480   0.250E+00    0.283E-01
DAV:   7    -0.120934747676E+03    0.84025E-03   -0.69588E-03  3416   0.175E+00    0.106E-01
DAV:   8    -0.120934849885E+03   -0.10221E-03   -0.25629E-03  3352   0.572E-01    0.629E-02
DAV:   9    -0.120934834534E+03    0.15351E-04   -0.74905E-04  2560   0.433E-01
  12 F= -.13504160E+03 E0= -.13503365E+03  d E =-.395921E-01  mag=    -0.0000
       N       E                     dE             d eps       ncg     rms          rms(c)
DAV:   1    -0.120821058451E+03    0.11379E+00   -0.51164E+01  2800   0.155E+01    0.113E+00
DAV:   2    -0.120975705059E+03   -0.15465E+00   -0.14935E+00  4520   0.963E+00    0.162E+00
DAV:   3    -0.120969920008E+03    0.57851E-02   -0.43851E-01  4608   0.116E+01    0.129E+00
DAV:   4    -0.120940750934E+03    0.29169E-01   -0.12235E-01  3792   0.799E+00    0.940E-01
DAV:   5    -0.120938673673E+03    0.20773E-02   -0.58511E-02  3728   0.653E+00    0.881E-01
DAV:   6    -0.120926810191E+03    0.11863E-01   -0.41174E-02  3488   0.544E+00    0.514E-01
DAV:   7    -0.120925246233E+03    0.15640E-02   -0.24073E-02  3544   0.276E+00    0.222E-01
DAV:   8    -0.120925301848E+03   -0.55615E-04   -0.11127E-02  3208   0.148E+00    0.121E-01
DAV:   9    -0.120925272452E+03    0.29395E-04   -0.29542E-03  3216   0.745E-01    0.580E-02
DAV:  10    -0.120925571340E+03   -0.29889E-03   -0.26379E-03  2896   0.524E-01    0.663E-02
DAV:  11    -0.120925572869E+03   -0.15291E-05   -0.38148E-04  1776   0.256E-01
  13 F= -.13504847E+03 E0= -.13504096E+03  d E =-.464630E-01  mag=    -0.0000
       N       E                     dE             d eps       ncg     rms          rms(c)
DAV:   1    -0.120922824578E+03    0.27468E-02   -0.70839E+00  2800   0.571E+00    0.377E-01
DAV:   2    -0.120939640422E+03   -0.16816E-01   -0.18121E-01  4032   0.209E+00    0.452E-01
DAV:   3    -0.120940025124E+03   -0.38470E-03   -0.25098E-02  3344   0.305E+00    0.442E-01
DAV:   4    -0.120938504814E+03    0.15203E-02   -0.16427E-02  3360   0.251E+00    0.340E-01
DAV:   5    -0.120938109958E+03    0.39486E-03   -0.73291E-03  3352   0.242E+00    0.301E-01
DAV:   6    -0.120936706839E+03    0.14031E-02   -0.54336E-03  4328   0.178E+00    0.168E-01
DAV:   7    -0.120936390407E+03    0.31643E-03   -0.21096E-03  3288   0.113E+00    0.751E-02
DAV:   8    -0.120936414524E+03   -0.24117E-04   -0.11154E-03  2784   0.439E-01
  14 F= -.13505290E+03 E0= -.13504517E+03  d E =-.508993E-01  mag=    -0.0000
       N       E                     dE             d eps       ncg     rms          rms(c)
DAV:   1    -0.120942524166E+03   -0.61338E-02   -0.28930E+00  2800   0.365E+00    0.244E-01
DAV:   2    -0.120949082973E+03   -0.65588E-02   -0.73998E-02  3864   0.137E+00    0.290E-01
DAV:   3    -0.120948848872E+03    0.23410E-03   -0.58841E-03  3264   0.159E+00    0.244E-01
DAV:   4    -0.120949333281E+03   -0.48441E-03   -0.67364E-03  3184   0.166E+00    0.249E-01
DAV:   5    -0.120949136533E+03    0.19675E-03   -0.10270E-02  2792   0.213E+00    0.231E-01
DAV:   6    -0.120948079535E+03    0.10570E-02   -0.39898E-03  2592   0.145E+00    0.122E-01
DAV:   7    -0.120947820296E+03    0.25924E-03   -0.10928E-03  2800   0.785E-01    0.472E-02
DAV:   8    -0.120947851411E+03   -0.31115E-04   -0.65624E-04  2288   0.250E-01
  15 F= -.13506540E+03 E0= -.13505776E+03  d E =-.124956E-01  mag=    -0.0000
       N       E                     dE             d eps       ncg     rms          rms(c)
DAV:   1    -0.120926929773E+03    0.20891E-01   -0.18059E+01  2800   0.914E+00    0.617E-01
DAV:   2    -0.120969486949E+03   -0.42557E-01   -0.48934E-01  3792   0.320E+00    0.684E-01
DAV:   3    -0.120968818231E+03    0.66872E-03   -0.26944E-02  3232   0.357E+00    0.590E-01
DAV:   4    -0.120969839338E+03   -0.10211E-02   -0.30294E-02  3424   0.384E+00    0.583E-01
DAV:   5    -0.120976940446E+03   -0.71011E-02   -0.75796E-02  3536   0.527E+00    0.717E-01
DAV:   6    -0.120965333282E+03    0.11607E-01   -0.35902E-02  4752   0.487E+00    0.328E-01
DAV:   7    -0.120962642127E+03    0.26912E-02   -0.71771E-03  5008   0.238E+00    0.130E-01
DAV:   8    -0.120962726861E+03   -0.84734E-04   -0.28825E-03  3680   0.679E-01    0.929E-02
DAV:   9    -0.120962714538E+03    0.12323E-04   -0.12837E-03  2744   0.421E-01
  16 F= -.13508376E+03 E0= -.13507616E+03  d E =-.308520E-01  mag=    -0.0000
       N       E                     dE             d eps       ncg     rms          rms(c)
DAV:   1    -0.120957210021E+03    0.55168E-02   -0.30547E+00  2800   0.375E+00    0.264E-01
DAV:   2    -0.120964522567E+03   -0.73125E-02   -0.79529E-02  3936   0.157E+00    0.320E-01
DAV:   3    -0.120964615552E+03   -0.92985E-04   -0.88681E-03  3296   0.202E+00    0.294E-01
DAV:   4    -0.120964726554E+03   -0.11100E-03   -0.10184E-02  3184   0.206E+00    0.277E-01
DAV:   5    -0.120963662038E+03    0.10645E-02   -0.61758E-03  3080   0.189E+00    0.189E-01
DAV:   6    -0.120963294223E+03    0.36782E-03   -0.20053E-03  3024   0.130E+00    0.127E-01
DAV:   7    -0.120963017225E+03    0.27700E-03   -0.13353E-03  3120   0.871E-01    0.373E-02
DAV:   8    -0.120963065318E+03   -0.48094E-04   -0.63914E-04  2192   0.221E-01
  17 F= -.13508586E+03 E0= -.13507816E+03  d E =-.329540E-01  mag=    -0.0000
       N       E                     dE             d eps       ncg     rms          rms(c)
DAV:   1    -0.120963972168E+03   -0.95494E-03   -0.55252E+00  2848   0.500E+00    0.360E-01
DAV:   2    -0.120975759167E+03   -0.11787E-01   -0.13952E-01  3824   0.165E+00    0.361E-01
DAV:   3    -0.120975861584E+03   -0.10242E-03   -0.86080E-03  3216   0.199E+00    0.329E-01
DAV:   4    -0.120976027979E+03   -0.16640E-03   -0.80183E-03  3376   0.233E+00    0.310E-01
DAV:   5    -0.120981529927E+03   -0.55019E-02   -0.28048E-02  3200   0.350E+00    0.511E-01
DAV:   6    -0.120975040176E+03    0.64898E-02   -0.21660E-02  3288   0.349E+00    0.196E-01
DAV:   7    -0.120973960567E+03    0.10796E-02   -0.20518E-03  2376   0.144E+00    0.695E-02
DAV:   8    -0.120974055719E+03   -0.95152E-04   -0.15439E-03  3608   0.369E-01
  18 F= -.13509788E+03 E0= -.13509008E+03  d E =-.120233E-01  mag=    -0.0000
       N       E                     dE             d eps       ncg     rms          rms(c)
DAV:   1    -0.120973954437E+03    0.61304E-05   -0.50720E-01  2816   0.154E+00    0.998E-02
DAV:   2    -0.120975257036E+03   -0.13026E-02   -0.14573E-02  3824   0.430E-01    0.104E-01
DAV:   3    -0.120975266829E+03   -0.97924E-05   -0.58693E-04  2080   0.426E-01
  19 F= -.13509950E+03 E0= -.13509161E+03  d E =-.136368E-01  mag=    -0.0000
       N       E                     dE             d eps       ncg     rms          rms(c)
DAV:   1    -0.120970555056E+03    0.47020E-02   -0.20299E+00  2816   0.314E+00    0.251E-01
DAV:   2    -0.120994805457E+03   -0.24250E-01   -0.10181E-01  5024   0.510E+00    0.823E-01
DAV:   3    -0.120974409568E+03    0.20396E-01   -0.61738E-02  5232   0.439E+00    0.238E-01
DAV:   4    -0.120974661756E+03   -0.25219E-03   -0.43733E-03  4288   0.102E+00    0.215E-01
DAV:   5    -0.120974686091E+03   -0.24335E-04   -0.40098E-03  3248   0.152E+00    0.188E-01
DAV:   6    -0.120974423204E+03    0.26289E-03   -0.26169E-03  3200   0.141E+00    0.136E-01
DAV:   7    -0.120974133757E+03    0.28945E-03   -0.92690E-04  2816   0.801E-01    0.387E-02
DAV:   8    -0.120974143590E+03   -0.98335E-05   -0.41543E-04  1776   0.232E-01
  20 F= -.13509932E+03 E0= -.13509135E+03  d E =-.134642E-01  mag=    -0.0000
       N       E                     dE             d eps       ncg     rms          rms(c)
DAV:   1    -0.120974220957E+03   -0.87201E-04   -0.45161E-01  2800   0.143E+00    0.875E-02
DAV:   2    -0.120975434669E+03   -0.12137E-02   -0.12196E-02  4208   0.658E-01    0.134E-01
DAV:   3    -0.120975296161E+03    0.13851E-03   -0.13742E-03  2432   0.674E-01
  21 F= -.13510000E+03 E0= -.13509201E+03  d E =-.141429E-01  mag=    -0.0000
       N       E                     dE             d eps       ncg     rms          rms(c)
DAV:   1    -0.120977834984E+03   -0.24003E-02   -0.15969E+00  2816   0.272E+00    0.111E-01
DAV:   2    -0.120982656004E+03   -0.48210E-02   -0.41681E-02  4464   0.123E+00    0.228E-01
DAV:   3    -0.120982046875E+03    0.60913E-03   -0.77966E-03  3280   0.160E+00    0.164E-01
DAV:   4    -0.120981858136E+03    0.18874E-03   -0.13852E-03  2832   0.594E-01
  22 F= -.13510501E+03 E0= -.13509718E+03  d E =-.500729E-02  mag=    -0.0000
       N       E                     dE             d eps       ncg     rms          rms(c)
DAV:   1    -0.120959557760E+03    0.22489E-01   -0.14439E+01  2816   0.819E+00    0.496E-01
DAV:   2    -0.120995371330E+03   -0.35814E-01   -0.38330E-01  4048   0.320E+00    0.666E-01
DAV:   3    -0.120992933271E+03    0.24381E-02   -0.26967E-02  3248   0.283E+00    0.519E-01
DAV:   4    -0.120993649684E+03   -0.71641E-03   -0.21398E-02  3312   0.224E+00    0.527E-01
DAV:   5    -0.120993433914E+03    0.21577E-03   -0.32396E-02  3312   0.299E+00    0.477E-01
DAV:   6    -0.120990477464E+03    0.29565E-02   -0.20767E-02  5024   0.283E+00    0.292E-01
DAV:   7    -0.120988690140E+03    0.17873E-02   -0.68682E-03  4128   0.203E+00    0.143E-01
DAV:   8    -0.120988757582E+03   -0.67442E-04   -0.28017E-03  3368   0.507E-01    0.111E-01
DAV:   9    -0.120988660240E+03    0.97342E-04   -0.10623E-03  2688   0.433E-01
  23 F= -.13510753E+03 E0= -.13509984E+03  d E =-.753030E-02  mag=    -0.0000
       N       E                     dE             d eps       ncg     rms          rms(c)
DAV:   1    -0.120984656819E+03    0.41008E-02   -0.19241E+00  2816   0.298E+00    0.168E-01
DAV:   2    -0.120989053783E+03   -0.43970E-02   -0.47228E-02  3920   0.110E+00    0.221E-01
DAV:   3    -0.120989032465E+03    0.21318E-04   -0.69149E-03  3224   0.128E+00    0.202E-01
DAV:   4    -0.120988782649E+03    0.24982E-03   -0.34011E-03  2896   0.907E-01    0.160E-01
DAV:   5    -0.120988787187E+03   -0.45386E-05   -0.19588E-03  1936   0.872E-01
  24 F= -.13510916E+03 E0= -.13510127E+03  d E =-.916024E-02  mag=    -0.0000
       N       E                     dE             d eps       ncg     rms          rms(c)
DAV:   1    -0.120992282591E+03   -0.34999E-02   -0.14832E+00  2832   0.285E+00    0.149E-01
DAV:   2    -0.121000972868E+03   -0.86903E-02   -0.53503E-02  5056   0.326E+00    0.431E-01
DAV:   3    -0.120996600828E+03    0.43720E-02   -0.39716E-02  5184   0.308E+00    0.255E-01
DAV:   4    -0.120995658813E+03    0.94201E-03   -0.70020E-03  3120   0.148E+00    0.159E-01
DAV:   5    -0.120995493533E+03    0.16528E-03   -0.20708E-03  3184   0.750E-01    0.100E-01
DAV:   6    -0.120995479683E+03    0.13850E-04   -0.95629E-04  2752   0.384E-01
  25 F= -.13511248E+03 E0= -.13510500E+03  d E =-.332111E-02  mag=    -0.0000
       N       E                     dE             d eps       ncg     rms          rms(c)
DAV:   1    -0.120995555451E+03   -0.61918E-04   -0.24147E+00  2816   0.338E+00    0.169E-01
DAV:   2    -0.121000825298E+03   -0.52698E-02   -0.55795E-02  3968   0.121E+00    0.221E-01
DAV:   3    -0.121001134765E+03   -0.30947E-03   -0.88110E-03  3264   0.148E+00    0.219E-01
DAV:   4    -0.121000526911E+03    0.60785E-03   -0.45986E-03  2896   0.109E+00    0.152E-01
DAV:   5    -0.121000612176E+03   -0.85265E-04   -0.12890E-03  1936   0.758E-01
  26 F= -.13511344E+03 E0= -.13510629E+03  d E =-.428212E-02  mag=    -0.0000
       N       E                     dE             d eps       ncg     rms          rms(c)
DAV:   1    -0.120999061234E+03    0.14657E-02   -0.33401E-01  4080   0.175E+00    0.146E-01
DAV:   2    -0.121009172980E+03   -0.10112E-01   -0.22830E-02  3632   0.396E+00    0.634E-01
DAV:   3    -0.120999062552E+03    0.10110E-01   -0.54484E-03  3280   0.336E+00    0.100E-01
DAV:   4    -0.120999111747E+03   -0.49195E-04   -0.18238E-03  2432   0.791E-01
  27 F= -.13511347E+03 E0= -.13510617E+03  d E =-.430592E-02  mag=    -0.0000
       N       E                     dE             d eps       ncg     rms          rms(c)
DAV:   1    -0.121004544556E+03   -0.54820E-02   -0.14203E+00  2864   0.265E+00    0.983E-02
DAV:   2    -0.121008861707E+03   -0.43172E-02   -0.35534E-02  4672   0.146E+00    0.248E-01
DAV:   3    -0.121007557133E+03    0.13046E-02   -0.99718E-03  3440   0.151E+00    0.130E-01
DAV:   4    -0.121007570566E+03   -0.13433E-04   -0.18577E-03  2864   0.555E-01
  28 F= -.13511683E+03 E0= -.13510980E+03  d E =-.336281E-02  mag=    -0.0000
       N       E                     dE             d eps       ncg     rms          rms(c)
DAV:   1    -0.121011616470E+03   -0.40593E-02   -0.26620E+00  2864   0.355E+00    0.215E-01
DAV:   2    -0.121017941231E+03   -0.63248E-02   -0.61711E-02  4656   0.180E+00    0.337E-01
DAV:   3    -0.121016527072E+03    0.14142E-02   -0.16261E-02  3952   0.195E+00    0.224E-01
DAV:   4    -0.121016275978E+03    0.25109E-03   -0.33709E-03  3120   0.932E-01    0.193E-01
DAV:   5    -0.121016272483E+03    0.34941E-05   -0.27300E-03  3184   0.114E+00    0.170E-01
DAV:   6    -0.121015904814E+03    0.36767E-03   -0.17449E-03  2752   0.966E-01    0.100E-01
DAV:   7    -0.121015741047E+03    0.16377E-03   -0.10381E-03  2832   0.581E-01
  29 F= -.13511813E+03 E0= -.13511143E+03  d E =-.466257E-02  mag=    -0.0000
       N       E                     dE             d eps       ncg     rms          rms(c)
DAV:   1    -0.121023002355E+03   -0.70975E-02   -0.20886E+00  2864   0.313E+00    0.134E-01
DAV:   2    -0.121031019834E+03   -0.80175E-02   -0.55908E-02  4992   0.251E+00    0.417E-01
DAV:   3    -0.121027273555E+03    0.37463E-02   -0.25877E-02  4768   0.242E+00    0.174E-01
DAV:   4    -0.121027028914E+03    0.24464E-03   -0.29575E-03  3024   0.840E-01    0.134E-01
DAV:   5    -0.121027068486E+03   -0.39572E-04   -0.16057E-03  2944   0.453E-01
  30 F= -.13512173E+03 E0= -.13511518E+03  d E =-.359785E-02  mag=    -0.0000
       N       E                     dE             d eps       ncg     rms          rms(c)
DAV:   1    -0.121020036025E+03    0.69929E-02   -0.18804E+01  2864   0.941E+00    0.420E-01
DAV:   2    -0.121080413138E+03   -0.60377E-01   -0.46951E-01  4952   0.626E+00    0.107E+00
DAV:   3    -0.121054893819E+03    0.25519E-01   -0.16383E-01  4664   0.575E+00    0.449E-01
DAV:   4    -0.121055234307E+03   -0.34049E-03   -0.20551E-02  2928   0.108E+00    0.387E-01
DAV:   5    -0.121058649862E+03   -0.34156E-02   -0.12883E-02  3360   0.247E+00    0.507E-01
DAV:   6    -0.121055905696E+03    0.27442E-02   -0.16929E-02  3536   0.290E+00    0.259E-01
DAV:   7    -0.121053376245E+03    0.25295E-02   -0.15165E-02  3696   0.205E+00    0.200E-01
DAV:   8    -0.121053370707E+03    0.55376E-05   -0.36685E-03  3944   0.571E-01    0.187E-01
DAV:   9    -0.121052871707E+03    0.49900E-03   -0.11589E-03  2912   0.525E-01    0.734E-02
DAV:  10    -0.121052814939E+03    0.56768E-04   -0.40848E-04  1888   0.286E-01
  31 F= -.13512447E+03 E0= -.13511859E+03  d E =-.634445E-02  mag=    -0.0000
       N       E                     dE             d eps       ncg     rms          rms(c)
DAV:   1    -0.121062558977E+03   -0.96873E-02   -0.29892E+00  2848   0.372E+00    0.157E-01
DAV:   2    -0.121068934986E+03   -0.63760E-02   -0.62445E-02  4128   0.139E+00    0.253E-01
DAV:   3    -0.121068455934E+03    0.47905E-03   -0.79658E-03  3360   0.138E+00    0.187E-01
DAV:   4    -0.121068490842E+03   -0.34908E-04   -0.41270E-03  2912   0.102E+00    0.177E-01
DAV:   5    -0.121068246606E+03    0.24424E-03   -0.18911E-03  2320   0.749E-01    0.144E-01
DAV:   6    -0.121068064028E+03    0.18258E-03   -0.10612E-03  2448   0.599E-01
  32 F= -.13512822E+03 E0= -.13512264E+03  d E =-.374525E-02  mag=    -0.0000
       N       E                     dE             d eps       ncg     rms          rms(c)
DAV:   1    -0.121074140809E+03   -0.58942E-02   -0.16244E+00  2880   0.283E+00    0.116E-01
DAV:   2    -0.121078463641E+03   -0.43228E-02   -0.37699E-02  4848   0.148E+00    0.247E-01
DAV:   3    -0.121077613679E+03    0.84996E-03   -0.12169E-02  4016   0.166E+00    0.138E-01
DAV:   4    -0.121077478902E+03    0.13478E-03   -0.15090E-03  2752   0.438E-01
  33 F= -.13512921E+03 E0= -.13512350E+03  d E =-.473192E-02  mag=    -0.0000
       N       E                     dE             d eps       ncg     rms          rms(c)
DAV:   1    -0.121081824402E+03   -0.42107E-02   -0.64947E+00  2848   0.550E+00    0.285E-01
DAV:   2    -0.121104310251E+03   -0.22486E-01   -0.16732E-01  5072   0.416E+00    0.699E-01
DAV:   3    -0.121092883157E+03    0.11427E-01   -0.67674E-02  4752   0.385E+00    0.294E-01
DAV:   4    -0.121092915927E+03   -0.32769E-04   -0.77120E-03  3296   0.112E+00    0.264E-01
DAV:   5    -0.121092889548E+03    0.26379E-04   -0.52951E-03  3184   0.135E+00    0.231E-01
DAV:   6    -0.121092520399E+03    0.36915E-03   -0.36669E-03  3488   0.142E+00    0.170E-01
DAV:   7    -0.121091927479E+03    0.59292E-03   -0.20426E-03  3552   0.105E+00    0.395E-02
DAV:   8    -0.121091946717E+03   -0.19238E-04   -0.77726E-04  2208   0.267E-01
  34 F= -.13512691E+03 E0= -.13512130E+03  d E =-.243578E-02  mag=    -0.0000
       N       E                     dE             d eps       ncg     rms          rms(c)
DAV:   1    -0.121077715113E+03    0.14212E-01   -0.30058E+00  2864   0.373E+00    0.167E-01
DAV:   2    -0.121083902348E+03   -0.61872E-02   -0.60270E-02  4272   0.155E+00    0.277E-01
DAV:   3    -0.121083094965E+03    0.80738E-03   -0.67910E-03  3360   0.138E+00    0.169E-01
DAV:   4    -0.121083155529E+03   -0.60564E-04   -0.24339E-03  2944   0.689E-01    0.171E-01
DAV:   5    -0.121083331738E+03   -0.17621E-03   -0.46000E-03  2656   0.113E+00    0.174E-01
DAV:   6    -0.121082850246E+03    0.48149E-03   -0.26877E-03  1856   0.753E-01    0.898E-02
DAV:   7    -0.121082651343E+03    0.19890E-03   -0.98001E-04  2144   0.545E-01
  35 F= -.13512899E+03 E0= -.13512343E+03  d E =-.451873E-02  mag=    -0.0000
       N       E                     dE             d eps       ncg     rms          rms(c)
DAV:   1    -0.121093346154E+03   -0.10496E-01   -0.27462E+00  2896   0.355E+00    0.154E-01
DAV:   2    -0.121102350448E+03   -0.90043E-02   -0.65161E-02  5072   0.265E+00    0.439E-01
DAV:   3    -0.121098325417E+03    0.40250E-02   -0.30150E-02  4736   0.259E+00    0.197E-01
DAV:   4    -0.121098069313E+03    0.25610E-03   -0.36641E-03  3056   0.848E-01    0.155E-01
DAV:   5    -0.121098078416E+03   -0.91028E-05   -0.16870E-03  2976   0.514E-01
  36 F= -.13513312E+03 E0= -.13512735E+03  d E =-.412575E-02  mag=    -0.0000
       N       E                     dE             d eps       ncg     rms          rms(c)
DAV:   1    -0.121091037314E+03    0.70320E-02   -0.24724E+01  2896   0.108E+01    0.458E-01
DAV:   2    -0.121138734939E+03   -0.47698E-01   -0.51268E-01  3856   0.252E+00    0.509E-01
DAV:   3    -0.121139326299E+03   -0.59136E-03   -0.23366E-02  3360   0.234E+00    0.531E-01
DAV:   4    -0.121137637388E+03    0.16889E-02   -0.29369E-02  3376   0.270E+00    0.438E-01
DAV:   5    -0.121134705871E+03    0.29315E-02   -0.12562E-02  2672   0.161E+00    0.297E-01
DAV:   6    -0.121135474205E+03   -0.76833E-03   -0.11260E-02  4576   0.225E+00    0.291E-01
DAV:   7    -0.121133509185E+03    0.19650E-02   -0.68843E-03  4720   0.176E+00    0.142E-01
DAV:   8    -0.121133523116E+03   -0.13930E-04   -0.13461E-03  3024   0.655E-01
  37 F= -.13513492E+03 E0= -.13512915E+03  d E =-.592423E-02  mag=    -0.0000
       N       E                     dE             d eps       ncg     rms          rms(c)
DAV:   1    -0.121115324366E+03    0.18185E-01   -0.36444E+00  2912   0.413E+00    0.176E-01
DAV:   2    -0.121128383104E+03   -0.13059E-01   -0.95598E-02  5040   0.328E+00    0.542E-01
DAV:   3    -0.121122147657E+03    0.62354E-02   -0.42920E-02  5024   0.313E+00    0.217E-01
DAV:   4    -0.121121788511E+03    0.35915E-03   -0.38917E-03  3240   0.917E-01    0.177E-01
DAV:   5    -0.121121824523E+03   -0.36012E-04   -0.22538E-03  3008   0.634E-01    0.164E-01
DAV:   6    -0.121121771921E+03    0.52602E-04   -0.14943E-03  3000   0.676E-01
  38 F= -.13513605E+03 E0= -.13513029E+03  d E =-.705966E-02  mag=    -0.0000
       N       E                     dE             d eps       ncg     rms          rms(c)
DAV:   1    -0.121110545178E+03    0.11279E-01   -0.13550E+00  2944   0.266E+00    0.121E-01
DAV:   2    -0.121120151544E+03   -0.96064E-02   -0.54084E-02  5136   0.307E+00    0.526E-01
DAV:   3    -0.121112924601E+03    0.72269E-02   -0.40768E-02  5088   0.295E+00    0.114E-01
DAV:   4    -0.121113124358E+03   -0.19976E-03   -0.32930E-03  3200   0.668E-01    0.116E-01
DAV:   5    -0.121113115856E+03    0.85022E-05   -0.13846E-03  2928   0.618E-01
  39 F= -.13513530E+03 E0= -.13512949E+03  d E =-.630353E-02  mag=    -0.0000
       N       E                     dE             d eps       ncg     rms          rms(c)
DAV:   1    -0.121115262544E+03   -0.21382E-02   -0.91910E-02  3960   0.873E-01    0.788E-02
DAV:   2    -0.121115870616E+03   -0.60807E-03   -0.29311E-03  3296   0.142E+00    0.164E-01
DAV:   3    -0.121115860433E+03    0.10182E-04   -0.55630E-03  2224   0.147E+00    0.157E-01
DAV:   4    -0.121115270895E+03    0.58954E-03   -0.27617E-03  1888   0.841E-01    0.467E-02
DAV:   5    -0.121115233059E+03    0.37835E-04   -0.25557E-04  1712   0.293E-01
  40 F= -.13513540E+03 E0= -.13512967E+03  d E =-.640217E-02  mag=    -0.0000
       N       E                     dE             d eps       ncg     rms          rms(c)
DAV:   1    -0.121118091807E+03   -0.28209E-02   -0.19031E-01  2896   0.940E-01    0.448E-02
DAV:   2    -0.121118522707E+03   -0.43090E-03   -0.38232E-03  3904   0.511E-01    0.910E-02
DAV:   3    -0.121118417351E+03    0.10536E-03   -0.14568E-03  2160   0.556E-01
  41 F= -.13513564E+03 E0= -.13512991E+03  d E =-.664413E-02  mag=    -0.0000
       N       E                     dE             d eps       ncg     rms          rms(c)
DAV:   1    -0.121125654090E+03   -0.71314E-02   -0.76998E-01  2976   0.188E+00    0.897E-02
DAV:   2    -0.121127211042E+03   -0.15570E-02   -0.15207E-02  4448   0.815E-01    0.147E-01
DAV:   3    -0.121127014319E+03    0.19672E-03   -0.30157E-03  2816   0.872E-01    0.103E-01
DAV:   4    -0.121127002529E+03    0.11790E-04   -0.15284E-03  2320   0.628E-01
  42 F= -.13513889E+03 E0= -.13513317E+03  d E =-.325012E-02  mag=    -0.0000
       N       E                     dE             d eps       ncg     rms          rms(c)
DAV:   1    -0.121137498701E+03   -0.10484E-01   -0.69301E+00  2976   0.561E+00    0.234E-01
DAV:   2    -0.121151410165E+03   -0.13911E-01   -0.13663E-01  4368   0.219E+00    0.408E-01
DAV:   3    -0.121150133081E+03    0.12771E-02   -0.26710E-02  3296   0.242E+00    0.283E-01
DAV:   4    -0.121149608310E+03    0.52477E-03   -0.54294E-03  3176   0.111E+00    0.221E-01
DAV:   5    -0.121149759087E+03   -0.15078E-03   -0.26173E-03  3136   0.100E+00    0.231E-01
DAV:   6    -0.121149536647E+03    0.22244E-03   -0.44424E-03  3216   0.150E+00    0.189E-01
DAV:   7    -0.121148864205E+03    0.67244E-03   -0.27411E-03  3712   0.963E-01    0.481E-02
DAV:   8    -0.121148865668E+03   -0.14638E-05   -0.51607E-04  1904   0.373E-01
  43 F= -.13514480E+03 E0= -.13513905E+03  d E =-.916378E-02  mag=    -0.0000
       N       E                     dE             d eps       ncg     rms          rms(c)
DAV:   1    -0.121126799094E+03    0.22065E-01   -0.27751E+01  2976   0.113E+01    0.418E-01
DAV:   2    -0.121193784605E+03   -0.66986E-01   -0.60513E-01  4720   0.537E+00    0.953E-01
DAV:   3    -0.121182213480E+03    0.11571E-01   -0.16524E-01  4000   0.580E+00    0.520E-01
DAV:   4    -0.121179341245E+03    0.28722E-02   -0.22857E-02  3280   0.209E+00    0.397E-01
DAV:   5    -0.121180777653E+03   -0.14364E-02   -0.11286E-02  3312   0.197E+00    0.432E-01
DAV:   6    -0.121178902758E+03    0.18749E-02   -0.13413E-02  3296   0.219E+00    0.313E-01
DAV:   7    -0.121177977118E+03    0.92564E-03   -0.11989E-02  3760   0.201E+00    0.207E-01
DAV:   8    -0.121177873947E+03    0.10317E-03   -0.41293E-03  4272   0.940E-01    0.156E-01
DAV:   9    -0.121177559060E+03    0.31489E-03   -0.15337E-03  3024   0.740E-01    0.565E-02
DAV:  10    -0.121177493086E+03    0.65974E-04   -0.59144E-04  1824   0.337E-01
  44 F= -.13514176E+03 E0= -.13513586E+03  d E =-.612093E-02  mag=    -0.0000
       N       E                     dE             d eps       ncg     rms          rms(c)
DAV:   1    -0.121137068251E+03    0.40491E-01   -0.13432E+01  2992   0.778E+00    0.313E-01
DAV:   2    -0.121164119837E+03   -0.27052E-01   -0.26816E-01  4320   0.326E+00    0.564E-01
DAV:   3    -0.121164228869E+03   -0.10903E-03   -0.67757E-02  3392   0.406E+00    0.486E-01
DAV:   4    -0.121160891505E+03    0.33374E-02   -0.24510E-02  3184   0.242E+00    0.283E-01
DAV:   5    -0.121160948257E+03   -0.56752E-04   -0.58113E-03  3584   0.131E+00    0.290E-01
DAV:   6    -0.121160421921E+03    0.52634E-03   -0.51297E-03  3312   0.144E+00    0.239E-01
DAV:   7    -0.121159799461E+03    0.62246E-03   -0.40837E-03  3808   0.934E-01    0.904E-02
DAV:   8    -0.121159792685E+03    0.67757E-05   -0.14881E-03  2992   0.685E-01
  45 F= -.13514607E+03 E0= -.13514010E+03  d E =-.104325E-01  mag=    -0.0000
       N       E                     dE             d eps       ncg     rms          rms(c)
DAV:   1    -0.121165796722E+03   -0.59973E-02   -0.17993E+00  2992   0.284E+00    0.132E-01
DAV:   2    -0.121173108351E+03   -0.73116E-02   -0.49366E-02  5152   0.257E+00    0.444E-01
DAV:   3    -0.121168620907E+03    0.44874E-02   -0.27334E-02  4800   0.239E+00    0.131E-01
DAV:   4    -0.121168659117E+03   -0.38210E-04   -0.21304E-03  2976   0.554E-01    0.126E-01
DAV:   5    -0.121168716048E+03   -0.56931E-04   -0.15170E-03  2960   0.675E-01
  46 F= -.13514798E+03 E0= -.13514198E+03  d E =-.190979E-02  mag=    -0.0000
       N       E                     dE             d eps       ncg     rms          rms(c)
DAV:   1    -0.121168996629E+03   -0.33751E-03   -0.79232E-03  4160   0.561E-01    0.881E-02
DAV:   2    -0.121169345829E+03   -0.34920E-03   -0.21345E-03  3024   0.121E+00    0.152E-01
DAV:   3    -0.121169120350E+03    0.22548E-03   -0.21584E-03  2512   0.106E+00    0.102E-01
DAV:   4    -0.121168971274E+03    0.14908E-03   -0.18182E-03  1872   0.707E-01
  47 F= -.13514779E+03 E0= -.13514196E+03  d E =-.172343E-02  mag=    -0.0000
       N       E                     dE             d eps       ncg     rms          rms(c)
DAV:   1    -0.121168558338E+03    0.56201E-03   -0.52729E-03  3824   0.386E-01    0.222E-02
DAV:   2    -0.121168893223E+03   -0.33488E-03   -0.82968E-04  1968   0.684E-01    0.112E-01
DAV:   3    -0.121168586165E+03    0.30706E-03   -0.89458E-04  1824   0.621E-01    0.344E-02
DAV:   4    -0.121168564048E+03    0.22117E-04   -0.22069E-04  1776   0.230E-01
  48 F= -.13514776E+03 E0= -.13514188E+03  d E =-.168691E-02  mag=    -0.0000
       N       E                     dE             d eps       ncg     rms          rms(c)
DAV:   1    -0.121173297889E+03   -0.47117E-02   -0.13555E+00  3040   0.246E+00    0.809E-02
DAV:   2    -0.121175745701E+03   -0.24478E-02   -0.24502E-02  4048   0.793E-01    0.136E-01
DAV:   3    -0.121175710225E+03    0.35475E-04   -0.35773E-03  2960   0.893E-01    0.103E-01
DAV:   4    -0.121175605491E+03    0.10473E-03   -0.90889E-04  1856   0.458E-01
  49 F= -.13514882E+03 E0= -.13514294E+03  d E =-.106439E-02  mag=    -0.0000
       N       E                     dE             d eps       ncg     rms          rms(c)
DAV:   1    -0.121175885573E+03   -0.17535E-03   -0.24270E-03  3344   0.445E-01    0.917E-02
DAV:   2    -0.121178898620E+03   -0.30130E-02   -0.75141E-03  3152   0.213E+00    0.347E-01
DAV:   3    -0.121175805225E+03    0.30934E-02   -0.60516E-03  2320   0.184E+00    0.545E-02
DAV:   4    -0.121175993239E+03   -0.18801E-03   -0.19247E-03  1840   0.688E-01
  50 F= -.13514896E+03 E0= -.13514308E+03  d E =-.120530E-02  mag=    -0.0000
       N       E                     dE             d eps       ncg     rms          rms(c)
DAV:   1    -0.121175408634E+03    0.39659E-03   -0.13154E-03  2176   0.547E-01    0.373E-02
DAV:   2    -0.121175640156E+03   -0.23152E-03   -0.11059E-03  2368   0.573E-01    0.948E-02
DAV:   3    -0.121175595843E+03    0.44313E-04   -0.17593E-03  2224   0.670E-01
  51 F= -.13514880E+03 E0= -.13514293E+03  d E =-.104165E-02  mag=    -0.0000
       N       E                     dE             d eps       ncg     rms          rms(c)
DAV:   1    -0.121175692863E+03   -0.52707E-04   -0.94104E-04  1936   0.504E-01    0.415E-02
DAV:   2    -0.121181041608E+03   -0.53487E-02   -0.23120E-02  2080   0.248E+00    0.429E-01
DAV:   3    -0.121175706674E+03    0.53349E-02   -0.21121E-02  1904   0.220E+00    0.525E-02
DAV:   4    -0.121175657504E+03    0.49171E-04   -0.25394E-04  1696   0.327E-01
  52 F= -.13514870E+03 E0= -.13514286E+03  d E =-.947834E-03  mag=    -0.0000
       N       E                     dE             d eps       ncg     rms          rms(c)
DAV:   1    -0.121175614690E+03    0.91985E-04   -0.14480E-04  1856   0.113E-01    0.133E-02
DAV:   2    -0.121175700641E+03   -0.85952E-04   -0.40299E-04  1824   0.347E-01
  53 F= -.13514883E+03 E0= -.13514297E+03  d E =-.106871E-02  mag=    -0.0000
       N       E                     dE             d eps       ncg     rms          rms(c)
DAV:   1    -0.121176095948E+03   -0.48126E-03   -0.89044E-02  3568   0.719E-01    0.609E-02
DAV:   2    -0.121176320420E+03   -0.22447E-03   -0.19030E-03  2672   0.493E-01    0.896E-02
DAV:   3    -0.121176264666E+03    0.55754E-04   -0.18770E-03  2064   0.678E-01
  54 F= -.13514926E+03 E0= -.13514334E+03  d E =-.433922E-03  mag=    -0.0000
       N       E                     dE             d eps       ncg     rms          rms(c)
DAV:   1    -0.121176248860E+03    0.71560E-04   -0.83410E-03  4160   0.504E-01    0.431E-02
DAV:   2    -0.121177165247E+03   -0.91639E-03   -0.26124E-03  2064   0.115E+00    0.189E-01
DAV:   3    -0.121176428028E+03    0.73722E-03   -0.43107E-03  1872   0.116E+00    0.884E-02
DAV:   4    -0.121176248569E+03    0.17946E-03   -0.11994E-03  1856   0.571E-01
  55 F= -.13514927E+03 E0= -.13514337E+03  d E =-.448294E-03  mag=    -0.0000
       N       E                     dE             d eps       ncg     rms          rms(c)
DAV:   1    -0.121176209981E+03    0.21805E-03   -0.29257E-04  1760   0.181E-01    0.146E-02
DAV:   2    -0.121176270946E+03   -0.60965E-04   -0.32437E-04  1808   0.278E-01
  56 F= -.13514929E+03 E0= -.13514336E+03  d E =-.461454E-03  mag=    -0.0000
       N       E                     dE             d eps       ncg     rms          rms(c)
DAV:   1    -0.121176250768E+03   -0.40787E-04   -0.50805E-04  1824   0.339E-01    0.249E-02
DAV:   2    -0.121177119735E+03   -0.86897E-03   -0.38650E-03  1928   0.104E+00    0.173E-01
DAV:   3    -0.121176255683E+03    0.86405E-03   -0.40130E-03  1824   0.989E-01    0.260E-02
DAV:   4    -0.121176249220E+03    0.64628E-05   -0.96459E-05  1696   0.197E-01
  57 F= -.13514927E+03 E0= -.13514344E+03  d E =-.446988E-03  mag=    -0.0000
       N       E                     dE             d eps       ncg     rms          rms(c)
DAV:   1    -0.121176245385E+03    0.10298E-04   -0.39135E-05  1776   0.928E-02    0.491E-03
DAV:   2    -0.121176248812E+03   -0.34272E-05   -0.25564E-05  1456   0.688E-02
  58 F= -.13514927E+03 E0= -.13514340E+03  d E =-.443702E-03  mag=    -0.0000
       N       E                     dE             d eps       ncg     rms          rms(c)
DAV:   1    -0.121176250926E+03   -0.55415E-05   -0.54979E-05  1440   0.109E-01    0.128E-02
DAV:   2    -0.121176579223E+03   -0.32830E-03   -0.14955E-03  1872   0.629E-01    0.108E-01
DAV:   3    -0.121176247323E+03    0.33190E-03   -0.14139E-03  1808   0.591E-01    0.699E-03
DAV:   4    -0.121176249498E+03   -0.21751E-05   -0.85716E-06  1680   0.549E-02
  59 F= -.13514927E+03 E0= -.13514341E+03  d E =-.446124E-03  mag=    -0.0000
       N       E                     dE             d eps       ncg     rms          rms(c)
DAV:   1    -0.121176530219E+03   -0.28290E-03   -0.88901E-02  3040   0.638E-01    0.206E-02
DAV:   2    -0.121176698063E+03   -0.16784E-03   -0.13020E-03  2848   0.352E-01
  60 F= -.13514960E+03 E0= -.13514371E+03  d E =-.331030E-03  mag=    -0.0000
       N       E                     dE             d eps       ncg     rms          rms(c)
DAV:   1    -0.121176682037E+03   -0.15182E-03   -0.20423E-03  3184   0.428E-01    0.260E-02
DAV:   2    -0.121177782749E+03   -0.11007E-02   -0.51221E-03  1936   0.118E+00    0.197E-01
DAV:   3    -0.121176676006E+03    0.11067E-02   -0.44990E-03  1872   0.105E+00    0.191E-02
DAV:   4    -0.121176696946E+03   -0.20940E-04   -0.18325E-04  1712   0.174E-01
  61 F= -.13514959E+03 E0= -.13514367E+03  d E =-.316861E-03  mag=    -0.0000
       N       E                     dE             d eps       ncg     rms          rms(c)
DAV:   1    -0.121176651405E+03    0.24600E-04   -0.30445E-04  1744   0.161E-01    0.241E-02
DAV:   2    -0.121176829363E+03   -0.17796E-03   -0.85427E-04  1840   0.487E-01
  62 F= -.13514973E+03 E0= -.13514380E+03  d E =-.460883E-03  mag=    -0.0000
       N       E                     dE             d eps       ncg     rms          rms(c)
DAV:   1    -0.121176729166E+03   -0.77761E-04   -0.11496E-03  1840   0.552E-01    0.342E-02
DAV:   2    -0.121179920737E+03   -0.31916E-02   -0.14374E-02  1936   0.197E+00    0.324E-01
DAV:   3    -0.121176717727E+03    0.32030E-02   -0.12727E-02  1856   0.175E+00    0.359E-02
DAV:   4    -0.121176710741E+03    0.69866E-05   -0.15105E-04  1680   0.270E-01
  63 F= -.13514961E+03 E0= -.13514368E+03  d E =-.333497E-03  mag=    -0.0000
       N       E                     dE             d eps       ncg     rms          rms(c)
DAV:   1    -0.121176695706E+03    0.22021E-04   -0.36475E-05  1776   0.116E-01    0.803E-03
DAV:   2    -0.121176703396E+03   -0.76898E-05   -0.43314E-05  1728   0.134E-01
  64 F= -.13514960E+03 E0= -.13514373E+03  d E =-.330533E-03  mag=    -0.0000
       N       E                     dE             d eps       ncg     rms          rms(c)
DAV:   1    -0.121176710660E+03   -0.14954E-04   -0.66449E-05  1568   0.132E-01    0.151E-02
DAV:   2    -0.121177291367E+03   -0.58071E-03   -0.26282E-03  1872   0.846E-01    0.141E-01
DAV:   3    -0.121176707154E+03    0.58421E-03   -0.23813E-03  1872   0.767E-01    0.134E-02
DAV:   4    -0.121176708427E+03   -0.12724E-05   -0.22320E-05  1680   0.956E-02
  65 F= -.13514960E+03 E0= -.13514372E+03  d E =-.332682E-03  mag=    -0.0000
       N       E                     dE             d eps       ncg     rms          rms(c)
DAV:   1    -0.121176709782E+03   -0.26278E-05   -0.23679E-05  1600   0.474E-02    0.417E-03
DAV:   2    -0.121176717627E+03   -0.78451E-05   -0.42854E-05  1552   0.988E-02
  66 F= -.13514961E+03 E0= -.13514373E+03  d E =-.341679E-03  mag=    -0.0000
       N       E                     dE             d eps       ncg     rms          rms(c)
DAV:   1    -0.121176712885E+03   -0.31032E-05   -0.56316E-05  1488   0.117E-01    0.660E-03
DAV:   2    -0.121176817294E+03   -0.10441E-03   -0.47235E-04  1664   0.363E-01
  67 F= -.13514971E+03 E0= -.13514380E+03  d E =-.440698E-03  mag=    -0.0000
       N       E                     dE             d eps       ncg     rms          rms(c)
DAV:   1    -0.121176829325E+03   -0.11644E-03   -0.50508E-03  3968   0.369E-01    0.170E-02
DAV:   2    -0.121176862999E+03   -0.33674E-04   -0.29555E-04  1968   0.143E-01
  68 F= -.13514964E+03 E0= -.13514376E+03  d E =0.697357E-04  mag=    -0.0000
       N       E                     dE             d eps       ncg     rms          rms(c)
DAV:   1    -0.121176777922E+03    0.51402E-04   -0.41815E-04  1872   0.207E-01    0.242E-02
DAV:   2    -0.121177498782E+03   -0.72086E-03   -0.33549E-03  1888   0.996E-01    0.162E-01
DAV:   3    -0.121176786516E+03    0.71227E-03   -0.33161E-03  1840   0.902E-01    0.171E-02
DAV:   4    -0.121176789822E+03   -0.33057E-05   -0.12203E-04  1648   0.119E-01
  69 F= -.13514961E+03 E0= -.13514373E+03  d E =0.995591E-04  mag=    -0.0000
       N       E                     dE             d eps       ncg     rms          rms(c)
DAV:   1    -0.121176849182E+03   -0.62666E-04   -0.17885E-04  1712   0.828E-02    0.107E-02
DAV:   2    -0.121176976907E+03   -0.12772E-03   -0.57693E-04  1808   0.406E-01
  70 F= -.13514977E+03 E0= -.13514388E+03  d E =-.539697E-04  mag=    -0.0000
