<?xml version="1.0" encoding="ISO-8859-1"?>
<modeling>
 <generator>
  <i name="program" type="string">vasp </i>
  <i name="version" type="string">6.3.2  </i>
  <i name="subversion" type="string">27Jun22 (build Aug 17 2022 15:43:34) complex                          parallel </i>
  <i name="platform" type="string">tv2STDVTST </i>
  <i name="date" type="string">2025 02 17 </i>
  <i name="time" type="string">21:52:40 </i>
 </generator>
 <incar>
  <i type="int" name="ISTART">     0</i>
  <i type="string" name="PREC">Normal</i>
  <i type="int" name="ISPIN">     2</i>
  <i type="int" name="ICHARG">     2</i>
  <i type="int" name="IBRION">     2</i>
  <i name="EDIFF">      0.00020000</i>
  <i name="EDIFFG">     -0.03000000</i>
  <i type="int" name="NSW">   800</i>
  <i type="int" name="ISIF">     2</i>
  <i type="int" name="ISYM">     1</i>
  <i name="ENCUT">    400.00000000</i>
  <i name="POTIM">      0.50000000</i>
  <i type="logical" name="LREAL"> F  </i>
  <i type="int" name="ISMEAR">     1</i>
  <i name="SIGMA">      0.20000000</i>
  <i type="logical" name="LWAVE"> F  </i>
  <i type="logical" name="LCHARG"> F  </i>
  <i type="string" name="GGA">PE</i>
  <i type="int" name="IVDW">    11</i>
 </incar>
 <primitive_cell>
  <structure name="primitive_cell" >
   <crystal>
    <varray name="basis" >
     <v>       5.13359547       0.00000000       0.00000000 </v>
     <v>       2.56679773       4.44582409       0.00000000 </v>
     <v>       0.00000000       0.00000000      29.67047119 </v>
    </varray>
    <i name="volume">    677.17101477 </i>
    <varray name="rec_basis" >
     <v>       0.19479525      -0.11246509       0.00000000 </v>
     <v>       0.00000000       0.22493018       0.00000000 </v>
     <v>       0.00000000       0.00000000       0.03370354 </v>
    </varray>
   </crystal>
   <varray name="positions" >
    <v>       0.00000000       0.00000000       0.00000000 </v>
    <v>       1.00000000       0.50000000       0.00000000 </v>
    <v>       0.50000000       0.00000000       0.00000000 </v>
    <v>       0.50000000       0.50000000       0.00000000 </v>
    <v>       0.16666667       0.16666667       0.07063526 </v>
    <v>       0.16666667       0.66666667       0.07063526 </v>
    <v>       0.66666667       0.16666667       0.07063526 </v>
    <v>       0.66666667       0.66666667       0.07063526 </v>
    <v>       0.33333333       0.33333333       0.13847021 </v>
    <v>       0.33333333       0.83333333       0.13847021 </v>
    <v>       0.83333333       0.33333333       0.13847021 </v>
    <v>       0.83333333       0.83333333       0.13847021 </v>
    <v>       0.00000000       0.00000000       0.20667428 </v>
    <v>       1.00000000       0.50000000       0.20667428 </v>
    <v>       0.50000000       0.00000000       0.20667428 </v>
    <v>       0.50000000       0.50000000       0.20667428 </v>
    <v>       0.16666667       0.16666667       0.27488859 </v>
    <v>       0.16666667       0.66666667       0.27488859 </v>
    <v>       0.66666667       0.16666667       0.27488859 </v>
    <v>       0.66666667       0.66666667       0.27488859 </v>
    <v>       0.33333333       0.33333333       0.34319917 </v>
    <v>       0.33333333       0.83333333       0.34319917 </v>
    <v>       0.83333333       0.33333333       0.34319917 </v>
    <v>       0.83333333       0.83333333       0.34319917 </v>
    <v>       0.00000000       0.00000000       0.41105828 </v>
    <v>       1.00000000       0.50000000       0.41105828 </v>
    <v>       0.50000000       0.00000000       0.41105828 </v>
    <v>       0.50000000       0.50000000       0.41105828 </v>
    <v>       0.16666667       0.16666667       0.48054462 </v>
    <v>       0.16666667       0.66666667       0.48054462 </v>
    <v>       0.66666667       0.16666667       0.48054462 </v>
    <v>       0.66666667       0.66666667       0.48054462 </v>
    <v>       0.66666667       0.66666667       0.53425930 </v>
    <v>       0.66666667       0.66666667       0.55940215 </v>
   </varray>
  </structure>
  <varray name="primitive_index" >
   <v type="int" >        1 </v>
   <v type="int" >        2 </v>
   <v type="int" >        3 </v>
   <v type="int" >        4 </v>
   <v type="int" >        5 </v>
   <v type="int" >        6 </v>
   <v type="int" >        7 </v>
   <v type="int" >        8 </v>
   <v type="int" >        9 </v>
   <v type="int" >       10 </v>
   <v type="int" >       11 </v>
   <v type="int" >       12 </v>
   <v type="int" >       13 </v>
   <v type="int" >       14 </v>
   <v type="int" >       15 </v>
   <v type="int" >       16 </v>
   <v type="int" >       17 </v>
   <v type="int" >       18 </v>
   <v type="int" >       19 </v>
   <v type="int" >       20 </v>
   <v type="int" >       21 </v>
   <v type="int" >       22 </v>
   <v type="int" >       23 </v>
   <v type="int" >       24 </v>
   <v type="int" >       25 </v>
   <v type="int" >       26 </v>
   <v type="int" >       27 </v>
   <v type="int" >       28 </v>
   <v type="int" >       29 </v>
   <v type="int" >       30 </v>
   <v type="int" >       31 </v>
   <v type="int" >       32 </v>
   <v type="int" >       33 </v>
   <v type="int" >       34 </v>
  </varray>
 </primitive_cell>
 <kpoints>
  <generation param="Monkhorst-Pack">
   <v type="int" name="divisions">       3        3        1 </v>
   <v name="usershift">      0.00000000       0.00000000       0.00000000 </v>
   <v name="genvec1">      0.33333333       0.00000000       0.00000000 </v>
   <v name="genvec2">      0.00000000       0.33333333       0.00000000 </v>
   <v name="genvec3">      0.00000000       0.00000000       1.00000000 </v>
   <v name="shift">      0.00000000       0.00000000       0.00000000 </v>
  </generation>
  <varray name="kpointlist" >
   <v>       0.00000000       0.00000000       0.00000000 </v>
   <v>       0.33333333       0.00000000       0.00000000 </v>
   <v>      -0.33333333       0.33333333       0.00000000 </v>
  </varray>
  <varray name="weights" >
   <v>       0.11111111 </v>
   <v>       0.66666667 </v>
   <v>       0.22222222 </v>
  </varray>
 </kpoints>
 <parameters>
  <separator name="general" >
   <i type="string" name="SYSTEM">unknown system</i>
   <i type="logical" name="LCOMPAT"> F  </i>
  </separator>
  <separator name="electronic" >
   <i type="string" name="PREC">normal</i>
   <i name="ENMAX">    400.00000000</i>
   <i name="ENAUG">    586.98000000</i>
   <i name="EDIFF">      0.00020000</i>
   <i type="int" name="IALGO">    38</i>
   <i type="int" name="IWAVPR">    11</i>
   <i type="int" name="NBANDS">   232</i>
   <i type="int" name="NBANDSLOW">    -1</i>
   <i type="int" name="NBANDSHIGH">    -1</i>
   <i name="NELECT">    354.00000000</i>
   <i type="int" name="TURBO">     0</i>
   <i type="int" name="IRESTART">     0</i>
   <i type="int" name="NREBOOT">     0</i>
   <i type="int" name="NMIN">     0</i>
   <i name="EREF">      0.00000000</i>
   <separator name="electronic smearing" >
    <i type="int" name="ISMEAR">     1</i>
    <i name="SIGMA">      0.20000000</i>
    <i name="KSPACING">      0.50000000</i>
    <i type="logical" name="KGAMMA"> T  </i>
    <i type="logical" name="KBLOWUP"> T  </i>
   </separator>
   <separator name="electronic projectors" >
    <i type="logical" name="LREAL"> F  </i>
    <v name="ROPT">      0.00000000      0.00000000</v>
    <i type="int" name="LMAXPAW">  -100</i>
    <i type="int" name="LMAXMIX">     2</i>
    <i type="logical" name="NLSPLINE"> F  </i>
   </separator>
   <separator name="electronic startup" >
    <i type="int" name="ISTART">     0</i>
    <i type="int" name="ICHARG">     2</i>
    <i type="int" name="INIWAV">     1</i>
   </separator>
   <separator name="electronic spin" >
    <i type="int" name="ISPIN">     2</i>
    <i type="logical" name="LNONCOLLINEAR"> F  </i>
    <v name="MAGMOM">      1.00000000      1.00000000      1.00000000      1.00000000      1.00000000      1.00000000      1.00000000      1.00000000      1.00000000      1.00000000      1.00000000      1.00000000      1.00000000      1.00000000      1.00000000      1.00000000      1.00000000      1.00000000      1.00000000      1.00000000
      1.00000000      1.00000000      1.00000000      1.00000000      1.00000000      1.00000000      1.00000000      1.00000000      1.00000000      1.00000000      1.00000000      1.00000000      1.00000000      1.00000000</v>
    <i name="NUPDOWN">     -1.00000000</i>
    <i type="logical" name="LSORBIT"> F  </i>
    <v name="SAXIS">      0.00000000      0.00000000      1.00000000</v>
    <i type="logical" name="LSPIRAL"> F  </i>
    <v name="QSPIRAL">      0.00000000      0.00000000      0.00000000</v>
    <i type="logical" name="LZEROZ"> F  </i>
   </separator>
   <separator name="electronic exchange-correlation" >
    <i type="logical" name="LASPH"> F  </i>
    <i type="logical" name="LMETAGGA"> F  </i>
   </separator>
   <separator name="electronic convergence" >
    <i type="int" name="NELM">    60</i>
    <i type="int" name="NELMDL">    -5</i>
    <i type="int" name="NELMIN">     2</i>
    <i name="ENINI">    400.00000000</i>
    <separator name="electronic convergence detail" >
     <i type="logical" name="LDIAG"> T  </i>
     <i type="logical" name="LSUBROT"> F  </i>
     <i name="WEIMIN">      0.00100000</i>
     <i name="EBREAK">      0.00000022</i>
     <i name="DEPER">      0.30000000</i>
     <i type="int" name="NRMM">     4</i>
     <i name="TIME">      0.40000000</i>
    </separator>
   </separator>
   <separator name="electronic mixer" >
    <i name="AMIX">      0.40000000</i>
    <i name="BMIX">      1.00000000</i>
    <i name="AMIN">      0.10000000</i>
    <i name="AMIX_MAG">      1.60000000</i>
    <i name="BMIX_MAG">      1.00000000</i>
    <separator name="electronic mixer details" >
     <i type="int" name="IMIX">     4</i>
     <i type="logical" name="MIXFIRST"> F  </i>
     <i type="int" name="MAXMIX">   -45</i>
     <i name="WC">    100.00000000</i>
     <i type="int" name="INIMIX">     1</i>
     <i type="int" name="MIXPRE">     1</i>
     <i type="int" name="MREMOVE">     5</i>
    </separator>
   </separator>
   <separator name="electronic dipolcorrection" >
    <i type="logical" name="LDIPOL"> F  </i>
    <i type="logical" name="LMONO"> F  </i>
    <i type="int" name="IDIPOL">     0</i>
    <i name="EPSILON">      1.00000000</i>
    <v name="DIPOL">   -100.00000000   -100.00000000   -100.00000000</v>
    <i name="EFIELD">      0.00000000</i>
   </separator>
  </separator>
  <separator name="grids" >
   <i type="int" name="NGX">    28</i>
   <i type="int" name="NGY">    28</i>
   <i type="int" name="NGZ">   150</i>
   <i type="int" name="NGXF">    56</i>
   <i type="int" name="NGYF">    56</i>
   <i type="int" name="NGZF">   300</i>
   <i type="logical" name="ADDGRID"> F  </i>
  </separator>
  <separator name="ionic" >
   <i type="int" name="NSW">   800</i>
   <i type="int" name="IBRION">     2</i>
   <i type="int" name="MDALGO">     0</i>
   <i type="int" name="ISIF">     2</i>
   <i name="PSTRESS">      0.00000000</i>
   <i name="EDIFFG">     -0.03000000</i>
   <i type="int" name="NFREE">     1</i>
   <i name="POTIM">      0.50000000</i>
   <i name="SMASS">     -3.00000000</i>
   <i name="SCALEE">      1.00000000</i>
  </separator>
  <separator name="ionic md" >
   <i name="TEBEG">      0.00010000</i>
   <i name="TEEND">      0.00010000</i>
   <i type="int" name="NBLOCK">     1</i>
   <i type="int" name="KBLOCK">   800</i>
   <i type="int" name="NPACO">   256</i>
   <i name="APACO">     10.00000000</i>
  </separator>
  <separator name="symmetry" >
   <i type="int" name="ISYM">     1</i>
   <i name="SYMPREC">      0.00001000</i>
  </separator>
  <separator name="dos" >
   <i type="int" name="LORBIT">     0</i>
   <v name="RWIGS">     -1.00000000     -1.00000000</v>
   <i type="int" name="NEDOS">   301</i>
   <i name="EMIN">     10.00000000</i>
   <i name="EMAX">    -10.00000000</i>
   <i name="EFERMI">      0.00000000</i>
  </separator>
  <separator name="writing" >
   <i type="int" name="NWRITE">     2</i>
   <i type="logical" name="LWAVE"> F  </i>
   <i type="logical" name="LDOWNSAMPLE"> F  </i>
   <i type="logical" name="LCHARG"> F  </i>
   <i type="logical" name="LPARD"> F  </i>
   <i type="logical" name="LVTOT"> F  </i>
   <i type="logical" name="LVHAR"> F  </i>
   <i type="logical" name="LELF"> F  </i>
   <i type="logical" name="LOPTICS"> F  </i>
   <v name="STM">      0.00000000      0.00000000      0.00000000      0.00000000      0.00000000      0.00000000      0.00000000</v>
  </separator>
  <separator name="performance" >
   <i type="int" name="NPAR">     4</i>
   <i type="int" name="NSIM">     4</i>
   <i type="int" name="NBLK">    -1</i>
   <i type="logical" name="LPLANE"> T  </i>
   <i type="logical" name="LSCALAPACK"> T  </i>
   <i type="logical" name="LSCAAWARE"> F  </i>
   <i type="logical" name="LSCALU"> F  </i>
   <i type="logical" name="LASYNC"> F  </i>
   <i type="logical" name="LORBITALREAL"> F  </i>
  </separator>
  <separator name="miscellaneous" >
   <i type="int" name="IDIOT">     3</i>
   <i type="int" name="PHON_NSTRUCT">    -1</i>
   <i type="logical" name="LMUSIC"> F  </i>
   <v name="POMASS">     63.54600000      1.00000000</v>
   <v name="DARWINR">      0.00000000      0.00000000</v>
   <v name="DARWINV">      1.00000000      1.00000000</v>
   <i type="logical" name="LCORR"> T  </i>
  </separator>
  <i type="logical" name="GGA_COMPAT"> T  </i>
  <i type="logical" name="LBERRY"> F  </i>
  <i type="int" name="ICORELEVEL">     0</i>
  <i type="logical" name="LDAU"> F  </i>
  <i type="int" name="I_CONSTRAINED_M">     0</i>
  <separator name="electronic exchange-correlation" >
   <i type="string" name="GGA">PE</i>
   <i type="int" name="VOSKOWN">     0</i>
   <i type="logical" name="LHFCALC"> F  </i>
   <i type="string" name="PRECFOCK"></i>
   <i type="logical" name="LSYMGRAD"> F  </i>
   <i type="logical" name="LHFONE"> F  </i>
   <i type="logical" name="LRHFCALC"> F  </i>
   <i type="logical" name="LTHOMAS"> F  </i>
   <i type="logical" name="LMODELHF"> F  </i>
   <i type="logical" name="LFOCKACE"> F  </i>
   <i name="ENCUT4O">     -1.00000000</i>
   <i type="int" name="EXXOEP">     0</i>
   <i type="int" name="FOURORBIT">     0</i>
   <i name="AEXX">      0.00000000</i>
   <i name="HFALPHA">      0.00000000</i>
   <i name="MCALPHA">      0.00000000</i>
   <i name="ALDAX">      1.00000000</i>
   <i name="AGGAX">      1.00000000</i>
   <i name="ALDAC">      1.00000000</i>
   <i name="AGGAC">      1.00000000</i>
   <i type="int" name="NKREDX">     1</i>
   <i type="int" name="NKREDY">     1</i>
   <i type="int" name="NKREDZ">     1</i>
   <i type="logical" name="SHIFTRED"> F  </i>
   <i type="logical" name="ODDONLY"> F  </i>
   <i type="logical" name="EVENONLY"> F  </i>
   <i type="int" name="LMAXFOCK">     0</i>
   <i type="int" name="NMAXFOCKAE">     0</i>
   <i type="logical" name="LFOCKAEDFT"> F  </i>
   <i name="HFSCREEN">      0.00000000</i>
   <i name="HFSCREENC">      0.00000000</i>
   <i type="int" name="NBANDSGWLOW">     0</i>
  </separator>
  <separator name="vdW DFT" >
   <i type="logical" name="LUSE_VDW"> F  </i>
   <i name="Zab_VDW">     -0.84910000</i>
   <i name="PARAM1">      0.12340000</i>
   <i name="PARAM2">      1.00000000</i>
   <i name="PARAM3">      0.00000000</i>
  </separator>
  <separator name="model GW" >
   <i type="int" name="MODEL_GW">     0</i>
   <i name="MODEL_EPS0">     11.95007673</i>
   <i name="MODEL_ALPHA">      1.00000000</i>
  </separator>
  <separator name="linear response parameters" >
   <i type="logical" name="LEPSILON"> F  </i>
   <i type="logical" name="LRPA"> F  </i>
   <i type="logical" name="LNABLA"> F  </i>
   <i type="logical" name="LVEL"> F  </i>
   <i name="CSHIFT">      0.10000000</i>
   <i name="OMEGAMAX">     -1.00000000</i>
   <i name="DEG_THRESHOLD">      0.00200000</i>
   <i name="RTIME">     -0.10000000</i>
   <i name="WPLASMAI">      0.00000000</i>
   <v name="DFIELD">      0.00000000      0.00000000      0.00000000</v>
   <v name="WPLASMA">      0.00000000      0.00000000      0.00000000      0.00000000      0.00000000      0.00000000      0.00000000      0.00000000      0.00000000</v>
  </separator>
  <separator name="orbital magnetization" >
   <i type="logical" name="NUCIND"> F  </i>
   <v name="MAGPOS">      0.00000000      0.00000000      0.00000000</v>
   <i type="logical" name="LNICSALL"> T  </i>
   <i type="logical" name="ORBITALMAG"> F  </i>
   <i type="logical" name="LMAGBLOCH"> F  </i>
   <i type="logical" name="LCHIMAG"> F  </i>
   <i type="logical" name="LGAUGE"> T  </i>
   <i type="int" name="MAGATOM">     0</i>
   <v name="MAGDIPOL">      0.00000000      0.00000000      0.00000000</v>
   <v name="AVECCONST">      0.00000000      0.00000000      0.00000000</v>
  </separator>
  <separator name="response functions" >
   <i type="logical" name="LFINITE_TEMPERATURE"> F  </i>
   <i type="logical" name="LADDER"> F  </i>
   <i type="logical" name="LRPAFORCE"> F  </i>
   <i type="logical" name="LFXC"> F  </i>
   <i type="logical" name="LHARTREE"> T  </i>
   <i type="int" name="IBSE">     0</i>
   <v type="int" name="KPOINT">    -1     0     0     0</v>
   <i type="logical" name="LTCTC"> F  </i>
   <i type="logical" name="LTCTE"> F  </i>
   <i type="logical" name="LTETE"> F  </i>
   <i type="logical" name="LTRIPLET"> F  </i>
   <i type="logical" name="LFXCEPS"> F  </i>
   <i type="logical" name="LFXHEG"> F  </i>
   <i type="int" name="NATURALO">     2</i>
   <i type="logical" name="LHOLEGF"> F  </i>
   <i type="logical" name="L2ORDER"> F  </i>
   <i type="logical" name="LDMP1"> F  </i>
   <i type="logical" name="LMP2LT"> F  </i>
   <i type="logical" name="LSMP2LT"> F  </i>
   <i type="logical" name="LGWLF"> F  </i>
   <i name="ENCUTGW">     -2.00000000</i>
   <i name="ENCUTGWSOFT">     -2.00000000</i>
   <i name="ENCUTLF">     -1.00000000</i>
   <i type="logical" name="LESF_SPLINES"> F  </i>
   <i type="int" name="LMAXMP2">    -1</i>
   <i name="SCISSOR">      0.00000000</i>
   <i type="int" name="NOMEGA">     0</i>
   <i type="int" name="NOMEGAR">     0</i>
   <i type="int" name="NBANDSGW">    -1</i>
   <i type="int" name="NBANDSO">    -1</i>
   <i type="int" name="NBANDSV">    -1</i>
   <i type="int" name="NELMGW">     1</i>
   <i type="int" name="NELMHF">     1</i>
   <i type="int" name="DIM">     3</i>
   <i type="int" name="IESPILON">     4</i>
   <i type="int" name="ANTIRES">     0</i>
   <i name="OMEGAMAX">    -30.00000000</i>
   <i name="OMEGAMIN">    -30.00000000</i>
   <i name="OMEGATL">   -200.00000000</i>
   <i type="int" name="OMEGAGRID">     0</i>
   <i name="CSHIFT">     -0.10000000</i>
   <i type="logical" name="LSELFENERGY"> F  </i>
   <i type="logical" name="LSPECTRAL"> F  </i>
   <i type="logical" name="LSPECTRALGW"> F  </i>
   <i type="logical" name="LSINGLES"> F  </i>
   <i type="logical" name="LFERMIGW"> F  </i>
   <i type="logical" name="ODDONLYGW"> F  </i>
   <i type="logical" name="EVENONLYGW"> F  </i>
   <i type="int" name="NKREDLFX">     1</i>
   <i type="int" name="NKREDLFY">     1</i>
   <i type="int" name="NKREDLFZ">     1</i>
   <i type="int" name="MAXMEM">  2800</i>
   <i type="int" name="TELESCOPE">     0</i>
   <i type="int" name="NTAUPAR">    -1</i>
   <i type="int" name="NOMEGAPAR">    -1</i>
   <i name="DAMP_NEWTON">      0.80000001</i>
   <i name="LAMBDA">      1.00000000</i>
  </separator>
  <separator name="External order field" >
   <i name="OFIELD_KAPPA">      0.00000000</i>
   <v name="OFIELD_K">      0.00000000      0.00000000      0.00000000</v>
   <i name="OFIELD_Q6_NEAR">      0.00000000</i>
   <i name="OFIELD_Q6_FAR">      0.00000000</i>
   <i name="OFIELD_A">      0.00000000</i>
  </separator>
  <separator name="optional k-points parameters" >
   <i type="int" name="KPOINTS_OPT_MODE">     1</i>
   <i type="logical" name="LKPOINTS_OPT"> F  </i>
  </separator>
 </parameters>
 <atominfo>
  <atoms>      34 </atoms>
  <types>       2 </types>
  <array name="atoms" >
   <dimension dim="1">ion</dimension>
   <field type="string">element</field>
   <field type="int">atomtype</field>
   <set>
    <rc><c>Cu</c><c>   1</c></rc>
    <rc><c>Cu</c><c>   1</c></rc>
    <rc><c>Cu</c><c>   1</c></rc>
    <rc><c>Cu</c><c>   1</c></rc>
    <rc><c>Cu</c><c>   1</c></rc>
    <rc><c>Cu</c><c>   1</c></rc>
    <rc><c>Cu</c><c>   1</c></rc>
    <rc><c>Cu</c><c>   1</c></rc>
    <rc><c>Cu</c><c>   1</c></rc>
    <rc><c>Cu</c><c>   1</c></rc>
    <rc><c>Cu</c><c>   1</c></rc>
    <rc><c>Cu</c><c>   1</c></rc>
    <rc><c>Cu</c><c>   1</c></rc>
    <rc><c>Cu</c><c>   1</c></rc>
    <rc><c>Cu</c><c>   1</c></rc>
    <rc><c>Cu</c><c>   1</c></rc>
    <rc><c>Cu</c><c>   1</c></rc>
    <rc><c>Cu</c><c>   1</c></rc>
    <rc><c>Cu</c><c>   1</c></rc>
    <rc><c>Cu</c><c>   1</c></rc>
    <rc><c>Cu</c><c>   1</c></rc>
    <rc><c>Cu</c><c>   1</c></rc>
    <rc><c>Cu</c><c>   1</c></rc>
    <rc><c>Cu</c><c>   1</c></rc>
    <rc><c>Cu</c><c>   1</c></rc>
    <rc><c>Cu</c><c>   1</c></rc>
    <rc><c>Cu</c><c>   1</c></rc>
    <rc><c>Cu</c><c>   1</c></rc>
    <rc><c>Cu</c><c>   1</c></rc>
    <rc><c>Cu</c><c>   1</c></rc>
    <rc><c>Cu</c><c>   1</c></rc>
    <rc><c>Cu</c><c>   1</c></rc>
    <rc><c>H </c><c>   2</c></rc>
    <rc><c>H </c><c>   2</c></rc>
   </set>
  </array>
  <array name="atomtypes" >
   <dimension dim="1">type</dimension>
   <field type="int">atomspertype</field>
   <field type="string">element</field>
   <field>mass</field>
   <field>valence</field>
   <field type="string">pseudopotential</field>
   <set>
    <rc><c>  32</c><c>Cu</c><c>     63.54600000</c><c>     11.00000000</c><c>  PAW_PBE Cu 22Jun2005                  </c></rc>
    <rc><c>   2</c><c>H </c><c>      1.00000000</c><c>      1.00000000</c><c>  PAW_PBE H 15Jun2001                   </c></rc>
   </set>
  </array>
 </atominfo>
 <structure name="initialpos" >
  <crystal>
   <varray name="basis" >
    <v>       5.13359547       0.00000000       0.00000000 </v>
    <v>       2.56679773       4.44582409       0.00000000 </v>
    <v>       0.00000000       0.00000000      29.67047119 </v>
   </varray>
   <i name="volume">    677.17101477 </i>
   <varray name="rec_basis" >
    <v>       0.19479525      -0.11246509       0.00000000 </v>
    <v>       0.00000000       0.22493018       0.00000000 </v>
    <v>       0.00000000       0.00000000       0.03370354 </v>
   </varray>
  </crystal>
  <varray name="positions" >
   <v>       0.00000000       0.00000000       0.00000000 </v>
   <v>       1.00000000       0.50000000       0.00000000 </v>
   <v>       0.50000000       0.00000000       0.00000000 </v>
   <v>       0.50000000       0.50000000       0.00000000 </v>
   <v>       0.16666667       0.16666667       0.07063526 </v>
   <v>       0.16666667       0.66666667       0.07063526 </v>
   <v>       0.66666667       0.16666667       0.07063526 </v>
   <v>       0.66666667       0.66666667       0.07063526 </v>
   <v>       0.33333333       0.33333333       0.13847021 </v>
   <v>       0.33333333       0.83333333       0.13847021 </v>
   <v>       0.83333333       0.33333333       0.13847021 </v>
   <v>       0.83333333       0.83333333       0.13847021 </v>
   <v>       0.00000000       0.00000000       0.20667428 </v>
   <v>       1.00000000       0.50000000       0.20667428 </v>
   <v>       0.50000000       0.00000000       0.20667428 </v>
   <v>       0.50000000       0.50000000       0.20667428 </v>
   <v>       0.16666667       0.16666667       0.27488859 </v>
   <v>       0.16666667       0.66666667       0.27488859 </v>
   <v>       0.66666667       0.16666667       0.27488859 </v>
   <v>       0.66666667       0.66666667       0.27488859 </v>
   <v>       0.33333333       0.33333333       0.34319917 </v>
   <v>       0.33333333       0.83333333       0.34319917 </v>
   <v>       0.83333333       0.33333333       0.34319917 </v>
   <v>       0.83333333       0.83333333       0.34319917 </v>
   <v>       0.00000000       0.00000000       0.41105828 </v>
   <v>       1.00000000       0.50000000       0.41105828 </v>
   <v>       0.50000000       0.00000000       0.41105828 </v>
   <v>       0.50000000       0.50000000       0.41105828 </v>
   <v>       0.16666667       0.16666667       0.48054462 </v>
   <v>       0.16666667       0.66666667       0.48054462 </v>
   <v>       0.66666667       0.16666667       0.48054462 </v>
   <v>       0.66666667       0.66666667       0.48054462 </v>
   <v>       0.66666667       0.66666667       0.53425930 </v>
   <v>       0.66666667       0.66666667       0.55940215 </v>
  </varray>
 </structure>
 <calculation>
  <scstep>
   <time name="dav">    4.55    4.59</time>
   <time name="total">    4.63    4.67</time>
   <energy>
    <i name="alphaZ">   1114.72537883 </i>
    <i name="ewald"> 216171.82830426 </i>
    <i name="hartreedc">-260201.43006870 </i>
    <i name="XCdc">   1471.99185778 </i>
    <i name="pawpsdc">  39302.70853331 </i>
    <i name="pawaedc"> -42689.07521165 </i>
    <i name="eentropy">     -0.01222931 </i>
    <i name="bandstr">   3747.06981395 </i>
    <i name="atom">  44535.60175172 </i>
    <i name="e_fr_energy">   3453.40813019 </i>
    <i name="e_wo_entrp">   3453.42035950 </i>
    <i name="e_0_energy">   3453.41220663 </i>
   </energy>
  </scstep>
  <scstep>
   <time name="dav">    4.54    4.57</time>
   <time name="total">    4.54    4.58</time>
   <energy>
    <i name="e_fr_energy">    485.66823554 </i>
    <i name="e_wo_entrp">    485.68379947 </i>
    <i name="e_0_energy">    485.67342352 </i>
   </energy>
  </scstep>
  <scstep>
   <time name="dav">    4.52    4.56</time>
   <time name="total">    4.53    4.56</time>
   <energy>
    <i name="e_fr_energy">    -92.46605192 </i>
    <i name="e_wo_entrp">    -92.47621145 </i>
    <i name="e_0_energy">    -92.46943843 </i>
   </energy>
  </scstep>
  <scstep>
   <time name="dav">    4.83    4.87</time>
   <time name="total">    4.83    4.87</time>
   <energy>
    <i name="e_fr_energy">   -138.22846959 </i>
    <i name="e_wo_entrp">   -138.25106451 </i>
    <i name="e_0_energy">   -138.23600123 </i>
   </energy>
  </scstep>
  <scstep>
   <time name="dav">    4.93    4.98</time>
   <time name="total">    5.26    5.30</time>
   <energy>
    <i name="e_fr_energy">   -139.35678480 </i>
    <i name="e_wo_entrp">   -139.38073537 </i>
    <i name="e_0_energy">   -139.36476832 </i>
   </energy>
  </scstep>
  <scstep>
   <time name="dav">    4.91    4.95</time>
   <time name="total">    5.31    5.35</time>
   <energy>
    <i name="e_fr_energy">   -114.89878347 </i>
    <i name="e_wo_entrp">   -114.85464322 </i>
    <i name="e_0_energy">   -114.88407005 </i>
   </energy>
  </scstep>
  <scstep>
   <time name="dav">    5.00    5.04</time>
   <time name="total">    5.39    5.44</time>
   <energy>
    <i name="e_fr_energy">   -102.55859830 </i>
    <i name="e_wo_entrp">   -102.54381613 </i>
    <i name="e_0_energy">   -102.55367091 </i>
   </energy>
  </scstep>
  <scstep>
   <time name="dav">    5.49    5.53</time>
   <time name="total">    5.89    5.93</time>
   <energy>
    <i name="e_fr_energy">   -108.99666065 </i>
    <i name="e_wo_entrp">   -109.02820726 </i>
    <i name="e_0_energy">   -109.00717619 </i>
   </energy>
  </scstep>
  <scstep>
   <time name="dav">    5.92    5.97</time>
   <time name="total">    6.32    6.38</time>
   <energy>
    <i name="e_fr_energy">    -99.29996931 </i>
    <i name="e_wo_entrp">    -99.25944557 </i>
    <i name="e_0_energy">    -99.28646140 </i>
   </energy>
  </scstep>
  <scstep>
   <time name="dav">    5.53    5.57</time>
   <time name="total">    5.92    5.97</time>
   <energy>
    <i name="e_fr_energy">    -99.68986378 </i>
    <i name="e_wo_entrp">    -99.67951202 </i>
    <i name="e_0_energy">    -99.68641319 </i>
   </energy>
  </scstep>
  <scstep>
   <time name="dav">    5.00    5.04</time>
   <time name="total">    5.38    5.42</time>
   <energy>
    <i name="e_fr_energy">   -101.07016162 </i>
    <i name="e_wo_entrp">   -101.12071335 </i>
    <i name="e_0_energy">   -101.08701220 </i>
   </energy>
  </scstep>
  <scstep>
   <time name="dav">    5.08    5.12</time>
   <time name="total">    5.47    5.51</time>
   <energy>
    <i name="e_fr_energy">   -101.99172755 </i>
    <i name="e_wo_entrp">   -101.95942990 </i>
    <i name="e_0_energy">   -101.98096167 </i>
   </energy>
  </scstep>
  <scstep>
   <time name="dav">    6.17    6.22</time>
   <time name="total">    6.56    6.61</time>
   <energy>
    <i name="e_fr_energy">   -102.38528818 </i>
    <i name="e_wo_entrp">   -102.40128738 </i>
    <i name="e_0_energy">   -102.39062125 </i>
   </energy>
  </scstep>
  <scstep>
   <time name="dav">    6.81    6.87</time>
   <time name="total">    7.20    7.26</time>
   <energy>
    <i name="e_fr_energy">   -103.95957148 </i>
    <i name="e_wo_entrp">   -103.95834820 </i>
    <i name="e_0_energy">   -103.95916372 </i>
   </energy>
  </scstep>
  <scstep>
   <time name="dav">    5.74    5.79</time>
   <time name="total">    6.12    6.17</time>
   <energy>
    <i name="e_fr_energy">   -108.69982250 </i>
    <i name="e_wo_entrp">   -108.72333320 </i>
    <i name="e_0_energy">   -108.70765940 </i>
   </energy>
  </scstep>
  <scstep>
   <time name="dav">    5.20    5.24</time>
   <time name="total">    5.59    5.63</time>
   <energy>
    <i name="e_fr_energy">   -111.99628539 </i>
    <i name="e_wo_entrp">   -111.99644690 </i>
    <i name="e_0_energy">   -111.99633923 </i>
   </energy>
  </scstep>
  <scstep>
   <time name="dav">    5.36    5.40</time>
   <time name="total">    5.74    5.79</time>
   <energy>
    <i name="e_fr_energy">   -113.84388045 </i>
    <i name="e_wo_entrp">   -113.83684079 </i>
    <i name="e_0_energy">   -113.84153389 </i>
   </energy>
  </scstep>
  <scstep>
   <time name="dav">    5.16    5.20</time>
   <time name="total">    5.54    5.58</time>
   <energy>
    <i name="e_fr_energy">   -114.95541481 </i>
    <i name="e_wo_entrp">   -114.93193210 </i>
    <i name="e_0_energy">   -114.94758724 </i>
   </energy>
  </scstep>
  <scstep>
   <time name="dav">    5.72    5.77</time>
   <time name="total">    6.10    6.15</time>
   <energy>
    <i name="e_fr_energy">   -115.61288555 </i>
    <i name="e_wo_entrp">   -115.59638521 </i>
    <i name="e_0_energy">   -115.60738544 </i>
   </energy>
  </scstep>
  <scstep>
   <time name="dav">    5.38    5.42</time>
   <time name="total">    5.76    5.81</time>
   <energy>
    <i name="e_fr_energy">   -116.30928247 </i>
    <i name="e_wo_entrp">   -116.28019751 </i>
    <i name="e_0_energy">   -116.29958748 </i>
   </energy>
  </scstep>
  <scstep>
   <time name="dav">    5.70    5.75</time>
   <time name="total">    6.08    6.13</time>
   <energy>
    <i name="e_fr_energy">   -117.14898651 </i>
    <i name="e_wo_entrp">   -117.11747116 </i>
    <i name="e_0_energy">   -117.13848139 </i>
   </energy>
  </scstep>
  <scstep>
   <time name="dav">    5.95    6.00</time>
   <time name="total">    6.34    6.39</time>
   <energy>
    <i name="e_fr_energy">   -117.81133763 </i>
    <i name="e_wo_entrp">   -117.78294876 </i>
    <i name="e_0_energy">   -117.80187467 </i>
   </energy>
  </scstep>
  <scstep>
   <time name="dav">    5.43    5.47</time>
   <time name="total">    5.82    5.87</time>
   <energy>
    <i name="e_fr_energy">   -118.23084690 </i>
    <i name="e_wo_entrp">   -118.20730003 </i>
    <i name="e_0_energy">   -118.22299794 </i>
   </energy>
  </scstep>
  <scstep>
   <time name="dav">    5.45    5.50</time>
   <time name="total">    5.83    5.88</time>
   <energy>
    <i name="e_fr_energy">   -118.84263130 </i>
    <i name="e_wo_entrp">   -118.82147712 </i>
    <i name="e_0_energy">   -118.83557991 </i>
   </energy>
  </scstep>
  <scstep>
   <time name="dav">    5.62    5.67</time>
   <time name="total">    6.01    6.06</time>
   <energy>
    <i name="e_fr_energy">   -119.80487817 </i>
    <i name="e_wo_entrp">   -119.78053510 </i>
    <i name="e_0_energy">   -119.79676381 </i>
   </energy>
  </scstep>
  <scstep>
   <time name="dav">    5.61    5.65</time>
   <time name="total">    6.00    6.05</time>
   <energy>
    <i name="e_fr_energy">   -120.40470425 </i>
    <i name="e_wo_entrp">   -120.38343928 </i>
    <i name="e_0_energy">   -120.39761592 </i>
   </energy>
  </scstep>
  <scstep>
   <time name="dav">    5.11    5.16</time>
   <time name="total">    5.50    5.54</time>
   <energy>
    <i name="e_fr_energy">   -120.61417640 </i>
    <i name="e_wo_entrp">   -120.59192450 </i>
    <i name="e_0_energy">   -120.60675910 </i>
   </energy>
  </scstep>
  <scstep>
   <time name="dav">    5.30    5.35</time>
   <time name="total">    5.69    5.74</time>
   <energy>
    <i name="e_fr_energy">   -120.66402707 </i>
    <i name="e_wo_entrp">   -120.64229425 </i>
    <i name="e_0_energy">   -120.65678280 </i>
   </energy>
  </scstep>
  <scstep>
   <time name="dav">    4.79    4.83</time>
   <time name="total">    5.18    5.22</time>
   <energy>
    <i name="e_fr_energy">   -120.67259850 </i>
    <i name="e_wo_entrp">   -120.65099482 </i>
    <i name="e_0_energy">   -120.66539727 </i>
   </energy>
  </scstep>
  <scstep>
   <time name="dav">    4.56    4.60</time>
   <time name="total">    4.95    4.99</time>
   <energy>
    <i name="e_fr_energy">   -120.67679079 </i>
    <i name="e_wo_entrp">   -120.65501776 </i>
    <i name="e_0_energy">   -120.66953311 </i>
   </energy>
  </scstep>
  <scstep>
   <time name="dav">    3.64    3.68</time>
   <time name="total">    4.02    4.06</time>
   <energy>
    <i name="e_fr_energy">   -120.68000758 </i>
    <i name="e_wo_entrp">   -120.65815299 </i>
    <i name="e_0_energy">   -120.67272272 </i>
   </energy>
  </scstep>
  <scstep>
   <time name="dav">    3.40    3.43</time>
   <time name="total">    3.48    3.51</time>
   <energy>
    <i name="alphaZ">   1114.72537883 </i>
    <i name="ewald"> 216171.82830426 </i>
    <i name="hartreedc">-259709.27618793 </i>
    <i name="XCdc">   1433.86194720 </i>
    <i name="pawpsdc">  42148.37023826 </i>
    <i name="pawaedc"> -45600.35822300 </i>
    <i name="eentropy">     -0.02188737 </i>
    <i name="bandstr">   -215.41130252 </i>
    <i name="atom">  44535.60175172 </i>
    <i name="e_fr_energy">   -120.67998055 </i>
    <i name="e_wo_entrp">   -120.65809318 </i>
    <i name="e_0_energy">   -120.67268476 </i>
   </energy>
  </scstep>
  <structure>
   <crystal>
    <varray name="basis" >
     <v>       5.13359547       0.00000000       0.00000000 </v>
     <v>       2.56679773       4.44582409       0.00000000 </v>
     <v>       0.00000000       0.00000000      29.67047119 </v>
    </varray>
    <i name="volume">    677.17101477 </i>
    <varray name="rec_basis" >
     <v>       0.19479525      -0.11246509       0.00000000 </v>
     <v>       0.00000000       0.22493018       0.00000000 </v>
     <v>       0.00000000       0.00000000       0.03370354 </v>
    </varray>
   </crystal>
   <varray name="positions" >
    <v>       0.00000000       0.00000000       0.00000000 </v>
    <v>       1.00000000       0.50000000       0.00000000 </v>
    <v>       0.50000000       0.00000000       0.00000000 </v>
    <v>       0.50000000       0.50000000       0.00000000 </v>
    <v>       0.16666667       0.16666667       0.07063526 </v>
    <v>       0.16666667       0.66666667       0.07063526 </v>
    <v>       0.66666667       0.16666667       0.07063526 </v>
    <v>       0.66666667       0.66666667       0.07063526 </v>
    <v>       0.33333333       0.33333333       0.13847021 </v>
    <v>       0.33333333       0.83333333       0.13847021 </v>
    <v>       0.83333333       0.33333333       0.13847021 </v>
    <v>       0.83333333       0.83333333       0.13847021 </v>
    <v>       0.00000000       0.00000000       0.20667428 </v>
    <v>       1.00000000       0.50000000       0.20667428 </v>
    <v>       0.50000000       0.00000000       0.20667428 </v>
    <v>       0.50000000       0.50000000       0.20667428 </v>
    <v>       0.16666667       0.16666667       0.27488859 </v>
    <v>       0.16666667       0.66666667       0.27488859 </v>
    <v>       0.66666667       0.16666667       0.27488859 </v>
    <v>       0.66666667       0.66666667       0.27488859 </v>
    <v>       0.33333333       0.33333333       0.34319917 </v>
    <v>       0.33333333       0.83333333       0.34319917 </v>
    <v>       0.83333333       0.33333333       0.34319917 </v>
    <v>       0.83333333       0.83333333       0.34319917 </v>
    <v>       0.00000000       0.00000000       0.41105828 </v>
    <v>       1.00000000       0.50000000       0.41105828 </v>
    <v>       0.50000000       0.00000000       0.41105828 </v>
    <v>       0.50000000       0.50000000       0.41105828 </v>
    <v>       0.16666667       0.16666667       0.48054462 </v>
    <v>       0.16666667       0.66666667       0.48054462 </v>
    <v>       0.66666667       0.16666667       0.48054462 </v>
    <v>       0.66666667       0.66666667       0.48054462 </v>
    <v>       0.66666667       0.66666667       0.53425930 </v>
    <v>       0.66666667       0.66666667       0.55940215 </v>
   </varray>
  </structure>
  <varray name="forces" >
   <v>       0.00000000       0.00000000       0.15223809 </v>
   <v>      -0.00070249       0.00040558       0.14908242 </v>
   <v>       0.00000000      -0.00081116       0.14908242 </v>
   <v>       0.00070249       0.00040558       0.14908242 </v>
   <v>       0.00497129       0.00287018      -0.14056791 </v>
   <v>       0.00000000      -0.00574035      -0.14056791 </v>
   <v>      -0.00497129       0.00287018      -0.14056791 </v>
   <v>       0.00000000       0.00000000      -0.12211329 </v>
   <v>       0.00000000       0.00000000      -0.00301224 </v>
   <v>      -0.01441745       0.00832392      -0.01492683 </v>
   <v>       0.00000000      -0.01664784      -0.01492683 </v>
   <v>       0.01441745       0.00832392      -0.01492683 </v>
   <v>       0.00000000       0.00000000       0.02164180 </v>
   <v>       0.00746817      -0.00431175       0.00245174 </v>
   <v>       0.00000000       0.00862350       0.00245174 </v>
   <v>      -0.00746817      -0.00431175       0.00245174 </v>
   <v>       0.00889438       0.00513517      -0.00861119 </v>
   <v>       0.00000000      -0.01027035      -0.00861119 </v>
   <v>      -0.00889438       0.00513517      -0.00861119 </v>
   <v>       0.00000000       0.00000000       0.03643263 </v>
   <v>       0.00000000       0.00000000       0.05950973 </v>
   <v>      -0.02816897       0.01626336       0.01269564 </v>
   <v>      -0.00000000      -0.03252672       0.01269564 </v>
   <v>       0.02816897       0.01626336       0.01269564 </v>
   <v>       0.00000000       0.00000000       0.09197899 </v>
   <v>      -0.01673348       0.00966108       0.05234441 </v>
   <v>       0.00000000      -0.01932216       0.05234441 </v>
   <v>       0.01673348       0.00966108       0.05234441 </v>
   <v>      -0.01241675      -0.00716882      -0.22913163 </v>
   <v>       0.00000000       0.01433763      -0.22913163 </v>
   <v>       0.01241675      -0.00716882      -0.22913163 </v>
   <v>       0.00000000       0.00000000      -1.24321698 </v>
   <v>       0.00000000       0.00000000       0.33504290 </v>
   <v>       0.00000000       0.00000000       1.20148835 </v>
  </varray>
  <varray name="stress" >
   <v>     -30.53323641       0.00000000       0.00000000 </v>
   <v>       0.00000000     -30.53323641       0.00000000 </v>
   <v>       0.00000000       0.00000000      -1.47870926 </v>
  </varray>
  <energy>
   <i name="e_fr_energy">   -134.70982118 </i>
   <i name="e_wo_entrp">   -134.68793381 </i>
   <i name="e_0_energy">   -134.70252539 </i>
  </energy>
  <time name="totalsc">  185.78  187.32</time>
 </calculation>
 <calculation>
  <scstep>
   <time name="dav">    4.64    4.68</time>
   <time name="total">    5.03    5.07</time>
   <energy>
    <i name="alphaZ">   1114.72537883 </i>
    <i name="ewald"> 216677.60665228 </i>
    <i name="hartreedc">-260215.08404367 </i>
    <i name="XCdc">   1433.91979640 </i>
    <i name="pawpsdc">  42148.47332086 </i>
    <i name="pawaedc"> -45600.50483956 </i>
    <i name="eentropy">     -0.02668241 </i>
    <i name="bandstr">   -215.43592863 </i>
    <i name="atom">  44535.60175172 </i>
    <i name="e_fr_energy">   -120.72459417 </i>
    <i name="e_wo_entrp">   -120.69791176 </i>
    <i name="e_0_energy">   -120.71570004 </i>
   </energy>
  </scstep>
  <scstep>
   <time name="dav">    6.19    6.24</time>
   <time name="total">    6.57    6.63</time>
   <energy>
    <i name="e_fr_energy">   -120.79142671 </i>
    <i name="e_wo_entrp">   -120.76594751 </i>
    <i name="e_0_energy">   -120.78293364 </i>
   </energy>
  </scstep>
  <scstep>
   <time name="dav">    5.11    5.15</time>
   <time name="total">    5.49    5.54</time>
   <energy>
    <i name="e_fr_energy">   -120.79767356 </i>
    <i name="e_wo_entrp">   -120.76879520 </i>
    <i name="e_0_energy">   -120.78804744 </i>
   </energy>
  </scstep>
  <scstep>
   <time name="dav">    5.17    5.21</time>
   <time name="total">    5.55    5.59</time>
   <energy>
    <i name="e_fr_energy">   -120.78173065 </i>
    <i name="e_wo_entrp">   -120.75747931 </i>
    <i name="e_0_energy">   -120.77364687 </i>
   </energy>
  </scstep>
  <scstep>
   <time name="dav">    5.81    5.86</time>
   <time name="total">    6.20    6.25</time>
   <energy>
    <i name="e_fr_energy">   -120.78075090 </i>
    <i name="e_wo_entrp">   -120.75463451 </i>
    <i name="e_0_energy">   -120.77204544 </i>
   </energy>
  </scstep>
  <scstep>
   <time name="dav">    5.69    5.74</time>
   <time name="total">    6.07    6.12</time>
   <energy>
    <i name="e_fr_energy">   -120.77899267 </i>
    <i name="e_wo_entrp">   -120.75193997 </i>
    <i name="e_0_energy">   -120.76997510 </i>
   </energy>
  </scstep>
  <scstep>
   <time name="dav">    5.09    5.13</time>
   <time name="total">    5.48    5.52</time>
   <energy>
    <i name="e_fr_energy">   -120.77836279 </i>
    <i name="e_wo_entrp">   -120.75399296 </i>
    <i name="e_0_energy">   -120.77023951 </i>
   </energy>
  </scstep>
  <scstep>
   <time name="dav">    5.41    5.46</time>
   <time name="total">    5.79    5.84</time>
   <energy>
    <i name="e_fr_energy">   -120.77821247 </i>
    <i name="e_wo_entrp">   -120.75193514 </i>
    <i name="e_0_energy">   -120.76945336 </i>
   </energy>
  </scstep>
  <scstep>
   <time name="dav">    4.66    4.70</time>
   <time name="total">    4.74    4.78</time>
   <energy>
    <i name="alphaZ">   1114.72537883 </i>
    <i name="ewald"> 216677.60665228 </i>
    <i name="hartreedc">-260206.54381083 </i>
    <i name="XCdc">   1433.84181457 </i>
    <i name="pawpsdc">  42158.58706302 </i>
    <i name="pawaedc"> -45610.99726025 </i>
    <i name="eentropy">     -0.02573409 </i>
    <i name="bandstr">   -223.57398813 </i>
    <i name="atom">  44535.60175172 </i>
    <i name="e_fr_energy">   -120.77813288 </i>
    <i name="e_wo_entrp">   -120.75239879 </i>
    <i name="e_0_energy">   -120.76955485 </i>
   </energy>
  </scstep>
  <structure>
   <crystal>
    <varray name="basis" >
     <v>       5.13359547       0.00000000       0.00000000 </v>
     <v>       2.56679773       4.44582409       0.00000000 </v>
     <v>       0.00000000       0.00000000      29.67047119 </v>
    </varray>
    <i name="volume">    677.17101477 </i>
    <varray name="rec_basis" >
     <v>       0.19479525      -0.11246509       0.00000000 </v>
     <v>       0.00000000       0.22493018       0.00000000 </v>
     <v>       0.00000000       0.00000000       0.03370354 </v>
    </varray>
   </crystal>
   <varray name="positions" >
    <v>       0.00000000       0.00000000       0.00024753 </v>
    <v>       0.99999120       0.50000440       0.00024240 </v>
    <v>       0.50000440      -0.00000880       0.00024240 </v>
    <v>       0.50000440       0.50000440       0.00024240 </v>
    <v>       0.16669781       0.16669781       0.07040671 </v>
    <v>       0.16669781       0.66660438       0.07040671 </v>
    <v>       0.66660438       0.16669781       0.07040671 </v>
    <v>       0.66666667       0.66666667       0.07043671 </v>
    <v>       0.33333333       0.33333333       0.13846532 </v>
    <v>       0.33315268       0.83342366       0.13844594 </v>
    <v>       0.83342366       0.33315268       0.13844594 </v>
    <v>       0.83342366       0.83342366       0.13844594 </v>
    <v>       0.00000000       0.00000000       0.20670947 </v>
    <v>       0.00009358       0.49995321       0.20667826 </v>
    <v>       0.49995321       0.00009358       0.20667826 </v>
    <v>       0.49995321       0.49995321       0.20667826 </v>
    <v>       0.16672239       0.16672239       0.27487459 </v>
    <v>       0.16672239       0.66655522       0.27487459 </v>
    <v>       0.66655522       0.16672239       0.27487459 </v>
    <v>       0.66666667       0.66666667       0.27494783 </v>
    <v>       0.33333333       0.33333333       0.34329593 </v>
    <v>       0.33298038       0.83350981       0.34321981 </v>
    <v>       0.83350981       0.33298038       0.34321981 </v>
    <v>       0.83350981       0.83350981       0.34321981 </v>
    <v>       0.00000000       0.00000000       0.41120783 </v>
    <v>       0.99979033       0.50010483       0.41114339 </v>
    <v>       0.50010483      -0.00020967       0.41114339 </v>
    <v>       0.50010483       0.50010483       0.41114339 </v>
    <v>       0.16658888       0.16658888       0.48017206 </v>
    <v>       0.16658888       0.66682225       0.48017206 </v>
    <v>       0.66682225       0.16658888       0.48017206 </v>
    <v>       0.66666667       0.66666667       0.47852321 </v>
    <v>       0.66666667       0.66666667       0.53480407 </v>
    <v>       0.66666667       0.66666667       0.56135570 </v>
   </varray>
  </structure>
  <varray name="forces" >
   <v>      -0.00000000      -0.00000000       0.09585671 </v>
   <v>      -0.00017533       0.00010123       0.09727380 </v>
   <v>      -0.00000000      -0.00020245       0.09727380 </v>
   <v>       0.00017533       0.00010123       0.09727380 </v>
   <v>       0.00295146       0.00170402      -0.06236712 </v>
   <v>      -0.00000000      -0.00340805      -0.06236712 </v>
   <v>      -0.00295146       0.00170402      -0.06236712 </v>
   <v>      -0.00000000       0.00000000      -0.04997790 </v>
   <v>      -0.00000000      -0.00000000      -0.03278201 </v>
   <v>      -0.00435379       0.00251366      -0.03572788 </v>
   <v>      -0.00000000      -0.00502732      -0.03572788 </v>
   <v>       0.00435379       0.00251366      -0.03572788 </v>
   <v>      -0.00000000      -0.00000000       0.01253634 </v>
   <v>      -0.00120493       0.00069567       0.00114559 </v>
   <v>      -0.00000000      -0.00139133       0.00114559 </v>
   <v>       0.00120493       0.00069567       0.00114559 </v>
   <v>       0.00520617       0.00300578      -0.00272470 </v>
   <v>      -0.00000000      -0.00601157      -0.00272470 </v>
   <v>      -0.00520617       0.00300578      -0.00272470 </v>
   <v>      -0.00000000      -0.00000000       0.02066217 </v>
   <v>      -0.00000000      -0.00000000       0.03878944 </v>
   <v>      -0.01265165       0.00730444       0.01810019 </v>
   <v>      -0.00000000      -0.01460887       0.01810019 </v>
   <v>       0.01265165       0.00730444       0.01810019 </v>
   <v>      -0.00000000      -0.00000000       0.01055630 </v>
   <v>       0.04100724      -0.02367554      -0.08393869 </v>
   <v>      -0.00000000       0.04735108      -0.08393869 </v>
   <v>      -0.04100724      -0.02367554      -0.08393869 </v>
   <v>       0.00010234       0.00005909      -0.14733643 </v>
   <v>      -0.00000000      -0.00011818      -0.14733643 </v>
   <v>      -0.00010234       0.00005909      -0.14733643 </v>
   <v>      -0.00000000      -0.00000000      -0.53695151 </v>
   <v>      -0.00000000      -0.00000000       1.12584634 </v>
   <v>      -0.00000000       0.00000000      -0.03781017 </v>
  </varray>
  <varray name="stress" >
   <v>     -31.16400577      -0.00000000       0.00000000 </v>
   <v>       0.00000000     -31.16400577       0.00000000 </v>
   <v>       0.00000000      -0.00000000      -4.57267750 </v>
  </varray>
  <energy>
   <i name="e_fr_energy">   -134.81997617 </i>
   <i name="e_wo_entrp">   -134.79424208 </i>
   <i name="e_0_energy">   -134.81139814 </i>
  </energy>
  <time name="totalsc">   59.77   60.29</time>
 </calculation>
 <calculation>
  <scstep>
   <time name="dav">    4.55    4.58</time>
   <time name="total">    4.94    4.98</time>
   <energy>
    <i name="alphaZ">   1114.72537883 </i>
    <i name="ewald"> 216989.06238772 </i>
    <i name="hartreedc">-260518.02075087 </i>
    <i name="XCdc">   1433.88271835 </i>
    <i name="pawpsdc">  42158.70167248 </i>
    <i name="pawaedc"> -45611.09755296 </i>
    <i name="eentropy">     -0.02799202 </i>
    <i name="bandstr">   -223.59616035 </i>
    <i name="atom">  44535.60175172 </i>
    <i name="e_fr_energy">   -120.76854709 </i>
    <i name="e_wo_entrp">   -120.74055508 </i>
    <i name="e_0_energy">   -120.75921642 </i>
   </energy>
  </scstep>
  <scstep>
   <time name="dav">    6.37    6.42</time>
   <time name="total">    6.75    6.81</time>
   <energy>
    <i name="e_fr_energy">   -120.79458546 </i>
    <i name="e_wo_entrp">   -120.76735695 </i>
    <i name="e_0_energy">   -120.78550929 </i>
   </energy>
  </scstep>
  <scstep>
   <time name="dav">    5.22    5.27</time>
   <time name="total">    5.60    5.65</time>
   <energy>
    <i name="e_fr_energy">   -120.79116794 </i>
    <i name="e_wo_entrp">   -120.76243377 </i>
    <i name="e_0_energy">   -120.78158989 </i>
   </energy>
  </scstep>
  <scstep>
   <time name="dav">    5.11    5.15</time>
   <time name="total">    5.49    5.54</time>
   <energy>
    <i name="e_fr_energy">   -120.78857877 </i>
    <i name="e_wo_entrp">   -120.76187811 </i>
    <i name="e_0_energy">   -120.77967855 </i>
   </energy>
  </scstep>
  <scstep>
   <time name="dav">    5.09    5.14</time>
   <time name="total">    5.48    5.52</time>
   <energy>
    <i name="e_fr_energy">   -120.78792764 </i>
    <i name="e_wo_entrp">   -120.76019947 </i>
    <i name="e_0_energy">   -120.77868492 </i>
   </energy>
  </scstep>
  <scstep>
   <time name="dav">    5.10    5.14</time>
   <time name="total">    5.48    5.53</time>
   <energy>
    <i name="e_fr_energy">   -120.78748612 </i>
    <i name="e_wo_entrp">   -120.75946355 </i>
    <i name="e_0_energy">   -120.77814526 </i>
   </energy>
  </scstep>
  <scstep>
   <time name="dav">    4.93    4.97</time>
   <time name="total">    5.32    5.36</time>
   <energy>
    <i name="e_fr_energy">   -120.78745623 </i>
    <i name="e_wo_entrp">   -120.76069018 </i>
    <i name="e_0_energy">   -120.77853422 </i>
   </energy>
  </scstep>
  <scstep>
   <time name="dav">    5.07    5.11</time>
   <time name="total">    5.14    5.19</time>
   <energy>
    <i name="alphaZ">   1114.72537883 </i>
    <i name="ewald"> 216989.06238772 </i>
    <i name="hartreedc">-260512.98032838 </i>
    <i name="XCdc">   1433.83634567 </i>
    <i name="pawpsdc">  42166.42828805 </i>
    <i name="pawaedc"> -45618.98782458 </i>
    <i name="eentropy">     -0.02774014 </i>
    <i name="bandstr">   -228.44568044 </i>
    <i name="atom">  44535.60175172 </i>
    <i name="e_fr_energy">   -120.78742154 </i>
    <i name="e_wo_entrp">   -120.75968140 </i>
    <i name="e_0_energy">   -120.77817483 </i>
   </energy>
  </scstep>
  <structure>
   <crystal>
    <varray name="basis" >
     <v>       5.13359547       0.00000000       0.00000000 </v>
     <v>       2.56679773       4.44582409       0.00000000 </v>
     <v>       0.00000000       0.00000000      29.67047119 </v>
    </varray>
    <i name="volume">    677.17101477 </i>
    <varray name="rec_basis" >
     <v>       0.19479525      -0.11246509       0.00000000 </v>
     <v>       0.00000000       0.22493018       0.00000000 </v>
     <v>       0.00000000       0.00000000       0.03370354 </v>
    </varray>
   </crystal>
   <varray name="positions" >
    <v>       0.00000000       0.00000000       0.00039931 </v>
    <v>       0.99998580       0.50000710       0.00039103 </v>
    <v>       0.50000710      -0.00001420       0.00039103 </v>
    <v>       0.50000710       0.50000710       0.00039103 </v>
    <v>       0.16671691       0.16671691       0.07026657 </v>
    <v>       0.16671691       0.66656618       0.07026657 </v>
    <v>       0.66656618       0.16671691       0.07026657 </v>
    <v>       0.66666667       0.66666667       0.07031497 </v>
    <v>       0.33333333       0.33333333       0.13846231 </v>
    <v>       0.33304192       0.83347904       0.13843106 </v>
    <v>       0.83347904       0.33304192       0.13843106 </v>
    <v>       0.83347904       0.83347904       0.13843106 </v>
    <v>       0.00000000       0.00000000       0.20673104 </v>
    <v>       0.00015095       0.49992452       0.20668071 </v>
    <v>       0.49992452       0.00015095       0.20668071 </v>
    <v>       0.49992452       0.49992452       0.20668071 </v>
    <v>       0.16675656       0.16675656       0.27486600 </v>
    <v>       0.16675656       0.66648689       0.27486600 </v>
    <v>       0.66648689       0.16675656       0.27486600 </v>
    <v>       0.66666667       0.66666667       0.27498415 </v>
    <v>       0.33333333       0.33333333       0.34335526 </v>
    <v>       0.33276396       0.83361802       0.34323247 </v>
    <v>       0.83361802       0.33276396       0.34323247 </v>
    <v>       0.83361802       0.83361802       0.34323247 </v>
    <v>       0.00000000       0.00000000       0.41129953 </v>
    <v>       0.99966177       0.50016911       0.41119557 </v>
    <v>       0.50016911      -0.00033823       0.41119557 </v>
    <v>       0.50016911       0.50016911       0.41119557 </v>
    <v>       0.16654118       0.16654118       0.47994363 </v>
    <v>       0.16654118       0.66691764       0.47994363 </v>
    <v>       0.66691764       0.16654118       0.47994363 </v>
    <v>       0.66666667       0.66666667       0.47728377 </v>
    <v>       0.66666667       0.66666667       0.53513809 </v>
    <v>       0.66666667       0.66666667       0.56255355 </v>
   </varray>
  </structure>
  <varray name="forces" >
   <v>       0.00000000       0.00000000       0.06308097 </v>
   <v>      -0.00023499       0.00013567       0.06699065 </v>
   <v>       0.00000000      -0.00027135       0.06699065 </v>
   <v>       0.00023499       0.00013567       0.06699065 </v>
   <v>       0.00193682       0.00111822      -0.01398686 </v>
   <v>       0.00000000      -0.00223645      -0.01398686 </v>
   <v>      -0.00193682       0.00111822      -0.01398686 </v>
   <v>       0.00000000       0.00000000      -0.00550336 </v>
   <v>       0.00000000       0.00000000      -0.05292274 </v>
   <v>       0.00165825      -0.00095739      -0.05075510 </v>
   <v>       0.00000000       0.00191478      -0.05075510 </v>
   <v>      -0.00165825      -0.00095739      -0.05075510 </v>
   <v>       0.00000000       0.00000000       0.00747071 </v>
   <v>      -0.00643478       0.00371512      -0.00033014 </v>
   <v>       0.00000000      -0.00743025      -0.00033014 </v>
   <v>       0.00643478       0.00371512      -0.00033014 </v>
   <v>       0.00335678       0.00193804       0.00439540 </v>
   <v>       0.00000000      -0.00387608       0.00439540 </v>
   <v>      -0.00335678       0.00193804       0.00439540 </v>
   <v>       0.00000000       0.00000000       0.01561259 </v>
   <v>       0.00000000       0.00000000       0.02947907 </v>
   <v>      -0.00434826       0.00251047       0.02321719 </v>
   <v>       0.00000000      -0.00502094       0.02321719 </v>
   <v>       0.00434826       0.00251047       0.02321719 </v>
   <v>       0.00000000       0.00000000      -0.04008371 </v>
   <v>       0.08556894      -0.04940325      -0.18039153 </v>
   <v>       0.00000000       0.09880650      -0.18039153 </v>
   <v>      -0.08556894      -0.04940325      -0.18039153 </v>
   <v>       0.00812605       0.00469158      -0.10338449 </v>
   <v>       0.00000000      -0.00938316      -0.10338449 </v>
   <v>      -0.00812605       0.00469158      -0.10338449 </v>
   <v>       0.00000000       0.00000000      -0.13328319 </v>
   <v>       0.00000000       0.00000000       1.46542284 </v>
   <v>       0.00000000       0.00000000      -0.58653853 </v>
  </varray>
  <varray name="stress" >
   <v>     -30.26166891       0.00000000       0.00000000 </v>
   <v>      -0.00000000     -30.26166891      -0.00000000 </v>
   <v>       0.00000000      -0.00000000      -4.65349654 </v>
  </varray>
  <energy>
   <i name="e_fr_energy">   -134.83888407 </i>
   <i name="e_wo_entrp">   -134.81114393 </i>
   <i name="e_0_energy">   -134.82963735 </i>
  </energy>
  <time name="totalsc">   53.03   53.60</time>
 </calculation>
 <calculation>
  <scstep>
   <time name="dav">    4.51    4.55</time>
   <time name="total">    4.90    4.94</time>
   <energy>
    <i name="alphaZ">   1114.72537883 </i>
    <i name="ewald"> 217508.69707230 </i>
    <i name="hartreedc">-261031.37990659 </i>
    <i name="XCdc">   1433.95452027 </i>
    <i name="pawpsdc">  42166.64218237 </i>
    <i name="pawaedc"> -45619.19304067 </i>
    <i name="eentropy">     -0.02907890 </i>
    <i name="bandstr">   -229.83142410 </i>
    <i name="atom">  44535.60175172 </i>
    <i name="e_fr_energy">   -120.81254476 </i>
    <i name="e_wo_entrp">   -120.78346586 </i>
    <i name="e_0_energy">   -120.80285180 </i>
   </energy>
  </scstep>
  <scstep>
   <time name="dav">    6.34    6.39</time>
   <time name="total">    6.71    6.77</time>
   <energy>
    <i name="e_fr_energy">   -120.86776799 </i>
    <i name="e_wo_entrp">   -120.83854294 </i>
    <i name="e_0_energy">   -120.85802630 </i>
   </energy>
  </scstep>
  <scstep>
   <time name="dav">    5.44    5.49</time>
   <time name="total">    5.83    5.88</time>
   <energy>
    <i name="e_fr_energy">   -120.85341897 </i>
    <i name="e_wo_entrp">   -120.82326780 </i>
    <i name="e_0_energy">   -120.84336858 </i>
   </energy>
  </scstep>
  <scstep>
   <time name="dav">    5.06    5.10</time>
   <time name="total">    5.44    5.48</time>
   <energy>
    <i name="e_fr_energy">   -120.85241925 </i>
    <i name="e_wo_entrp">   -120.82588492 </i>
    <i name="e_0_energy">   -120.84357447 </i>
   </energy>
  </scstep>
  <scstep>
   <time name="dav">    5.11    5.15</time>
   <time name="total">    5.49    5.54</time>
   <energy>
    <i name="e_fr_energy">   -120.84773407 </i>
    <i name="e_wo_entrp">   -120.81832551 </i>
    <i name="e_0_energy">   -120.83793122 </i>
   </energy>
  </scstep>
  <scstep>
   <time name="dav">    5.51    5.56</time>
   <time name="total">    5.89    5.94</time>
   <energy>
    <i name="e_fr_energy">   -120.84689707 </i>
    <i name="e_wo_entrp">   -120.81726629 </i>
    <i name="e_0_energy">   -120.83702014 </i>
   </energy>
  </scstep>
  <scstep>
   <time name="dav">    5.01    5.05</time>
   <time name="total">    5.39    5.44</time>
   <energy>
    <i name="e_fr_energy">   -120.84657433 </i>
    <i name="e_wo_entrp">   -120.81835479 </i>
    <i name="e_0_energy">   -120.83716782 </i>
   </energy>
  </scstep>
  <scstep>
   <time name="dav">    5.35    5.40</time>
   <time name="total">    5.73    5.77</time>
   <energy>
    <i name="e_fr_energy">   -120.84647269 </i>
    <i name="e_wo_entrp">   -120.81740684 </i>
    <i name="e_0_energy">   -120.83678407 </i>
   </energy>
  </scstep>
  <scstep>
   <time name="dav">    4.20    4.24</time>
   <time name="total">    4.28    4.32</time>
   <energy>
    <i name="alphaZ">   1114.72537883 </i>
    <i name="ewald"> 217508.69707230 </i>
    <i name="hartreedc">-261026.79384903 </i>
    <i name="XCdc">   1433.99277402 </i>
    <i name="pawpsdc">  42181.50045313 </i>
    <i name="pawaedc"> -45634.26535417 </i>
    <i name="eentropy">     -0.02886586 </i>
    <i name="bandstr">   -234.27584718 </i>
    <i name="atom">  44535.60175172 </i>
    <i name="e_fr_energy">   -120.84648624 </i>
    <i name="e_wo_entrp">   -120.81762037 </i>
    <i name="e_0_energy">   -120.83686428 </i>
   </energy>
  </scstep>
  <structure>
   <crystal>
    <varray name="basis" >
     <v>       5.13359547       0.00000000       0.00000000 </v>
     <v>       2.56679773       4.44582409       0.00000000 </v>
     <v>       0.00000000       0.00000000      29.67047119 </v>
    </varray>
    <i name="volume">    677.17101477 </i>
    <varray name="rec_basis" >
     <v>       0.19479525      -0.11246509       0.00000000 </v>
     <v>       0.00000000       0.22493018       0.00000000 </v>
     <v>       0.00000000       0.00000000       0.03370354 </v>
    </varray>
   </crystal>
   <varray name="positions" >
    <v>       0.00000000       0.00000000       0.00063563 </v>
    <v>       0.99997796       0.50001102       0.00062929 </v>
    <v>       0.50001102      -0.00002204       0.00062929 </v>
    <v>       0.50001102       0.50001102       0.00062929 </v>
    <v>       0.16674602       0.16674602       0.07010628 </v>
    <v>       0.16674602       0.66650795       0.07010628 </v>
    <v>       0.66650795       0.16674602       0.07010628 </v>
    <v>       0.66666667       0.66666667       0.07018443 </v>
    <v>       0.33333333       0.33333333       0.13839001 </v>
    <v>       0.33294642       0.83352679       0.13834956 </v>
    <v>       0.83352679       0.33294642       0.13834956 </v>
    <v>       0.83352679       0.83352679       0.13834956 </v>
    <v>       0.00000000       0.00000000       0.20676268 </v>
    <v>       0.00014419       0.49992791       0.20668275 </v>
    <v>       0.49992791       0.00014419       0.20668275 </v>
    <v>       0.49992791       0.49992791       0.20668275 </v>
    <v>       0.16680810       0.16680810       0.27486306 </v>
    <v>       0.16680810       0.66638380       0.27486306 </v>
    <v>       0.66638380       0.16680810       0.27486306 </v>
    <v>       0.66666667       0.66666667       0.27504138 </v>
    <v>       0.33333333       0.33333333       0.34345395 </v>
    <v>       0.33250085       0.83374958       0.34327568 </v>
    <v>       0.83374958       0.33250085       0.34327568 </v>
    <v>       0.83374958       0.83374958       0.34327568 </v>
    <v>       0.00000000       0.00000000       0.41133998 </v>
    <v>       0.00039452       0.49980274       0.41101236 </v>
    <v>       0.49980274       0.00039452       0.41101236 </v>
    <v>       0.49980274       0.49980274       0.41101236 </v>
    <v>       0.16653383       0.16653383       0.47957689 </v>
    <v>       0.16653383       0.66693234       0.47957689 </v>
    <v>       0.66693234       0.16653383       0.47957689 </v>
    <v>       0.66666667       0.66666667       0.47585361 </v>
    <v>       0.66666667       0.66666667       0.53739436 </v>
    <v>       0.66666667       0.66666667       0.56299950 </v>
   </varray>
  </structure>
  <varray name="forces" >
   <v>      -0.00000000      -0.00000000       0.02287131 </v>
   <v>      -0.00050861       0.00029364       0.02845643 </v>
   <v>      -0.00000000      -0.00058729       0.02845643 </v>
   <v>       0.00050861       0.00029364       0.02845643 </v>
   <v>      -0.00039243      -0.00022657       0.03719778 </v>
   <v>      -0.00000000       0.00045314       0.03719778 </v>
   <v>       0.00039243      -0.00022657       0.03719778 </v>
   <v>      -0.00000000       0.00000000       0.03926823 </v>
   <v>      -0.00000000      -0.00000000      -0.05043312 </v>
   <v>       0.00528314      -0.00305022      -0.04454434 </v>
   <v>       0.00000000       0.00610045      -0.04454434 </v>
   <v>      -0.00528314      -0.00305022      -0.04454434 </v>
   <v>      -0.00000000       0.00000000      -0.00878535 </v>
   <v>      -0.00812955       0.00469360      -0.00964908 </v>
   <v>      -0.00000000      -0.00938720      -0.00964908 </v>
   <v>       0.00812955       0.00469360      -0.00964908 </v>
   <v>       0.00063318       0.00036556       0.00611607 </v>
   <v>      -0.00000000      -0.00073113       0.00611607 </v>
   <v>      -0.00063318       0.00036556       0.00611607 </v>
   <v>      -0.00000000      -0.00000000       0.00371921 </v>
   <v>      -0.00000000      -0.00000000      -0.03584265 </v>
   <v>       0.00238304      -0.00137585      -0.00129840 </v>
   <v>      -0.00000000       0.00275170      -0.00129840 </v>
   <v>      -0.00238304      -0.00137585      -0.00129840 </v>
   <v>      -0.00000000       0.00000000      -0.08208794 </v>
   <v>       0.09256767      -0.05344397      -0.22572028 </v>
   <v>       0.00000000       0.10688794      -0.22572028 </v>
   <v>      -0.09256767      -0.05344397      -0.22572028 </v>
   <v>       0.01475528       0.00851897      -0.05897677 </v>
   <v>       0.00000000      -0.01703793      -0.05897677 </v>
   <v>      -0.01475528       0.00851897      -0.05897677 </v>
   <v>      -0.00000000       0.00000000       0.25516130 </v>
   <v>      -0.00000000      -0.00000000       0.14958458 </v>
   <v>      -0.00000000      -0.00000000       0.51180020 </v>
  </varray>
  <varray name="stress" >
   <v>     -29.51139260       0.00000000       0.00000000 </v>
   <v>       0.00000000     -29.51139260       0.00000000 </v>
   <v>      -0.00000000      -0.00000000      -0.96123537 </v>
  </varray>
  <energy>
   <i name="e_fr_energy">   -134.90231123 </i>
   <i name="e_wo_entrp">   -134.87344536 </i>
   <i name="e_0_energy">   -134.89268927 </i>
  </energy>
  <time name="totalsc">   58.51   59.04</time>
 </calculation>
 <calculation>
  <scstep>
   <time name="dav">    4.56    4.60</time>
   <time name="total">    4.95    4.99</time>
   <energy>
    <i name="alphaZ">   1114.72537883 </i>
    <i name="ewald"> 217564.86585036 </i>
    <i name="hartreedc">-261082.96618819 </i>
    <i name="XCdc">   1434.00455447 </i>
    <i name="pawpsdc">  42181.95382356 </i>
    <i name="pawaedc"> -45634.72228064 </i>
    <i name="eentropy">     -0.02873723 </i>
    <i name="bandstr">   -234.28038938 </i>
    <i name="atom">  44535.60175172 </i>
    <i name="e_fr_energy">   -120.84623648 </i>
    <i name="e_wo_entrp">   -120.81749925 </i>
    <i name="e_0_energy">   -120.83665740 </i>
   </energy>
  </scstep>
  <scstep>
   <time name="dav">    6.59    6.65</time>
   <time name="total">    6.97    7.03</time>
   <energy>
    <i name="e_fr_energy">   -120.84713335 </i>
    <i name="e_wo_entrp">   -120.81802862 </i>
    <i name="e_0_energy">   -120.83743177 </i>
   </energy>
  </scstep>
  <scstep>
   <time name="dav">    4.27    4.31</time>
   <time name="total">    4.64    4.68</time>
   <energy>
    <i name="e_fr_energy">   -120.84678347 </i>
    <i name="e_wo_entrp">   -120.81754104 </i>
    <i name="e_0_energy">   -120.83703599 </i>
   </energy>
  </scstep>
  <scstep>
   <time name="dav">    3.28    3.31</time>
   <time name="total">    3.36    3.39</time>
   <energy>
    <i name="alphaZ">   1114.72537883 </i>
    <i name="ewald"> 217564.86585036 </i>
    <i name="hartreedc">-261083.06550303 </i>
    <i name="XCdc">   1434.00729640 </i>
    <i name="pawpsdc">  42182.87660094 </i>
    <i name="pawaedc"> -45635.66809176 </i>
    <i name="eentropy">     -0.02851297 </i>
    <i name="bandstr">   -234.16152372 </i>
    <i name="atom">  44535.60175172 </i>
    <i name="e_fr_energy">   -120.84675323 </i>
    <i name="e_wo_entrp">   -120.81824026 </i>
    <i name="e_0_energy">   -120.83724891 </i>
   </energy>
  </scstep>
  <structure>
   <crystal>
    <varray name="basis" >
     <v>       5.13359547       0.00000000       0.00000000 </v>
     <v>       2.56679773       4.44582409       0.00000000 </v>
     <v>       0.00000000       0.00000000      29.67047119 </v>
    </varray>
    <i name="volume">    677.17101477 </i>
    <varray name="rec_basis" >
     <v>       0.19479525      -0.11246509       0.00000000 </v>
     <v>       0.00000000       0.22493018       0.00000000 </v>
     <v>       0.00000000       0.00000000       0.03370354 </v>
    </varray>
   </crystal>
   <varray name="positions" >
    <v>       0.00000000       0.00000000       0.00066112 </v>
    <v>       0.99997712       0.50001144       0.00065498 </v>
    <v>       0.50001144      -0.00002288       0.00065498 </v>
    <v>       0.50001144       0.50001144       0.00065498 </v>
    <v>       0.16674916       0.16674916       0.07008900 </v>
    <v>       0.16674916       0.66650168       0.07008900 </v>
    <v>       0.66650168       0.16674916       0.07008900 </v>
    <v>       0.66666667       0.66666667       0.07017035 </v>
    <v>       0.33333333       0.33333333       0.13838221 </v>
    <v>       0.33293612       0.83353194       0.13834077 </v>
    <v>       0.83353194       0.33293612       0.13834077 </v>
    <v>       0.83353194       0.83353194       0.13834077 </v>
    <v>       0.00000000       0.00000000       0.20676609 </v>
    <v>       0.00014346       0.49992827       0.20668297 </v>
    <v>       0.49992827       0.00014346       0.20668297 </v>
    <v>       0.49992827       0.49992827       0.20668297 </v>
    <v>       0.16681366       0.16681366       0.27486274 </v>
    <v>       0.16681366       0.66637268       0.27486274 </v>
    <v>       0.66637268       0.16681366       0.27486274 </v>
    <v>       0.66666667       0.66666667       0.27504755 </v>
    <v>       0.33333333       0.33333333       0.34346459 </v>
    <v>       0.33247247       0.83376376       0.34328034 </v>
    <v>       0.83376376       0.33247247       0.34328034 </v>
    <v>       0.83376376       0.83376376       0.34328034 </v>
    <v>       0.00000000       0.00000000       0.41134434 </v>
    <v>       0.00047353       0.49976323       0.41099260 </v>
    <v>       0.49976323       0.00047353       0.41099260 </v>
    <v>       0.49976323       0.49976323       0.41099260 </v>
    <v>       0.16653304       0.16653304       0.47953734 </v>
    <v>       0.16653304       0.66693392       0.47953734 </v>
    <v>       0.66693392       0.16653304       0.47953734 </v>
    <v>       0.66666667       0.66666667       0.47569939 </v>
    <v>       0.66666667       0.66666667       0.53763766 </v>
    <v>       0.66666667       0.66666667       0.56304759 </v>
   </varray>
  </structure>
  <varray name="forces" >
   <v>      -0.00000000      -0.00000000       0.02284923 </v>
   <v>      -0.00054047       0.00031204       0.02917140 </v>
   <v>      -0.00000000      -0.00062408       0.02917140 </v>
   <v>       0.00054047       0.00031204       0.02917140 </v>
   <v>      -0.00051502      -0.00029735       0.04152426 </v>
   <v>      -0.00000000       0.00059470       0.04152426 </v>
   <v>       0.00051502      -0.00029735       0.04152426 </v>
   <v>      -0.00000000      -0.00000000       0.04326181 </v>
   <v>      -0.00000000       0.00000000      -0.05289563 </v>
   <v>       0.00571379      -0.00329886      -0.04681963 </v>
   <v>      -0.00000000       0.00659771      -0.04681963 </v>
   <v>      -0.00571379      -0.00329886      -0.04681963 </v>
   <v>      -0.00000000       0.00000000      -0.00536885 </v>
   <v>      -0.00853576       0.00492813      -0.00607340 </v>
   <v>      -0.00000000      -0.00985625      -0.00607340 </v>
   <v>       0.00853576       0.00492813      -0.00607340 </v>
   <v>       0.00039511       0.00022811       0.01211010 </v>
   <v>      -0.00000000      -0.00045623       0.01211010 </v>
   <v>      -0.00039511       0.00022811       0.01211010 </v>
   <v>      -0.00000000      -0.00000000       0.00852540 </v>
   <v>      -0.00000000       0.00000000      -0.04463678 </v>
   <v>       0.00282307      -0.00162990      -0.00568415 </v>
   <v>      -0.00000000       0.00325980      -0.00568415 </v>
   <v>      -0.00282307      -0.00162990      -0.00568415 </v>
   <v>      -0.00000000       0.00000000      -0.09243457 </v>
   <v>       0.09429587      -0.05444175      -0.23904110 </v>
   <v>      -0.00000000       0.10888349      -0.23904110 </v>
   <v>      -0.09429587      -0.05444175      -0.23904110 </v>
   <v>       0.01538653       0.00888341      -0.05891146 </v>
   <v>      -0.00000000      -0.01776683      -0.05891146 </v>
   <v>      -0.01538653       0.00888341      -0.05891146 </v>
   <v>      -0.00000000       0.00000000       0.28027446 </v>
   <v>      -0.00000000       0.00000000      -0.00621526 </v>
   <v>      -0.00000000      -0.00000000       0.66781216 </v>
  </varray>
  <varray name="stress" >
   <v>     -29.52738681      -0.00000000       0.00000000 </v>
   <v>       0.00000000     -29.52738681      -0.00000000 </v>
   <v>       0.00000000      -0.00000000      -0.83633641 </v>
  </varray>
  <energy>
   <i name="e_fr_energy">   -134.90339819 </i>
   <i name="e_wo_entrp">   -134.87488521 </i>
   <i name="e_0_energy">   -134.89389386 </i>
  </energy>
  <time name="totalsc">   28.71   28.99</time>
 </calculation>
 <calculation>
  <scstep>
   <time name="dav">    4.50    4.54</time>
   <time name="total">    4.89    4.93</time>
   <energy>
    <i name="alphaZ">   1114.72537883 </i>
    <i name="ewald"> 217904.31947169 </i>
    <i name="hartreedc">-261421.49636986 </i>
    <i name="XCdc">   1434.03460964 </i>
    <i name="pawpsdc">  42183.19955597 </i>
    <i name="pawaedc"> -45636.00158137 </i>
    <i name="eentropy">     -0.02772486 </i>
    <i name="bandstr">   -235.21361759 </i>
    <i name="atom">  44535.60175172 </i>
    <i name="e_fr_energy">   -120.85852582 </i>
    <i name="e_wo_entrp">   -120.83080096 </i>
    <i name="e_0_energy">   -120.84928420 </i>
   </energy>
  </scstep>
  <scstep>
   <time name="dav">    5.78    5.83</time>
   <time name="total">    6.17    6.22</time>
   <energy>
    <i name="e_fr_energy">   -120.86851897 </i>
    <i name="e_wo_entrp">   -120.83960135 </i>
    <i name="e_0_energy">   -120.85887976 </i>
   </energy>
  </scstep>
  <scstep>
   <time name="dav">    4.87    4.91</time>
   <time name="total">    5.24    5.29</time>
   <energy>
    <i name="e_fr_energy">   -120.86834603 </i>
    <i name="e_wo_entrp">   -120.83967959 </i>
    <i name="e_0_energy">   -120.85879055 </i>
   </energy>
  </scstep>
  <scstep>
   <time name="dav">    4.92    4.96</time>
   <time name="total">    5.31    5.35</time>
   <energy>
    <i name="e_fr_energy">   -120.86838290 </i>
    <i name="e_wo_entrp">   -120.84072876 </i>
    <i name="e_0_energy">   -120.85916485 </i>
   </energy>
  </scstep>
  <scstep>
   <time name="dav">    3.62    3.65</time>
   <time name="total">    4.00    4.04</time>
   <energy>
    <i name="e_fr_energy">   -120.87080861 </i>
    <i name="e_wo_entrp">   -120.84125693 </i>
    <i name="e_0_energy">   -120.86095805 </i>
   </energy>
  </scstep>
  <scstep>
   <time name="dav">    4.49    4.53</time>
   <time name="total">    4.88    4.92</time>
   <energy>
    <i name="e_fr_energy">   -120.86852955 </i>
    <i name="e_wo_entrp">   -120.83912062 </i>
    <i name="e_0_energy">   -120.85872658 </i>
   </energy>
  </scstep>
  <scstep>
   <time name="dav">    3.69    3.72</time>
   <time name="total">    4.08    4.11</time>
   <energy>
    <i name="e_fr_energy">   -120.86745536 </i>
    <i name="e_wo_entrp">   -120.83955665 </i>
    <i name="e_0_energy">   -120.85815579 </i>
   </energy>
  </scstep>
  <scstep>
   <time name="dav">    4.21    4.24</time>
   <time name="total">    4.28    4.32</time>
   <energy>
    <i name="alphaZ">   1114.72537883 </i>
    <i name="ewald"> 217904.31947169 </i>
    <i name="hartreedc">-261418.97300713 </i>
    <i name="XCdc">   1434.02367795 </i>
    <i name="pawpsdc">  42188.98335109 </i>
    <i name="pawaedc"> -45641.95203665 </i>
    <i name="eentropy">     -0.02827887 </i>
    <i name="bandstr">   -237.56776520 </i>
    <i name="atom">  44535.60175172 </i>
    <i name="e_fr_energy">   -120.86745656 </i>
    <i name="e_wo_entrp">   -120.83917769 </i>
    <i name="e_0_energy">   -120.85803027 </i>
   </energy>
  </scstep>
  <structure>
   <crystal>
    <varray name="basis" >
     <v>       5.13359547       0.00000000       0.00000000 </v>
     <v>       2.56679773       4.44582409       0.00000000 </v>
     <v>       0.00000000       0.00000000      29.67047119 </v>
    </varray>
    <i name="volume">    677.17101477 </i>
    <varray name="rec_basis" >
     <v>       0.19479525      -0.11246509       0.00000000 </v>
     <v>       0.00000000       0.22493018       0.00000000 </v>
     <v>       0.00000000       0.00000000       0.03370354 </v>
    </varray>
   </crystal>
   <varray name="positions" >
    <v>       0.00000000       0.00000000       0.00078229 </v>
    <v>       0.99996854       0.50001573       0.00078534 </v>
    <v>       0.50001573      -0.00003146       0.00078534 </v>
    <v>       0.50001573       0.50001573       0.00078534 </v>
    <v>       0.16675767       0.16675767       0.07008305 </v>
    <v>       0.16675767       0.66648465       0.07008305 </v>
    <v>       0.66648465       0.16675767       0.07008305 </v>
    <v>       0.66666667       0.66666667       0.07017813 </v>
    <v>       0.33333333       0.33333333       0.13828377 </v>
    <v>       0.33295837       0.83352081       0.13824692 </v>
    <v>       0.83352081       0.33295837       0.13824692 </v>
    <v>       0.83352081       0.83352081       0.13824692 </v>
    <v>       0.00000000       0.00000000       0.20677104 </v>
    <v>       0.00005292       0.49997354       0.20667564 </v>
    <v>       0.49997354       0.00005292       0.20667564 </v>
    <v>       0.49997354       0.49997354       0.20667564 </v>
    <v>       0.16683546       0.16683546       0.27487780 </v>
    <v>       0.16683546       0.66632908       0.27487780 </v>
    <v>       0.66632908       0.16683546       0.27487780 </v>
    <v>       0.66666667       0.66666667       0.27508090 </v>
    <v>       0.33333333       0.33333333       0.34344276 </v>
    <v>       0.33240067       0.83379967       0.34328931 </v>
    <v>       0.83379967       0.33240067       0.34328931 </v>
    <v>       0.83379967       0.83379967       0.34328931 </v>
    <v>       0.00000000       0.00000000       0.41123627 </v>
    <v>       0.00172604       0.49913698       0.41060276 </v>
    <v>       0.49913698       0.00172604       0.41060276 </v>
    <v>       0.49913698       0.49913698       0.41060276 </v>
    <v>       0.16660948       0.16660948       0.47931795 </v>
    <v>       0.16660948       0.66678103       0.47931795 </v>
    <v>       0.66678103       0.16660948       0.47931795 </v>
    <v>       0.66666667       0.66666667       0.47552570 </v>
    <v>       0.66666667       0.66666667       0.53849454 </v>
    <v>       0.66666667       0.66666667       0.56411143 </v>
   </varray>
  </structure>
  <varray name="forces" >
   <v>      -0.00000000      -0.00000000      -0.00569187 </v>
   <v>      -0.00086639       0.00050021      -0.00117009 </v>
   <v>      -0.00000000      -0.00100042      -0.00117009 </v>
   <v>       0.00086639       0.00050021      -0.00117009 </v>
   <v>      -0.00200009      -0.00115475       0.03692343 </v>
   <v>      -0.00000000       0.00230950       0.03692343 </v>
   <v>       0.00200009      -0.00115475       0.03692343 </v>
   <v>      -0.00000000      -0.00000000       0.03382883 </v>
   <v>      -0.00000000      -0.00000000      -0.02140978 </v>
   <v>       0.00351389      -0.00202875      -0.01762704 </v>
   <v>      -0.00000000       0.00405749      -0.01762704 </v>
   <v>      -0.00351389      -0.00202875      -0.01762704 </v>
   <v>      -0.00000000      -0.00000000      -0.02143784 </v>
   <v>      -0.00387742       0.00223863      -0.01689607 </v>
   <v>       0.00000000      -0.00447726      -0.01689607 </v>
   <v>       0.00387742       0.00223863      -0.01689607 </v>
[...]
       <r>    11.0687     7.3251   223.4949 </r>
       <r>    11.1486     6.2726   223.9958 </r>
       <r>    11.2284     7.9216   224.6284 </r>
       <r>    11.3083    12.0260   225.5887 </r>
       <r>    11.3881    14.4916   226.7459 </r>
       <r>    11.4680    12.0083   227.7047 </r>
       <r>    11.5478     6.7163   228.2410 </r>
       <r>    11.6277     3.4737   228.5184 </r>
       <r>    11.7075     3.9492   228.8338 </r>
       <r>    11.7874     6.0487   229.3168 </r>
       <r>    11.8672     7.1191   229.8853 </r>
       <r>    11.9471     5.9845   230.3631 </r>
       <r>    12.0269     3.4543   230.6390 </r>
       <r>    12.1068     1.3707   230.7484 </r>
       <r>    12.1866     0.5942   230.7959 </r>
       <r>    12.2665     0.5901   230.8430 </r>
       <r>    12.3463     0.8553   230.9113 </r>
       <r>    12.4262     1.3801   231.0215 </r>
       <r>    12.5060     1.9000   231.1732 </r>
       <r>    12.5859     2.0136   231.3340 </r>
       <r>    12.6658     1.8938   231.4852 </r>
       <r>    12.7456     1.9575   231.6415 </r>
       <r>    12.8255     2.0471   231.8050 </r>
       <r>    12.9053     1.6580   231.9374 </r>
       <r>    12.9852     0.8382   232.0043 </r>
       <r>    13.0650     0.1584   232.0169 </r>
       <r>    13.1449    -0.0912   232.0097 </r>
       <r>    13.2247    -0.0815   232.0032 </r>
       <r>    13.3046    -0.0310   232.0007 </r>
       <r>    13.3844    -0.0072   232.0001 </r>
       <r>    13.4643    -0.0011   232.0000 </r>
       <r>    13.5441    -0.0001   232.0000 </r>
       <r>    13.6240    -0.0000   232.0000 </r>
       <r>    13.7038    -0.0000   232.0000 </r>
       <r>    13.7837    -0.0000   232.0000 </r>
       <r>    13.8635    -0.0000   232.0000 </r>
       <r>    13.9434    -0.0000   232.0000 </r>
       <r>    14.0232    -0.0000   232.0000 </r>
       <r>    14.1031    -0.0000   232.0000 </r>
       <r>    14.1829     0.0000   232.0000 </r>
       <r>    14.2628     0.0000   232.0000 </r>
       <r>    14.3426     0.0000   232.0000 </r>
       <r>    14.4225     0.0000   232.0000 </r>
       <r>    14.5023     0.0000   232.0000 </r>
       <r>    14.5822     0.0000   232.0000 </r>
       <r>    14.6621     0.0000   232.0000 </r>
       <r>    14.7419     0.0000   232.0000 </r>
       <r>    14.8218     0.0000   232.0000 </r>
      </set>
      <set comment="spin 2">
       <r>    -9.1338     0.0000     0.0000 </r>
       <r>    -9.0540     0.0000     0.0000 </r>
       <r>    -8.9741     0.0000     0.0000 </r>
       <r>    -8.8943     0.0000     0.0000 </r>
       <r>    -8.8144     0.0000     0.0000 </r>
       <r>    -8.7346    -0.0000    -0.0000 </r>
       <r>    -8.6547    -0.0000    -0.0000 </r>
       <r>    -8.5749    -0.0000    -0.0000 </r>
       <r>    -8.4950    -0.0000    -0.0000 </r>
       <r>    -8.4152    -0.0000    -0.0000 </r>
       <r>    -8.3353    -0.0000    -0.0000 </r>
       <r>    -8.2555    -0.0000    -0.0000 </r>
       <r>    -8.1756    -0.0000    -0.0000 </r>
       <r>    -8.0958    -0.0000    -0.0000 </r>
       <r>    -8.0159    -0.0000    -0.0000 </r>
       <r>    -7.9361    -0.0000    -0.0000 </r>
       <r>    -7.8562    -0.0000    -0.0000 </r>
       <r>    -7.7764    -0.0000    -0.0000 </r>
       <r>    -7.6965    -0.0003    -0.0000 </r>
       <r>    -7.6167    -0.0020    -0.0002 </r>
       <r>    -7.5368    -0.0083    -0.0008 </r>
       <r>    -7.4570    -0.0205    -0.0025 </r>
       <r>    -7.3771    -0.0183    -0.0039 </r>
       <r>    -7.2972     0.0570     0.0006 </r>
       <r>    -7.2174     0.2383     0.0196 </r>
       <r>    -7.1375     0.4178     0.0530 </r>
       <r>    -7.0577     0.4159     0.0862 </r>
       <r>    -6.9778     0.2413     0.1055 </r>
       <r>    -6.8980     0.1239     0.1154 </r>
       <r>    -6.8181     0.2172     0.1327 </r>
       <r>    -6.7383     0.3870     0.1636 </r>
       <r>    -6.6584     0.3730     0.1934 </r>
       <r>    -6.5786     0.1310     0.2039 </r>
       <r>    -6.4987    -0.0252     0.2019 </r>
       <r>    -6.4189     0.3931     0.2332 </r>
       <r>    -6.3390     1.5197     0.3546 </r>
       <r>    -6.2592     2.6073     0.5628 </r>
       <r>    -6.1793     2.6476     0.7742 </r>
       <r>    -6.0995     1.8073     0.9185 </r>
       <r>    -6.0196     1.3619     1.0273 </r>
       <r>    -5.9398     1.9457     1.1826 </r>
       <r>    -5.8599     2.6540     1.3946 </r>
       <r>    -5.7801     2.3270     1.5804 </r>
       <r>    -5.7002     1.1320     1.6708 </r>
       <r>    -5.6204     0.0853     1.6776 </r>
       <r>    -5.5405    -0.3005     1.6536 </r>
       <r>    -5.4607     0.0174     1.6550 </r>
       <r>    -5.3808     1.1223     1.7446 </r>
       <r>    -5.3009     2.5914     1.9515 </r>
       <r>    -5.2211     3.2037     2.2073 </r>
       <r>    -5.1412     2.3258     2.3931 </r>
       <r>    -5.0614     0.8385     2.4600 </r>
       <r>    -4.9815    -0.1224     2.4502 </r>
       <r>    -4.9017    -0.2764     2.4282 </r>
       <r>    -4.8218     0.2890     2.4513 </r>
       <r>    -4.7420     1.4418     2.5664 </r>
       <r>    -4.6621     2.6462     2.7777 </r>
       <r>    -4.5823     3.4264     3.0513 </r>
       <r>    -4.5024     4.0616     3.3756 </r>
       <r>    -4.4226     4.7362     3.7538 </r>
       <r>    -4.3427     4.7086     4.1298 </r>
       <r>    -4.2629     3.4957     4.4089 </r>
       <r>    -4.1830     2.0837     4.5753 </r>
       <r>    -4.1032     1.7784     4.7173 </r>
       <r>    -4.0233     2.5356     4.9198 </r>
       <r>    -3.9435     3.6323     5.2099 </r>
       <r>    -3.8636     4.8879     5.6002 </r>
       <r>    -3.7838     5.9980     6.0791 </r>
       <r>    -3.7039     6.2368     6.5771 </r>
       <r>    -3.6241     5.7340     7.0350 </r>
       <r>    -3.5442     5.6095     7.4830 </r>
       <r>    -3.4644     6.2599     7.9828 </r>
       <r>    -3.3845     6.5917     8.5092 </r>
       <r>    -3.3046     5.6910     8.9636 </r>
       <r>    -3.2248     4.1188     9.2925 </r>
       <r>    -3.1449     2.9877     9.5311 </r>
       <r>    -3.0651     3.0617     9.7756 </r>
       <r>    -2.9852     4.4106    10.1278 </r>
       <r>    -2.9054     6.2078    10.6235 </r>
       <r>    -2.8255     8.0339    11.2650 </r>
       <r>    -2.7457    10.8622    12.1324 </r>
       <r>    -2.6658    15.3769    13.3602 </r>
       <r>    -2.5860    20.6219    15.0069 </r>
       <r>    -2.5061    24.8287    16.9895 </r>
       <r>    -2.4263    26.1648    19.0789 </r>
       <r>    -2.3464    23.7906    20.9786 </r>
       <r>    -2.2666    19.7229    22.5535 </r>
       <r>    -2.1867    17.8993    23.9828 </r>
       <r>    -2.1069    20.4485    25.6156 </r>
       <r>    -2.0270    26.3125    27.7167 </r>
       <r>    -1.9472    32.8442    30.3394 </r>
       <r>    -1.8673    37.2814    33.3164 </r>
       <r>    -1.7875    38.2422    36.3701 </r>
       <r>    -1.7076    36.2532    39.2650 </r>
       <r>    -1.6278    32.6109    41.8691 </r>
       <r>    -1.5479    29.2972    44.2085 </r>
       <r>    -1.4681    28.1738    46.4582 </r>
       <r>    -1.3882    29.6101    48.8227 </r>
       <r>    -1.3083    33.7885    51.5207 </r>
       <r>    -1.2285    40.5300    54.7571 </r>
       <r>    -1.1486    46.7861    58.4931 </r>
       <r>    -1.0688    49.0798    62.4122 </r>
       <r>    -0.9889    49.4620    66.3619 </r>
       <r>    -0.9091    53.2140    70.6111 </r>
       <r>    -0.8292    59.8252    75.3883 </r>
       <r>    -0.7494    63.5659    80.4641 </r>
       <r>    -0.6695    62.4282    85.4492 </r>
       <r>    -0.5897    59.3908    90.1916 </r>
       <r>    -0.5098    56.9593    94.7399 </r>
       <r>    -0.4300    55.4334    99.1664 </r>
       <r>    -0.3501    54.7385   103.5374 </r>
       <r>    -0.2703    54.2859   107.8722 </r>
       <r>    -0.1904    52.6208   112.0741 </r>
       <r>    -0.1106    50.2458   116.0863 </r>
       <r>    -0.0307    49.0618   120.0040 </r>
       <r>     0.0491    49.4646   123.9538 </r>
       <r>     0.1290    52.8690   128.1755 </r>
       <r>     0.2088    61.0686   133.0520 </r>
       <r>     0.2887    70.1462   138.6533 </r>
       <r>     0.3685    74.0903   144.5696 </r>
       <r>     0.4484    73.8706   150.4683 </r>
       <r>     0.5282    73.7832   156.3600 </r>
       <r>     0.6081    71.1376   162.0405 </r>
       <r>     0.6880    58.5328   166.7144 </r>
       <r>     0.7678    36.0742   169.5950 </r>
       <r>     0.8477    13.8957   170.7046 </r>
       <r>     0.9275     1.3014   170.8086 </r>
       <r>     1.0074    -1.3535   170.7005 </r>
       <r>     1.0872     0.5035   170.7407 </r>
       <r>     1.1671     2.3556   170.9288 </r>
       <r>     1.2469     3.1711   171.1820 </r>
       <r>     1.3268     3.8452   171.4891 </r>
       <r>     1.4066     4.7531   171.8686 </r>
       <r>     1.4865     5.0654   172.2731 </r>
       <r>     1.5663     3.9751   172.5905 </r>
       <r>     1.6462     2.2726   172.7720 </r>
       <r>     1.7260     2.1411   172.9429 </r>
       <r>     1.8059     4.8118   173.3272 </r>
       <r>     1.8857     8.8807   174.0363 </r>
       <r>     1.9656    11.5040   174.9549 </r>
       <r>     2.0454    11.2963   175.8570 </r>
       <r>     2.1253     9.7862   176.6384 </r>
       <r>     2.2051     9.0146   177.3582 </r>
       <r>     2.2850     8.2434   178.0165 </r>
       <r>     2.3648     5.7508   178.4757 </r>
       <r>     2.4447     2.7370   178.6943 </r>
       <r>     2.5245     1.9075   178.8466 </r>
       <r>     2.6044     3.6112   179.1349 </r>
       <r>     2.6843     5.9193   179.6076 </r>
       <r>     2.7641     6.9809   180.1650 </r>
       <r>     2.8440     6.1859   180.6590 </r>
       <r>     2.9238     4.5670   181.0237 </r>
       <r>     3.0037     3.7756   181.3252 </r>
       <r>     3.0835     3.7485   181.6245 </r>
       <r>     3.1634     3.2063   181.8805 </r>
       <r>     3.2432     2.2924   182.0636 </r>
       <r>     3.3231     2.3627   182.2523 </r>
       <r>     3.4029     3.9813   182.5702 </r>
       <r>     3.4828     6.5915   183.0965 </r>
       <r>     3.5626     9.1058   183.8236 </r>
       <r>     3.6425    10.1775   184.6363 </r>
       <r>     3.7223     8.9443   185.3505 </r>
       <r>     3.8022     6.1404   185.8409 </r>
       <r>     3.8820     3.7360   186.1392 </r>
       <r>     3.9619     2.7628   186.3598 </r>
       <r>     4.0417     2.3181   186.5449 </r>
       <r>     4.1216     1.4063   186.6572 </r>
       <r>     4.2014     0.3311   186.6836 </r>
       <r>     4.2813    -0.3143   186.6585 </r>
       <r>     4.3611    -0.4110   186.6257 </r>
       <r>     4.4410     0.3298   186.6521 </r>
       <r>     4.5208     2.3102   186.8365 </r>
       <r>     4.6007     4.6967   187.2116 </r>
       <r>     4.6806     5.6581   187.6634 </r>
       <r>     4.7604     4.8419   188.0500 </r>
       <r>     4.8403     3.6045   188.3378 </r>
       <r>     4.9201     2.5649   188.5427 </r>
       <r>     5.0000     1.3787   188.6528 </r>
       <r>     5.0798     0.2203   188.6703 </r>
       <r>     5.1597    -0.3386   188.6433 </r>
       <r>     5.2395     0.0794   188.6496 </r>
       <r>     5.3194     1.6650   188.7826 </r>
       <r>     5.3992     3.9741   189.0999 </r>
       <r>     5.4791     5.7862   189.5620 </r>
       <r>     5.5589     6.4858   190.0799 </r>
       <r>     5.6388     6.8540   190.6272 </r>
       <r>     5.7186     7.3702   191.2157 </r>
       <r>     5.7985     7.1987   191.7905 </r>
       <r>     5.8783     5.9519   192.2658 </r>
       <r>     5.9582     4.3902   192.6164 </r>
       <r>     6.0380     3.0212   192.8576 </r>
       <r>     6.1179     1.9655   193.0146 </r>
       <r>     6.1977     1.9010   193.1664 </r>
       <r>     6.2776     3.6647   193.4590 </r>
       <r>     6.3574     6.4716   193.9758 </r>
       <r>     6.4373     7.8340   194.6013 </r>
       <r>     6.5171     6.6949   195.1359 </r>
       <r>     6.5970     4.7754   195.5172 </r>
       <r>     6.6769     3.6825   195.8113 </r>
       <r>     6.7567     3.4430   196.0862 </r>
       <r>     6.8366     3.9761   196.4037 </r>
       <r>     6.9164     5.0184   196.8045 </r>
       <r>     6.9963     5.6251   197.2536 </r>
       <r>     7.0761     5.8878   197.7238 </r>
       <r>     7.1560     6.8513   198.2709 </r>
       <r>     7.2358     8.2070   198.9262 </r>
       <r>     7.3157     8.8697   199.6345 </r>
       <r>     7.3955     8.5745   200.3192 </r>
       <r>     7.4754     7.0983   200.8860 </r>
       <r>     7.5552     4.5440   201.2488 </r>
       <r>     7.6351     2.6299   201.4588 </r>
       <r>     7.7149     2.9157   201.6917 </r>
       <r>     7.7948     4.6406   202.0622 </r>
       <r>     7.8746     6.2771   202.5635 </r>
       <r>     7.9545     7.5796   203.1687 </r>
       <r>     8.0343     8.3266   203.8336 </r>
       <r>     8.1142     7.4537   204.4288 </r>
       <r>     8.1940     5.2830   204.8507 </r>
       <r>     8.2739     3.7637   205.1512 </r>
       <r>     8.3537     3.8808   205.4611 </r>
       <r>     8.4336     5.4622   205.8972 </r>
       <r>     8.5134     8.1881   206.5511 </r>
       <r>     8.5933    10.5420   207.3929 </r>
       <r>     8.6732    10.1862   208.2063 </r>
       <r>     8.7530     6.9996   208.7652 </r>
       <r>     8.8329     3.6099   209.0535 </r>
       <r>     8.9127     2.3963   209.2448 </r>
       <r>     8.9926     3.2522   209.5045 </r>
       <r>     9.0724     4.2596   209.8446 </r>
       <r>     9.1523     4.2296   210.1824 </r>
       <r>     9.2321     4.2188   210.5193 </r>
       <r>     9.3120     5.7488   210.9783 </r>
       <r>     9.3918     8.1675   211.6305 </r>
       <r>     9.4717     9.2433   212.3686 </r>
       <r>     9.5515     7.9335   213.0021 </r>
       <r>     9.6314     5.4822   213.4399 </r>
       <r>     9.7112     3.9188   213.7528 </r>
       <r>     9.7911     3.9168   214.0656 </r>
       <r>     9.8709     4.6910   214.4401 </r>
       <r>     9.9508     5.9046   214.9116 </r>
       <r>    10.0306     7.9236   215.5444 </r>
       <r>    10.1105     9.6620   216.3159 </r>
       <r>    10.1903     8.9988   217.0345 </r>
       <r>    10.2702     6.2532   217.5338 </r>
       <r>    10.3500     4.0543   217.8575 </r>
       <r>    10.4299     3.8513   218.1651 </r>
       <r>    10.5097     5.2489   218.5842 </r>
       <r>    10.5896     7.4521   219.1793 </r>
       <r>    10.6695     9.4341   219.9326 </r>
       <r>    10.7493    10.0694   220.7367 </r>
       <r>    10.8292     9.5286   221.4975 </r>
       <r>    10.9090     9.0613   222.2211 </r>
       <r>    10.9889     8.6282   222.9101 </r>
       <r>    11.0687     7.3248   223.4950 </r>
       <r>    11.1486     6.2726   223.9959 </r>
       <r>    11.2284     7.9220   224.6284 </r>
       <r>    11.3083    12.0266   225.5888 </r>
       <r>    11.3881    14.4919   226.7460 </r>
       <r>    11.4680    12.0079   227.7049 </r>
       <r>    11.5478     6.7156   228.2411 </r>
       <r>    11.6277     3.4733   228.5185 </r>
       <r>    11.7075     3.9491   228.8338 </r>
       <r>    11.7874     6.0488   229.3168 </r>
       <r>    11.8672     7.1191   229.8853 </r>
       <r>    11.9471     5.9844   230.3631 </r>
       <r>    12.0269     3.4542   230.6390 </r>
       <r>    12.1068     1.3706   230.7484 </r>
       <r>    12.1866     0.5942   230.7959 </r>
       <r>    12.2665     0.5901   230.8430 </r>
       <r>    12.3463     0.8553   230.9113 </r>
       <r>    12.4262     1.3801   231.0215 </r>
       <r>    12.5060     1.9000   231.1732 </r>
       <r>    12.5859     2.0136   231.3340 </r>
       <r>    12.6658     1.8938   231.4852 </r>
       <r>    12.7456     1.9575   231.6415 </r>
       <r>    12.8255     2.0471   231.8050 </r>
       <r>    12.9053     1.6579   231.9374 </r>
       <r>    12.9852     0.8381   232.0043 </r>
       <r>    13.0650     0.1584   232.0169 </r>
       <r>    13.1449    -0.0912   232.0097 </r>
       <r>    13.2247    -0.0815   232.0032 </r>
       <r>    13.3046    -0.0310   232.0007 </r>
       <r>    13.3844    -0.0072   232.0001 </r>
       <r>    13.4643    -0.0011   232.0000 </r>
       <r>    13.5441    -0.0001   232.0000 </r>
       <r>    13.6240    -0.0000   232.0000 </r>
       <r>    13.7038    -0.0000   232.0000 </r>
       <r>    13.7837    -0.0000   232.0000 </r>
       <r>    13.8635    -0.0000   232.0000 </r>
       <r>    13.9434    -0.0000   232.0000 </r>
       <r>    14.0232    -0.0000   232.0000 </r>
       <r>    14.1031    -0.0000   232.0000 </r>
       <r>    14.1829     0.0000   232.0000 </r>
       <r>    14.2628     0.0000   232.0000 </r>
       <r>    14.3426     0.0000   232.0000 </r>
       <r>    14.4225     0.0000   232.0000 </r>
       <r>    14.5023     0.0000   232.0000 </r>
       <r>    14.5822     0.0000   232.0000 </r>
       <r>    14.6621     0.0000   232.0000 </r>
       <r>    14.7419     0.0000   232.0000 </r>
       <r>    14.8218     0.0000   232.0000 </r>
      </set>
     </set>
    </array>
   </total>
  </dos>
 </calculation>
 <structure name="finalpos" >
  <crystal>
   <varray name="basis" >
    <v>       5.13359547       0.00000000       0.00000000 </v>
    <v>       2.56679773       4.44582409       0.00000000 </v>
    <v>       0.00000000       0.00000000      29.67047119 </v>
   </varray>
   <i name="volume">    677.17101477 </i>
   <varray name="rec_basis" >
    <v>       0.19479525      -0.11246509       0.00000000 </v>
    <v>       0.00000000       0.22493018       0.00000000 </v>
    <v>       0.00000000       0.00000000       0.03370354 </v>
   </varray>
  </crystal>
  <varray name="positions" >
   <v>       0.00000000       0.00000000      -0.00057313 </v>
   <v>       0.00000072       0.49999964      -0.00059037 </v>
   <v>       0.49999964       0.00000072      -0.00059037 </v>
   <v>       0.49999964       0.49999964      -0.00059037 </v>
   <v>       0.16660272       0.16660272       0.06854059 </v>
   <v>       0.16660272       0.66679456       0.06854059 </v>
   <v>       0.66679456       0.16660272       0.06854059 </v>
   <v>       0.66666667       0.66666667       0.06864440 </v>
   <v>       0.33333333       0.33333333       0.13612502 </v>
   <v>       0.33313819       0.83343091       0.13629134 </v>
   <v>       0.83343091       0.33313819       0.13629134 </v>
   <v>       0.83343091       0.83343091       0.13629134 </v>
   <v>       0.00000000       0.00000000       0.20443308 </v>
   <v>       0.00016846       0.49991577       0.20436146 </v>
   <v>       0.49991577       0.00016846       0.20436146 </v>
   <v>       0.49991577       0.49991577       0.20436146 </v>
   <v>       0.16669832       0.16669832       0.27253905 </v>
   <v>       0.16669832       0.66660336       0.27253905 </v>
   <v>       0.66660336       0.16669832       0.27253905 </v>
   <v>       0.66666667       0.66666667       0.27256068 </v>
   <v>       0.33333333       0.33333333       0.34081262 </v>
   <v>       0.33309582       0.83345209       0.34088247 </v>
   <v>       0.83345209       0.33309582       0.34088247 </v>
   <v>       0.83345209       0.83345209       0.34088247 </v>
   <v>       0.00000000       0.00000000       0.40889595 </v>
   <v>       0.00035721       0.49982140       0.40866388 </v>
   <v>       0.49982140       0.00035721       0.40866388 </v>
   <v>       0.49982140       0.49982140       0.40866388 </v>
   <v>       0.16681172       0.16681172       0.47798888 </v>
   <v>       0.16681172       0.66637657       0.47798888 </v>
   <v>       0.66637657       0.16681172       0.47798888 </v>
   <v>       0.66666667       0.66666667       0.47771826 </v>
   <v>       0.66666667       0.66666667       0.56770394 </v>
   <v>       0.66666667       0.66666667       0.59319036 </v>
  </varray>
 </structure>
</modeling>
