unknown system                          
           1
     5.133595    0.000000    0.000000
     2.566798    4.445824    0.000000
     0.000000    0.000000   29.670471
   Cu   H 
    32     2
Direct configuration=     1
   0.00000000  0.00000000  0.00000000
   1.00000000  0.50000000  0.00000000
   0.50000000  0.00000000  0.00000000
   0.50000000  0.50000000  0.00000000
   0.16666667  0.16666667  0.07063526
   0.16666667  0.66666667  0.07063526
   0.66666667  0.16666667  0.07063526
   0.66666667  0.66666667  0.07063526
   0.33333333  0.33333333  0.13847021
   0.33333333  0.83333333  0.13847021
   0.83333333  0.33333333  0.13847021
   0.83333333  0.83333333  0.13847021
   0.00000000  0.00000000  0.20667428
   1.00000000  0.50000000  0.20667428
   0.50000000  0.00000000  0.20667428
   0.50000000  0.50000000  0.20667428
   0.16666667  0.16666667  0.27488859
   0.16666667  0.66666667  0.27488859
   0.66666667  0.16666667  0.27488859
   0.66666667  0.66666667  0.27488859
   0.33333333  0.33333333  0.34319917
   0.33333333  0.83333333  0.34319917
   0.83333333  0.33333333  0.34319917
   0.83333333  0.83333333  0.34319917
   0.00000000  0.00000000  0.41105828
   1.00000000  0.50000000  0.41105828
   0.50000000  0.00000000  0.41105828
   0.50000000  0.50000000  0.41105828
   0.16666667  0.16666667  0.48054462
   0.16666667  0.66666667  0.48054462
   0.66666667  0.16666667  0.48054462
   0.66666667  0.66666667  0.48054462
   0.66666667  0.66666667  0.53425930
   0.66666667  0.66666667  0.55940215
Direct configuration=     2
   0.00000000  0.00000000  0.00024753
   0.99999120  0.50000440  0.00024240
   0.50000440 -0.00000880  0.00024240
   0.50000440  0.50000440  0.00024240
   0.16669781  0.16669781  0.07040671
   0.16669781  0.66660438  0.07040671
   0.66660438  0.16669781  0.07040671
   0.66666667  0.66666667  0.07043671
   0.33333333  0.33333333  0.13846532
   0.33315268  0.83342366  0.13844594
   0.83342366  0.33315268  0.13844594
   0.83342366  0.83342366  0.13844594
   0.00000000  0.00000000  0.20670947
   0.00009358  0.49995321  0.20667826
   0.49995321  0.00009358  0.20667826
   0.49995321  0.49995321  0.20667826
   0.16672239  0.16672239  0.27487459
   0.16672239  0.66655522  0.27487459
   0.66655522  0.16672239  0.27487459
   0.66666667  0.66666667  0.27494783
   0.33333333  0.33333333  0.34329593
   0.33298038  0.83350981  0.34321981
   0.83350981  0.33298038  0.34321981
   0.83350981  0.83350981  0.34321981
   0.00000000  0.00000000  0.41120783
   0.99979033  0.50010483  0.41114339
   0.50010483 -0.00020967  0.41114339
   0.50010483  0.50010483  0.41114339
   0.16658888  0.16658888  0.48017206
   0.16658888  0.66682225  0.48017206
   0.66682225  0.16658888  0.48017206
   0.66666667  0.66666667  0.47852321
   0.66666667  0.66666667  0.53480407
   0.66666667  0.66666667  0.56135570
Direct configuration=     3
   0.00000000  0.00000000  0.00039931
   0.99998580  0.50000710  0.00039103
   0.50000710 -0.00001420  0.00039103
   0.50000710  0.50000710  0.00039103
   0.16671691  0.16671691  0.07026657
   0.16671691  0.66656618  0.07026657
   0.66656618  0.16671691  0.07026657
   0.66666667  0.66666667  0.07031497
   0.33333333  0.33333333  0.13846231
   0.33304192  0.83347904  0.13843106
   0.83347904  0.33304192  0.13843106
   0.83347904  0.83347904  0.13843106
   0.00000000  0.00000000  0.20673104
   0.00015095  0.49992452  0.20668071
   0.49992452  0.00015095  0.20668071
   0.49992452  0.49992452  0.20668071
   0.16675656  0.16675656  0.27486600
   0.16675656  0.66648689  0.27486600
   0.66648689  0.16675656  0.27486600
   0.66666667  0.66666667  0.27498415
   0.33333333  0.33333333  0.34335526
   0.33276396  0.83361802  0.34323247
   0.83361802  0.33276396  0.34323247
   0.83361802  0.83361802  0.34323247
   0.00000000  0.00000000  0.41129953
   0.99966177  0.50016911  0.41119557
   0.50016911 -0.00033823  0.41119557
   0.50016911  0.50016911  0.41119557
   0.16654118  0.16654118  0.47994363
   0.16654118  0.66691764  0.47994363
   0.66691764  0.16654118  0.47994363
   0.66666667  0.66666667  0.47728377
   0.66666667  0.66666667  0.53513809
   0.66666667  0.66666667  0.56255355
Direct configuration=     4
   0.00000000  0.00000000  0.00063563
   0.99997796  0.50001102  0.00062929
   0.50001102 -0.00002204  0.00062929
   0.50001102  0.50001102  0.00062929
   0.16674602  0.16674602  0.07010628
   0.16674602  0.66650795  0.07010628
   0.66650795  0.16674602  0.07010628
   0.66666667  0.66666667  0.07018443
   0.33333333  0.33333333  0.13839001
   0.33294642  0.83352679  0.13834956
   0.83352679  0.33294642  0.13834956
   0.83352679  0.83352679  0.13834956
   0.00000000  0.00000000  0.20676268
   0.00014419  0.49992791  0.20668275
   0.49992791  0.00014419  0.20668275
   0.49992791  0.49992791  0.20668275
   0.16680810  0.16680810  0.27486306
   0.16680810  0.66638380  0.27486306
   0.66638380  0.16680810  0.27486306
   0.66666667  0.66666667  0.27504138
   0.33333333  0.33333333  0.34345395
   0.33250085  0.83374958  0.34327568
   0.83374958  0.33250085  0.34327568
   0.83374958  0.83374958  0.34327568
   0.00000000  0.00000000  0.41133998
   0.00039452  0.49980274  0.41101236
   0.49980274  0.00039452  0.41101236
   0.49980274  0.49980274  0.41101236
   0.16653383  0.16653383  0.47957689
   0.16653383  0.66693234  0.47957689
   0.66693234  0.16653383  0.47957689
   0.66666667  0.66666667  0.47585361
   0.66666667  0.66666667  0.53739436
   0.66666667  0.66666667  0.56299950
Direct configuration=     5
   0.00000000  0.00000000  0.00066112
   0.99997712  0.50001144  0.00065498
   0.50001144 -0.00002288  0.00065498
   0.50001144  0.50001144  0.00065498
   0.16674916  0.16674916  0.07008900
   0.16674916  0.66650168  0.07008900
   0.66650168  0.16674916  0.07008900
   0.66666667  0.66666667  0.07017035
   0.33333333  0.33333333  0.13838221
   0.33293612  0.83353194  0.13834077
   0.83353194  0.33293612  0.13834077
   0.83353194  0.83353194  0.13834077
   0.00000000  0.00000000  0.20676609
   0.00014346  0.49992827  0.20668297
   0.49992827  0.00014346  0.20668297
   0.49992827  0.49992827  0.20668297
   0.16681366  0.16681366  0.27486274
   0.16681366  0.66637268  0.27486274
   0.66637268  0.16681366  0.27486274
   0.66666667  0.66666667  0.27504755
   0.33333333  0.33333333  0.34346459
   0.33247247  0.83376376  0.34328034
   0.83376376  0.33247247  0.34328034
   0.83376376  0.83376376  0.34328034
   0.00000000  0.00000000  0.41134434
   0.00047353  0.49976323  0.41099260
   0.49976323  0.00047353  0.41099260
   0.49976323  0.49976323  0.41099260
   0.16653304  0.16653304  0.47953734
   0.16653304  0.66693392  0.47953734
   0.66693392  0.16653304  0.47953734
   0.66666667  0.66666667  0.47569939
   0.66666667  0.66666667  0.53763766
   0.66666667  0.66666667  0.56304759
Direct configuration=     6
   0.00000000  0.00000000  0.00078229
   0.99996854  0.50001573  0.00078534
   0.50001573 -0.00003146  0.00078534
   0.50001573  0.50001573  0.00078534
   0.16675767  0.16675767  0.07008305
   0.16675767  0.66648465  0.07008305
   0.66648465  0.16675767  0.07008305
   0.66666667  0.66666667  0.07017813
   0.33333333  0.33333333  0.13828377
   0.33295837  0.83352081  0.13824692
   0.83352081  0.33295837  0.13824692
   0.83352081  0.83352081  0.13824692
   0.00000000  0.00000000  0.20677104
   0.00005292  0.49997354  0.20667564
   0.49997354  0.00005292  0.20667564
   0.49997354  0.49997354  0.20667564
   0.16683546  0.16683546  0.27487780
   0.16683546  0.66632908  0.27487780
   0.66632908  0.16683546  0.27487780
   0.66666667  0.66666667  0.27508090
   0.33333333  0.33333333  0.34344276
   0.33240067  0.83379967  0.34328931
   0.83379967  0.33240067  0.34328931
   0.83379967  0.83379967  0.34328931
   0.00000000  0.00000000  0.41123627
   0.00172604  0.49913698  0.41060276
   0.49913698  0.00172604  0.41060276
   0.49913698  0.49913698  0.41060276
   0.16660948  0.16660948  0.47931795
   0.16660948  0.66678103  0.47931795
   0.66678103  0.16660948  0.47931795
   0.66666667  0.66666667  0.47552570
   0.66666667  0.66666667  0.53849454
   0.66666667  0.66666667  0.56411143
Direct configuration=     7
  -0.00000000  0.00000000  0.00105688
   0.99994911  0.50002544  0.00108076
   0.50002544 -0.00005089  0.00108076
   0.50002544  0.50002544  0.00108076
   0.16677696  0.16677696  0.07006957
   0.16677696  0.66644608  0.07006957
   0.66644608  0.16677696  0.07006957
   0.66666667  0.66666667  0.07019576
   0.33333333  0.33333333  0.13806067
   0.33300879  0.83349561  0.13803425
   0.83349561  0.33300879  0.13803425
   0.83349561  0.83349561  0.13803425
  -0.00000000  0.00000000  0.20678227
  -0.00015225  0.50007613  0.20665901
   0.50007613 -0.00015225  0.20665901
   0.50007613  0.50007613  0.20665901
   0.16688486  0.16688486  0.27491193
   0.16688486  0.66623028  0.27491193
   0.66623028  0.16688486  0.27491193
   0.66666667  0.66666667  0.27515646
   0.33333333  0.33333333  0.34339328
   0.33223794  0.83388103  0.34330963
   0.83388103  0.33223794  0.34330963
   0.83388103  0.83388103  0.34330963
  -0.00000000  0.00000000  0.41099136
   0.00456439  0.49771781  0.40971932
   0.49771781  0.00456439  0.40971932
   0.49771781  0.49771781  0.40971932
   0.16678272  0.16678272  0.47882077
   0.16678272  0.66643456  0.47882077
   0.66643456  0.16678272  0.47882077
   0.66666667  0.66666667  0.47513208
   0.66666667  0.66666667  0.54043636
   0.66666667  0.66666667  0.56652225
Direct configuration=     8
  -0.00000000  0.00000000  0.00116045
   0.99994179  0.50002911  0.00119219
   0.50002911 -0.00005821  0.00119219
   0.50002911  0.50002911  0.00119219
   0.16678424  0.16678424  0.07006448
   0.16678424  0.66643153  0.07006448
   0.66643153  0.16678424  0.07006448
   0.66666667  0.66666667  0.07020241
   0.33333333  0.33333333  0.13797653
   0.33302781  0.83348610  0.13795403
   0.83348610  0.33302781  0.13795403
   0.83348610  0.83348610  0.13795403
  -0.00000000  0.00000000  0.20678650
  -0.00022964  0.50011482  0.20665274
   0.50011482 -0.00022964  0.20665274
   0.50011482  0.50011482  0.20665274
   0.16690349  0.16690349  0.27492480
   0.16690349  0.66619301  0.27492480
   0.66619301  0.16690349  0.27492480
   0.66666667  0.66666667  0.27518496
   0.33333333  0.33333333  0.34337462
   0.33217656  0.83391172  0.34331730
   0.83391172  0.33217656  0.34331730
   0.83391172  0.83391172  0.34331730
  -0.00000000  0.00000000  0.41089899
   0.00563494  0.49718253  0.40938611
   0.49718253  0.00563494  0.40938611
   0.49718253  0.49718253  0.40938611
   0.16684806  0.16684806  0.47863325
   0.16684806  0.66630388  0.47863325
   0.66630388  0.16684806  0.47863325
   0.66666667  0.66666667  0.47498361
   0.66666667  0.66666667  0.54116877
   0.66666667  0.66666667  0.56743155
Direct configuration=     9
  -0.00000000  0.00000000  0.00122554
   0.99992566  0.50003717  0.00126563
   0.50003717 -0.00007434  0.00126563
   0.50003717  0.50003717  0.00126563
   0.16677291  0.16677291  0.07009439
   0.16677291  0.66645418  0.07009439
   0.66645418  0.16677291  0.07009439
   0.66666667  0.66666667  0.07023220
   0.33333333  0.33333333  0.13794019
   0.33303561  0.83348220  0.13792162
   0.83348220  0.33303561  0.13792162
   0.83348220  0.83348220  0.13792162
  -0.00000000  0.00000000  0.20674326
  -0.00026459  0.50013229  0.20661313
   0.50013229 -0.00026459  0.20661313
   0.50013229  0.50013229  0.20661313
   0.16688892  0.16688892  0.27492139
   0.16688892  0.66622215  0.27492139
   0.66622215  0.16688892  0.27492139
   0.66666667  0.66666667  0.27518803
   0.33333333  0.33333333  0.34306260
   0.33208400  0.83395800  0.34319662
   0.83395800  0.33208400  0.34319662
   0.83395800  0.83395800  0.34319662
  -0.00000000  0.00000000  0.41077003
   0.00558249  0.49720876  0.40916511
   0.49720876  0.00558249  0.40916511
   0.49720876  0.49720876  0.40916511
   0.16693645  0.16693645  0.47842513
   0.16693645  0.66612711  0.47842513
   0.66612711  0.16693645  0.47842513
   0.66666667  0.66666667  0.47498859
   0.66666667  0.66666667  0.54237131
   0.66666667  0.66666667  0.56821229
Direct configuration=    10
  -0.00000000  0.00000000  0.00137411
   0.99988885  0.50005558  0.00143325
   0.50005558 -0.00011115  0.00143325
   0.50005558  0.50005558  0.00143325
   0.16674707  0.16674707  0.07016266
   0.16674707  0.66650587  0.07016266
   0.66650587  0.16674707  0.07016266
   0.66666667  0.66666667  0.07030020
   0.33333333  0.33333333  0.13785725
   0.33305342  0.83347329  0.13784764
   0.83347329  0.33305342  0.13784764
   0.83347329  0.83347329  0.13784764
  -0.00000000  0.00000000  0.20664457
  -0.00034435  0.50017218  0.20652271
   0.50017218 -0.00034435  0.20652271
   0.50017218  0.50017218  0.20652271
   0.16685567  0.16685567  0.27491359
   0.16685567  0.66628867  0.27491359
   0.66628867  0.16685567  0.27491359
   0.66666667  0.66666667  0.27519503
   0.33333333  0.33333333  0.34235045
   0.33187276  0.83406362  0.34292119
   0.83406362  0.33187276  0.34292119
   0.83406362  0.83406362  0.34292119
  -0.00000000  0.00000000  0.41047570
   0.00546276  0.49726862  0.40866070
   0.49726862  0.00546276  0.40866070
   0.49726862  0.49726862  0.40866070
   0.16713817  0.16713817  0.47795013
   0.16713817  0.66572366  0.47795013
   0.66572366  0.16713817  0.47795013
   0.66666667  0.66666667  0.47499995
   0.66666667  0.66666667  0.54511599
   0.66666667  0.66666667  0.56999425
Direct configuration=    11
  -0.00000000  0.00000000  0.00140550
   0.99987905  0.50006048  0.00146974
   0.50006048 -0.00012095  0.00146974
   0.50006048  0.50006048  0.00146974
   0.16673422  0.16673422  0.07019292
   0.16673422  0.66653156  0.07019292
   0.66653156  0.16673422  0.07019292
   0.66666667  0.66666667  0.07032624
   0.33333333  0.33333333  0.13785476
   0.33305567  0.83347216  0.13784712
   0.83347216  0.33305567  0.13784712
   0.83347216  0.83347216  0.13784712
  -0.00000000  0.00000000  0.20660411
  -0.00034717  0.50017358  0.20648998
   0.50017358 -0.00034717  0.20648998
   0.50017358  0.50017358  0.20648998
   0.16681739  0.16681739  0.27487702
   0.16681739  0.66636522  0.27487702
   0.66636522  0.16681739  0.27487702
   0.66666667  0.66666667  0.27516706
   0.33333333  0.33333333  0.34207845
   0.33180640  0.83409680  0.34279670
   0.83409680  0.33180640  0.34279670
   0.83409680  0.83409680  0.34279670
  -0.00000000  0.00000000  0.41036350
   0.00505444  0.49747278  0.40855625
   0.49747278  0.00505444  0.40855625
   0.49747278  0.49747278  0.40855625
   0.16719585  0.16719585  0.47780634
   0.16719585  0.66560830  0.47780634
   0.66560830  0.16719585  0.47780634
   0.66666667  0.66666667  0.47504437
   0.66666667  0.66666667  0.54578502
   0.66666667  0.66666667  0.57080591
Direct configuration=    12
  -0.00000000  0.00000000  0.00149966
   0.99984965  0.50007518  0.00157918
   0.50007518 -0.00015035  0.00157918
   0.50007518  0.50007518  0.00157918
   0.16669568  0.16669568  0.07028370
   0.16669568  0.66660863  0.07028370
   0.66660863  0.16669568  0.07028370
   0.66666667  0.66666667  0.07040436
   0.33333333  0.33333333  0.13784728
   0.33306244  0.83346878  0.13784557
   0.83346878  0.33306244  0.13784557
   0.83346878  0.83346878  0.13784557
  -0.00000000  0.00000000  0.20648274
  -0.00035562  0.50017781  0.20639180
   0.50017781 -0.00035562  0.20639180
   0.50017781  0.50017781  0.20639180
   0.16670256  0.16670256  0.27476730
   0.16670256  0.66659488  0.27476730
   0.66659488  0.16670256  0.27476730
   0.66666667  0.66666667  0.27508314
   0.33333333  0.33333333  0.34126243
   0.33160732  0.83419634  0.34242323
   0.83419634  0.33160732  0.34242323
   0.83419634  0.83419634  0.34242323
  -0.00000000  0.00000000  0.41002693
   0.00382950  0.49808525  0.40824289
   0.49808525  0.00382950  0.40824289
   0.49808525  0.49808525  0.40824289
   0.16736888  0.16736888  0.47737497
   0.16736888  0.66526225  0.47737497
   0.66526225  0.16736888  0.47737497
   0.66666667  0.66666667  0.47517764
   0.66666667  0.66666667  0.54779208
   0.66666667  0.66666667  0.57324092
Direct configuration=    13
  -0.00000000  0.00000000  0.00168799
   0.99979085  0.50010457  0.00179808
   0.50010457 -0.00020915  0.00179808
   0.50010458  0.50010457  0.00179808
   0.16661861  0.16661861  0.07046525
   0.16661861  0.66676278  0.07046525
   0.66676278  0.16661861  0.07046525
   0.66666667  0.66666667  0.07056060
   0.33333333  0.33333333  0.13783232
   0.33307598  0.83346201  0.13784248
   0.83346201  0.33307598  0.13784248
   0.83346201  0.83346201  0.13784248
  -0.00000000  0.00000000  0.20623999
  -0.00037251  0.50018625  0.20619543
   0.50018625 -0.00037251  0.20619543
   0.50018625  0.50018625  0.20619543
   0.16647290  0.16647290  0.27454787
   0.16647290  0.66705421  0.27454787
   0.66705421  0.16647290  0.27454787
   0.66666667  0.66666667  0.27491530
   0.33333333  0.33333333  0.33963041
   0.33120915  0.83439542  0.34167630
   0.83439542  0.33120915  0.34167630
   0.83439542  0.83439542  0.34167630
  -0.00000000  0.00000000  0.40935377
   0.00137962  0.49931019  0.40761617
   0.49931019  0.00137962  0.40761617
   0.49931019  0.49931019  0.40761617
   0.16771493  0.16771493  0.47651223
   0.16771493  0.66457014  0.47651223
   0.66457014  0.16771493  0.47651223
   0.66666667  0.66666667  0.47544419
   0.66666667  0.66666667  0.55180621
   0.66666667  0.66666667  0.57811093
Direct configuration=    14
  -0.00000000  0.00000000  0.00161781
   0.99981276  0.50009362  0.00171651
   0.50009362 -0.00018724  0.00171651
   0.50009362  0.50009362  0.00171651
   0.16664733  0.16664733  0.07039759
   0.16664733  0.66670534  0.07039759
   0.66670534  0.16664733  0.07039759
   0.66666667  0.66666667  0.07050238
   0.33333333  0.33333333  0.13783790
   0.33307094  0.83346453  0.13784363
   0.83346453  0.33307094  0.13784363
   0.83346453  0.83346453  0.13784363
  -0.00000000  0.00000000  0.20633045
  -0.00036621  0.50018311  0.20626860
   0.50018311 -0.00036621  0.20626860
   0.50018311  0.50018311  0.20626860
   0.16655848  0.16655848  0.27462964
   0.16655848  0.66688305  0.27462964
   0.66688305  0.16655848  0.27462964
   0.66666667  0.66666667  0.27497784
   0.33333333  0.33333333  0.34023857
   0.33135753  0.83432124  0.34195463
   0.83432124  0.33135752  0.34195463
   0.83432124  0.83432124  0.34195463
  -0.00000000  0.00000000  0.40960462
   0.00229254  0.49885373  0.40784971
   0.49885373  0.00229254  0.40784971
   0.49885373  0.49885373  0.40784971
   0.16758598  0.16758598  0.47683372
   0.16758598  0.66482804  0.47683372
   0.66482804  0.16758598  0.47683372
   0.66666667  0.66666667  0.47534486
   0.66666667  0.66666667  0.55031039
   0.66666667  0.66666667  0.57629617
Direct configuration=    15
   0.00000000  0.00000000  0.00162901
   0.99982445  0.50008778  0.00173002
   0.50008778 -0.00017555  0.00173002
   0.50008778  0.50008778  0.00173002
   0.16663352  0.16663352  0.07044261
   0.16663352  0.66673297  0.07044261
   0.66673297  0.16663352  0.07044261
   0.66666667  0.66666667  0.07053714
   0.33333333  0.33333333  0.13788894
   0.33308863  0.83345569  0.13789365
   0.83345569  0.33308863  0.13789365
   0.83345569  0.83345569  0.13789365
   0.00000000  0.00000000  0.20627636
  -0.00032934  0.50016467  0.20623840
   0.50016467 -0.00032934  0.20623840
   0.50016467  0.50016467  0.20623840
   0.16639753  0.16639753  0.27439396
   0.16639753  0.66720494  0.27439396
   0.66720494  0.16639753  0.27439396
   0.66666667  0.66666667  0.27479425
   0.33333333  0.33333333  0.34009774
   0.33138053  0.83430974  0.34176976
   0.83430974  0.33138053  0.34176976
   0.83430974  0.83430974  0.34176976
   0.00000000  0.00000000  0.40937776
   0.00162719  0.49918640  0.40777448
   0.49918640  0.00162719  0.40777448
   0.49918640  0.49918640  0.40777448
   0.16758901  0.16758901  0.47668435
   0.16758901  0.66482199  0.47668435
   0.66482199  0.16758901  0.47668435
   0.66666667  0.66666667  0.47548196
   0.66666667  0.66666667  0.55145447
   0.66666667  0.66666667  0.57722377
Direct configuration=    16
   0.00000000  0.00000000  0.00165694
   0.99985358  0.50007321  0.00176372
   0.50007321 -0.00014642  0.00176372
   0.50007321  0.50007321  0.00176372
   0.16659907  0.16659907  0.07055485
   0.16659907  0.66680185  0.07055485
   0.66680185  0.16659907  0.07055485
   0.66666667  0.66666667  0.07062381
   0.33333333  0.33333333  0.13801618
   0.33313274  0.83343363  0.13801835
   0.83343363  0.33313274  0.13801835
   0.83343363  0.83343363  0.13801835
   0.00000000  0.00000000  0.20614153
  -0.00023742  0.50011871  0.20616312
   0.50011871 -0.00023742  0.20616312
   0.50011871  0.50011871  0.20616312
   0.16599629  0.16599629  0.27380642
   0.16599629  0.66800742  0.27380642
   0.66800742  0.16599629  0.27380642
   0.66666667  0.66666667  0.27433656
   0.33333333  0.33333333  0.33974669
   0.33143787  0.83428106  0.34130886
   0.83428106  0.33143787  0.34130886
   0.83428106  0.83428106  0.34130886
   0.00000000  0.00000000  0.40881221
  -0.00003149  0.50001574  0.40758694
   0.50001574 -0.00003149  0.40758694
   0.50001574  0.50001574  0.40758694
   0.16759656  0.16759656  0.47631196
   0.16759656  0.66480688  0.47631196
   0.66480688  0.16759656  0.47631196
   0.66666667  0.66666667  0.47582373
   0.66666667  0.66666667  0.55430661
   0.66666667  0.66666667  0.57953621
Direct configuration=    17
   0.00000000  0.00000000  0.00166842
   0.99986555  0.50006723  0.00177757
   0.50006723 -0.00013445  0.00177757
   0.50006723  0.50006723  0.00177757
   0.16658492  0.16658492  0.07060097
   0.16658492  0.66683016  0.07060097
   0.66683016  0.16658492  0.07060097
   0.66666667  0.66666667  0.07065942
   0.33333333  0.33333333  0.13806847
   0.33315086  0.83342457  0.13806960
   0.83342457  0.33315086  0.13806960
   0.83342457  0.83342457  0.13806960
   0.00000000  0.00000000  0.20608611
  -0.00019965  0.50009982  0.20613218
   0.50009982 -0.00019965  0.20613218
   0.50009982  0.50009982  0.20613218
   0.16583140  0.16583140  0.27356496
   0.16583140  0.66833720  0.27356496
   0.66833720  0.16583140  0.27356496
   0.66666667  0.66666667  0.27414847
   0.33333333  0.33333333  0.33960242
   0.33146144  0.83426928  0.34111945
   0.83426928  0.33146144  0.34111945
   0.83426928  0.83426928  0.34111945
   0.00000000  0.00000000  0.40857980
  -0.00071313  0.50035656  0.40750986
   0.50035656 -0.00071313  0.40750986
   0.50035656  0.50035656  0.40750986
   0.16759966  0.16759966  0.47615893
   0.16759966  0.66480068  0.47615893
   0.66480068  0.16759966  0.47615893
   0.66666667  0.66666667  0.47596418
   0.66666667  0.66666667  0.55547871
   0.66666667  0.66666667  0.58048653
Direct configuration=    18
   0.00000000  0.00000000  0.00165902
   0.99990273  0.50004864  0.00176469
   0.50004864 -0.00009727  0.00176469
   0.50004864  0.50004864  0.00176469
   0.16658470  0.16658470  0.07064909
   0.16658470  0.66683061  0.07064909
   0.66683061  0.16658470  0.07064909
   0.66666667  0.66666667  0.07069474
   0.33333333  0.33333333  0.13814537
   0.33320571  0.83339714  0.13814146
   0.83339714  0.33320571  0.13814146
   0.83339714  0.83339714  0.13814146
   0.00000000  0.00000000  0.20595516
  -0.00018072  0.50009036  0.20606188
   0.50009036 -0.00018072  0.20606188
   0.50009036  0.50009036  0.20606188
   0.16572346  0.16572345  0.27318963
   0.16572346  0.66855309  0.27318963
   0.66855309  0.16572345  0.27318963
   0.66666667  0.66666667  0.27382102
   0.33333333  0.33333333  0.33965660
   0.33166953  0.83416523  0.34087294
   0.83416523  0.33166953  0.34087294
   0.83416524  0.83416523  0.34087294
   0.00000000  0.00000000  0.40824108
  -0.00113971  0.50056985  0.40744328
   0.50056985 -0.00113971  0.40744328
   0.50056985  0.50056985  0.40744328
   0.16748719  0.16748719  0.47602793
   0.16748719  0.66502563  0.47602793
   0.66502563  0.16748719  0.47602793
   0.66666667  0.66666667  0.47616160
   0.66666667  0.66666667  0.55663494
   0.66666667  0.66666667  0.58212081
Direct configuration=    19
   0.00000000  0.00000000  0.00165617
   0.99991400  0.50004300  0.00176079
   0.50004300 -0.00008600  0.00176079
   0.50004300  0.50004300  0.00176079
   0.16658463  0.16658463  0.07066369
   0.16658463  0.66683074  0.07066369
   0.66683074  0.16658463  0.07066369
   0.66666667  0.66666667  0.07070545
   0.33333333  0.33333333  0.13816869
   0.33322235  0.83338883  0.13816325
   0.83338883  0.33322235  0.13816325
   0.83338883  0.83338883  0.13816325
   0.00000000  0.00000000  0.20591545
  -0.00017497  0.50008749  0.20604057
   0.50008749 -0.00017497  0.20604057
   0.50008749  0.50008749  0.20604057
   0.16569072  0.16569072  0.27307582
   0.16569072  0.66861856  0.27307582
   0.66861856  0.16569072  0.27307582
   0.66666667  0.66666667  0.27372172
   0.33333333  0.33333333  0.33967303
   0.33173263  0.83413368  0.34079819
   0.83413368  0.33173263  0.34079819
   0.83413368  0.83413368  0.34079819
   0.00000000  0.00000000  0.40813837
  -0.00126906  0.50063453  0.40742309
   0.50063453 -0.00126906  0.40742309
   0.50063453  0.50063453  0.40742309
   0.16745308  0.16745308  0.47598821
   0.16745308  0.66509384  0.47598821
   0.66509384  0.16745308  0.47598821
   0.66666667  0.66666667  0.47622146
   0.66666667  0.66666667  0.55698555
   0.66666667  0.66666667  0.58261639
Direct configuration=    20
   0.00000000  0.00000000  0.00165047
   0.99993655  0.50003172  0.00175298
   0.50003172 -0.00006345  0.00175298
   0.50003172  0.50003172  0.00175298
   0.16658449  0.16658449  0.07069287
   0.16658449  0.66683102  0.07069287
   0.66683102  0.16658449  0.07069287
   0.66666667  0.66666667  0.07072688
   0.33333333  0.33333333  0.13821533
   0.33325562  0.83337219  0.13820683
   0.83337219  0.33325562  0.13820683
   0.83337219  0.83337219  0.13820683
   0.00000000  0.00000000  0.20583603
  -0.00016349  0.50008175  0.20599793
   0.50008175 -0.00016349  0.20599793
   0.50008175  0.50008175  0.20599793
   0.16562525  0.16562525  0.27284819
   0.16562525  0.66874949  0.27284819
   0.66874949  0.16562525  0.27284819
   0.66666667  0.66666667  0.27352312
   0.33333333  0.33333333  0.33970589
   0.33185883  0.83407058  0.34064869
   0.83407058  0.33185883  0.34064869
   0.83407058  0.83407058  0.34064869
   0.00000000  0.00000000  0.40793294
  -0.00152777  0.50076388  0.40738270
   0.50076388 -0.00152777  0.40738270
   0.50076388  0.50076388  0.40738270
   0.16738487  0.16738487  0.47590877
   0.16738487  0.66523027  0.47590877
   0.66523027  0.16738487  0.47590877
   0.66666667  0.66666667  0.47634119
   0.66666667  0.66666667  0.55768677
   0.66666667  0.66666667  0.58360755
Direct configuration=    21
   0.00000000  0.00000000  0.00165316
   0.99992592  0.50003704  0.00175666
   0.50003704 -0.00007408  0.00175666
   0.50003704  0.50003704  0.00175666
   0.16658456  0.16658456  0.07067911
   0.16658456  0.66683089  0.07067911
   0.66683089  0.16658456  0.07067911
   0.66666667  0.66666667  0.07071678
   0.33333333  0.33333333  0.13819335
   0.33323993  0.83338003  0.13818629
   0.83338003  0.33323993  0.13818629
   0.83338003  0.83338003  0.13818629
   0.00000000  0.00000000  0.20587347
  -0.00016891  0.50008445  0.20601803
   0.50008445 -0.00016891  0.20601803
   0.50008445  0.50008445  0.20601803
   0.16565611  0.16565611  0.27295549
   0.16565611  0.66868777  0.27295549
   0.66868777  0.16565611  0.27295549
   0.66666667  0.66666667  0.27361674
   0.33333333  0.33333333  0.33969040
   0.33179934  0.83410033  0.34071916
   0.83410033  0.33179934  0.34071916
   0.83410033  0.83410033  0.34071916
   0.00000000  0.00000000  0.40802977
  -0.00140582  0.50070291  0.40740174
   0.50070291 -0.00140582  0.40740174
   0.50070291  0.50070291  0.40740174
   0.16741702  0.16741702  0.47594622
   0.16741702  0.66516596  0.47594622
   0.66516596  0.16741702  0.47594622
   0.66666667  0.66666667  0.47628475
   0.66666667  0.66666667  0.55735623
   0.66666667  0.66666667  0.58314034
Direct configuration=    22
   0.00000000  0.00000000  0.00163415
   0.99995544  0.50002228  0.00172877
   0.50002228 -0.00004456  0.00172877
   0.50002228  0.50002228  0.00172877
   0.16660356  0.16660356  0.07069268
   0.16660356  0.66679289  0.07069268
   0.66679289  0.16660356  0.07069268
   0.66666667  0.66666667  0.07072500
   0.33333333  0.33333333  0.13821549
   0.33330275  0.83334863  0.13820008
   0.83334863  0.33330275  0.13820008
   0.83334863  0.83334863  0.13820008
   0.00000000  0.00000000  0.20572752
  -0.00021354  0.50010677  0.20592827
   0.50010677 -0.00021354  0.20592827
   0.50010677  0.50010677  0.20592827
   0.16581259  0.16581259  0.27280787
   0.16581259  0.66837482  0.27280787
   0.66837482  0.16581259  0.27280787
   0.66666667  0.66666667  0.27342438
   0.33333333  0.33333333  0.33987531
   0.33207615  0.83396192  0.34058710
   0.83396192  0.33207615  0.34058710
   0.83396192  0.83396192  0.34058710
   0.00000000  0.00000000  0.40785484
  -0.00110924  0.50055462  0.40739910
   0.50055462 -0.00110924  0.40739910
   0.50055462  0.50055462  0.40739910
   0.16724271  0.16724271  0.47595404
   0.16724271  0.66551457  0.47595404
   0.66551457  0.16724271  0.47595404
   0.66666667  0.66666667  0.47637730
   0.66666667  0.66666667  0.55808773
   0.66666667  0.66666667  0.58372770
Direct configuration=    23
   0.00000000  0.00000000  0.00157712
   0.00004400  0.49997800  0.00164507
   0.49997800  0.00004400  0.00164507
   0.49997800  0.49997800  0.00164507
   0.16666056  0.16666056  0.07073338
   0.16666056  0.66667888  0.07073338
   0.66667888  0.16666056  0.07073338
   0.66666667  0.66666667  0.07074965
   0.33333333  0.33333333  0.13828190
   0.33349119  0.83325440  0.13824143
   0.83325440  0.33349119  0.13824143
   0.83325440  0.83325440  0.13824143
   0.00000000  0.00000000  0.20528970
  -0.00034746  0.50017373  0.20565899
   0.50017373 -0.00034746  0.20565899
   0.50017373  0.50017373  0.20565899
   0.16628201  0.16628201  0.27236501
   0.16628201  0.66743598  0.27236501
   0.66743598  0.16628201  0.27236501