       N       E                     dE             d eps       ncg     rms          rms(c)
DAV:   1     0.156457664728E+05    0.15646E+05   -0.56230E+05 12336   0.190E+03
DAV:   2     0.232159292911E+04   -0.13324E+05   -0.12747E+05 12336   0.453E+02
DAV:   3    -0.366825990649E+03   -0.26884E+04   -0.24336E+04 12376   0.233E+02
DAV:   4    -0.611469269348E+03   -0.24464E+03   -0.22832E+03 14240   0.955E+01
DAV:   5    -0.620839155123E+03   -0.93699E+01   -0.92514E+01 15384   0.171E+01    0.113E+02
