  14  14   0   0
  0.2436785E+02  0.3630000E-09  0.3630000E-09  0.2589000E-08  0.5000000E-15
  1.000000000000000E-004
  CAR 
 unknown system                          
     12.67552844     -9.92402546  301      1.43497877      1.00000000
     -9.924  0.0000E+00  0.0000E+00  0.0000E+00  0.0000E+00
     -9.849  0.0000E+00  0.0000E+00  0.0000E+00  0.0000E+00
     -9.773  0.0000E+00  0.0000E+00  0.0000E+00  0.0000E+00
     -9.698  0.0000E+00  0.0000E+00  0.0000E+00  0.0000E+00
     -9.623  0.0000E+00  0.0000E+00  0.0000E+00  0.0000E+00
     -9.547 -0.1032E-30 -0.1032E-30 -0.7775E-32 -0.7776E-32
     -9.472 -0.3853E-28 -0.3853E-28 -0.2910E-29 -0.2910E-29
     -9.397 -0.1082E-25 -0.1082E-25 -0.8183E-27 -0.8183E-27
     -9.321 -0.2283E-23 -0.2283E-23 -0.1728E-24 -0.1728E-24
     -9.246 -0.3613E-21 -0.3613E-21 -0.2739E-22 -0.2739E-22
     -9.171 -0.4290E-19 -0.4290E-19 -0.3259E-20 -0.3259E-20
     -9.095 -0.3716E-17 -0.3716E-17 -0.2832E-18 -0.2832E-18
     -9.020 -0.2462E-15 -0.2462E-15 -0.1883E-16 -0.1883E-16
     -8.945 -0.1223E-13 -0.1223E-13 -0.9398E-15 -0.9398E-15
     -8.869 -0.4531E-12 -0.4531E-12 -0.3507E-13 -0.3508E-13
     -8.794 -0.1251E-10 -0.1251E-10 -0.9777E-12 -0.9777E-12
     -8.719 -0.2567E-09 -0.2567E-09 -0.2032E-10 -0.2032E-10
     -8.643 -0.3898E-08 -0.3898E-08 -0.3140E-09 -0.3140E-09
     -8.568 -0.4354E-07 -0.4354E-07 -0.3594E-08 -0.3594E-08
     -8.493 -0.3545E-06 -0.3545E-06 -0.3030E-07 -0.3030E-07
     -8.417 -0.2071E-05 -0.2071E-05 -0.1863E-06 -0.1863E-06
     -8.342 -0.8423E-05 -0.8424E-05 -0.8208E-06 -0.8208E-06
     -8.267 -0.2222E-04 -0.2222E-04 -0.2495E-05 -0.2495E-05
     -8.191 -0.2920E-04 -0.2920E-04 -0.4695E-05 -0.4695E-05
     -8.116  0.2455E-04  0.2455E-04 -0.2845E-05 -0.2845E-05
     -8.041  0.1991E-03  0.1991E-03  0.1216E-04  0.1216E-04
     -7.965  0.4453E-03  0.4453E-03  0.4570E-04  0.4570E-04
     -7.890  0.5759E-03  0.5759E-03  0.8908E-04  0.8908E-04
     -7.815  0.4664E-03  0.4664E-03  0.1242E-03  0.1242E-03
     -7.739  0.2208E-03  0.2208E-03  0.1409E-03  0.1409E-03
     -7.664  0.2891E-04  0.2891E-04  0.1430E-03  0.1430E-03
     -7.589 -0.4768E-04 -0.4768E-04  0.1394E-03  0.1394E-03
     -7.513 -0.5398E-04 -0.5398E-04  0.1354E-03  0.1354E-03
     -7.438  0.1887E-06  0.1891E-06  0.1354E-03  0.1354E-03
     -7.363  0.1628E-03  0.1628E-03  0.1476E-03  0.1476E-03
     -7.287  0.4099E-03  0.4099E-03  0.1785E-03  0.1785E-03
     -7.212  0.5698E-03  0.5698E-03  0.2215E-03  0.2215E-03
     -7.137  0.4895E-03  0.4895E-03  0.2583E-03  0.2583E-03
     -7.061  0.2294E-03  0.2294E-03  0.2756E-03  0.2756E-03
     -6.986 -0.2708E-04 -0.2708E-04  0.2736E-03  0.2736E-03
     -6.911 -0.1445E-03 -0.1445E-03  0.2627E-03  0.2627E-03
     -6.835  0.3258E-04  0.3258E-04  0.2651E-03  0.2651E-03
     -6.760  0.6967E-03  0.6967E-03  0.3176E-03  0.3176E-03
     -6.685  0.1688E-02  0.1688E-02  0.4448E-03  0.4448E-03
     -6.609  0.2287E-02  0.2287E-02  0.6170E-03  0.6170E-03
     -6.534  0.1924E-02  0.1924E-02  0.7620E-03  0.7620E-03
     -6.459  0.9396E-03  0.9395E-03  0.8328E-03  0.8328E-03
     -6.383  0.1446E-03  0.1446E-03  0.8437E-03  0.8437E-03
     -6.308 -0.6765E-04 -0.6765E-04  0.8386E-03  0.8386E-03
     -6.233  0.2034E-03  0.2034E-03  0.8539E-03  0.8539E-03
     -6.157  0.8112E-03  0.8112E-03  0.9150E-03  0.9150E-03
     -6.082  0.1649E-02  0.1649E-02  0.1039E-02  0.1039E-02
     -6.007  0.2340E-02  0.2340E-02  0.1216E-02  0.1216E-02
     -5.931  0.2304E-02  0.2304E-02  0.1389E-02  0.1389E-02
     -5.856  0.1449E-02  0.1449E-02  0.1498E-02  0.1498E-02
     -5.781  0.4215E-03  0.4215E-03  0.1530E-02  0.1530E-02
     -5.705 -0.4556E-04 -0.4556E-04  0.1527E-02  0.1527E-02
     -5.630  0.3344E-03  0.3344E-03  0.1552E-02  0.1552E-02
     -5.555  0.1321E-02  0.1321E-02  0.1651E-02  0.1651E-02
     -5.479  0.2153E-02  0.2153E-02  0.1814E-02  0.1814E-02
     -5.404  0.2052E-02  0.2052E-02  0.1968E-02  0.1968E-02
     -5.329  0.1080E-02  0.1080E-02  0.2049E-02  0.2049E-02
     -5.253  0.1803E-03  0.1803E-03  0.2063E-02  0.2063E-02
     -5.178  0.3485E-03  0.3485E-03  0.2089E-02  0.2089E-02
     -5.103  0.1891E-02  0.1891E-02  0.2232E-02  0.2232E-02
     -5.027  0.3958E-02  0.3958E-02  0.2530E-02  0.2530E-02
     -4.952  0.4912E-02  0.4912E-02  0.2900E-02  0.2900E-02
     -4.877  0.3926E-02  0.3926E-02  0.3196E-02  0.3196E-02
     -4.801  0.1923E-02  0.1923E-02  0.3341E-02  0.3341E-02
     -4.726  0.3599E-03  0.3599E-03  0.3368E-02  0.3368E-02
     -4.651 -0.2715E-03 -0.2715E-03  0.3347E-02  0.3347E-02
     -4.575 -0.3131E-03 -0.3131E-03  0.3324E-02  0.3324E-02
     -4.500 -0.7722E-05 -0.7720E-05  0.3323E-02  0.3323E-02
     -4.425  0.7195E-03  0.7195E-03  0.3377E-02  0.3377E-02
     -4.349  0.1670E-02  0.1670E-02  0.3503E-02  0.3503E-02
     -4.274  0.2108E-02  0.2108E-02  0.3662E-02  0.3662E-02
     -4.199  0.1641E-02  0.1641E-02  0.3786E-02  0.3786E-02
     -4.123  0.1106E-02  0.1106E-02  0.3869E-02  0.3869E-02
     -4.048  0.1776E-02  0.1776E-02  0.4003E-02  0.4003E-02
     -3.973  0.3561E-02  0.3561E-02  0.4271E-02  0.4271E-02
     -3.897  0.4838E-02  0.4838E-02  0.4635E-02  0.4635E-02
     -3.822  0.4507E-02  0.4507E-02  0.4975E-02  0.4975E-02
     -3.747  0.3361E-02  0.3361E-02  0.5228E-02  0.5228E-02
     -3.671  0.2915E-02  0.2915E-02  0.5448E-02  0.5448E-02
     -3.596  0.3972E-02  0.3972E-02  0.5747E-02  0.5747E-02
     -3.521  0.6527E-02  0.6527E-02  0.6239E-02  0.6239E-02
     -3.445  0.9769E-02  0.9769E-02  0.6975E-02  0.6975E-02
     -3.370  0.1220E-01  0.1220E-01  0.7894E-02  0.7894E-02
     -3.295  0.1272E-01  0.1272E-01  0.8852E-02  0.8852E-02
     -3.219  0.1159E-01  0.1159E-01  0.9725E-02  0.9725E-02
     -3.144  0.1015E-01  0.1015E-01  0.1049E-01  0.1049E-01
     -3.069  0.9922E-02  0.9922E-02  0.1124E-01  0.1124E-01
     -2.993  0.1200E-01  0.1200E-01  0.1214E-01  0.1214E-01
     -2.918  0.1642E-01  0.1642E-01  0.1338E-01  0.1338E-01
     -2.843  0.2151E-01  0.2151E-01  0.1500E-01  0.1500E-01
     -2.768  0.2468E-01  0.2468E-01  0.1686E-01  0.1686E-01
     -2.692  0.2410E-01  0.2410E-01  0.1867E-01  0.1867E-01
     -2.617  0.2003E-01  0.2003E-01  0.2018E-01  0.2018E-01
     -2.542  0.1502E-01  0.1502E-01  0.2131E-01  0.2131E-01
     -2.466  0.1230E-01  0.1230E-01  0.2224E-01  0.2224E-01
     -2.391  0.1296E-01  0.1296E-01  0.2322E-01  0.2322E-01
     -2.316  0.1537E-01  0.1537E-01  0.2437E-01  0.2437E-01
     -2.240  0.1775E-01  0.1775E-01  0.2571E-01  0.2571E-01
     -2.165  0.1972E-01  0.1972E-01  0.2720E-01  0.2720E-01
     -2.090  0.2096E-01  0.2096E-01  0.2878E-01  0.2878E-01
     -2.014  0.2107E-01  0.2107E-01  0.3036E-01  0.3036E-01
     -1.939  0.2119E-01  0.2119E-01  0.3196E-01  0.3196E-01
     -1.864  0.2297E-01  0.2297E-01  0.3369E-01  0.3369E-01
     -1.788  0.2635E-01  0.2635E-01  0.3568E-01  0.3568E-01
     -1.713  0.3029E-01  0.3029E-01  0.3796E-01  0.3796E-01
     -1.638  0.3428E-01  0.3428E-01  0.4054E-01  0.4054E-01
     -1.562  0.3716E-01  0.3716E-01  0.4334E-01  0.4334E-01
     -1.487  0.3673E-01  0.3673E-01  0.4611E-01  0.4611E-01
     -1.412  0.3261E-01  0.3261E-01  0.4856E-01  0.4856E-01
     -1.336  0.2795E-01  0.2795E-01  0.5067E-01  0.5067E-01
     -1.261  0.2602E-01  0.2602E-01  0.5263E-01  0.5263E-01
     -1.186  0.2649E-01  0.2649E-01  0.5462E-01  0.5462E-01
     -1.110  0.2719E-01  0.2719E-01  0.5667E-01  0.5667E-01
     -1.035  0.2751E-01  0.2751E-01  0.5874E-01  0.5874E-01
     -0.960  0.2823E-01  0.2823E-01  0.6087E-01  0.6087E-01
     -0.884  0.2957E-01  0.2957E-01  0.6310E-01  0.6310E-01
     -0.809  0.3137E-01  0.3137E-01  0.6546E-01  0.6546E-01
     -0.734  0.3436E-01  0.3436E-01  0.6805E-01  0.6805E-01
     -0.658  0.3876E-01  0.3876E-01  0.7097E-01  0.7097E-01
     -0.583  0.4202E-01  0.4202E-01  0.7413E-01  0.7413E-01
     -0.508  0.4137E-01  0.4137E-01  0.7725E-01  0.7725E-01
     -0.432  0.3872E-01  0.3872E-01  0.8017E-01  0.8017E-01
     -0.357  0.3814E-01  0.3814E-01  0.8304E-01  0.8304E-01
     -0.282  0.3873E-01  0.3873E-01  0.8596E-01  0.8596E-01
     -0.206  0.3553E-01  0.3553E-01  0.8863E-01  0.8863E-01
     -0.131  0.2709E-01  0.2709E-01  0.9068E-01  0.9068E-01
     -0.056  0.1721E-01  0.1721E-01  0.9197E-01  0.9197E-01
      0.020  0.9678E-02  0.9678E-02  0.9270E-01  0.9270E-01
      0.095  0.4972E-02  0.4972E-02  0.9308E-01  0.9308E-01
      0.170  0.1992E-02  0.1992E-02  0.9323E-01  0.9323E-01
      0.246  0.2247E-03  0.2247E-03  0.9324E-01  0.9324E-01
      0.321 -0.2741E-03 -0.2741E-03  0.9322E-01  0.9322E-01
      0.396  0.3777E-03  0.3777E-03  0.9325E-01  0.9325E-01
      0.472  0.1616E-02  0.1616E-02  0.9337E-01  0.9337E-01
      0.547  0.2518E-02  0.2518E-02  0.9356E-01  0.9356E-01
      0.622  0.2478E-02  0.2478E-02  0.9375E-01  0.9375E-01
      0.698  0.1955E-02  0.1955E-02  0.9390E-01  0.9390E-01
      0.773  0.1845E-02  0.1845E-02  0.9403E-01  0.9403E-01
      0.848  0.2095E-02  0.2095E-02  0.9419E-01  0.9419E-01
      0.924  0.1832E-02  0.1832E-02  0.9433E-01  0.9433E-01
      0.999  0.8373E-03  0.8373E-03  0.9439E-01  0.9439E-01
      1.074  0.7170E-04  0.7170E-04  0.9440E-01  0.9440E-01
      1.150  0.8186E-03  0.8186E-03  0.9446E-01  0.9446E-01
      1.225  0.3419E-02  0.3419E-02  0.9472E-01  0.9472E-01
      1.300  0.6468E-02  0.6468E-02  0.9521E-01  0.9521E-01
      1.376  0.7918E-02  0.7918E-02  0.9580E-01  0.9580E-01
      1.451  0.7452E-02  0.7452E-02  0.9636E-01  0.9636E-01
      1.526  0.6462E-02  0.6462E-02  0.9685E-01  0.9685E-01
      1.602  0.5587E-02  0.5587E-02  0.9727E-01  0.9727E-01
      1.677  0.4206E-02  0.4206E-02  0.9759E-01  0.9759E-01
      1.752  0.2358E-02  0.2358E-02  0.9777E-01  0.9777E-01
      1.828  0.1195E-02  0.1195E-02  0.9786E-01  0.9786E-01
      1.903  0.1342E-02  0.1342E-02  0.9796E-01  0.9796E-01
      1.978  0.2206E-02  0.2206E-02  0.9812E-01  0.9812E-01
      2.054  0.3101E-02  0.3101E-02  0.9836E-01  0.9836E-01
      2.129  0.4004E-02  0.4004E-02  0.9866E-01  0.9866E-01
      2.204  0.4781E-02  0.4781E-02  0.9902E-01  0.9902E-01
      2.280  0.4837E-02  0.4837E-02  0.9938E-01  0.9938E-01
      2.355  0.4130E-02  0.4130E-02  0.9969E-01  0.9969E-01
      2.430  0.3404E-02  0.3404E-02  0.9995E-01  0.9995E-01
      2.506  0.3100E-02  0.3100E-02  0.1002E+00  0.1002E+00
      2.581  0.2883E-02  0.2883E-02  0.1004E+00  0.1004E+00
      2.656  0.2225E-02  0.2225E-02  0.1006E+00  0.1006E+00
      2.732  0.1170E-02  0.1170E-02  0.1007E+00  0.1007E+00
      2.807  0.5178E-03  0.5178E-03  0.1007E+00  0.1007E+00
      2.882  0.1063E-02  0.1063E-02  0.1008E+00  0.1008E+00
      2.958  0.2559E-02  0.2559E-02  0.1010E+00  0.1010E+00
      3.033  0.3692E-02  0.3692E-02  0.1012E+00  0.1012E+00
      3.108  0.3387E-02  0.3387E-02  0.1015E+00  0.1015E+00
      3.184  0.1964E-02  0.1964E-02  0.1016E+00  0.1016E+00
      3.259  0.5840E-03  0.5840E-03  0.1017E+00  0.1017E+00
      3.334 -0.9834E-04 -0.9834E-04  0.1017E+00  0.1017E+00
      3.410 -0.2511E-03 -0.2511E-03  0.1017E+00  0.1017E+00
      3.485 -0.2127E-03 -0.2127E-03  0.1017E+00  0.1017E+00
      3.560  0.2020E-04  0.2020E-04  0.1017E+00  0.1017E+00
      3.636  0.6697E-03  0.6697E-03  0.1017E+00  0.1017E+00
      3.711  0.1608E-02  0.1608E-02  0.1018E+00  0.1018E+00
      3.786  0.2161E-02  0.2161E-02  0.1020E+00  0.1020E+00
      3.862  0.1926E-02  0.1926E-02  0.1021E+00  0.1021E+00
      3.937  0.1489E-02  0.1489E-02  0.1022E+00  0.1022E+00
      4.012  0.1629E-02  0.1629E-02  0.1024E+00  0.1024E+00
      4.088  0.2262E-02  0.2262E-02  0.1025E+00  0.1025E+00
      4.163  0.2899E-02  0.2899E-02  0.1028E+00  0.1028E+00
      4.238  0.3391E-02  0.3391E-02  0.1030E+00  0.1030E+00
      4.314  0.3522E-02  0.3522E-02  0.1033E+00  0.1033E+00
      4.389  0.2843E-02  0.2842E-02  0.1035E+00  0.1035E+00
      4.464  0.1491E-02  0.1491E-02  0.1036E+00  0.1036E+00
      4.540  0.2793E-03  0.2793E-03  0.1036E+00  0.1036E+00
      4.615 -0.1790E-03 -0.1790E-03  0.1036E+00  0.1036E+00
      4.690  0.1909E-03  0.1909E-03  0.1036E+00  0.1036E+00
      4.766  0.1089E-02  0.1089E-02  0.1037E+00  0.1037E+00
      4.841  0.1884E-02  0.1884E-02  0.1038E+00  0.1038E+00
      4.916  0.2140E-02  0.2141E-02  0.1040E+00  0.1040E+00
      4.992  0.2372E-02  0.2372E-02  0.1042E+00  0.1042E+00
      5.067  0.3314E-02  0.3314E-02  0.1044E+00  0.1044E+00
      5.142  0.4479E-02  0.4479E-02  0.1048E+00  0.1048E+00
      5.218  0.4805E-02  0.4805E-02  0.1051E+00  0.1051E+00
      5.293  0.4461E-02  0.4461E-02  0.1055E+00  0.1055E+00
      5.368  0.4506E-02  0.4506E-02  0.1058E+00  0.1058E+00
      5.444  0.5024E-02  0.5024E-02  0.1062E+00  0.1062E+00
      5.519  0.4955E-02  0.4955E-02  0.1066E+00  0.1066E+00
      5.594  0.3899E-02  0.3900E-02  0.1069E+00  0.1069E+00
      5.670  0.2934E-02  0.2934E-02  0.1071E+00  0.1071E+00
      5.745  0.2987E-02  0.2987E-02  0.1073E+00  0.1073E+00
      5.820  0.3403E-02  0.3403E-02  0.1076E+00  0.1076E+00
      5.896  0.3035E-02  0.3035E-02  0.1078E+00  0.1078E+00
      5.971  0.1865E-02  0.1865E-02  0.1079E+00  0.1079E+00
      6.046  0.7572E-03  0.7574E-03  0.1080E+00  0.1080E+00
      6.122  0.4387E-03  0.4385E-03  0.1080E+00  0.1080E+00
      6.197  0.1264E-02  0.1263E-02  0.1081E+00  0.1081E+00
      6.272  0.2981E-02  0.2981E-02  0.1083E+00  0.1083E+00
      6.348  0.4317E-02  0.4317E-02  0.1087E+00  0.1087E+00
      6.423  0.3935E-02  0.3935E-02  0.1090E+00  0.1090E+00
      6.498  0.2120E-02  0.2119E-02  0.1091E+00  0.1091E+00
      6.574  0.5680E-03  0.5678E-03  0.1092E+00  0.1092E+00
      6.649  0.6160E-03  0.6159E-03  0.1092E+00  0.1092E+00
      6.724  0.2258E-02  0.2259E-02  0.1094E+00  0.1094E+00
      6.800  0.4530E-02  0.4533E-02  0.1097E+00  0.1097E+00
      6.875  0.6351E-02  0.6355E-02  0.1102E+00  0.1102E+00
      6.950  0.6955E-02  0.6957E-02  0.1107E+00  0.1107E+00
      7.026  0.5921E-02  0.5919E-02  0.1112E+00  0.1112E+00
      7.101  0.3593E-02  0.3588E-02  0.1114E+00  0.1114E+00
      7.176  0.1348E-02  0.1346E-02  0.1115E+00  0.1115E+00
      7.252  0.5563E-03  0.5567E-03  0.1116E+00  0.1116E+00
      7.327  0.1298E-02  0.1299E-02  0.1117E+00  0.1117E+00
      7.402  0.2545E-02  0.2546E-02  0.1119E+00  0.1119E+00
      7.478  0.3499E-02  0.3498E-02  0.1121E+00  0.1121E+00
      7.553  0.4231E-02  0.4230E-02  0.1125E+00  0.1125E+00
      7.628  0.4774E-02  0.4773E-02  0.1128E+00  0.1128E+00
      7.704  0.4622E-02  0.4621E-02  0.1132E+00  0.1132E+00
      7.779  0.3936E-02  0.3936E-02  0.1135E+00  0.1135E+00
      7.854  0.3722E-02  0.3722E-02  0.1137E+00  0.1137E+00
      7.930  0.4082E-02  0.4083E-02  0.1140E+00  0.1140E+00
      8.005  0.4156E-02  0.4159E-02  0.1144E+00  0.1144E+00
      8.080  0.3977E-02  0.3983E-02  0.1147E+00  0.1147E+00
      8.156  0.4221E-02  0.4227E-02  0.1150E+00  0.1150E+00
      8.231  0.4463E-02  0.4464E-02  0.1153E+00  0.1153E+00
      8.306  0.3821E-02  0.3817E-02  0.1156E+00  0.1156E+00
      8.382  0.2596E-02  0.2590E-02  0.1158E+00  0.1158E+00
      8.457  0.1660E-02  0.1656E-02  0.1159E+00  0.1159E+00
      8.532  0.1322E-02  0.1321E-02  0.1160E+00  0.1160E+00
      8.608  0.1717E-02  0.1718E-02  0.1162E+00  0.1162E+00
      8.683  0.2953E-02  0.2955E-02  0.1164E+00  0.1164E+00
      8.758  0.4328E-02  0.4329E-02  0.1167E+00  0.1167E+00
      8.834  0.4689E-02  0.4688E-02  0.1171E+00  0.1171E+00
      8.909  0.4010E-02  0.4009E-02  0.1174E+00  0.1174E+00
      8.984  0.3637E-02  0.3635E-02  0.1176E+00  0.1176E+00
      9.060  0.4471E-02  0.4471E-02  0.1180E+00  0.1180E+00
      9.135  0.5695E-02  0.5695E-02  0.1184E+00  0.1184E+00
      9.210  0.5995E-02  0.5996E-02  0.1188E+00  0.1188E+00
      9.286  0.5550E-02  0.5553E-02  0.1193E+00  0.1193E+00
      9.361  0.5662E-02  0.5665E-02  0.1197E+00  0.1197E+00
      9.436  0.6721E-02  0.6722E-02  0.1202E+00  0.1202E+00
      9.512  0.7880E-02  0.7879E-02  0.1208E+00  0.1208E+00
      9.587  0.8337E-02  0.8337E-02  0.1214E+00  0.1214E+00
      9.662  0.7619E-02  0.7619E-02  0.1220E+00  0.1220E+00
      9.738  0.5491E-02  0.5489E-02  0.1224E+00  0.1224E+00
      9.813  0.2727E-02  0.2723E-02  0.1226E+00  0.1226E+00
      9.888  0.1002E-02  0.9991E-03  0.1227E+00  0.1227E+00
      9.964  0.1306E-02  0.1306E-02  0.1228E+00  0.1228E+00
     10.039  0.2957E-02  0.2957E-02  0.1230E+00  0.1230E+00
     10.114  0.4254E-02  0.4254E-02  0.1233E+00  0.1233E+00
     10.190  0.4001E-02  0.4001E-02  0.1236E+00  0.1236E+00
     10.265  0.2580E-02  0.2580E-02  0.1238E+00  0.1238E+00
     10.340  0.1447E-02  0.1448E-02  0.1239E+00  0.1239E+00
     10.416  0.1479E-02  0.1480E-02  0.1240E+00  0.1240E+00
     10.491  0.2211E-02  0.2213E-02  0.1242E+00  0.1242E+00
     10.566  0.2797E-02  0.2798E-02  0.1244E+00  0.1244E+00
     10.642  0.2925E-02  0.2926E-02  0.1246E+00  0.1246E+00
     10.717  0.2555E-02  0.2554E-02  0.1248E+00  0.1248E+00
     10.792  0.1690E-02  0.1687E-02  0.1250E+00  0.1250E+00
     10.868  0.6889E-03  0.6866E-03  0.1250E+00  0.1250E+00
     10.943  0.4996E-04  0.4893E-04  0.1250E+00  0.1250E+00
     11.018 -0.1303E-03 -0.1303E-03  0.1250E+00  0.1250E+00
     11.094 -0.9146E-04 -0.9129E-04  0.1250E+00  0.1250E+00
     11.169 -0.3404E-04 -0.3394E-04  0.1250E+00  0.1250E+00
     11.244 -0.8318E-05 -0.8284E-05  0.1250E+00  0.1250E+00
     11.320 -0.1420E-05 -0.1413E-05  0.1250E+00  0.1250E+00
     11.395 -0.1743E-06 -0.1733E-06  0.1250E+00  0.1250E+00
     11.470 -0.1560E-07 -0.1550E-07  0.1250E+00  0.1250E+00
     11.546 -0.1027E-08 -0.1020E-08  0.1250E+00  0.1250E+00
     11.621 -0.5006E-10 -0.4965E-10  0.1250E+00  0.1250E+00
     11.696 -0.1813E-11 -0.1797E-11  0.1250E+00  0.1250E+00
     11.772 -0.4890E-13 -0.4843E-13  0.1250E+00  0.1250E+00
     11.847 -0.9842E-15 -0.9743E-15  0.1250E+00  0.1250E+00
     11.922 -0.1474E-16 -0.1474E-16  0.1250E+00  0.1250E+00
     11.998  0.0000E+00  0.0000E+00  0.1250E+00  0.1250E+00
     12.073  0.0000E+00  0.0000E+00  0.1250E+00  0.1250E+00
     12.148  0.0000E+00  0.0000E+00  0.1250E+00  0.1250E+00
     12.224  0.0000E+00  0.0000E+00  0.1250E+00  0.1250E+00
     12.299  0.0000E+00  0.0000E+00  0.1250E+00  0.1250E+00
     12.374  0.0000E+00  0.0000E+00  0.1250E+00  0.1250E+00
     12.450  0.0000E+00  0.0000E+00  0.1250E+00  0.1250E+00
     12.525  0.0000E+00  0.0000E+00  0.1250E+00  0.1250E+00
     12.600  0.0000E+00  0.0000E+00  0.1250E+00  0.1250E+00
     12.676  0.0000E+00  0.0000E+00  0.1250E+00  0.1250E+00
