unknown system                          
           1
     3.630000    0.000000    0.000000
     0.000000    3.630000    0.000000
     0.000000    0.000000   25.890000
   Cu
    14
Direct configuration=     1
   0.00000000  0.00000000  0.00000000
   0.50000000  0.50000000  0.00000000
   0.00000000  0.50000000  0.07010429
   0.50000000  0.00000000  0.07010429
   0.00000000  0.00000000  0.14020858
   0.50000000  0.50000000  0.14020858
   0.00000000  0.50000000  0.21031287
   0.50000000  0.00000000  0.21031287
   0.00000000  0.00000000  0.28041715
   0.50000000  0.50000000  0.28041715
   0.00000000  0.50000000  0.35052144
   0.50000000  0.00000000  0.35052144
   0.00000000  0.00000000  0.42062573
   0.50000000  0.50000000  0.42062573
Direct configuration=     2
   0.00000000  0.00000000  0.00000000
   0.50000000  0.50000000  0.00000000
   0.00000000  0.50000000  0.07010429
   0.50000000  0.00000000  0.07010429
  -0.00000000  0.00000000  0.14034183
   0.50000000  0.50000000  0.14034183
  -0.00000000  0.50000000  0.21031680
   0.50000000  0.00000000  0.21031680
  -0.00000000  0.00000000  0.28028707
   0.50000000  0.50000000  0.28028707
  -0.00000000  0.50000000  0.35051763
   0.50000000 -0.00000000  0.35051763
   0.00000000  0.00000000  0.42018339
   0.50000000  0.50000000  0.42018339
Direct configuration=     3
   0.00000000  0.00000000  0.00000000
   0.50000000  0.50000000  0.00000000
   0.00000000  0.50000000  0.07010429
   0.50000000  0.00000000  0.07010429
  -0.00000000  0.00000000  0.14074160
   0.50000000  0.50000000  0.14074160
  -0.00000000  0.50000000  0.21032859
   0.50000000  0.00000000  0.21032859
  -0.00000000  0.00000000  0.27989682
   0.50000000  0.50000000  0.27989682
  -0.00000000  0.50000000  0.35050619
   0.50000000 -0.00000000  0.35050619
   0.00000000  0.00000000  0.41885639
   0.50000000  0.50000000  0.41885639
Direct configuration=     4
   0.00000000  0.00000000  0.00000000
   0.50000000  0.50000000  0.00000000
   0.00000000  0.50000000  0.07010429
   0.50000000  0.00000000  0.07010429
  -0.00000000  0.00000000  0.14154114
   0.50000000  0.50000000  0.14154114
  -0.00000000  0.50000000  0.21035217
   0.50000000  0.00000000  0.21035217
  -0.00000000  0.00000000  0.27911633
   0.50000000  0.50000000  0.27911633
  -0.00000000  0.50000000  0.35048332
   0.50000000 -0.00000000  0.35048332
   0.00000000  0.00000000  0.41620238
   0.50000000  0.50000000  0.41620238
Direct configuration=     5
   0.00000000  0.00000000  0.00000000
   0.50000000  0.50000000  0.00000000
   0.00000000  0.50000000  0.07010429
   0.50000000  0.00000000  0.07010429
  -0.00000000  0.00000000  0.14094082
   0.50000000  0.50000000  0.14094082
  -0.00000000  0.50000000  0.21033447
   0.50000000  0.00000000  0.21033447
  -0.00000000  0.00000000  0.27970235
   0.50000000  0.50000000  0.27970235
  -0.00000000  0.50000000  0.35050050
   0.50000000 -0.00000000  0.35050050
   0.00000000  0.00000000  0.41819510
   0.50000000  0.50000000  0.41819510
Direct configuration=     6
   0.00000000  0.00000000  0.00000000
   0.50000000  0.50000000  0.00000000
   0.00000000  0.50000000  0.07010429
   0.50000000  0.00000000  0.07010429
  -0.00000000  0.00000000  0.14097747
   0.50000000  0.50000000  0.14097747
   0.00000000  0.50000000  0.21034699
   0.50000000  0.00000000  0.21034699
  -0.00000000  0.00000000  0.27965196
   0.50000000  0.50000000  0.27965196
  -0.00000000  0.50000000  0.35012754
   0.50000000 -0.00000000  0.35012754
   0.00000000  0.00000000  0.41777021
   0.50000000  0.50000000  0.41777021
Direct configuration=     7
   0.00000000  0.00000000  0.00000000
   0.50000000  0.50000000  0.00000000
   0.00000000  0.50000000  0.07010429
   0.50000000  0.00000000  0.07010429
  -0.00000000  0.00000000  0.14108741
   0.50000000  0.50000000  0.14108741
   0.00000000  0.50000000  0.21038456
   0.50000000  0.00000000  0.21038456
  -0.00000000  0.00000000  0.27950081
   0.50000000  0.50000000  0.27950081
  -0.00000000  0.50000000  0.34900867
   0.50000000 -0.00000000  0.34900867
   0.00000000  0.00000000  0.41649557
   0.50000000  0.50000000  0.41649557
Direct configuration=     8
   0.00000000  0.00000000  0.00000000
   0.50000000  0.50000000  0.00000000
   0.00000000  0.50000000  0.07010429
   0.50000000  0.00000000  0.07010429
  -0.00000000  0.00000000  0.14130729
   0.50000000  0.50000000  0.14130729
   0.00000000  0.50000000  0.21045969
   0.50000000  0.00000000  0.21045969
  -0.00000000  0.00000000  0.27919849
   0.50000000  0.50000000  0.27919849
  -0.00000000  0.50000000  0.34677094
   0.50000000 -0.00000000  0.34677094
   0.00000000  0.00000000  0.41394628
   0.50000000  0.50000000  0.41394628
Direct configuration=     9
   0.00000000  0.00000000  0.00000000
   0.50000000  0.50000000  0.00000000
   0.00000000  0.50000000  0.07010429
   0.50000000  0.00000000  0.07010429
  -0.00000000  0.00000000  0.14092045
   0.50000000  0.50000000  0.14092045
   0.00000000  0.50000000  0.21031102
   0.50000000  0.00000000  0.21031102
   0.00000000  0.00000000  0.27833363
   0.50000000  0.50000000  0.27833363
  -0.00000000  0.50000000  0.34593973
   0.50000000 -0.00000000  0.34593973
   0.00000000  0.00000000  0.41327289
   0.50000000  0.50000000  0.41327289
Direct configuration=    10
   0.00000000  0.00000000  0.00000000
   0.50000000  0.50000000  0.00000000
   0.00000000  0.50000000  0.07010429
   0.50000000  0.00000000  0.07010429
  -0.00000000  0.00000000  0.13981308
   0.50000000  0.50000000  0.13981308
   0.00000000  0.50000000  0.20988544
   0.50000000  0.00000000  0.20988544
   0.00000000  0.00000000  0.27585791
   0.50000000  0.50000000  0.27585791
  -0.00000000  0.50000000  0.34356031
   0.50000000 -0.00000000  0.34356031
   0.00000000  0.00000000  0.41134525
   0.50000000  0.50000000  0.41134525
Direct configuration=    11
   0.00000000  0.00000000  0.00000000
   0.50000000  0.50000000  0.00000000
   0.00000000  0.50000000  0.07010429
   0.50000000  0.00000000  0.07010429
  -0.00000000  0.00000000  0.14012956
   0.50000000  0.50000000  0.14012956
   0.00000000  0.50000000  0.21000707
   0.50000000  0.00000000  0.21000707
   0.00000000  0.00000000  0.27656545
   0.50000000  0.50000000  0.27656545
  -0.00000000  0.50000000  0.34424032
   0.50000000 -0.00000000  0.34424032
   0.00000000  0.00000000  0.41189615
   0.50000000  0.50000000  0.41189615
Direct configuration=    12
   0.00000000  0.00000000  0.00000000
   0.50000000  0.50000000  0.00000000
   0.00000000  0.50000000  0.07010429
   0.50000000  0.00000000  0.07010429
  -0.00000000  0.00000000  0.13996473
   0.50000000  0.50000000  0.13996473
   0.00000000  0.50000000  0.20952033
   0.50000000  0.00000000  0.20952033
   0.00000000  0.00000000  0.27609886
   0.50000000  0.50000000  0.27609886
  -0.00000000  0.50000000  0.34370986
   0.50000000 -0.00000000  0.34370986
   0.00000000  0.00000000  0.41148221
   0.50000000  0.50000000  0.41148221
Direct configuration=    13
   0.00000000  0.00000000  0.00000000
   0.50000000  0.50000000  0.00000000
   0.00000000  0.50000000  0.07010429
   0.50000000  0.00000000  0.07010429
  -0.00000000  0.00000000  0.13947024
   0.50000000  0.50000000  0.13947024
   0.00000000  0.50000000  0.20806013
   0.50000000  0.00000000  0.20806013
   0.00000000  0.00000000  0.27469908
   0.50000000  0.50000000  0.27469908
  -0.00000000  0.50000000  0.34211848
   0.50000000 -0.00000000  0.34211848
   0.00000000  0.00000000  0.41024039
   0.50000000  0.50000000  0.41024039
Direct configuration=    14
   0.00000000  0.00000000  0.00000000
   0.50000000  0.50000000  0.00000000
   0.00000000  0.50000000  0.07010429
   0.50000000  0.00000000  0.07010429
  -0.00000000  0.00000000  0.13848126
   0.50000000  0.50000000  0.13848126
   0.00000000  0.50000000  0.20513972
   0.50000000  0.00000000  0.20513972
   0.00000000  0.00000000  0.27189952
   0.50000000  0.50000000  0.27189952
  -0.00000000  0.50000000  0.33893572
   0.50000000  0.00000000  0.33893572
   0.00000000  0.00000000  0.40775674
   0.50000000  0.50000000  0.40775674
Direct configuration=    15
   0.00000000  0.00000000  0.00000000
   0.50000000  0.50000000  0.00000000
   0.00000000  0.50000000  0.07010429
   0.50000000  0.00000000  0.07010429
  -0.00000000  0.00000000  0.13778830
   0.50000000  0.50000000  0.13778830
   0.00000000  0.50000000  0.20430501
   0.50000000  0.00000000  0.20430501
   0.00000000  0.00000000  0.27094391
   0.50000000  0.50000000  0.27094391
  -0.00000000  0.50000000  0.33856472
   0.50000000  0.00000000  0.33856472
   0.00000000  0.00000000  0.40662857
   0.50000000  0.50000000  0.40662857
Direct configuration=    16
   0.00000000  0.00000000  0.00000000
   0.50000000  0.50000000  0.00000000
   0.00000000  0.50000000  0.07010429
   0.50000000  0.00000000  0.07010429
  -0.00000000  0.00000000  0.13768505
   0.50000000  0.50000000  0.13768505
   0.00000000  0.50000000  0.20418063
   0.50000000  0.00000000  0.20418063
   0.00000000  0.00000000  0.27080152
   0.50000000  0.50000000  0.27080152
  -0.00000000  0.50000000  0.33850944
   0.50000000  0.00000000  0.33850944
   0.00000000  0.00000000  0.40646047
   0.50000000  0.50000000  0.40646047
Direct configuration=    17
   0.00000000  0.00000000  0.00000000
   0.50000000  0.50000000  0.00000000
   0.00000000  0.50000000  0.07010429
   0.50000000  0.00000000  0.07010429
  -0.00000000  0.00000000  0.13747854
   0.50000000  0.50000000  0.13747854
   0.00000000  0.50000000  0.20393188
   0.50000000  0.00000000  0.20393188
   0.00000000  0.00000000  0.27051674
   0.50000000  0.50000000  0.27051674
  -0.00000000  0.50000000  0.33839888
   0.50000000  0.00000000  0.33839888
   0.00000000  0.00000000  0.40612427
   0.50000000  0.50000000  0.40612427
Direct configuration=    18
   0.00000000  0.00000000  0.00000000
   0.50000000  0.50000000  0.00000000
   0.00000000  0.50000000  0.07010429
   0.50000000  0.00000000  0.07010429
  -0.00000000  0.00000000  0.13751600
   0.50000000  0.50000000  0.13751600
   0.00000000  0.50000000  0.20397700
   0.50000000  0.00000000  0.20397700
   0.00000000  0.00000000  0.27056840
   0.50000000  0.50000000  0.27056840
  -0.00000000  0.50000000  0.33841893
   0.50000000  0.00000000  0.33841893
   0.00000000  0.00000000  0.40618525
   0.50000000  0.50000000  0.40618525
Direct configuration=    19
   0.00000000  0.00000000  0.00000000
   0.50000000  0.50000000  0.00000000
   0.00000000  0.50000000  0.07010429
   0.50000000  0.00000000  0.07010429
  -0.00000000  0.00000000  0.13750296
   0.50000000  0.50000000  0.13750296
   0.00000000  0.50000000  0.20396129
   0.50000000  0.00000000  0.20396129
   0.00000000  0.00000000  0.27055042
   0.50000000  0.50000000  0.27055042
  -0.00000000  0.50000000  0.33841195
   0.50000000  0.00000000  0.33841195
   0.00000000  0.00000000  0.40616402
   0.50000000  0.50000000  0.40616402
Direct configuration=    20
   0.00000000  0.00000000  0.00000000
   0.50000000  0.50000000  0.00000000
   0.00000000  0.50000000  0.07010429
   0.50000000  0.00000000  0.07010429
  -0.00000000  0.00000000  0.13751425
   0.50000000  0.50000000  0.13751425
   0.00000000  0.50000000  0.20397489
   0.50000000  0.00000000  0.20397489
   0.00000000  0.00000000  0.27056598
   0.50000000  0.50000000  0.27056598
  -0.00000000  0.50000000  0.33841799
   0.50000000  0.00000000  0.33841799
   0.00000000  0.00000000  0.40618240
   0.50000000  0.50000000  0.40618240
Direct configuration=    21
   0.00000000  0.00000000  0.00000000
   0.50000000  0.50000000  0.00000000
   0.00000000  0.50000000  0.07010429
   0.50000000  0.00000000  0.07010429
  -0.00000000  0.00000000  0.13751547
   0.50000000  0.50000000  0.13751547
   0.00000000  0.50000000  0.20397636
   0.50000000  0.00000000  0.20397636
   0.00000000  0.00000000  0.27056766
   0.50000000  0.50000000  0.27056766
  -0.00000000  0.50000000  0.33841865
   0.50000000  0.00000000  0.33841865
   0.00000000  0.00000000  0.40618438
   0.50000000  0.50000000  0.40618438
Direct configuration=    22
   0.00000000  0.00000000  0.00000000
   0.50000000  0.50000000  0.00000000
   0.00000000  0.50000000  0.07010429
   0.50000000  0.00000000  0.07010429
  -0.00000000  0.00000000  0.13751452
   0.50000000  0.50000000  0.13751452
   0.00000000  0.50000000  0.20397522
   0.50000000  0.00000000  0.20397522
   0.00000000  0.00000000  0.27056636
   0.50000000  0.50000000  0.27056636
  -0.00000000  0.50000000  0.33841814
   0.50000000  0.00000000  0.33841814
   0.00000000  0.00000000  0.40618284
   0.50000000  0.50000000  0.40618284
Direct configuration=    23
   0.00000000  0.00000000  0.00000000
   0.50000000  0.50000000  0.00000000
   0.00000000  0.50000000  0.07010429
   0.50000000  0.00000000  0.07010429
  -0.00000000  0.00000000  0.13751499
   0.50000000  0.50000000  0.13751499
   0.00000000  0.50000000  0.20397579
   0.50000000  0.00000000  0.20397579
   0.00000000  0.00000000  0.27056701
   0.50000000  0.50000000  0.27056701
  -0.00000000  0.50000000  0.33841839
   0.50000000  0.00000000  0.33841839
   0.00000000  0.00000000  0.40618361
   0.50000000  0.50000000  0.40618361
Direct configuration=    24
   0.00000000  0.00000000  0.00000000
   0.50000000  0.50000000  0.00000000
   0.00000000  0.50000000  0.07010429
   0.50000000  0.00000000  0.07010429
  -0.00000000  0.00000000  0.13751486
   0.50000000  0.50000000  0.13751486
   0.00000000  0.50000000  0.20397563
   0.50000000  0.00000000  0.20397563
   0.00000000  0.00000000  0.27056683
   0.50000000  0.50000000  0.27056683
  -0.00000000  0.50000000  0.33841832
   0.50000000  0.00000000  0.33841832
   0.00000000  0.00000000  0.40618340
   0.50000000  0.50000000  0.40618340
Direct configuration=    25
   0.00000000  0.00000000  0.00000000
   0.50000000  0.50000000  0.00000000
   0.00000000  0.50000000  0.07010429
   0.50000000  0.00000000  0.07010429
  -0.00000000  0.00000000  0.13734009
   0.50000000  0.50000000  0.13734009
   0.00000000  0.50000000  0.20393989
   0.50000000  0.00000000  0.20393989
   0.00000000  0.00000000  0.27065413
   0.50000000  0.50000000  0.27065413
  -0.00000000  0.50000000  0.33834204
   0.50000000  0.00000000  0.33834204
   0.00000000  0.00000000  0.40612871
   0.50000000  0.50000000  0.40612871
