  32  32   0   0
  0.2793355E+02  0.7260000E-09  0.5133596E-09  0.2398379E-08  0.5000000E-15
  1.000000000000000E-004
  CAR 
 unknown system                          
     11.48482688    -10.33676271  301      0.69901811      1.00000000
    -10.337  0.0000E+00  0.0000E+00  0.0000E+00  0.0000E+00
    -10.264  0.0000E+00  0.0000E+00  0.0000E+00  0.0000E+00
    -10.191  0.0000E+00  0.0000E+00  0.0000E+00  0.0000E+00
    -10.119  0.0000E+00  0.0000E+00  0.0000E+00  0.0000E+00
    -10.046  0.0000E+00  0.0000E+00  0.0000E+00  0.0000E+00
     -9.973 -0.3746E-31 -0.3746E-31 -0.2724E-32 -0.2725E-32
     -9.900 -0.1201E-28 -0.1201E-28 -0.8763E-30 -0.8763E-30
     -9.828 -0.2955E-26 -0.2956E-26 -0.2159E-27 -0.2159E-27
     -9.755 -0.5568E-24 -0.5568E-24 -0.4072E-25 -0.4072E-25
     -9.682 -0.8027E-22 -0.8027E-22 -0.5879E-23 -0.5879E-23
     -9.609 -0.8851E-20 -0.8852E-20 -0.6497E-21 -0.6497E-21
     -9.537 -0.7462E-18 -0.7463E-18 -0.5493E-19 -0.5493E-19
     -9.464 -0.4659E-16 -0.4659E-16 -0.3443E-17 -0.3444E-17
     -9.391 -0.2280E-14 -0.2280E-14 -0.1693E-15 -0.1693E-15
     -9.318 -0.8505E-13 -0.8506E-13 -0.6356E-14 -0.6356E-14
     -9.246 -0.2413E-11 -0.2413E-11 -0.1819E-12 -0.1819E-12
     -9.173 -0.5197E-10 -0.5198E-10 -0.3962E-11 -0.3963E-11
     -9.100 -0.8471E-09 -0.8471E-09 -0.6558E-10 -0.6558E-10
     -9.027 -0.1040E-07 -0.1040E-07 -0.8223E-09 -0.8223E-09
     -8.955 -0.9567E-07 -0.9567E-07 -0.7781E-08 -0.7781E-08
     -8.882 -0.6522E-06 -0.6522E-06 -0.5522E-07 -0.5522E-07
     -8.809 -0.3239E-05 -0.3239E-05 -0.2908E-06 -0.2909E-06
     -8.737 -0.1133E-04 -0.1133E-04 -0.1115E-05 -0.1115E-05
     -8.664 -0.2570E-04 -0.2570E-04 -0.2985E-05 -0.2985E-05
     -8.591 -0.2664E-04 -0.2664E-04 -0.4922E-05 -0.4922E-05
     -8.518  0.3993E-04  0.3993E-04 -0.2018E-05 -0.2018E-05
     -8.446  0.2157E-03  0.2157E-03  0.1367E-04  0.1367E-04
     -8.373  0.4291E-03  0.4291E-03  0.4488E-04  0.4488E-04
     -8.300  0.5163E-03  0.5163E-03  0.8244E-04  0.8244E-04
     -8.227  0.4495E-03  0.4495E-03  0.1151E-03  0.1151E-03
     -8.155  0.4534E-03  0.4534E-03  0.1481E-03  0.1481E-03
     -8.082  0.7071E-03  0.7071E-03  0.1995E-03  0.1995E-03
     -8.009  0.1011E-02  0.1011E-02  0.2731E-03  0.2731E-03
     -7.936  0.1020E-02  0.1020E-02  0.3472E-03  0.3472E-03
     -7.864  0.7791E-03  0.7791E-03  0.4039E-03  0.4039E-03
     -7.791  0.6775E-03  0.6775E-03  0.4532E-03  0.4532E-03
     -7.718  0.8349E-03  0.8349E-03  0.5139E-03  0.5139E-03
     -7.645  0.9436E-03  0.9436E-03  0.5826E-03  0.5826E-03
     -7.573  0.8929E-03  0.8929E-03  0.6475E-03  0.6475E-03
     -7.500  0.1112E-02  0.1112E-02  0.7284E-03  0.7284E-03
     -7.427  0.1873E-02  0.1873E-02  0.8647E-03  0.8647E-03
     -7.354  0.2598E-02  0.2598E-02  0.1054E-02  0.1054E-02
     -7.282  0.2526E-02  0.2526E-02  0.1237E-02  0.1237E-02
     -7.209  0.1878E-02  0.1878E-02  0.1374E-02  0.1374E-02
     -7.136  0.1586E-02  0.1586E-02  0.1489E-02  0.1489E-02
     -7.064  0.1888E-02  0.1888E-02  0.1627E-02  0.1627E-02
     -6.991  0.2056E-02  0.2056E-02  0.1776E-02  0.1776E-02
     -6.918  0.1594E-02  0.1594E-02  0.1892E-02  0.1892E-02
     -6.845  0.9285E-03  0.9285E-03  0.1960E-02  0.1960E-02
     -6.773  0.6566E-03  0.6566E-03  0.2007E-02  0.2007E-02
     -6.700  0.8080E-03  0.8080E-03  0.2066E-02  0.2066E-02
     -6.627  0.1264E-02  0.1264E-02  0.2158E-02  0.2158E-02
     -6.554  0.2232E-02  0.2232E-02  0.2321E-02  0.2321E-02
     -6.482  0.3599E-02  0.3599E-02  0.2582E-02  0.2582E-02
     -6.409  0.4387E-02  0.4387E-02  0.2901E-02  0.2901E-02
     -6.336  0.3794E-02  0.3794E-02  0.3177E-02  0.3177E-02
     -6.263  0.2376E-02  0.2376E-02  0.3350E-02  0.3350E-02
     -6.191  0.1300E-02  0.1300E-02  0.3445E-02  0.3445E-02
     -6.118  0.9485E-03  0.9485E-03  0.3514E-02  0.3514E-02
     -6.045  0.9855E-03  0.9855E-03  0.3585E-02  0.3585E-02
     -5.972  0.1155E-02  0.1155E-02  0.3669E-02  0.3669E-02
     -5.900  0.1435E-02  0.1435E-02  0.3774E-02  0.3774E-02
     -5.827  0.2013E-02  0.2013E-02  0.3920E-02  0.3920E-02
     -5.754  0.3299E-02  0.3299E-02  0.4160E-02  0.4160E-02
     -5.681  0.5168E-02  0.5168E-02  0.4536E-02  0.4536E-02
     -5.609  0.6331E-02  0.6331E-02  0.4997E-02  0.4997E-02
     -5.536  0.5578E-02  0.5578E-02  0.5402E-02  0.5402E-02
     -5.463  0.3418E-02  0.3418E-02  0.5651E-02  0.5651E-02
     -5.391  0.1551E-02  0.1551E-02  0.5764E-02  0.5764E-02
     -5.318  0.1213E-02  0.1213E-02  0.5852E-02  0.5852E-02
     -5.245  0.2688E-02  0.2688E-02  0.6048E-02  0.6048E-02
     -5.172  0.5468E-02  0.5468E-02  0.6445E-02  0.6445E-02
     -5.100  0.8136E-02  0.8136E-02  0.7037E-02  0.7037E-02
     -5.027  0.9100E-02  0.9100E-02  0.7699E-02  0.7699E-02
     -4.954  0.7998E-02  0.7998E-02  0.8281E-02  0.8281E-02
     -4.881  0.5692E-02  0.5692E-02  0.8695E-02  0.8695E-02
     -4.809  0.3128E-02  0.3128E-02  0.8922E-02  0.8922E-02
     -4.736  0.1023E-02  0.1023E-02  0.8997E-02  0.8997E-02
     -4.663  0.1789E-03  0.1789E-03  0.9010E-02  0.9010E-02
     -4.590  0.1266E-02  0.1266E-02  0.9102E-02  0.9102E-02
     -4.518  0.4266E-02  0.4266E-02  0.9412E-02  0.9412E-02
     -4.445  0.8156E-02  0.8156E-02  0.1001E-01  0.1001E-01
     -4.372  0.1121E-01  0.1121E-01  0.1082E-01  0.1082E-01
     -4.299  0.1221E-01  0.1221E-01  0.1171E-01  0.1171E-01
     -4.227  0.1176E-01  0.1176E-01  0.1256E-01  0.1256E-01
     -4.154  0.1198E-01  0.1198E-01  0.1344E-01  0.1344E-01
     -4.081  0.1430E-01  0.1430E-01  0.1448E-01  0.1448E-01
     -4.009  0.1772E-01  0.1772E-01  0.1576E-01  0.1576E-01
     -3.936  0.2011E-01  0.2011E-01  0.1723E-01  0.1723E-01
     -3.863  0.2111E-01  0.2111E-01  0.1876E-01  0.1876E-01
     -3.790  0.2226E-01  0.2226E-01  0.2038E-01  0.2038E-01
     -3.718  0.2417E-01  0.2417E-01  0.2214E-01  0.2214E-01
     -3.645  0.2574E-01  0.2574E-01  0.2401E-01  0.2401E-01
     -3.572  0.2696E-01  0.2696E-01  0.2597E-01  0.2597E-01
     -3.499  0.3000E-01  0.3000E-01  0.2815E-01  0.2815E-01
     -3.427  0.3580E-01  0.3580E-01  0.3076E-01  0.3076E-01
     -3.354  0.4147E-01  0.4147E-01  0.3378E-01  0.3378E-01
     -3.281  0.4323E-01  0.4323E-01  0.3692E-01  0.3692E-01
     -3.208  0.4108E-01  0.4108E-01  0.3991E-01  0.3991E-01
     -3.136  0.3816E-01  0.3816E-01  0.4268E-01  0.4268E-01
     -3.063  0.3621E-01  0.3621E-01  0.4532E-01  0.4532E-01
     -2.990  0.3475E-01  0.3475E-01  0.4785E-01  0.4785E-01
     -2.917  0.3439E-01  0.3439E-01  0.5035E-01  0.5035E-01
     -2.845  0.3738E-01  0.3738E-01  0.5307E-01  0.5307E-01
     -2.772  0.4415E-01  0.4415E-01  0.5628E-01  0.5628E-01
     -2.699  0.5164E-01  0.5164E-01  0.6003E-01  0.6003E-01
     -2.626  0.5626E-01  0.5626E-01  0.6413E-01  0.6413E-01
     -2.554  0.5732E-01  0.5732E-01  0.6830E-01  0.6830E-01
     -2.481  0.5729E-01  0.5729E-01  0.7246E-01  0.7246E-01
     -2.408  0.5933E-01  0.5933E-01  0.7678E-01  0.7678E-01
     -2.336  0.6480E-01  0.6480E-01  0.8149E-01  0.8149E-01
     -2.263  0.7232E-01  0.7232E-01  0.8675E-01  0.8675E-01
     -2.190  0.7858E-01  0.7858E-01  0.9247E-01  0.9247E-01
     -2.117  0.8037E-01  0.8037E-01  0.9831E-01  0.9831E-01
     -2.045  0.7686E-01  0.7686E-01  0.1039E+00  0.1039E+00
     -1.972  0.7028E-01  0.7028E-01  0.1090E+00  0.1090E+00
     -1.899  0.6378E-01  0.6378E-01  0.1137E+00  0.1137E+00
     -1.826  0.5924E-01  0.5924E-01  0.1180E+00  0.1180E+00
     -1.754  0.5723E-01  0.5723E-01  0.1221E+00  0.1221E+00
     -1.681  0.5817E-01  0.5817E-01  0.1264E+00  0.1264E+00
     -1.608  0.6236E-01  0.6236E-01  0.1309E+00  0.1309E+00
     -1.535  0.6831E-01  0.6831E-01  0.1359E+00  0.1359E+00
     -1.463  0.7278E-01  0.7278E-01  0.1412E+00  0.1412E+00
     -1.390  0.7449E-01  0.7449E-01  0.1466E+00  0.1466E+00
     -1.317  0.7571E-01  0.7571E-01  0.1521E+00  0.1521E+00
     -1.244  0.7812E-01  0.7812E-01  0.1578E+00  0.1578E+00
     -1.172  0.8038E-01  0.8038E-01  0.1636E+00  0.1636E+00
     -1.099  0.8241E-01  0.8241E-01  0.1696E+00  0.1696E+00
     -1.026  0.8774E-01  0.8774E-01  0.1760E+00  0.1760E+00
     -0.953  0.9760E-01  0.9760E-01  0.1831E+00  0.1831E+00
     -0.881  0.1056E+00  0.1056E+00  0.1908E+00  0.1908E+00
     -0.808  0.1018E+00  0.1018E+00  0.1982E+00  0.1982E+00
     -0.735  0.8280E-01  0.8280E-01  0.2042E+00  0.2042E+00
     -0.663  0.5513E-01  0.5513E-01  0.2082E+00  0.2082E+00
     -0.590  0.3003E-01  0.3003E-01  0.2104E+00  0.2104E+00
     -0.517  0.1466E-01  0.1466E-01  0.2115E+00  0.2115E+00
     -0.444  0.8850E-02  0.8850E-02  0.2121E+00  0.2121E+00
     -0.372  0.8148E-02  0.8148E-02  0.2127E+00  0.2127E+00
     -0.299  0.8150E-02  0.8150E-02  0.2133E+00  0.2133E+00
     -0.226  0.6678E-02  0.6678E-02  0.2138E+00  0.2138E+00
     -0.153  0.3932E-02  0.3932E-02  0.2141E+00  0.2141E+00
     -0.081  0.1401E-02  0.1401E-02  0.2142E+00  0.2142E+00
     -0.008  0.4538E-03  0.4538E-03  0.2142E+00  0.2142E+00
      0.065  0.1493E-02  0.1493E-02  0.2143E+00  0.2143E+00
      0.138  0.3870E-02  0.3871E-02  0.2146E+00  0.2146E+00
      0.210  0.6423E-02  0.6423E-02  0.2151E+00  0.2151E+00
      0.283  0.8340E-02  0.8340E-02  0.2157E+00  0.2157E+00
      0.356  0.9714E-02  0.9714E-02  0.2164E+00  0.2164E+00
      0.429  0.1103E-01  0.1103E-01  0.2172E+00  0.2172E+00
      0.501  0.1204E-01  0.1204E-01  0.2180E+00  0.2180E+00
      0.574  0.1169E-01  0.1169E-01  0.2189E+00  0.2189E+00
      0.647  0.9737E-02  0.9737E-02  0.2196E+00  0.2196E+00
      0.720  0.7363E-02  0.7363E-02  0.2201E+00  0.2201E+00
      0.792  0.5859E-02  0.5859E-02  0.2206E+00  0.2206E+00
      0.865  0.5497E-02  0.5497E-02  0.2210E+00  0.2210E+00
      0.938  0.5972E-02  0.5972E-02  0.2214E+00  0.2214E+00
      1.010  0.6815E-02  0.6815E-02  0.2219E+00  0.2219E+00
      1.083  0.7196E-02  0.7196E-02  0.2224E+00  0.2224E+00
      1.156  0.6294E-02  0.6294E-02  0.2229E+00  0.2229E+00
      1.229  0.4293E-02  0.4293E-02  0.2232E+00  0.2232E+00
      1.301  0.2554E-02  0.2554E-02  0.2234E+00  0.2234E+00
      1.374  0.2529E-02  0.2529E-02  0.2236E+00  0.2236E+00
      1.447  0.4335E-02  0.4335E-02  0.2239E+00  0.2239E+00
      1.520  0.6355E-02  0.6355E-02  0.2243E+00  0.2243E+00
      1.592  0.6837E-02  0.6837E-02  0.2248E+00  0.2248E+00
      1.665  0.6006E-02  0.6006E-02  0.2253E+00  0.2253E+00
      1.738  0.5622E-02  0.5622E-02  0.2257E+00  0.2257E+00
      1.811  0.6423E-02  0.6423E-02  0.2261E+00  0.2261E+00
      1.883  0.7405E-02  0.7405E-02  0.2267E+00  0.2267E+00
      1.956  0.7713E-02  0.7713E-02  0.2272E+00  0.2272E+00
      2.029  0.7686E-02  0.7686E-02  0.2278E+00  0.2278E+00
      2.102  0.7731E-02  0.7731E-02  0.2284E+00  0.2284E+00
      2.174  0.7548E-02  0.7548E-02  0.2289E+00  0.2289E+00
      2.247  0.6881E-02  0.6881E-02  0.2294E+00  0.2294E+00
      2.320  0.6189E-02  0.6189E-02  0.2299E+00  0.2299E+00
      2.392  0.6111E-02  0.6111E-02  0.2303E+00  0.2303E+00
      2.465  0.6543E-02  0.6543E-02  0.2308E+00  0.2308E+00
      2.538  0.6648E-02  0.6648E-02  0.2313E+00  0.2313E+00
      2.611  0.5857E-02  0.5857E-02  0.2317E+00  0.2317E+00
      2.683  0.4571E-02  0.4571E-02  0.2320E+00  0.2320E+00
      2.756  0.3833E-02  0.3833E-02  0.2323E+00  0.2323E+00
      2.829  0.4476E-02  0.4476E-02  0.2326E+00  0.2326E+00
      2.902  0.6302E-02  0.6302E-02  0.2331E+00  0.2331E+00
      2.974  0.7889E-02  0.7889E-02  0.2337E+00  0.2337E+00
      3.047  0.7693E-02  0.7693E-02  0.2342E+00  0.2342E+00
      3.120  0.5691E-02  0.5691E-02  0.2346E+00  0.2346E+00
      3.193  0.3548E-02  0.3548E-02  0.2349E+00  0.2349E+00
      3.265  0.2874E-02  0.2874E-02  0.2351E+00  0.2351E+00
      3.338  0.3718E-02  0.3718E-02  0.2354E+00  0.2354E+00
      3.411  0.5007E-02  0.5007E-02  0.2357E+00  0.2357E+00
      3.484  0.5830E-02  0.5831E-02  0.2362E+00  0.2362E+00
      3.556  0.5976E-02  0.5976E-02  0.2366E+00  0.2366E+00
      3.629  0.5794E-02  0.5794E-02  0.2370E+00  0.2370E+00
      3.702  0.5794E-02  0.5794E-02  0.2374E+00  0.2374E+00
      3.775  0.6138E-02  0.6138E-02  0.2379E+00  0.2379E+00
      3.847  0.6654E-02  0.6654E-02  0.2384E+00  0.2384E+00
      3.920  0.7133E-02  0.7133E-02  0.2389E+00  0.2389E+00
      3.993  0.7196E-02  0.7196E-02  0.2394E+00  0.2394E+00
      4.065  0.6350E-02  0.6350E-02  0.2399E+00  0.2399E+00
      4.138  0.4688E-02  0.4688E-02  0.2402E+00  0.2402E+00
      4.211  0.3175E-02  0.3175E-02  0.2404E+00  0.2404E+00
      4.284  0.2870E-02  0.2870E-02  0.2407E+00  0.2407E+00
      4.356  0.3832E-02  0.3832E-02  0.2409E+00  0.2409E+00
      4.429  0.5003E-02  0.5003E-02  0.2413E+00  0.2413E+00
      4.502  0.5479E-02  0.5479E-02  0.2417E+00  0.2417E+00
      4.575  0.5730E-02  0.5729E-02  0.2421E+00  0.2421E+00
      4.647  0.6778E-02  0.6778E-02  0.2426E+00  0.2426E+00
      4.720  0.8209E-02  0.8209E-02  0.2432E+00  0.2432E+00
      4.793  0.8232E-02  0.8232E-02  0.2438E+00  0.2438E+00
      4.866  0.6155E-02  0.6155E-02  0.2443E+00  0.2443E+00
      4.938  0.3471E-02  0.3470E-02  0.2445E+00  0.2445E+00
      5.011  0.2011E-02  0.2011E-02  0.2446E+00  0.2446E+00
      5.084  0.2216E-02  0.2215E-02  0.2448E+00  0.2448E+00
      5.157  0.3500E-02  0.3499E-02  0.2451E+00  0.2451E+00
      5.229  0.5255E-02  0.5254E-02  0.2454E+00  0.2454E+00
      5.302  0.7071E-02  0.7071E-02  0.2460E+00  0.2460E+00
      5.375  0.8542E-02  0.8543E-02  0.2466E+00  0.2466E+00
      5.448  0.9324E-02  0.9326E-02  0.2473E+00  0.2473E+00
      5.520  0.9298E-02  0.9299E-02  0.2479E+00  0.2479E+00
      5.593  0.8610E-02  0.8609E-02  0.2486E+00  0.2486E+00
      5.666  0.7753E-02  0.7752E-02  0.2491E+00  0.2491E+00
      5.738  0.7508E-02  0.7507E-02  0.2497E+00  0.2497E+00
      5.811  0.8473E-02  0.8471E-02  0.2503E+00  0.2503E+00
      5.884  0.1044E-01  0.1044E-01  0.2510E+00  0.2510E+00
      5.957  0.1227E-01  0.1227E-01  0.2519E+00  0.2519E+00
      6.029  0.1274E-01  0.1274E-01  0.2529E+00  0.2529E+00
      6.102  0.1142E-01  0.1142E-01  0.2537E+00  0.2537E+00
      6.175  0.9019E-02  0.9020E-02  0.2544E+00  0.2544E+00
      6.248  0.7007E-02  0.7007E-02  0.2549E+00  0.2549E+00
      6.320  0.6724E-02  0.6724E-02  0.2554E+00  0.2554E+00
      6.393  0.8181E-02  0.8181E-02  0.2559E+00  0.2559E+00
      6.466  0.9931E-02  0.9931E-02  0.2567E+00  0.2567E+00
      6.539  0.1052E-01  0.1052E-01  0.2574E+00  0.2574E+00
      6.611  0.9695E-02  0.9695E-02  0.2581E+00  0.2581E+00
      6.684  0.8230E-02  0.8230E-02  0.2587E+00  0.2587E+00
      6.757  0.7219E-02  0.7219E-02  0.2593E+00  0.2593E+00
      6.830  0.7111E-02  0.7111E-02  0.2598E+00  0.2598E+00
      6.902  0.7319E-02  0.7320E-02  0.2603E+00  0.2603E+00
      6.975  0.7313E-02  0.7313E-02  0.2608E+00  0.2608E+00
      7.048  0.7565E-02  0.7563E-02  0.2614E+00  0.2614E+00
      7.121  0.8630E-02  0.8628E-02  0.2620E+00  0.2620E+00
      7.193  0.9920E-02  0.9919E-02  0.2627E+00  0.2627E+00
      7.266  0.1019E-01  0.1019E-01  0.2635E+00  0.2635E+00
      7.339  0.8960E-02  0.8962E-02  0.2641E+00  0.2641E+00
      7.411  0.7108E-02  0.7109E-02  0.2647E+00  0.2647E+00
      7.484  0.6170E-02  0.6170E-02  0.2651E+00  0.2651E+00
      7.557  0.6871E-02  0.6870E-02  0.2656E+00  0.2656E+00
      7.630  0.8614E-02  0.8613E-02  0.2662E+00  0.2662E+00
      7.702  0.1078E-01  0.1077E-01  0.2670E+00  0.2670E+00
      7.775  0.1342E-01  0.1342E-01  0.2680E+00  0.2680E+00
      7.848  0.1590E-01  0.1590E-01  0.2691E+00  0.2691E+00
      7.921  0.1651E-01  0.1651E-01  0.2703E+00  0.2703E+00
      7.993  0.1471E-01  0.1471E-01  0.2714E+00  0.2714E+00
      8.066  0.1219E-01  0.1219E-01  0.2723E+00  0.2723E+00
      8.139  0.1066E-01  0.1066E-01  0.2731E+00  0.2731E+00
      8.212  0.1001E-01  0.1001E-01  0.2738E+00  0.2738E+00
      8.284  0.9386E-02  0.9385E-02  0.2745E+00  0.2745E+00
      8.357  0.8426E-02  0.8427E-02  0.2751E+00  0.2751E+00
      8.430  0.7172E-02  0.7174E-02  0.2756E+00  0.2756E+00
      8.503  0.5851E-02  0.5853E-02  0.2761E+00  0.2761E+00
      8.575  0.4941E-02  0.4942E-02  0.2764E+00  0.2764E+00
      8.648  0.5226E-02  0.5223E-02  0.2768E+00  0.2768E+00
      8.721  0.7615E-02  0.7608E-02  0.2773E+00  0.2773E+00
      8.793  0.1194E-01  0.1193E-01  0.2782E+00  0.2782E+00
      8.866  0.1604E-01  0.1604E-01  0.2794E+00  0.2794E+00
      8.939  0.1759E-01  0.1759E-01  0.2807E+00  0.2807E+00
      9.012  0.1645E-01  0.1645E-01  0.2819E+00  0.2819E+00
      9.084  0.1383E-01  0.1384E-01  0.2829E+00  0.2829E+00
      9.157  0.1031E-01  0.1033E-01  0.2836E+00  0.2836E+00
      9.230  0.6396E-02  0.6431E-02  0.2841E+00  0.2841E+00
      9.303  0.3393E-02  0.3421E-02  0.2843E+00  0.2843E+00
      9.375  0.2209E-02  0.2206E-02  0.2845E+00  0.2845E+00
      9.448  0.2299E-02  0.2270E-02  0.2847E+00  0.2847E+00
      9.521  0.2380E-02  0.2348E-02  0.2848E+00  0.2848E+00
      9.594  0.1773E-02  0.1757E-02  0.2850E+00  0.2850E+00
      9.666  0.8089E-03  0.8066E-03  0.2850E+00  0.2850E+00
      9.739  0.1107E-03  0.1127E-03  0.2850E+00  0.2850E+00
      9.812 -0.1278E-03 -0.1262E-03  0.2850E+00  0.2850E+00
      9.885 -0.1088E-03 -0.1082E-03  0.2850E+00  0.2850E+00
      9.957 -0.4652E-04 -0.4638E-04  0.2850E+00  0.2850E+00
     10.030 -0.1313E-04 -0.1311E-04  0.2850E+00  0.2850E+00
     10.103 -0.2627E-05 -0.2624E-05  0.2850E+00  0.2850E+00
     10.176 -0.3841E-06 -0.3839E-06  0.2850E+00  0.2850E+00
     10.248 -0.4170E-07 -0.4169E-07  0.2850E+00  0.2850E+00
     10.321 -0.3392E-08 -0.3392E-08  0.2850E+00  0.2850E+00
     10.394 -0.2080E-09 -0.2080E-09  0.2850E+00  0.2850E+00
     10.466 -0.9656E-11 -0.9656E-11  0.2850E+00  0.2850E+00
     10.539 -0.3403E-12 -0.3403E-12  0.2850E+00  0.2850E+00
     10.612 -0.9121E-14 -0.9121E-14  0.2850E+00  0.2850E+00
     10.685 -0.1866E-15 -0.1866E-15  0.2850E+00  0.2850E+00
     10.757 -0.3392E-17 -0.3392E-17  0.2850E+00  0.2850E+00
     10.830  0.0000E+00  0.0000E+00  0.2850E+00  0.2850E+00
     10.903  0.0000E+00  0.0000E+00  0.2850E+00  0.2850E+00
     10.976  0.0000E+00  0.0000E+00  0.2850E+00  0.2850E+00
     11.048  0.0000E+00  0.0000E+00  0.2850E+00  0.2850E+00
     11.121  0.0000E+00  0.0000E+00  0.2850E+00  0.2850E+00
     11.194  0.0000E+00  0.0000E+00  0.2850E+00  0.2850E+00
     11.267  0.0000E+00  0.0000E+00  0.2850E+00  0.2850E+00
     11.339  0.0000E+00  0.0000E+00  0.2850E+00  0.2850E+00
     11.412  0.0000E+00  0.0000E+00  0.2850E+00  0.2850E+00
     11.485  0.0000E+00  0.0000E+00  0.2850E+00  0.2850E+00
