<?xml version="1.0" encoding="ISO-8859-1"?>
<modeling>
 <generator>
  <i name="program" type="string">vasp </i>
  <i name="version" type="string">6.3.2  </i>
  <i name="subversion" type="string">27Jun22 (build Aug 17 2022 15:43:34) complex                          parallel </i>
  <i name="platform" type="string">tv2STDVTST </i>
  <i name="date" type="string">2025 01 21 </i>
  <i name="time" type="string">16:38:48 </i>
 </generator>
 <incar>
  <i type="int" name="ISTART">     0</i>
  <i type="string" name="PREC">Normal</i>
  <i type="int" name="ISPIN">     2</i>
  <i type="int" name="ICHARG">     2</i>
  <i type="int" name="IBRION">     2</i>
  <i name="EDIFF">      0.00020000</i>
  <i name="EDIFFG">     -0.03000000</i>
  <i type="int" name="NSW">   800</i>
  <i type="int" name="ISIF">     2</i>
  <i type="int" name="ISYM">     1</i>
  <i name="ENCUT">    400.00000000</i>
  <i name="POTIM">      0.50000000</i>
  <i type="logical" name="LREAL"> F  </i>
  <i type="int" name="ISMEAR">     1</i>
  <i name="SIGMA">      0.20000000</i>
  <i type="logical" name="LWAVE"> F  </i>
  <i type="logical" name="LCHARG"> F  </i>
  <i type="string" name="GGA">PE</i>
  <i type="int" name="IDIPOL">     3</i>
  <i type="int" name="IVDW">    11</i>
 </incar>
 <primitive_cell>
  <structure name="primitive_cell" >
   <crystal>
    <varray name="basis" >
     <v>       0.00000000      -2.56679773       0.00000000 </v>
     <v>       3.63000011       0.00000000       0.00000000 </v>
     <v>       0.00000000       0.00000000      23.98379135 </v>
    </varray>
    <i name="volume">    223.46840183 </i>
    <varray name="rec_basis" >
     <v>       0.00000000      -0.38959050       0.00000000 </v>
     <v>       0.27548209       0.00000000       0.00000000 </v>
     <v>       0.00000000       0.00000000       0.04169483 </v>
    </varray>
   </crystal>
   <varray name="positions" >
    <v>       0.00000000       0.00000000       0.00000000 </v>
    <v>       0.50000000       0.50000000       0.05351109 </v>
    <v>       0.00000000       0.00000000       0.10702218 </v>
    <v>       0.50000000       0.50000000       0.16053327 </v>
    <v>       0.00000000       0.00000000       0.21404436 </v>
    <v>       0.50000000       0.50000000       0.26755545 </v>
    <v>       0.00000000       0.00000000       0.32106654 </v>
    <v>       0.50000000       0.50000000       0.37457763 </v>
   </varray>
  </structure>
  <varray name="primitive_index" >
   <v type="int" >        1 </v>
   <v type="int" >        6 </v>
   <v type="int" >        9 </v>
   <v type="int" >       14 </v>
   <v type="int" >       17 </v>
   <v type="int" >       22 </v>
   <v type="int" >       25 </v>
   <v type="int" >       30 </v>
  </varray>
 </primitive_cell>
 <kpoints>
  <generation param="Monkhorst-Pack">
   <v type="int" name="divisions">       3        3        1 </v>
   <v name="usershift">      0.00000000       0.00000000       0.00000000 </v>
   <v name="genvec1">      0.33333333       0.00000000       0.00000000 </v>
   <v name="genvec2">      0.00000000       0.33333333       0.00000000 </v>
   <v name="genvec3">      0.00000000       0.00000000       1.00000000 </v>
   <v name="shift">      0.00000000       0.00000000       0.00000000 </v>
  </generation>
  <varray name="kpointlist" >
   <v>       0.00000000       0.00000000       0.00000000 </v>
   <v>       0.33333333       0.00000000       0.00000000 </v>
   <v>       0.00000000       0.33333333       0.00000000 </v>
   <v>       0.33333333       0.33333333       0.00000000 </v>
  </varray>
  <varray name="weights" >
   <v>       0.11111111 </v>
   <v>       0.22222222 </v>
   <v>       0.22222222 </v>
   <v>       0.44444444 </v>
  </varray>
 </kpoints>
 <parameters>
  <separator name="general" >
   <i type="string" name="SYSTEM">unknown system</i>
   <i type="logical" name="LCOMPAT"> F  </i>
  </separator>
  <separator name="electronic" >
   <i type="string" name="PREC">normal</i>
   <i name="ENMAX">    400.00000000</i>
   <i name="ENAUG">    586.98000000</i>
   <i name="EDIFF">      0.00020000</i>
   <i type="int" name="IALGO">    38</i>
   <i type="int" name="IWAVPR">    11</i>
   <i type="int" name="NBANDS">   228</i>
   <i type="int" name="NBANDSLOW">    -1</i>
   <i type="int" name="NBANDSHIGH">    -1</i>
   <i name="NELECT">    352.00000000</i>
   <i type="int" name="TURBO">     0</i>
   <i type="int" name="IRESTART">     0</i>
   <i type="int" name="NREBOOT">     0</i>
   <i type="int" name="NMIN">     0</i>
   <i name="EREF">      0.00000000</i>
   <separator name="electronic smearing" >
    <i type="int" name="ISMEAR">     1</i>
    <i name="SIGMA">      0.20000000</i>
    <i name="KSPACING">      0.50000000</i>
    <i type="logical" name="KGAMMA"> T  </i>
    <i type="logical" name="KBLOWUP"> T  </i>
   </separator>
   <separator name="electronic projectors" >
    <i type="logical" name="LREAL"> F  </i>
    <v name="ROPT">      0.00000000</v>
    <i type="int" name="LMAXPAW">  -100</i>
    <i type="int" name="LMAXMIX">     2</i>
    <i type="logical" name="NLSPLINE"> F  </i>
   </separator>
   <separator name="electronic startup" >
    <i type="int" name="ISTART">     0</i>
    <i type="int" name="ICHARG">     2</i>
    <i type="int" name="INIWAV">     1</i>
   </separator>
   <separator name="electronic spin" >
    <i type="int" name="ISPIN">     2</i>
    <i type="logical" name="LNONCOLLINEAR"> F  </i>
    <v name="MAGMOM">      1.00000000      1.00000000      1.00000000      1.00000000      1.00000000      1.00000000      1.00000000      1.00000000      1.00000000      1.00000000      1.00000000      1.00000000      1.00000000      1.00000000      1.00000000      1.00000000      1.00000000      1.00000000      1.00000000      1.00000000
      1.00000000      1.00000000      1.00000000      1.00000000      1.00000000      1.00000000      1.00000000      1.00000000      1.00000000      1.00000000      1.00000000      1.00000000</v>
    <i name="NUPDOWN">     -1.00000000</i>
    <i type="logical" name="LSORBIT"> F  </i>
    <v name="SAXIS">      0.00000000      0.00000000      1.00000000</v>
    <i type="logical" name="LSPIRAL"> F  </i>
    <v name="QSPIRAL">      0.00000000      0.00000000      0.00000000</v>
    <i type="logical" name="LZEROZ"> F  </i>
   </separator>
   <separator name="electronic exchange-correlation" >
    <i type="logical" name="LASPH"> F  </i>
    <i type="logical" name="LMETAGGA"> F  </i>
   </separator>
   <separator name="electronic convergence" >
    <i type="int" name="NELM">    60</i>
    <i type="int" name="NELMDL">    -5</i>
    <i type="int" name="NELMIN">     2</i>
    <i name="ENINI">    400.00000000</i>
    <separator name="electronic convergence detail" >
     <i type="logical" name="LDIAG"> T  </i>
     <i type="logical" name="LSUBROT"> F  </i>
     <i name="WEIMIN">      0.00100000</i>
     <i name="EBREAK">      0.00000022</i>
     <i name="DEPER">      0.30000000</i>
     <i type="int" name="NRMM">     4</i>
     <i name="TIME">      0.40000000</i>
    </separator>
   </separator>
   <separator name="electronic mixer" >
    <i name="AMIX">      0.40000000</i>
    <i name="BMIX">      1.00000000</i>
    <i name="AMIN">      0.10000000</i>
    <i name="AMIX_MAG">      1.60000000</i>
    <i name="BMIX_MAG">      1.00000000</i>
    <separator name="electronic mixer details" >
     <i type="int" name="IMIX">     4</i>
     <i type="logical" name="MIXFIRST"> F  </i>
     <i type="int" name="MAXMIX">   -45</i>
     <i name="WC">    100.00000000</i>
     <i type="int" name="INIMIX">     1</i>
     <i type="int" name="MIXPRE">     1</i>
     <i type="int" name="MREMOVE">     5</i>
    </separator>
   </separator>
   <separator name="electronic dipolcorrection" >
    <i type="logical" name="LDIPOL"> F  </i>
    <i type="logical" name="LMONO"> F  </i>
    <i type="int" name="IDIPOL">     3</i>
    <i name="EPSILON">      1.00000000</i>
    <v name="DIPOL">   -100.00000000   -100.00000000   -100.00000000</v>
    <i name="EFIELD">      0.00000000</i>
   </separator>
  </separator>
  <separator name="grids" >
   <i type="int" name="NGX">    36</i>
   <i type="int" name="NGY">    28</i>
   <i type="int" name="NGZ">   120</i>
   <i type="int" name="NGXF">    72</i>
   <i type="int" name="NGYF">    56</i>
   <i type="int" name="NGZF">   240</i>
   <i type="logical" name="ADDGRID"> F  </i>
  </separator>
  <separator name="ionic" >
   <i type="int" name="NSW">   800</i>
   <i type="int" name="IBRION">     2</i>
   <i type="int" name="MDALGO">     0</i>
   <i type="int" name="ISIF">     2</i>
   <i name="PSTRESS">      0.00000000</i>
   <i name="EDIFFG">     -0.03000000</i>
   <i type="int" name="NFREE">     1</i>
   <i name="POTIM">      0.50000000</i>
   <i name="SMASS">     -3.00000000</i>
   <i name="SCALEE">      1.00000000</i>
  </separator>
  <separator name="ionic md" >
   <i name="TEBEG">      0.00010000</i>
   <i name="TEEND">      0.00010000</i>
   <i type="int" name="NBLOCK">     1</i>
   <i type="int" name="KBLOCK">   800</i>
   <i type="int" name="NPACO">   256</i>
   <i name="APACO">     10.00000000</i>
  </separator>
  <separator name="symmetry" >
   <i type="int" name="ISYM">     1</i>
   <i name="SYMPREC">      0.00001000</i>
  </separator>
  <separator name="dos" >
   <i type="int" name="LORBIT">     0</i>
   <v name="RWIGS">     -1.00000000</v>
   <i type="int" name="NEDOS">   301</i>
   <i name="EMIN">     10.00000000</i>
   <i name="EMAX">    -10.00000000</i>
   <i name="EFERMI">      0.00000000</i>
  </separator>
  <separator name="writing" >
   <i type="int" name="NWRITE">     2</i>
   <i type="logical" name="LWAVE"> F  </i>
   <i type="logical" name="LDOWNSAMPLE"> F  </i>
   <i type="logical" name="LCHARG"> F  </i>
   <i type="logical" name="LPARD"> F  </i>
   <i type="logical" name="LVTOT"> F  </i>
   <i type="logical" name="LVHAR"> F  </i>
   <i type="logical" name="LELF"> F  </i>
   <i type="logical" name="LOPTICS"> F  </i>
   <v name="STM">      0.00000000      0.00000000      0.00000000      0.00000000      0.00000000      0.00000000      0.00000000</v>
  </separator>
  <separator name="performance" >
   <i type="int" name="NPAR">     4</i>
   <i type="int" name="NSIM">     4</i>
   <i type="int" name="NBLK">    -1</i>
   <i type="logical" name="LPLANE"> T  </i>
   <i type="logical" name="LSCALAPACK"> T  </i>
   <i type="logical" name="LSCAAWARE"> F  </i>
   <i type="logical" name="LSCALU"> F  </i>
   <i type="logical" name="LASYNC"> F  </i>
   <i type="logical" name="LORBITALREAL"> F  </i>
  </separator>
  <separator name="miscellaneous" >
   <i type="int" name="IDIOT">     3</i>
   <i type="int" name="PHON_NSTRUCT">    -1</i>
   <i type="logical" name="LMUSIC"> F  </i>
   <v name="POMASS">     63.54600000</v>
   <v name="DARWINR">      0.00000000</v>
   <v name="DARWINV">      1.00000000</v>
   <i type="logical" name="LCORR"> T  </i>
  </separator>
  <i type="logical" name="GGA_COMPAT"> T  </i>
  <i type="logical" name="LBERRY"> F  </i>
  <i type="int" name="ICORELEVEL">     0</i>
  <i type="logical" name="LDAU"> F  </i>
  <i type="int" name="I_CONSTRAINED_M">     0</i>
  <separator name="electronic exchange-correlation" >
   <i type="string" name="GGA">PE</i>
   <i type="int" name="VOSKOWN">     0</i>
   <i type="logical" name="LHFCALC"> F  </i>
   <i type="string" name="PRECFOCK"></i>
   <i type="logical" name="LSYMGRAD"> F  </i>
   <i type="logical" name="LHFONE"> F  </i>
   <i type="logical" name="LRHFCALC"> F  </i>
   <i type="logical" name="LTHOMAS"> F  </i>
   <i type="logical" name="LMODELHF"> F  </i>
   <i type="logical" name="LFOCKACE"> F  </i>
   <i name="ENCUT4O">     -1.00000000</i>
   <i type="int" name="EXXOEP">     0</i>
   <i type="int" name="FOURORBIT">     0</i>
   <i name="AEXX">      0.00000000</i>
   <i name="HFALPHA">      0.00000000</i>
   <i name="MCALPHA">      0.00000000</i>
   <i name="ALDAX">      1.00000000</i>
   <i name="AGGAX">      1.00000000</i>
   <i name="ALDAC">      1.00000000</i>
   <i name="AGGAC">      1.00000000</i>
   <i type="int" name="NKREDX">     1</i>
   <i type="int" name="NKREDY">     1</i>
   <i type="int" name="NKREDZ">     1</i>
   <i type="logical" name="SHIFTRED"> F  </i>
   <i type="logical" name="ODDONLY"> F  </i>
   <i type="logical" name="EVENONLY"> F  </i>
   <i type="int" name="LMAXFOCK">     0</i>
   <i type="int" name="NMAXFOCKAE">     0</i>
   <i type="logical" name="LFOCKAEDFT"> F  </i>
   <i name="HFSCREEN">      0.00000000</i>
   <i name="HFSCREENC">      0.00000000</i>
   <i type="int" name="NBANDSGWLOW">     0</i>
  </separator>
  <separator name="vdW DFT" >
   <i type="logical" name="LUSE_VDW"> F  </i>
   <i name="Zab_VDW">     -0.84910000</i>
   <i name="PARAM1">      0.12340000</i>
   <i name="PARAM2">      1.00000000</i>
   <i name="PARAM3">      0.00000000</i>
  </separator>
  <separator name="model GW" >
   <i type="int" name="MODEL_GW">     0</i>
   <i name="MODEL_EPS0">     16.76013014</i>
   <i name="MODEL_ALPHA">      1.00000000</i>
  </separator>
  <separator name="linear response parameters" >
   <i type="logical" name="LEPSILON"> F  </i>
   <i type="logical" name="LRPA"> F  </i>
   <i type="logical" name="LNABLA"> F  </i>
   <i type="logical" name="LVEL"> F  </i>
   <i name="CSHIFT">      0.10000000</i>
   <i name="OMEGAMAX">     -1.00000000</i>
   <i name="DEG_THRESHOLD">      0.00200000</i>
   <i name="RTIME">     -0.10000000</i>
   <i name="WPLASMAI">      0.00000000</i>
   <v name="DFIELD">      0.00000000      0.00000000      0.00000000</v>
   <v name="WPLASMA">      0.00000000      0.00000000      0.00000000      0.00000000      0.00000000      0.00000000      0.00000000      0.00000000      0.00000000</v>
  </separator>
  <separator name="orbital magnetization" >
   <i type="logical" name="NUCIND"> F  </i>
   <v name="MAGPOS">      0.00000000      0.00000000      0.00000000</v>
   <i type="logical" name="LNICSALL"> T  </i>
   <i type="logical" name="ORBITALMAG"> F  </i>
   <i type="logical" name="LMAGBLOCH"> F  </i>
   <i type="logical" name="LCHIMAG"> F  </i>
   <i type="logical" name="LGAUGE"> T  </i>
   <i type="int" name="MAGATOM">     0</i>
   <v name="MAGDIPOL">      0.00000000      0.00000000      0.00000000</v>
   <v name="AVECCONST">      0.00000000      0.00000000      0.00000000</v>
  </separator>
  <separator name="response functions" >
   <i type="logical" name="LFINITE_TEMPERATURE"> F  </i>
   <i type="logical" name="LADDER"> F  </i>
   <i type="logical" name="LRPAFORCE"> F  </i>
   <i type="logical" name="LFXC"> F  </i>
   <i type="logical" name="LHARTREE"> T  </i>
   <i type="int" name="IBSE">     0</i>
   <v type="int" name="KPOINT">    -1     0     0     0</v>
   <i type="logical" name="LTCTC"> F  </i>
   <i type="logical" name="LTCTE"> F  </i>
   <i type="logical" name="LTETE"> F  </i>
   <i type="logical" name="LTRIPLET"> F  </i>
   <i type="logical" name="LFXCEPS"> F  </i>
   <i type="logical" name="LFXHEG"> F  </i>
   <i type="int" name="NATURALO">     2</i>
   <i type="logical" name="LHOLEGF"> F  </i>
   <i type="logical" name="L2ORDER"> F  </i>
   <i type="logical" name="LDMP1"> F  </i>
   <i type="logical" name="LMP2LT"> F  </i>
   <i type="logical" name="LSMP2LT"> F  </i>
   <i type="logical" name="LGWLF"> F  </i>
   <i name="ENCUTGW">     -2.00000000</i>
   <i name="ENCUTGWSOFT">     -2.00000000</i>
   <i name="ENCUTLF">     -1.00000000</i>
   <i type="logical" name="LESF_SPLINES"> F  </i>
   <i type="int" name="LMAXMP2">    -1</i>
   <i name="SCISSOR">      0.00000000</i>
   <i type="int" name="NOMEGA">     0</i>
   <i type="int" name="NOMEGAR">     0</i>
   <i type="int" name="NBANDSGW">    -1</i>
   <i type="int" name="NBANDSO">    -1</i>
   <i type="int" name="NBANDSV">    -1</i>
   <i type="int" name="NELMGW">     1</i>
   <i type="int" name="NELMHF">     1</i>
   <i type="int" name="DIM">     3</i>
   <i type="int" name="IESPILON">     4</i>
   <i type="int" name="ANTIRES">     0</i>
   <i name="OMEGAMAX">    -30.00000000</i>
   <i name="OMEGAMIN">    -30.00000000</i>
   <i name="OMEGATL">   -200.00000000</i>
   <i type="int" name="OMEGAGRID">     0</i>
   <i name="CSHIFT">     -0.10000000</i>
   <i type="logical" name="LSELFENERGY"> F  </i>
   <i type="logical" name="LSPECTRAL"> F  </i>
   <i type="logical" name="LSPECTRALGW"> F  </i>
   <i type="logical" name="LSINGLES"> F  </i>
   <i type="logical" name="LFERMIGW"> F  </i>
   <i type="logical" name="ODDONLYGW"> F  </i>
   <i type="logical" name="EVENONLYGW"> F  </i>
   <i type="int" name="NKREDLFX">     1</i>
   <i type="int" name="NKREDLFY">     1</i>
   <i type="int" name="NKREDLFZ">     1</i>
   <i type="int" name="MAXMEM">  2800</i>
   <i type="int" name="TELESCOPE">     0</i>
   <i type="int" name="NTAUPAR">    -1</i>
   <i type="int" name="NOMEGAPAR">    -1</i>
   <i name="DAMP_NEWTON">      0.80000001</i>
   <i name="LAMBDA">      1.00000000</i>
  </separator>
  <separator name="External order field" >
   <i name="OFIELD_KAPPA">      0.00000000</i>
   <v name="OFIELD_K">      0.00000000      0.00000000      0.00000000</v>
   <i name="OFIELD_Q6_NEAR">      0.00000000</i>
   <i name="OFIELD_Q6_FAR">      0.00000000</i>
   <i name="OFIELD_A">      0.00000000</i>
  </separator>
  <separator name="optional k-points parameters" >
   <i type="int" name="KPOINTS_OPT_MODE">     1</i>
   <i type="logical" name="LKPOINTS_OPT"> F  </i>
  </separator>
 </parameters>
 <atominfo>
  <atoms>      32 </atoms>
  <types>       1 </types>
  <array name="atoms" >
   <dimension dim="1">ion</dimension>
   <field type="string">element</field>
   <field type="int">atomtype</field>
   <set>
    <rc><c>Cu</c><c>   1</c></rc>
    <rc><c>Cu</c><c>   1</c></rc>
    <rc><c>Cu</c><c>   1</c></rc>
    <rc><c>Cu</c><c>   1</c></rc>
    <rc><c>Cu</c><c>   1</c></rc>
    <rc><c>Cu</c><c>   1</c></rc>
    <rc><c>Cu</c><c>   1</c></rc>
    <rc><c>Cu</c><c>   1</c></rc>
    <rc><c>Cu</c><c>   1</c></rc>
    <rc><c>Cu</c><c>   1</c></rc>
    <rc><c>Cu</c><c>   1</c></rc>
    <rc><c>Cu</c><c>   1</c></rc>
    <rc><c>Cu</c><c>   1</c></rc>
    <rc><c>Cu</c><c>   1</c></rc>
    <rc><c>Cu</c><c>   1</c></rc>
    <rc><c>Cu</c><c>   1</c></rc>
    <rc><c>Cu</c><c>   1</c></rc>
    <rc><c>Cu</c><c>   1</c></rc>
    <rc><c>Cu</c><c>   1</c></rc>
    <rc><c>Cu</c><c>   1</c></rc>
    <rc><c>Cu</c><c>   1</c></rc>
    <rc><c>Cu</c><c>   1</c></rc>
    <rc><c>Cu</c><c>   1</c></rc>
    <rc><c>Cu</c><c>   1</c></rc>
    <rc><c>Cu</c><c>   1</c></rc>
    <rc><c>Cu</c><c>   1</c></rc>
    <rc><c>Cu</c><c>   1</c></rc>
    <rc><c>Cu</c><c>   1</c></rc>
    <rc><c>Cu</c><c>   1</c></rc>
    <rc><c>Cu</c><c>   1</c></rc>
    <rc><c>Cu</c><c>   1</c></rc>
    <rc><c>Cu</c><c>   1</c></rc>
   </set>
  </array>
  <array name="atomtypes" >
   <dimension dim="1">type</dimension>
   <field type="int">atomspertype</field>
   <field type="string">element</field>
   <field>mass</field>
   <field>valence</field>
   <field type="string">pseudopotential</field>
   <set>
    <rc><c>  32</c><c>Cu</c><c>     63.54600000</c><c>     11.00000000</c><c>  PAW_PBE Cu 22Jun2005                  </c></rc>
   </set>
  </array>
 </atominfo>
 <structure name="initialpos" >
  <crystal>
   <varray name="basis" >
    <v>       7.26000023       0.00000000       0.00000000 </v>
    <v>       0.00000000       5.13359547       0.00000000 </v>
    <v>       0.00000000       0.00000000      23.98379135 </v>
   </varray>
   <i name="volume">    893.87360752 </i>
   <varray name="rec_basis" >
    <v>       0.13774104       0.00000000       0.00000000 </v>
    <v>       0.00000000       0.19479525       0.00000000 </v>
    <v>       0.00000000       0.00000000       0.04169483 </v>
   </varray>
  </crystal>
  <varray name="positions" >
   <v>       0.00000000       0.00000000       0.00000000 </v>
   <v>       0.00000000       0.50000000       0.00000000 </v>
   <v>       0.50000000       0.00000000       0.00000000 </v>
   <v>       0.50000000       0.50000000       0.00000000 </v>
   <v>       0.25000000       0.25000000       0.05351109 </v>
   <v>       0.25000000       0.75000000       0.05351109 </v>
   <v>       0.75000000       0.25000000       0.05351109 </v>
   <v>       0.75000000       0.75000000       0.05351109 </v>
   <v>       0.00000000       0.00000000       0.10702218 </v>
   <v>       0.00000000       0.50000000       0.10702218 </v>
   <v>       0.50000000       0.00000000       0.10702218 </v>
   <v>       0.50000000       0.50000000       0.10702218 </v>
   <v>       0.25000000       0.25000000       0.16053327 </v>
   <v>       0.25000000       0.75000000       0.16053327 </v>
   <v>       0.75000000       0.25000000       0.16053327 </v>
   <v>       0.75000000       0.75000000       0.16053327 </v>
   <v>       0.00000000       0.00000000       0.21404436 </v>
   <v>       0.00000000       0.50000000       0.21404436 </v>
   <v>       0.50000000       0.00000000       0.21404436 </v>
   <v>       0.50000000       0.50000000       0.21404436 </v>
   <v>       0.25000000       0.25000000       0.26755545 </v>
   <v>       0.25000000       0.75000000       0.26755545 </v>
   <v>       0.75000000       0.25000000       0.26755545 </v>
   <v>       0.75000000       0.75000000       0.26755545 </v>
   <v>       0.00000000       0.00000000       0.32106654 </v>
   <v>       0.00000000       0.50000000       0.32106654 </v>
   <v>       0.50000000       0.00000000       0.32106654 </v>
   <v>       0.50000000       0.50000000       0.32106654 </v>
   <v>       0.25000000       0.25000000       0.37457763 </v>
   <v>       0.25000000       0.75000000       0.37457763 </v>
   <v>       0.75000000       0.25000000       0.37457763 </v>
   <v>       0.75000000       0.75000000       0.37457763 </v>
  </varray>
  <varray name="selective"  type="logical" >
   <v type="logical" >  F  F  F </v>
   <v type="logical" >  F  F  F </v>
   <v type="logical" >  F  F  F </v>
   <v type="logical" >  F  F  F </v>
   <v type="logical" >  F  F  F </v>
   <v type="logical" >  F  F  F </v>
   <v type="logical" >  F  F  F </v>
   <v type="logical" >  F  F  F </v>
   <v type="logical" >  T  T  T </v>
   <v type="logical" >  T  T  T </v>
   <v type="logical" >  T  T  T </v>
   <v type="logical" >  T  T  T </v>
   <v type="logical" >  T  T  T </v>
   <v type="logical" >  T  T  T </v>
   <v type="logical" >  T  T  T </v>
   <v type="logical" >  T  T  T </v>
   <v type="logical" >  T  T  T </v>
   <v type="logical" >  T  T  T </v>
   <v type="logical" >  T  T  T </v>
   <v type="logical" >  T  T  T </v>
   <v type="logical" >  T  T  T </v>
   <v type="logical" >  T  T  T </v>
   <v type="logical" >  T  T  T </v>
   <v type="logical" >  T  T  T </v>
   <v type="logical" >  T  T  T </v>
   <v type="logical" >  T  T  T </v>
   <v type="logical" >  T  T  T </v>
   <v type="logical" >  T  T  T </v>
   <v type="logical" >  T  T  T </v>
   <v type="logical" >  T  T  T </v>
   <v type="logical" >  T  T  T </v>
   <v type="logical" >  T  T  T </v>
  </varray>
  <nose>
   <v>      -3.00000000       0.00000000       0.00010000       0.00010000 </v>
  </nose>
 </structure>
 <calculation>
  <scstep>
   <time name="dav">    7.33    7.39</time>
   <time name="total">    7.41    7.48</time>
   <energy>
    <i name="alphaZ">    837.79172311 </i>
    <i name="ewald"> 164200.35057137 </i>
    <i name="hartreedc">-207326.95496889 </i>
    <i name="XCdc">   1460.25868550 </i>
    <i name="pawpsdc">  39299.11987357 </i>
    <i name="pawaedc"> -42685.46980880 </i>
    <i name="eentropy">     -0.00393364 </i>
    <i name="bandstr">   2933.90883232 </i>
    <i name="atom">  44510.64448639 </i>
    <i name="e_fr_energy">   3229.64546093 </i>
    <i name="e_wo_entrp">   3229.64939457 </i>
    <i name="e_0_energy">   3229.64677214 </i>
   </energy>
  </scstep>
  <scstep>
   <time name="dav">    7.19    7.25</time>
   <time name="total">    7.20    7.26</time>
   <energy>
    <i name="e_fr_energy">    369.59806293 </i>
    <i name="e_wo_entrp">    369.60139562 </i>
    <i name="e_0_energy">    369.59917383 </i>
   </energy>
  </scstep>
  <scstep>
   <time name="dav">    7.20    7.26</time>
   <time name="total">    7.20    7.26</time>
   <energy>
    <i name="e_fr_energy">   -101.14932216 </i>
    <i name="e_wo_entrp">   -101.19586961 </i>
    <i name="e_0_energy">   -101.16483798 </i>
   </energy>
  </scstep>
  <scstep>
   <time name="dav">    7.85    7.91</time>
   <time name="total">    7.85    7.92</time>
   <energy>
    <i name="e_fr_energy">   -131.99392776 </i>
    <i name="e_wo_entrp">   -132.04311679 </i>
    <i name="e_0_energy">   -132.01032411 </i>
   </energy>
  </scstep>
  <scstep>
   <time name="dav">    7.86    7.92</time>
   <time name="total">    8.34    8.41</time>
   <energy>
    <i name="e_fr_energy">   -132.70634061 </i>
    <i name="e_wo_entrp">   -132.75633152 </i>
    <i name="e_0_energy">   -132.72300425 </i>
   </energy>
  </scstep>
  <scstep>
   <time name="dav">    7.53    7.59</time>
   <time name="total">    8.08    8.15</time>
   <energy>
    <i name="e_fr_energy">   -108.22979373 </i>
    <i name="e_wo_entrp">   -108.21536075 </i>
    <i name="e_0_energy">   -108.22498273 </i>
   </energy>
  </scstep>
  <scstep>
   <time name="dav">    7.64    7.70</time>
   <time name="total">    8.19    8.26</time>
   <energy>
    <i name="e_fr_energy">    -93.28048900 </i>
    <i name="e_wo_entrp">    -93.27676607 </i>
    <i name="e_0_energy">    -93.27924802 </i>
   </energy>
  </scstep>
  <scstep>
   <time name="dav">    8.04    8.10</time>
   <time name="total">    8.57    8.64</time>
   <energy>
    <i name="e_fr_energy">    -91.50409969 </i>
    <i name="e_wo_entrp">    -91.48612373 </i>
    <i name="e_0_energy">    -91.49810770 </i>
   </energy>
  </scstep>
  <scstep>
   <time name="dav">    9.31    9.39</time>
   <time name="total">    9.86    9.94</time>
   <energy>
    <i name="e_fr_energy">    -88.97464112 </i>
    <i name="e_wo_entrp">    -88.96055287 </i>
    <i name="e_0_energy">    -88.96994504 </i>
   </energy>
  </scstep>
  <scstep>
   <time name="dav">    9.73    9.82</time>
   <time name="total">   10.27   10.36</time>
   <energy>
    <i name="e_fr_energy">    -89.35697906 </i>
    <i name="e_wo_entrp">    -89.32877002 </i>
    <i name="e_0_energy">    -89.34757604 </i>
   </energy>
  </scstep>
  <scstep>
   <time name="dav">    8.64    8.72</time>
   <time name="total">    9.20    9.28</time>
   <energy>
    <i name="e_fr_energy">    -89.05092351 </i>
    <i name="e_wo_entrp">    -89.02179889 </i>
    <i name="e_0_energy">    -89.04121530 </i>
   </energy>
  </scstep>
  <scstep>
   <time name="dav">    9.28    9.36</time>
   <time name="total">    9.84    9.92</time>
   <energy>
    <i name="e_fr_energy">    -92.66035984 </i>
    <i name="e_wo_entrp">    -92.64522721 </i>
    <i name="e_0_energy">    -92.65531563 </i>
   </energy>
  </scstep>
  <scstep>
   <time name="dav">    8.55    8.62</time>
   <time name="total">    9.09    9.16</time>
   <energy>
    <i name="e_fr_energy">    -96.01939097 </i>
    <i name="e_wo_entrp">    -96.01992126 </i>
    <i name="e_0_energy">    -96.01956773 </i>
   </energy>
  </scstep>
  <scstep>
   <time name="dav">    8.98    9.05</time>
   <time name="total">    9.53    9.60</time>
   <energy>
    <i name="e_fr_energy">    -99.14907604 </i>
    <i name="e_wo_entrp">    -99.14965780 </i>
    <i name="e_0_energy">    -99.14926996 </i>
   </energy>
  </scstep>
  <scstep>
   <time name="dav">    9.96   10.04</time>
   <time name="total">   10.51   10.60</time>
   <energy>
    <i name="e_fr_energy">   -103.02681582 </i>
    <i name="e_wo_entrp">   -103.03010676 </i>
    <i name="e_0_energy">   -103.02791280 </i>
   </energy>
  </scstep>
  <scstep>
   <time name="dav">    7.91    7.98</time>
   <time name="total">    8.46    8.53</time>
   <energy>
    <i name="e_fr_energy">   -107.02925126 </i>
    <i name="e_wo_entrp">   -107.01923881 </i>
    <i name="e_0_energy">   -107.02591378 </i>
   </energy>
  </scstep>
  <scstep>
   <time name="dav">    7.53    7.59</time>
   <time name="total">    8.07    8.14</time>
   <energy>
    <i name="e_fr_energy">   -108.77574121 </i>
    <i name="e_wo_entrp">   -108.74119880 </i>
    <i name="e_0_energy">   -108.76422707 </i>
   </energy>
  </scstep>
  <scstep>
   <time name="dav">    9.00    9.07</time>
   <time name="total">    9.55    9.63</time>
   <energy>
    <i name="e_fr_energy">   -109.70140651 </i>
    <i name="e_wo_entrp">   -109.66906858 </i>
    <i name="e_0_energy">   -109.69062720 </i>
   </energy>
  </scstep>
  <scstep>
   <time name="dav">    8.30    8.37</time>
   <time name="total">    8.86    8.93</time>
   <energy>
    <i name="e_fr_energy">   -110.05967678 </i>
    <i name="e_wo_entrp">   -110.02280800 </i>
    <i name="e_0_energy">   -110.04738719 </i>
   </energy>
  </scstep>
  <scstep>
   <time name="dav">    8.22    8.29</time>
   <time name="total">    8.77    8.85</time>
   <energy>
    <i name="e_fr_energy">   -110.46970497 </i>
    <i name="e_wo_entrp">   -110.42378817 </i>
    <i name="e_0_energy">   -110.45439937 </i>
   </energy>
  </scstep>
  <scstep>
   <time name="dav">    9.25    9.33</time>
   <time name="total">    9.79    9.87</time>
   <energy>
    <i name="e_fr_energy">   -110.65429853 </i>
    <i name="e_wo_entrp">   -110.60767339 </i>
    <i name="e_0_energy">   -110.63875682 </i>
   </energy>
  </scstep>
  <scstep>
   <time name="dav">    8.69    8.76</time>
   <time name="total">    9.24    9.31</time>
   <energy>
    <i name="e_fr_energy">   -110.92107838 </i>
    <i name="e_wo_entrp">   -110.87202858 </i>
    <i name="e_0_energy">   -110.90472844 </i>
   </energy>
  </scstep>
  <scstep>
   <time name="dav">    8.84    8.92</time>
   <time name="total">    9.38    9.47</time>
   <energy>
    <i name="e_fr_energy">   -111.20451305 </i>
    <i name="e_wo_entrp">   -111.15420434 </i>
    <i name="e_0_energy">   -111.18774348 </i>
   </energy>
  </scstep>
  <scstep>
   <time name="dav">    8.84    8.91</time>
   <time name="total">    9.39    9.47</time>
   <energy>
    <i name="e_fr_energy">   -111.31186059 </i>
    <i name="e_wo_entrp">   -111.26409151 </i>
    <i name="e_0_energy">   -111.29593756 </i>
   </energy>
  </scstep>
  <scstep>
   <time name="dav">    8.36    8.43</time>
   <time name="total">    8.91    8.98</time>
   <energy>
    <i name="e_fr_energy">   -111.53807716 </i>
    <i name="e_wo_entrp">   -111.48804290 </i>
    <i name="e_0_energy">   -111.52139908 </i>
   </energy>
  </scstep>
  <scstep>
   <time name="dav">    8.67    8.74</time>
   <time name="total">    9.23    9.31</time>
   <energy>
    <i name="e_fr_energy">   -111.61454192 </i>
    <i name="e_wo_entrp">   -111.56629785 </i>
    <i name="e_0_energy">   -111.59846056 </i>
   </energy>
  </scstep>
  <scstep>
   <time name="dav">    7.34    7.40</time>
   <time name="total">    7.89    7.95</time>
   <energy>
    <i name="e_fr_energy">   -111.64694203 </i>
    <i name="e_wo_entrp">   -111.59827729 </i>
    <i name="e_0_energy">   -111.63072045 </i>
   </energy>
  </scstep>
  <scstep>
   <time name="dav">    5.60    5.65</time>
   <time name="total">    6.16    6.20</time>
   <energy>
    <i name="e_fr_energy">   -111.65513034 </i>
    <i name="e_wo_entrp">   -111.60631461 </i>
    <i name="e_0_energy">   -111.63885843 </i>
   </energy>
  </scstep>
  <scstep>
   <time name="dav">    5.63    5.67</time>
   <time name="total">    6.18    6.23</time>
   <energy>
    <i name="e_fr_energy">   -111.65750090 </i>
    <i name="e_wo_entrp">   -111.60881413 </i>
    <i name="e_0_energy">   -111.64127197 </i>
   </energy>
  </scstep>
  <scstep>
   <time name="dav">    5.50    5.55</time>
   <time name="total">    6.05    6.10</time>
   <energy>
    <i name="e_fr_energy">   -111.65849011 </i>
    <i name="e_wo_entrp">   -111.60978805 </i>
    <i name="e_0_energy">   -111.64225609 </i>
   </energy>
  </scstep>
  <scstep>
   <time name="dav">    5.28    5.32</time>
   <time name="total">    5.35    5.40</time>
   <energy>
    <i name="alphaZ">    837.79172311 </i>
    <i name="ewald"> 164200.35057137 </i>
    <i name="hartreedc">-206916.46335202 </i>
    <i name="XCdc">   1424.37863929 </i>
    <i name="pawpsdc">  41601.75074540 </i>
    <i name="pawaedc"> -45044.03675075 </i>
    <i name="eentropy">     -0.04880336 </i>
    <i name="bandstr">   -726.02585821 </i>
    <i name="atom">  44510.64448639 </i>
    <i name="e_fr_energy">   -111.65859877 </i>
    <i name="e_wo_entrp">   -111.60979541 </i>
    <i name="e_0_energy">   -111.64233098 </i>
   </energy>
  </scstep>
  <dipole>
   <v name="dipole">      0.00000000       0.00000000      -0.02122518 </v>
   <i name="Tr[quadrupol]">  -2606.17594240 </i>
   <i name="Echarged">      0.00000000 </i>
   <i name="Edipol_quadrupol">      0.00000000 </i>
   <i name="Eion">      0.00000000 </i>
  </dipole>
  <structure>
   <crystal>
    <varray name="basis" >
     <v>       7.26000023       0.00000000       0.00000000 </v>
     <v>       0.00000000       5.13359547       0.00000000 </v>
     <v>       0.00000000       0.00000000      23.98379135 </v>
    </varray>
    <i name="volume">    893.87360752 </i>
    <varray name="rec_basis" >
     <v>       0.13774104       0.00000000       0.00000000 </v>
     <v>       0.00000000       0.19479525       0.00000000 </v>
     <v>       0.00000000       0.00000000       0.04169483 </v>
    </varray>
   </crystal>
   <varray name="positions" >
    <v>       0.00000000       0.00000000       0.00000000 </v>
    <v>       0.00000000       0.50000000       0.00000000 </v>
    <v>       0.50000000       0.00000000       0.00000000 </v>
    <v>       0.50000000       0.50000000       0.00000000 </v>
    <v>       0.25000000       0.25000000       0.05351109 </v>
    <v>       0.25000000       0.75000000       0.05351109 </v>
    <v>       0.75000000       0.25000000       0.05351109 </v>
    <v>       0.75000000       0.75000000       0.05351109 </v>
    <v>       0.00000000       0.00000000       0.10702218 </v>
    <v>       0.00000000       0.50000000       0.10702218 </v>
    <v>       0.50000000       0.00000000       0.10702218 </v>
    <v>       0.50000000       0.50000000       0.10702218 </v>
    <v>       0.25000000       0.25000000       0.16053327 </v>
    <v>       0.25000000       0.75000000       0.16053327 </v>
    <v>       0.75000000       0.25000000       0.16053327 </v>
    <v>       0.75000000       0.75000000       0.16053327 </v>
    <v>       0.00000000       0.00000000       0.21404436 </v>
    <v>       0.00000000       0.50000000       0.21404436 </v>
    <v>       0.50000000       0.00000000       0.21404436 </v>
    <v>       0.50000000       0.50000000       0.21404436 </v>
    <v>       0.25000000       0.25000000       0.26755545 </v>
    <v>       0.25000000       0.75000000       0.26755545 </v>
    <v>       0.75000000       0.25000000       0.26755545 </v>
    <v>       0.75000000       0.75000000       0.26755545 </v>
    <v>       0.00000000       0.00000000       0.32106654 </v>
    <v>       0.00000000       0.50000000       0.32106654 </v>
    <v>       0.50000000       0.00000000       0.32106654 </v>
    <v>       0.50000000       0.50000000       0.32106654 </v>
    <v>       0.25000000       0.25000000       0.37457763 </v>
    <v>       0.25000000       0.75000000       0.37457763 </v>
    <v>       0.75000000       0.25000000       0.37457763 </v>
    <v>       0.75000000       0.75000000       0.37457763 </v>
   </varray>
  </structure>
  <varray name="forces" >
   <v>      -0.00000000       0.00000000       0.51589377 </v>
   <v>      -0.00000000      -0.00000000       0.51589377 </v>
   <v>      -0.00000000       0.00000000       0.51589377 </v>
   <v>      -0.00000000       0.00000000       0.51589377 </v>
   <v>       0.00000000       0.00000000      -0.23578277 </v>
   <v>      -0.00000000       0.00000000      -0.23578277 </v>
   <v>       0.00000000       0.00000000      -0.23578277 </v>
   <v>       0.00000000       0.00000000      -0.23578277 </v>
   <v>      -0.00000000      -0.00000000       0.17334775 </v>
   <v>      -0.00000000      -0.00000000       0.17334775 </v>
   <v>      -0.00000000      -0.00000000       0.17334775 </v>
   <v>      -0.00000000      -0.00000000       0.17334775 </v>
   <v>       0.00000000      -0.00000000       0.05160168 </v>
   <v>       0.00000000       0.00000000       0.05160168 </v>
   <v>      -0.00000000      -0.00000000       0.05160168 </v>
   <v>      -0.00000000       0.00000000       0.05160168 </v>
   <v>      -0.00000000       0.00000000      -0.05676504 </v>
   <v>      -0.00000000      -0.00000000      -0.05676504 </v>
   <v>      -0.00000000       0.00000000      -0.05676504 </v>
   <v>      -0.00000000      -0.00000000      -0.05676504 </v>
   <v>      -0.00000000      -0.00000000      -0.17516249 </v>
   <v>      -0.00000000       0.00000000      -0.17516249 </v>
   <v>      -0.00000000      -0.00000000      -0.17516249 </v>
   <v>       0.00000000       0.00000000      -0.17516249 </v>
   <v>      -0.00000000      -0.00000000       0.23821269 </v>
   <v>      -0.00000000       0.00000000       0.23821269 </v>
   <v>      -0.00000000      -0.00000000       0.23821269 </v>
   <v>      -0.00000000      -0.00000000       0.23821269 </v>
   <v>      -0.00000000       0.00000000      -0.51134559 </v>
   <v>      -0.00000000       0.00000000      -0.51134559 </v>
   <v>       0.00000000       0.00000000      -0.51134559 </v>
   <v>       0.00000000       0.00000000      -0.51134559 </v>
  </varray>
  <varray name="stress" >
   <v>     -45.32551808       0.00000000       0.00000000 </v>
   <v>       0.00000000     -41.12864438       0.00000000 </v>
   <v>       0.00000000       0.00000000     -31.65201923 </v>
  </varray>
  <energy>
   <i name="e_fr_energy">   -123.52099822 </i>
   <i name="e_wo_entrp">   -123.47219486 </i>
   <i name="e_0_energy">   -123.50473043 </i>
  </energy>
  <time name="totalsc">  276.82  279.12</time>
 </calculation>
 <calculation>
  <scstep>
   <time name="dav">    7.63    7.69</time>
   <time name="total">    8.18    8.25</time>
   <energy>
    <i name="alphaZ">    837.79172311 </i>
    <i name="ewald"> 164636.64932556 </i>
    <i name="hartreedc">-207351.75107687 </i>
    <i name="XCdc">   1424.53820522 </i>
    <i name="pawpsdc">  41601.32625488 </i>
    <i name="pawaedc"> -45043.57746367 </i>
    <i name="eentropy">     -0.04744190 </i>
    <i name="bandstr">   -727.24814167 </i>
    <i name="atom">  44510.64448639 </i>
    <i name="e_fr_energy">   -111.67412896 </i>
    <i name="e_wo_entrp">   -111.62668705 </i>
    <i name="e_0_energy">   -111.65831499 </i>
   </energy>
  </scstep>
  <scstep>
   <time name="dav">    9.94   10.02</time>
   <time name="total">   10.49   10.57</time>
   <energy>
    <i name="e_fr_energy">   -111.71338623 </i>
    <i name="e_wo_entrp">   -111.66441307 </i>
    <i name="e_0_energy">   -111.69706184 </i>
   </energy>
  </scstep>
  <scstep>
   <time name="dav">    7.79    7.85</time>
   <time name="total">    8.33    8.40</time>
   <energy>
    <i name="e_fr_energy">   -111.70958130 </i>
    <i name="e_wo_entrp">   -111.66286210 </i>
    <i name="e_0_energy">   -111.69400823 </i>
   </energy>
  </scstep>
  <scstep>
   <time name="dav">    8.17    8.23</time>
   <time name="total">    8.71    8.78</time>
   <energy>
    <i name="e_fr_energy">   -111.70910471 </i>
    <i name="e_wo_entrp">   -111.66192848 </i>
    <i name="e_0_energy">   -111.69337930 </i>
   </energy>
  </scstep>
  <scstep>
   <time name="dav">    7.53    7.59</time>
   <time name="total">    8.08    8.15</time>
   <energy>
    <i name="e_fr_energy">   -111.70905885 </i>
    <i name="e_wo_entrp">   -111.66142289 </i>
    <i name="e_0_energy">   -111.69318019 </i>
   </energy>
  </scstep>
  <scstep>
   <time name="dav">    7.47    7.53</time>
   <time name="total">    8.02    8.08</time>
   <energy>
    <i name="e_fr_energy">   -111.70853848 </i>
    <i name="e_wo_entrp">   -111.66134675 </i>
    <i name="e_0_energy">   -111.69280791 </i>
   </energy>
  </scstep>
  <scstep>
   <time name="dav">    8.17    8.24</time>
   <time name="total">    8.25    8.32</time>
   <energy>
    <i name="alphaZ">    837.79172311 </i>
    <i name="ewald"> 164636.64932556 </i>
    <i name="hartreedc">-207350.00328518 </i>
    <i name="XCdc">   1424.47513652 </i>
    <i name="pawpsdc">  41616.58488918 </i>
    <i name="pawaedc"> -45059.18697821 </i>
    <i name="eentropy">     -0.04766576 </i>
    <i name="bandstr">   -728.61610780 </i>
    <i name="atom">  44510.64448639 </i>
    <i name="e_fr_energy">   -111.70847620 </i>
    <i name="e_wo_entrp">   -111.66081044 </i>
    <i name="e_0_energy">   -111.69258761 </i>
   </energy>
  </scstep>
  <dipole>
   <v name="dipole">      0.00000000       0.00000000       0.00258769 </v>
   <i name="Tr[quadrupol]">  -2606.12754565 </i>
   <i name="Echarged">      0.00000000 </i>
   <i name="Edipol_quadrupol">      0.00000000 </i>
   <i name="Eion">      0.00000000 </i>
  </dipole>
  <structure>
   <crystal>
    <varray name="basis" >
     <v>       7.26000023       0.00000000       0.00000000 </v>
     <v>       0.00000000       5.13359547       0.00000000 </v>
     <v>       0.00000000       0.00000000      23.98379135 </v>
    </varray>
    <i name="volume">    893.87360752 </i>
    <varray name="rec_basis" >
     <v>       0.13774104       0.00000000       0.00000000 </v>
     <v>       0.00000000       0.19479525       0.00000000 </v>
     <v>       0.00000000       0.00000000       0.04169483 </v>
    </varray>
   </crystal>
   <varray name="positions" >
    <v>       0.00000000       0.00000000       0.00000000 </v>
    <v>       0.00000000       0.50000000       0.00000000 </v>
    <v>       0.50000000       0.00000000       0.00000000 </v>
    <v>       0.50000000       0.50000000       0.00000000 </v>
    <v>       0.25000000       0.25000000       0.05351109 </v>
    <v>       0.25000000       0.75000000       0.05351109 </v>
    <v>       0.75000000       0.25000000       0.05351109 </v>
    <v>       0.75000000       0.75000000       0.05351109 </v>
    <v>      -0.00000000      -0.00000000       0.10737086 </v>
    <v>      -0.00000000       0.50000000       0.10737086 </v>
    <v>       0.50000000      -0.00000000       0.10737086 </v>
    <v>       0.50000000       0.50000000       0.10737086 </v>
    <v>       0.25000000       0.25000000       0.16063707 </v>
    <v>       0.25000000       0.75000000       0.16063707 </v>
    <v>       0.75000000       0.25000000       0.16063707 </v>
    <v>       0.75000000       0.75000000       0.16063707 </v>
    <v>      -0.00000000       0.00000000       0.21393018 </v>
    <v>      -0.00000000       0.50000000       0.21393018 </v>
    <v>       0.50000000       0.00000000       0.21393018 </v>
    <v>       0.50000000       0.50000000       0.21393018 </v>
    <v>       0.25000000       0.25000000       0.26720312 </v>
    <v>       0.25000000       0.75000000       0.26720312 </v>
    <v>       0.75000000       0.25000000       0.26720312 </v>
    <v>       0.75000000       0.75000000       0.26720312 </v>
    <v>      -0.00000000      -0.00000000       0.32154570 </v>
    <v>      -0.00000000       0.50000000       0.32154570 </v>
    <v>       0.50000000      -0.00000000       0.32154570 </v>
    <v>       0.50000000       0.50000000       0.32154570 </v>
    <v>       0.25000000       0.25000000       0.37354908 </v>
    <v>       0.25000000       0.75000000       0.37354908 </v>
    <v>       0.75000000       0.25000000       0.37354908 </v>
    <v>       0.75000000       0.75000000       0.37354908 </v>
   </varray>
  </structure>
  <varray name="forces" >
   <v>       0.00000000       0.00000000       0.52953476 </v>
   <v>      -0.00000000      -0.00000000       0.52953476 </v>
   <v>       0.00000000      -0.00000000       0.52953476 </v>
   <v>       0.00000000      -0.00000000       0.52953476 </v>
   <v>      -0.00000000      -0.00000000      -0.21414378 </v>
   <v>      -0.00000000       0.00000000      -0.21414378 </v>
   <v>       0.00000000      -0.00000000      -0.21414378 </v>
   <v>       0.00000000       0.00000000      -0.21414378 </v>
   <v>       0.00000000      -0.00000000       0.11437826 </v>
   <v>       0.00000000      -0.00000000       0.11437826 </v>
   <v>       0.00000000      -0.00000000       0.11437826 </v>
   <v>       0.00000000      -0.00000000       0.11437826 </v>
   <v>       0.00000000       0.00000000       0.03186771 </v>
   <v>      -0.00000000      -0.00000000       0.03186771 </v>
   <v>       0.00000000       0.00000000       0.03186771 </v>
   <v>       0.00000000      -0.00000000       0.03186771 </v>
   <v>       0.00000000      -0.00000000      -0.01484875 </v>
   <v>       0.00000000      -0.00000000      -0.01484875 </v>
   <v>      -0.00000000      -0.00000000      -0.01484875 </v>
   <v>      -0.00000000       0.00000000      -0.01484875 </v>
   <v>       0.00000000      -0.00000000      -0.14572509 </v>
   <v>       0.00000000      -0.00000000      -0.14572509 </v>
   <v>      -0.00000000      -0.00000000      -0.14572509 </v>
   <v>      -0.00000000      -0.00000000      -0.14572509 </v>
   <v>      -0.00000000       0.00000000       0.11597021 </v>
   <v>       0.00000000      -0.00000000       0.11597021 </v>
   <v>       0.00000000       0.00000000       0.11597021 </v>
   <v>       0.00000000       0.00000000       0.11597021 </v>
   <v>      -0.00000000       0.00000000      -0.41703332 </v>
   <v>      -0.00000000       0.00000000      -0.41703332 </v>
   <v>      -0.00000000       0.00000000      -0.41703332 </v>
   <v>      -0.00000000       0.00000000      -0.41703332 </v>
  </varray>
  <varray name="stress" >
   <v>     -44.23434227       0.00000000       0.00000000 </v>
   <v>       0.00000000     -40.34143636       0.00000000 </v>
   <v>       0.00000000       0.00000000     -30.61228811 </v>
  </varray>
  <energy>
   <i name="e_fr_energy">   -123.58638631 </i>
   <i name="e_wo_entrp">   -123.53872055 </i>
   <i name="e_0_energy">   -123.57049772 </i>
  </energy>
  <time name="totalsc">   74.50   75.12</time>
 </calculation>
 <calculation>
  <scstep>
   <time name="dav">    7.70    7.76</time>
   <time name="total">    8.24    8.31</time>
   <energy>
    <i name="alphaZ">    837.79172311 </i>
    <i name="ewald"> 165945.33987903 </i>
    <i name="hartreedc">-208656.20120340 </i>
    <i name="XCdc">   1425.02733437 </i>
    <i name="pawpsdc">  41617.55331373 </i>
    <i name="pawaedc"> -45060.18041419 </i>
    <i name="eentropy">     -0.04146195 </i>
    <i name="bandstr">   -731.31840589 </i>
    <i name="atom">  44510.64448639 </i>
    <i name="e_fr_energy">   -111.38474880 </i>
    <i name="e_wo_entrp">   -111.34328685 </i>
    <i name="e_0_energy">   -111.37092815 </i>
   </energy>
  </scstep>
  <scstep>
   <time name="dav">   10.19   10.28</time>
   <time name="total">   10.74   10.83</time>
   <energy>
    <i name="e_fr_energy">   -111.80609190 </i>
    <i name="e_wo_entrp">   -111.75827929 </i>
    <i name="e_0_energy">   -111.79015437 </i>
   </energy>
  </scstep>
  <scstep>
   <time name="dav">    7.79    7.85</time>
   <time name="total">    8.33    8.39</time>
   <energy>
    <i name="e_fr_energy">   -111.75629391 </i>
    <i name="e_wo_entrp">   -111.71717123 </i>
    <i name="e_0_energy">   -111.74325302 </i>
   </energy>
  </scstep>
  <scstep>
   <time name="dav">    8.13    8.20</time>
   <time name="total">    8.67    8.74</time>
   <energy>
    <i name="e_fr_energy">   -111.75432746 </i>
    <i name="e_wo_entrp">   -111.71351426 </i>
    <i name="e_0_energy">   -111.74072306 </i>
   </energy>
  </scstep>
  <scstep>
   <time name="dav">    7.43    7.49</time>
   <time name="total">    7.96    8.02</time>
   <energy>
    <i name="e_fr_energy">   -111.75412514 </i>
    <i name="e_wo_entrp">   -111.71187510 </i>
    <i name="e_0_energy">   -111.74004179 </i>
   </energy>
  </scstep>
  <scstep>
   <time name="dav">    8.16    8.23</time>
   <time name="total">    8.71    8.78</time>
   <energy>
    <i name="e_fr_energy">   -111.75023000 </i>
    <i name="e_wo_entrp">   -111.70946418 </i>
    <i name="e_0_energy">   -111.73664139 </i>
   </energy>
  </scstep>
  <scstep>
   <time name="dav">   10.39   10.47</time>
   <time name="total">   10.94   11.03</time>
   <energy>
    <i name="e_fr_energy">   -111.74886843 </i>
    <i name="e_wo_entrp">   -111.70666769 </i>
    <i name="e_0_energy">   -111.73480151 </i>
   </energy>
  </scstep>
  <scstep>
   <time name="dav">    9.44    9.52</time>
   <time name="total">    9.98   10.06</time>
   <energy>
    <i name="e_fr_energy">   -111.74782437 </i>
    <i name="e_wo_entrp">   -111.70676226 </i>
    <i name="e_0_energy">   -111.73413700 </i>
   </energy>
  </scstep>
  <scstep>
   <time name="dav">    7.43    7.49</time>
   <time name="total">    7.51    7.57</time>
   <energy>
    <i name="alphaZ">    837.79172311 </i>
    <i name="ewald"> 165945.33987903 </i>
    <i name="hartreedc">-208650.02472744 </i>
    <i name="XCdc">   1424.79697650 </i>
    <i name="pawpsdc">  41679.11301569 </i>
    <i name="pawaedc"> -45122.89353957 </i>
    <i name="eentropy">     -0.04163772 </i>
    <i name="bandstr">   -736.47403988 </i>
    <i name="atom">  44510.64448639 </i>
    <i name="e_fr_energy">   -111.74786388 </i>
    <i name="e_wo_entrp">   -111.70622616 </i>
    <i name="e_0_energy">   -111.73398464 </i>
   </energy>
  </scstep>
  <dipole>
   <v name="dipole">      0.00000000       0.00000000       0.00462491 </v>
   <i name="Tr[quadrupol]">  -2606.06611223 </i>
   <i name="Echarged">      0.00000000 </i>
   <i name="Edipol_quadrupol">      0.00000000 </i>
   <i name="Eion">      0.00000000 </i>
  </dipole>
  <structure>
   <crystal>
    <varray name="basis" >
     <v>       7.26000023       0.00000000       0.00000000 </v>
     <v>       0.00000000       5.13359547       0.00000000 </v>
     <v>       0.00000000       0.00000000      23.98379135 </v>
    </varray>
    <i name="volume">    893.87360752 </i>
    <varray name="rec_basis" >
     <v>       0.13774104       0.00000000       0.00000000 </v>
     <v>       0.00000000       0.19479525       0.00000000 </v>
     <v>       0.00000000       0.00000000       0.04169483 </v>
    </varray>
   </crystal>
   <varray name="positions" >
    <v>       0.00000000       0.00000000       0.00000000 </v>
    <v>       0.00000000       0.50000000       0.00000000 </v>
    <v>       0.50000000       0.00000000       0.00000000 </v>
    <v>       0.50000000       0.50000000       0.00000000 </v>
    <v>       0.25000000       0.25000000       0.05351109 </v>
    <v>       0.25000000       0.75000000       0.05351109 </v>
    <v>       0.75000000       0.25000000       0.05351109 </v>
    <v>       0.75000000       0.75000000       0.05351109 </v>
    <v>      -0.00000000      -0.00000000       0.10841692 </v>
    <v>      -0.00000000       0.50000000       0.10841692 </v>
    <v>       0.50000000      -0.00000000       0.10841692 </v>
    <v>       0.50000000       0.50000000       0.10841692 </v>
    <v>       0.25000000       0.25000000       0.16094845 </v>
    <v>       0.25000000       0.75000000       0.16094845 </v>
    <v>       0.75000000       0.25000000       0.16094845 </v>
    <v>       0.75000000       0.75000000       0.16094845 </v>
    <v>      -0.00000000       0.00000000       0.21358764 </v>
    <v>      -0.00000000       0.50000000       0.21358764 </v>
    <v>       0.50000000       0.00000000       0.21358764 </v>
    <v>       0.50000000       0.50000000       0.21358764 </v>
    <v>       0.25000000       0.25000000       0.26614612 </v>
    <v>       0.25000000       0.75000000       0.26614612 </v>
    <v>       0.75000000       0.25000000       0.26614612 </v>
    <v>       0.75000000       0.75000000       0.26614612 </v>
    <v>      -0.00000000      -0.00000000       0.32298317 </v>
    <v>      -0.00000000       0.50000000       0.32298317 </v>
    <v>       0.50000000      -0.00000000       0.32298317 </v>
    <v>       0.50000000       0.50000000       0.32298317 </v>
    <v>       0.25000000       0.25000000       0.37046341 </v>
    <v>       0.25000000       0.75000000       0.37046341 </v>
    <v>       0.75000000       0.25000000       0.37046341 </v>
    <v>       0.75000000       0.75000000       0.37046341 </v>
   </varray>
  </structure>
  <varray name="forces" >
   <v>       0.00000000       0.00000000       0.57326621 </v>
   <v>       0.00000000      -0.00000000       0.57326621 </v>
   <v>       0.00000000      -0.00000000       0.57326621 </v>
   <v>       0.00000000      -0.00000000       0.57326621 </v>
   <v>       0.00000000      -0.00000000      -0.16271572 </v>
   <v>      -0.00000000       0.00000000      -0.16271572 </v>
   <v>      -0.00000000      -0.00000000      -0.16271572 </v>
   <v>      -0.00000000      -0.00000000      -0.16271572 </v>
   <v>       0.00000000       0.00000000      -0.08340116 </v>
   <v>      -0.00000000      -0.00000000      -0.08340116 </v>
   <v>      -0.00000000       0.00000000      -0.08340116 </v>
   <v>       0.00000000      -0.00000000      -0.08340116 </v>
   <v>       0.00000000      -0.00000000      -0.03428778 </v>
   <v>       0.00000000      -0.00000000      -0.03428778 </v>
   <v>      -0.00000000      -0.00000000      -0.03428778 </v>
   <v>      -0.00000000      -0.00000000      -0.03428778 </v>
   <v>       0.00000000       0.00000000       0.10398064 </v>
   <v>       0.00000000       0.00000000       0.10398064 </v>
   <v>       0.00000000       0.00000000       0.10398064 </v>
   <v>       0.00000000      -0.00000000       0.10398064 </v>
   <v>      -0.00000000       0.00000000      -0.06160655 </v>
   <v>       0.00000000       0.00000000      -0.06160655 </v>
   <v>       0.00000000       0.00000000      -0.06160655 </v>
   <v>      -0.00000000       0.00000000      -0.06160655 </v>
   <v>      -0.00000000       0.00000000      -0.22268156 </v>
   <v>      -0.00000000      -0.00000000      -0.22268156 </v>
   <v>       0.00000000      -0.00000000      -0.22268156 </v>
   <v>       0.00000000       0.00000000      -0.22268156 </v>
   <v>      -0.00000000      -0.00000000      -0.11255409 </v>
   <v>       0.00000000      -0.00000000      -0.11255409 </v>
   <v>      -0.00000000      -0.00000000      -0.11255409 </v>
   <v>       0.00000000       0.00000000      -0.11255409 </v>
  </varray>
  <varray name="stress" >
   <v>     -42.99190006       0.00000000       0.00000000 </v>
   <v>       0.00000000     -40.11972115       0.00000000 </v>
   <v>       0.00000000       0.00000000     -29.00068508 </v>
  </varray>
  <energy>
   <i name="e_fr_energy">   -123.67345099 </i>
   <i name="e_wo_entrp">   -123.63181327 </i>
   <i name="e_0_energy">   -123.65957175 </i>
  </energy>
  <time name="totalsc">   95.48   96.32</time>
 </calculation>
 <calculation>
  <scstep>
   <time name="dav">    7.60    7.66</time>
   <time name="total">    8.15    8.21</time>
   <energy>
    <i name="alphaZ">    837.79172311 </i>
    <i name="ewald"> 166461.45532380 </i>
    <i name="hartreedc">-209164.98438650 </i>
    <i name="XCdc">   1424.94805187 </i>
    <i name="pawpsdc">  41678.85676498 </i>
    <i name="pawaedc"> -45122.60815067 </i>
    <i name="eentropy">     -0.03691078 </i>
    <i name="bandstr">   -737.79493270 </i>
    <i name="atom">  44510.64448639 </i>
    <i name="e_fr_energy">   -111.72803050 </i>
    <i name="e_wo_entrp">   -111.69111972 </i>
    <i name="e_0_energy">   -111.71572691 </i>
   </energy>
  </scstep>
  <scstep>
   <time name="dav">    9.81    9.89</time>
   <time name="total">   10.35   10.43</time>
   <energy>
    <i name="e_fr_energy">   -111.75310139 </i>
    <i name="e_wo_entrp">   -111.71391172 </i>
    <i name="e_0_energy">   -111.74003817 </i>
   </energy>
  </scstep>
  <scstep>
   <time name="dav">    7.74    7.80</time>
   <time name="total">    8.29    8.35</time>
   <energy>
    <i name="e_fr_energy">   -111.75204695 </i>
    <i name="e_wo_entrp">   -111.71475526 </i>
    <i name="e_0_energy">   -111.73961639 </i>
   </energy>
  </scstep>
  <scstep>
   <time name="dav">    7.63    7.69</time>
   <time name="total">    8.17    8.24</time>
   <energy>
    <i name="e_fr_energy">   -111.75203709 </i>
    <i name="e_wo_entrp">   -111.71413263 </i>
    <i name="e_0_energy">   -111.73940227 </i>
   </energy>
  </scstep>
  <scstep>
   <time name="dav">    7.30    7.36</time>
   <time name="total">    7.85    7.91</time>
   <energy>
    <i name="e_fr_energy">   -111.75209384 </i>
    <i name="e_wo_entrp">   -111.71422709 </i>
    <i name="e_0_energy">   -111.73947159 </i>
   </energy>
  </scstep>
  <scstep>
   <time name="dav">    7.34    7.40</time>
   <time name="total">    7.88    7.94</time>
   <energy>
    <i name="e_fr_energy">   -111.75151279 </i>
    <i name="e_wo_entrp">   -111.71416935 </i>
    <i name="e_0_energy">   -111.73906497 </i>
   </energy>
  </scstep>
  <scstep>
   <time name="dav">    8.48    8.55</time>
   <time name="total">    8.56    8.63</time>
   <energy>
    <i name="alphaZ">    837.79172311 </i>
    <i name="ewald"> 166461.45532380 </i>
    <i name="hartreedc">-209164.72988054 </i>
    <i name="XCdc">   1424.89646062 </i>
    <i name="pawpsdc">  41696.17240445 </i>
    <i name="pawaedc"> -45140.28463296 </i>
    <i name="eentropy">     -0.03787738 </i>
    <i name="bandstr">   -737.65957893 </i>
    <i name="atom">  44510.64448639 </i>
    <i name="e_fr_energy">   -111.75157144 </i>
    <i name="e_wo_entrp">   -111.71369405 </i>
    <i name="e_0_energy">   -111.73894564 </i>
   </energy>
  </scstep>
  <dipole>
   <v name="dipole">      0.00000000       0.00000000       0.00673662 </v>
   <i name="Tr[quadrupol]">  -2606.07705175 </i>
   <i name="Echarged">      0.00000000 </i>
   <i name="Edipol_quadrupol">      0.00000000 </i>
   <i name="Eion">      0.00000000 </i>
  </dipole>
  <structure>
   <crystal>
    <varray name="basis" >
     <v>       7.26000023       0.00000000       0.00000000 </v>
     <v>       0.00000000       5.13359547       0.00000000 </v>
     <v>       0.00000000       0.00000000      23.98379135 </v>
    </varray>
    <i name="volume">    893.87360752 </i>
    <varray name="rec_basis" >
     <v>       0.13774104       0.00000000       0.00000000 </v>
     <v>       0.00000000       0.19479525       0.00000000 </v>
     <v>       0.00000000       0.00000000       0.04169483 </v>
    </varray>
   </crystal>
   <varray name="positions" >
    <v>       0.00000000       0.00000000       0.00000000 </v>
    <v>       0.00000000       0.50000000       0.00000000 </v>
    <v>       0.50000000       0.00000000       0.00000000 </v>
    <v>       0.50000000       0.50000000       0.00000000 </v>
    <v>       0.25000000       0.25000000       0.05351109 </v>
    <v>       0.25000000       0.75000000       0.05351109 </v>
    <v>       0.75000000       0.25000000       0.05351109 </v>
    <v>       0.75000000       0.75000000       0.05351109 </v>
    <v>      -0.00000000      -0.00000000       0.10828162 </v>
    <v>      -0.00000000       0.50000000       0.10828162 </v>
    <v>       0.50000000      -0.00000000       0.10828162 </v>
    <v>       0.50000000       0.50000000       0.10828162 </v>
    <v>       0.25000000       0.25000000       0.16087773 </v>
    <v>       0.25000000       0.75000000       0.16087773 </v>
    <v>       0.75000000       0.25000000       0.16087773 </v>
    <v>       0.75000000       0.75000000       0.16087773 </v>
    <v>      -0.00000000       0.00000000       0.21387869 </v>
    <v>      -0.00000000       0.50000000       0.21387869 </v>
    <v>       0.50000000       0.00000000       0.21387869 </v>
    <v>       0.50000000       0.50000000       0.21387869 </v>
    <v>       0.25000000       0.25000000       0.26581334 </v>
    <v>       0.25000000       0.75000000       0.26581334 </v>
    <v>       0.75000000       0.25000000       0.26581334 </v>
    <v>       0.75000000       0.75000000       0.26581334 </v>
    <v>      -0.00000000      -0.00000000       0.32244943 </v>
    <v>      -0.00000000       0.50000000       0.32244943 </v>
    <v>       0.50000000      -0.00000000       0.32244943 </v>
    <v>       0.50000000       0.50000000       0.32244943 </v>
    <v>       0.25000000       0.25000000       0.36970850 </v>
    <v>       0.25000000       0.75000000       0.36970850 </v>
    <v>       0.75000000       0.25000000       0.36970850 </v>
    <v>       0.75000000       0.75000000       0.36970850 </v>
   </varray>
  </structure>
  <varray name="forces" >
   <v>      -0.00000000      -0.00000000       0.56419870 </v>
   <v>      -0.00000000       0.00000000       0.56419870 </v>
   <v>      -0.00000000      -0.00000000       0.56419870 </v>
   <v>      -0.00000000       0.00000000       0.56419870 </v>
   <v>      -0.00000000       0.00000000      -0.17051001 </v>
   <v>       0.00000000      -0.00000000      -0.17051001 </v>
   <v>      -0.00000000      -0.00000000      -0.17051001 </v>
   <v>      -0.00000000      -0.00000000      -0.17051001 </v>
   <v>       0.00000000       0.00000000      -0.04076802 </v>
   <v>       0.00000000      -0.00000000      -0.04076802 </v>
   <v>      -0.00000000      -0.00000000      -0.04076802 </v>
   <v>      -0.00000000      -0.00000000      -0.04076802 </v>
   <v>       0.00000000      -0.00000000      -0.03217326 </v>
   <v>       0.00000000       0.00000000      -0.03217326 </v>
   <v>       0.00000000       0.00000000      -0.03217326 </v>
   <v>       0.00000000       0.00000000      -0.03217326 </v>
   <v>      -0.00000000      -0.00000000       0.00427033 </v>
   <v>      -0.00000000       0.00000000       0.00427033 </v>
   <v>      -0.00000000      -0.00000000       0.00427033 </v>
   <v>      -0.00000000      -0.00000000       0.00427033 </v>
   <v>       0.00000000      -0.00000000      -0.05446248 </v>
   <v>      -0.00000000      -0.00000000      -0.05446248 </v>
   <v>       0.00000000      -0.00000000      -0.05446248 </v>
   <v>      -0.00000000      -0.00000000      -0.05446248 </v>
   <v>       0.00000000       0.00000000      -0.19512309 </v>
   <v>       0.00000000       0.00000000      -0.19512309 </v>
   <v>      -0.00000000      -0.00000000      -0.19512309 </v>
   <v>      -0.00000000      -0.00000000      -0.19512309 </v>
   <v>      -0.00000000      -0.00000000      -0.07543217 </v>
   <v>       0.00000000      -0.00000000      -0.07543217 </v>
   <v>       0.00000000       0.00000000      -0.07543217 </v>
   <v>      -0.00000000      -0.00000000      -0.07543217 </v>
  </varray>
  <varray name="stress" >
   <v>     -41.31461863       0.00000000       0.00000000 </v>
   <v>       0.00000000     -38.66293000       0.00000000 </v>
   <v>       0.00000000       0.00000000     -27.21155091 </v>
  </varray>
  <energy>
   <i name="e_fr_energy">   -123.69565864 </i>
   <i name="e_wo_entrp">   -123.65778126 </i>
   <i name="e_0_energy">   -123.68303285 </i>
  </energy>
  <time name="totalsc">   73.66   74.27</time>
 </calculation>
 <calculation>
  <scstep>
   <time name="dav">    7.61    7.67</time>
   <time name="total">    8.16    8.22</time>
   <energy>
    <i name="alphaZ">    837.79172311 </i>
    <i name="ewald"> 167679.05062004 </i>
    <i name="hartreedc">-210379.69672406 </i>
    <i name="XCdc">   1425.29292762 </i>
    <i name="pawpsdc">  41696.18393692 </i>
    <i name="pawaedc"> -45140.25421804 </i>
    <i name="eentropy">     -0.02556445 </i>
    <i name="bandstr">   -740.57628869 </i>
    <i name="atom">  44510.64448639 </i>
    <i name="e_fr_energy">   -111.58910117 </i>
    <i name="e_wo_entrp">   -111.56353672 </i>
    <i name="e_0_energy">   -111.58057968 </i>
   </energy>
  </scstep>
  <scstep>
   <time name="dav">    9.97   10.05</time>
   <time name="total">   10.52   10.60</time>
   <energy>
    <i name="e_fr_energy">   -111.74941717 </i>
    <i name="e_wo_entrp">   -111.71706373 </i>
    <i name="e_0_energy">   -111.73863269 </i>
   </energy>
  </scstep>
  <scstep>
   <time name="dav">    8.29    8.35</time>
   <time name="total">    8.83    8.90</time>
   <energy>
    <i name="e_fr_energy">   -111.73582243 </i>
    <i name="e_wo_entrp">   -111.70885239 </i>
    <i name="e_0_energy">   -111.72683242 </i>
   </energy>
  </scstep>
  <scstep>
   <time name="dav">    8.09    8.15</time>
   <time name="total">    8.64    8.71</time>
   <energy>
    <i name="e_fr_energy">   -111.73617733 </i>
    <i name="e_wo_entrp">   -111.70816853 </i>
    <i name="e_0_energy">   -111.72684106 </i>
   </energy>
  </scstep>
  <scstep>
   <time name="dav">    7.57    7.63</time>
   <time name="total">    8.11    8.18</time>
   <energy>
    <i name="e_fr_energy">   -111.73533522 </i>
    <i name="e_wo_entrp">   -111.70657758 </i>
    <i name="e_0_energy">   -111.72574934 </i>
   </energy>
  </scstep>
  <scstep>
   <time name="dav">    9.93   10.01</time>
   <time name="total">   10.47   10.56</time>
   <energy>
    <i name="e_fr_energy">   -111.73227464 </i>
    <i name="e_wo_entrp">   -111.70564436 </i>
    <i name="e_0_energy">   -111.72339788 </i>
   </energy>
  </scstep>
  <scstep>
   <time name="dav">    8.28    8.35</time>
   <time name="total">    8.82    8.89</time>
   <energy>
    <i name="e_fr_energy">   -111.73204936 </i>
    <i name="e_wo_entrp">   -111.70404798 </i>
    <i name="e_0_energy">   -111.72271557 </i>
   </energy>
  </scstep>
  <scstep>
   <time name="dav">    8.81    8.88</time>
   <time name="total">    9.36    9.44</time>
   <energy>
    <i name="e_fr_energy">   -111.73175829 </i>
    <i name="e_wo_entrp">   -111.70442591 </i>
    <i name="e_0_energy">   -111.72264750 </i>
   </energy>
  </scstep>
  <scstep>
   <time name="dav">    5.43    5.48</time>
   <time name="total">    5.51    5.56</time>
   <energy>
    <i name="alphaZ">    837.79172311 </i>
    <i name="ewald"> 167679.05062004 </i>
    <i name="hartreedc">-210378.89348502 </i>
    <i name="XCdc">   1425.16075492 </i>
    <i name="pawpsdc">  41740.47627383 </i>
    <i name="pawaedc"> -45185.35235692 </i>
    <i name="eentropy">     -0.02746833 </i>
    <i name="bandstr">   -740.58224200 </i>
    <i name="atom">  44510.64448639 </i>
    <i name="e_fr_energy">   -111.73169397 </i>
    <i name="e_wo_entrp">   -111.70422564 </i>
    <i name="e_0_energy">   -111.72253786 </i>
   </energy>
  </scstep>
  <dipole>
   <v name="dipole">      0.00000000       0.00000000       0.00714012 </v>
   <i name="Tr[quadrupol]">  -2606.09303205 </i>
   <i name="Echarged">      0.00000000 </i>
   <i name="Edipol_quadrupol">      0.00000000 </i>
   <i name="Eion">      0.00000000 </i>
  </dipole>
  <structure>
   <crystal>
    <varray name="basis" >
     <v>       7.26000023       0.00000000       0.00000000 </v>
     <v>       0.00000000       5.13359547       0.00000000 </v>
     <v>       0.00000000       0.00000000      23.98379135 </v>
    </varray>
    <i name="volume">    893.87360752 </i>
    <varray name="rec_basis" >
     <v>       0.13774104       0.00000000       0.00000000 </v>
     <v>       0.00000000       0.19479525       0.00000000 </v>
     <v>       0.00000000       0.00000000       0.04169483 </v>
    </varray>
   </crystal>
   <varray name="positions" >
    <v>       0.00000000       0.00000000       0.00000000 </v>
    <v>       0.00000000       0.50000000       0.00000000 </v>
    <v>       0.50000000       0.00000000       0.00000000 </v>
    <v>       0.50000000       0.50000000       0.00000000 </v>
    <v>       0.25000000       0.25000000       0.05351109 </v>
    <v>       0.25000000       0.75000000       0.05351109 </v>
    <v>       0.75000000       0.25000000       0.05351109 </v>
    <v>       0.75000000       0.75000000       0.05351109 </v>
    <v>       0.00000000       0.00000000       0.10796344 </v>
    <v>      -0.00000000       0.50000000       0.10796344 </v>
    <v>       0.50000000       0.00000000       0.10796344 </v>
    <v>       0.50000000       0.50000000       0.10796344 </v>
    <v>       0.25000000       0.25000000       0.16071141 </v>
    <v>       0.25000000       0.75000000       0.16071141 </v>
    <v>       0.75000000       0.25000000       0.16071141 </v>
    <v>       0.75000000       0.75000000       0.16071141 </v>
    <v>       0.00000000       0.00000000       0.21456315 </v>
    <v>       0.00000000       0.50000000       0.21456315 </v>
    <v>       0.50000000       0.00000000       0.21456315 </v>
    <v>       0.50000000       0.50000000       0.21456315 </v>
    <v>       0.25000000       0.25000000       0.26503075 </v>
    <v>       0.25000000       0.75000000       0.26503075 </v>
    <v>       0.75000000       0.25000000       0.26503075 </v>
    <v>       0.75000000       0.75000000       0.26503075 </v>
    <v>      -0.00000000       0.00000000       0.32119426 </v>
    <v>      -0.00000000       0.50000000       0.32119426 </v>
    <v>       0.50000000      -0.00000000       0.32119426 </v>
    <v>       0.50000000       0.50000000       0.32119426 </v>
    <v>       0.25000000       0.25000000       0.36793322 </v>
    <v>       0.25000000       0.75000000       0.36793322 </v>
    <v>       0.75000000       0.25000000       0.36793322 </v>
    <v>       0.75000000       0.75000000       0.36793322 </v>
   </varray>
  </structure>
  <varray name="forces" >
   <v>       0.00000000       0.00000000       0.55738721 </v>
   <v>       0.00000000      -0.00000000       0.55738721 </v>
   <v>       0.00000000      -0.00000000       0.55738721 </v>
   <v>       0.00000000      -0.00000000       0.55738721 </v>
   <v>      -0.00000000       0.00000000      -0.18074709 </v>
   <v>      -0.00000000      -0.00000000      -0.18074709 </v>
   <v>       0.00000000      -0.00000000      -0.18074709 </v>
   <v>       0.00000000      -0.00000000      -0.18074709 </v>
   <v>       0.00000000       0.00000000       0.03800887 </v>
   <v>       0.00000000       0.00000000       0.03800887 </v>
   <v>      -0.00000000      -0.00000000       0.03800887 </v>
   <v>      -0.00000000      -0.00000000       0.03800887 </v>
   <v>       0.00000000       0.00000000      -0.02936783 </v>
   <v>      -0.00000000       0.00000000      -0.02936783 </v>
   <v>      -0.00000000      -0.00000000      -0.02936783 </v>
   <v>      -0.00000000      -0.00000000      -0.02936783 </v>
   <v>       0.00000000      -0.00000000      -0.21457290 </v>
   <v>       0.00000000       0.00000000      -0.21457290 </v>
   <v>      -0.00000000      -0.00000000      -0.21457290 </v>
   <v>      -0.00000000       0.00000000      -0.21457290 </v>
   <v>      -0.00000000      -0.00000000      -0.04073464 </v>
   <v>       0.00000000      -0.00000000      -0.04073464 </v>
   <v>      -0.00000000      -0.00000000      -0.04073464 </v>
   <v>      -0.00000000      -0.00000000      -0.04073464 </v>
   <v>      -0.00000000       0.00000000      -0.13167984 </v>
   <v>      -0.00000000       0.00000000      -0.13167984 </v>
   <v>       0.00000000      -0.00000000      -0.13167984 </v>
   <v>       0.00000000      -0.00000000      -0.13167984 </v>
   <v>      -0.00000000       0.00000000       0.00170622 </v>
   <v>       0.00000000      -0.00000000       0.00170622 </v>
   <v>       0.00000000       0.00000000       0.00170622 </v>
   <v>       0.00000000       0.00000000       0.00170622 </v>
  </varray>
  <varray name="stress" >
   <v>     -39.25275445       0.00000000       0.00000000 </v>
   <v>       0.00000000     -36.88148112       0.00000000 </v>
   <v>       0.00000000       0.00000000     -23.66046981 </v>
  </varray>
  <energy>
   <i name="e_fr_energy">   -123.71956984 </i>
   <i name="e_wo_entrp">   -123.69210151 </i>
   <i name="e_0_energy">   -123.71041373 </i>
  </energy>
  <time name="totalsc">   92.91   93.64</time>
 </calculation>
 <calculation>
  <scstep>
   <time name="dav">    7.63    7.70</time>
   <time name="total">    8.18    8.25</time>
   <energy>
    <i name="alphaZ">    837.79172311 </i>
    <i name="ewald"> 168392.62647265 </i>
    <i name="hartreedc">-211091.41258820 </i>
    <i name="XCdc">   1425.32367453 </i>
    <i name="pawpsdc">  41740.44657884 </i>
    <i name="pawaedc"> -45185.28122992 </i>
    <i name="eentropy">     -0.01950935 </i>
    <i name="bandstr">   -741.80711245 </i>
    <i name="atom">  44510.64448639 </i>
    <i name="e_fr_energy">   -111.68750439 </i>
    <i name="e_wo_entrp">   -111.66799504 </i>
    <i name="e_0_energy">   -111.68100128 </i>
   </energy>
  </scstep>
  <scstep>
   <time name="dav">   10.10   10.19</time>
   <time name="total">   10.65   10.73</time>
   <energy>
    <i name="e_fr_energy">   -111.73297722 </i>
    <i name="e_wo_entrp">   -111.70933758 </i>
    <i name="e_0_energy">   -111.72509734 </i>
   </energy>
  </scstep>
  <scstep>
   <time name="dav">    7.98    8.04</time>
   <time name="total">    8.53    8.60</time>
   <energy>
    <i name="e_fr_energy">   -111.73018122 </i>
    <i name="e_wo_entrp">   -111.70823921 </i>
    <i name="e_0_energy">   -111.72286722 </i>
   </energy>
  </scstep>
  <scstep>
   <time name="dav">    7.61    7.67</time>
   <time name="total">    8.16    8.22</time>
   <energy>
    <i name="e_fr_energy">   -111.72974511 </i>
    <i name="e_wo_entrp">   -111.70835678 </i>
    <i name="e_0_energy">   -111.72261567 </i>
   </energy>
  </scstep>
  <scstep>
   <time name="dav">    7.58    7.65</time>
   <time name="total">    8.13    8.20</time>
   <energy>
    <i name="e_fr_energy">   -111.72957132 </i>
    <i name="e_wo_entrp">   -111.70705671 </i>
    <i name="e_0_energy">   -111.72206645 </i>
   </energy>
  </scstep>
  <scstep>
   <time name="dav">    9.58    9.66</time>
   <time name="total">   10.12   10.20</time>
   <energy>
    <i name="e_fr_energy">   -111.72862804 </i>
    <i name="e_wo_entrp">   -111.70689158 </i>
    <i name="e_0_energy">   -111.72138255 </i>
   </energy>
  </scstep>
  <scstep>
   <time name="dav">    7.36    7.42</time>
   <time name="total">    7.43    7.49</time>
   <energy>
    <i name="alphaZ">    837.79172311 </i>
    <i name="ewald"> 168392.62647265 </i>
    <i name="hartreedc">-211092.28594099 </i>
    <i name="XCdc">   1425.28322159 </i>
    <i name="pawpsdc">  41758.75816439 </i>
    <i name="pawaedc"> -45203.97605337 </i>
    <i name="eentropy">     -0.02159836 </i>
    <i name="bandstr">   -740.54901401 </i>
    <i name="atom">  44510.64448639 </i>
    <i name="e_fr_energy">   -111.72853858 </i>
    <i name="e_wo_entrp">   -111.70694022 </i>
    <i name="e_0_energy">   -111.72133913 </i>
   </energy>
  </scstep>
  <dipole>
   <v name="dipole">      0.00000000       0.00000000       0.00605788 </v>
   <i name="Tr[quadrupol]">  -2606.11850953 </i>
   <i name="Echarged">      0.00000000 </i>
   <i name="Edipol_quadrupol">      0.00000000 </i>
   <i name="Eion">      0.00000000 </i>
  </dipole>
  <structure>
   <crystal>
    <varray name="basis" >
     <v>       7.26000023       0.00000000       0.00000000 </v>
     <v>       0.00000000       5.13359547       0.00000000 </v>
     <v>       0.00000000       0.00000000      23.98379135 </v>
    </varray>
    <i name="volume">    893.87360752 </i>
    <varray name="rec_basis" >
     <v>       0.13774104       0.00000000       0.00000000 </v>
     <v>       0.00000000       0.19479525       0.00000000 </v>
     <v>       0.00000000       0.00000000       0.04169483 </v>
    </varray>
   </crystal>
   <varray name="positions" >
    <v>       0.00000000       0.00000000       0.00000000 </v>
    <v>       0.00000000       0.50000000       0.00000000 </v>
    <v>       0.50000000       0.00000000       0.00000000 </v>
    <v>       0.50000000       0.50000000       0.00000000 </v>
    <v>       0.25000000       0.25000000       0.05351109 </v>
    <v>       0.25000000       0.75000000       0.05351109 </v>
    <v>       0.75000000       0.25000000       0.05351109 </v>
    <v>       0.75000000       0.75000000       0.05351109 </v>
    <v>       0.00000000       0.00000000       0.10799531 </v>
    <v>      -0.00000000       0.50000000       0.10799531 </v>
    <v>       0.50000000       0.00000000       0.10799531 </v>
    <v>       0.50000000       0.50000000       0.10799531 </v>
    <v>       0.25000000       0.25000000       0.16053765 </v>
    <v>       0.25000000       0.75000000       0.16053765 </v>
    <v>       0.75000000       0.25000000       0.16053765 </v>
    <v>       0.75000000       0.75000000       0.16053765 </v>
    <v>       0.00000000       0.00000000       0.21398096 </v>
    <v>       0.00000000       0.50000000       0.21398096 </v>
    <v>       0.50000000       0.00000000       0.21398096 </v>
    <v>       0.50000000       0.50000000       0.21398096 </v>
    <v>       0.25000000       0.25000000       0.26459004 </v>
    <v>       0.25000000       0.75000000       0.26459004 </v>
    <v>       0.75000000       0.25000000       0.26459004 </v>
    <v>       0.75000000       0.75000000       0.26459004 </v>
    <v>      -0.00000000       0.00000000       0.32023082 </v>
    <v>      -0.00000000       0.50000000       0.32023082 </v>
    <v>       0.50000000      -0.00000000       0.32023082 </v>
    <v>       0.50000000       0.50000000       0.32023082 </v>
    <v>       0.25000000       0.25000000       0.36729745 </v>
    <v>       0.25000000       0.75000000       0.36729745 </v>
    <v>       0.75000000       0.25000000       0.36729745 </v>
    <v>       0.75000000       0.75000000       0.36729745 </v>
   </varray>
  </structure>
  <varray name="forces" >
   <v>       0.00000000      -0.00000000       0.55840725 </v>
   <v>       0.00000000       0.00000000       0.55840725 </v>
   <v>       0.00000000      -0.00000000       0.55840725 </v>
   <v>       0.00000000       0.00000000       0.55840725 </v>
   <v>      -0.00000000       0.00000000      -0.18868954 </v>
   <v>       0.00000000      -0.00000000      -0.18868954 </v>
   <v>      -0.00000000       0.00000000      -0.18868954 </v>
   <v>      -0.00000000      -0.00000000      -0.18868954 </v>
   <v>      -0.00000000       0.00000000      -0.00082187 </v>
   <v>      -0.00000000      -0.00000000      -0.00082187 </v>
   <v>      -0.00000000       0.00000000      -0.00082187 </v>
   <v>      -0.00000000      -0.00000000      -0.00082187 </v>
   <v>       0.00000000       0.00000000      -0.04404631 </v>
   <v>      -0.00000000       0.00000000      -0.04404631 </v>
   <v>      -0.00000000       0.00000000      -0.04404631 </v>
   <v>      -0.00000000      -0.00000000      -0.04404631 </v>
   <v>      -0.00000000      -0.00000000      -0.18926517 </v>
   <v>       0.00000000      -0.00000000      -0.18926517 </v>
   <v>       0.00000000       0.00000000      -0.18926517 </v>
   <v>      -0.00000000       0.00000000      -0.18926517 </v>
   <v>      -0.00000000       0.00000000      -0.06054175 </v>
   <v>      -0.00000000      -0.00000000      -0.06054175 </v>
   <v>       0.00000000       0.00000000      -0.06054175 </v>
   <v>      -0.00000000       0.00000000      -0.06054175 </v>
   <v>      -0.00000000      -0.00000000      -0.07048282 </v>
   <v>      -0.00000000      -0.00000000      -0.07048282 </v>
   <v>      -0.00000000       0.00000000      -0.07048282 </v>
   <v>      -0.00000000       0.00000000      -0.07048282 </v>
   <v>      -0.00000000       0.00000000      -0.00455979 </v>
   <v>       0.00000000       0.00000000      -0.00455979 </v>
   <v>      -0.00000000       0.00000000      -0.00455979 </v>
   <v>       0.00000000       0.00000000      -0.00455979 </v>
  </varray>
  <varray name="stress" >
   <v>     -40.73419364       0.00000000       0.00000000 </v>
   <v>       0.00000000     -38.15768865       0.00000000 </v>
[...]
       <r>     9.8846    -0.0870   228.0036 </r>
       <r>     9.9573    -0.0372   228.0009 </r>
       <r>    10.0301    -0.0105   228.0002 </r>
       <r>    10.1028    -0.0021   228.0000 </r>
       <r>    10.1755    -0.0003   228.0000 </r>
       <r>    10.2483    -0.0000   228.0000 </r>
       <r>    10.3210    -0.0000   228.0000 </r>
       <r>    10.3937    -0.0000   228.0000 </r>
       <r>    10.4665    -0.0000   228.0000 </r>
       <r>    10.5392    -0.0000   228.0000 </r>
       <r>    10.6120    -0.0000   228.0000 </r>
       <r>    10.6847    -0.0000   228.0000 </r>
       <r>    10.7574    -0.0000   228.0000 </r>
       <r>    10.8302     0.0000   228.0000 </r>
       <r>    10.9029     0.0000   228.0000 </r>
       <r>    10.9757     0.0000   228.0000 </r>
       <r>    11.0484     0.0000   228.0000 </r>
       <r>    11.1211     0.0000   228.0000 </r>
       <r>    11.1939     0.0000   228.0000 </r>
       <r>    11.2666     0.0000   228.0000 </r>
       <r>    11.3393     0.0000   228.0000 </r>
       <r>    11.4121     0.0000   228.0000 </r>
       <r>    11.4848     0.0000   228.0000 </r>
      </set>
      <set comment="spin 2">
       <r>   -10.3368     0.0000     0.0000 </r>
       <r>   -10.2640     0.0000     0.0000 </r>
       <r>   -10.1913     0.0000     0.0000 </r>
       <r>   -10.1185     0.0000     0.0000 </r>
       <r>   -10.0458     0.0000     0.0000 </r>
       <r>    -9.9731    -0.0000    -0.0000 </r>
       <r>    -9.9003    -0.0000    -0.0000 </r>
       <r>    -9.8276    -0.0000    -0.0000 </r>
       <r>    -9.7549    -0.0000    -0.0000 </r>
       <r>    -9.6821    -0.0000    -0.0000 </r>
       <r>    -9.6094    -0.0000    -0.0000 </r>
       <r>    -9.5366    -0.0000    -0.0000 </r>
       <r>    -9.4639    -0.0000    -0.0000 </r>
       <r>    -9.3912    -0.0000    -0.0000 </r>
       <r>    -9.3184    -0.0000    -0.0000 </r>
       <r>    -9.2457    -0.0000    -0.0000 </r>
       <r>    -9.1729    -0.0000    -0.0000 </r>
       <r>    -9.1002    -0.0000    -0.0000 </r>
       <r>    -9.0275    -0.0000    -0.0000 </r>
       <r>    -8.9547    -0.0001    -0.0000 </r>
       <r>    -8.8820    -0.0005    -0.0000 </r>
       <r>    -8.8093    -0.0026    -0.0002 </r>
       <r>    -8.7365    -0.0091    -0.0009 </r>
       <r>    -8.6638    -0.0206    -0.0024 </r>
       <r>    -8.5910    -0.0213    -0.0039 </r>
       <r>    -8.5183     0.0319    -0.0016 </r>
       <r>    -8.4456     0.1725     0.0109 </r>
       <r>    -8.3728     0.3433     0.0359 </r>
       <r>    -8.3001     0.4131     0.0660 </r>
       <r>    -8.2273     0.3596     0.0921 </r>
       <r>    -8.1546     0.3627     0.1185 </r>
       <r>    -8.0819     0.5657     0.1596 </r>
       <r>    -8.0091     0.8085     0.2184 </r>
       <r>    -7.9364     0.8158     0.2778 </r>
       <r>    -7.8636     0.6233     0.3231 </r>
       <r>    -7.7909     0.5420     0.3626 </r>
       <r>    -7.7182     0.6679     0.4111 </r>
       <r>    -7.6454     0.7549     0.4660 </r>
       <r>    -7.5727     0.7143     0.5180 </r>
       <r>    -7.5000     0.8898     0.5827 </r>
       <r>    -7.4272     1.4986     0.6917 </r>
       <r>    -7.3545     2.0787     0.8429 </r>
       <r>    -7.2817     2.0204     0.9899 </r>
       <r>    -7.2090     1.5027     1.0992 </r>
       <r>    -7.1363     1.2688     1.1915 </r>
       <r>    -7.0635     1.5106     1.3014 </r>
       <r>    -6.9908     1.6447     1.4210 </r>
       <r>    -6.9180     1.2748     1.5138 </r>
       <r>    -6.8453     0.7428     1.5678 </r>
       <r>    -6.7726     0.5253     1.6060 </r>
       <r>    -6.6998     0.6464     1.6530 </r>
       <r>    -6.6271     1.0113     1.7266 </r>
       <r>    -6.5544     1.7853     1.8564 </r>
       <r>    -6.4816     2.8793     2.0659 </r>
       <r>    -6.4089     3.5093     2.3211 </r>
       <r>    -6.3361     3.0353     2.5419 </r>
       <r>    -6.2634     1.9010     2.6802 </r>
       <r>    -6.1907     1.0398     2.7558 </r>
       <r>    -6.1179     0.7588     2.8110 </r>
       <r>    -6.0452     0.7884     2.8684 </r>
       <r>    -5.9724     0.9237     2.9355 </r>
       <r>    -5.8997     1.1479     3.0190 </r>
       <r>    -5.8270     1.6101     3.1362 </r>
       <r>    -5.7542     2.6394     3.3282 </r>
       <r>    -5.6815     4.1347     3.6289 </r>
       <r>    -5.6088     5.0651     3.9973 </r>
       <r>    -5.5360     4.4626     4.3219 </r>
       <r>    -5.4633     2.7341     4.5208 </r>
       <r>    -5.3905     1.2406     4.6111 </r>
       <r>    -5.3178     0.9703     4.6816 </r>
       <r>    -5.2451     2.1505     4.8381 </r>
       <r>    -5.1723     4.3741     5.1562 </r>
       <r>    -5.0996     6.5084     5.6296 </r>
       <r>    -5.0268     7.2800     6.1592 </r>
       <r>    -4.9541     6.3985     6.6246 </r>
       <r>    -4.8814     4.5537     6.9558 </r>
       <r>    -4.8086     2.5025     7.1378 </r>
       <r>    -4.7359     0.8187     7.1974 </r>
       <r>    -4.6631     0.1431     7.2078 </r>
       <r>    -4.5904     1.0130     7.2815 </r>
       <r>    -4.5177     3.4131     7.5298 </r>
       <r>    -4.4449     6.5247     8.0044 </r>
       <r>    -4.3722     8.9705     8.6569 </r>
       <r>    -4.2995     9.7691     9.3675 </r>
       <r>    -4.2267     9.4042    10.0515 </r>
       <r>    -4.1540     9.5822    10.7485 </r>
       <r>    -4.0812    11.4367    11.5804 </r>
       <r>    -4.0085    14.1720    12.6112 </r>
       <r>    -3.9358    16.0893    13.7816 </r>
       <r>    -3.8630    16.8852    15.0098 </r>
       <r>    -3.7903    17.8043    16.3048 </r>
       <r>    -3.7175    19.3353    17.7112 </r>
       <r>    -3.6448    20.5885    19.2088 </r>
       <r>    -3.5721    21.5682    20.7777 </r>
       <r>    -3.4993    24.0025    22.5236 </r>
       <r>    -3.4266    28.6439    24.6071 </r>
       <r>    -3.3539    33.1782    27.0204 </r>
       <r>    -3.2811    34.5814    29.5358 </r>
       <r>    -3.2084    32.8637    31.9263 </r>
       <r>    -3.1356    30.5319    34.1471 </r>
       <r>    -3.0629    28.9690    36.2543 </r>
       <r>    -2.9902    27.8015    38.2766 </r>
       <r>    -2.9174    27.5144    40.2779 </r>
       <r>    -2.8447    29.9052    42.4532 </r>
       <r>    -2.7719    35.3174    45.0221 </r>
       <r>    -2.6992    41.3148    48.0273 </r>
       <r>    -2.6265    45.0066    51.3010 </r>
       <r>    -2.5537    45.8543    54.6364 </r>
       <r>    -2.4810    45.8308    57.9701 </r>
       <r>    -2.4083    47.4656    61.4227 </r>
       <r>    -2.3355    51.8433    65.1937 </r>
       <r>    -2.2628    57.8576    69.4021 </r>
       <r>    -2.1900    62.8665    73.9750 </r>
       <r>    -2.1173    64.2922    78.6515 </r>
       <r>    -2.0446    61.4863    83.1239 </r>
       <r>    -1.9718    56.2238    87.2136 </r>
       <r>    -1.8991    51.0249    90.9250 </r>
       <r>    -1.8263    47.3939    94.3724 </r>
       <r>    -1.7536    45.7877    97.7030 </r>
       <r>    -1.6809    46.5387   101.0881 </r>
       <r>    -1.6081    49.8911   104.7171 </r>
       <r>    -1.5354    54.6499   108.6923 </r>
       <r>    -1.4626    58.2209   112.9272 </r>
       <r>    -1.3899    59.5897   117.2617 </r>
       <r>    -1.3172    60.5696   121.6674 </r>
       <r>    -1.2444    62.4937   126.2131 </r>
       <r>    -1.1717    64.3028   130.8904 </r>
       <r>    -1.0990    65.9307   135.6861 </r>
       <r>    -1.0262    70.1939   140.7919 </r>
       <r>    -0.9535    78.0827   146.4716 </r>
       <r>    -0.8807    84.4412   152.6137 </r>
       <r>    -0.8080    81.4477   158.5381 </r>
       <r>    -0.7353    66.2439   163.3566 </r>
       <r>    -0.6625    44.1062   166.5648 </r>
       <r>    -0.5898    24.0237   168.3123 </r>
       <r>    -0.5170    11.7306   169.1655 </r>
       <r>    -0.4443     7.0797   169.6805 </r>
       <r>    -0.3716     6.5182   170.1546 </r>
       <r>    -0.2988     6.5203   170.6289 </r>
       <r>    -0.2261     5.3425   171.0175 </r>
       <r>    -0.1534     3.1456   171.2463 </r>
       <r>    -0.0806     1.1204   171.3278 </r>
       <r>    -0.0079     0.3630   171.3542 </r>
       <r>     0.0649     1.1943   171.4411 </r>
       <r>     0.1376     3.0964   171.6663 </r>
       <r>     0.2103     5.1382   172.0401 </r>
       <r>     0.2831     6.6719   172.5254 </r>
       <r>     0.3558     7.7709   173.0906 </r>
       <r>     0.4286     8.8271   173.7327 </r>
       <r>     0.5013     9.6314   174.4333 </r>
       <r>     0.5740     9.3554   175.1138 </r>
       <r>     0.6468     7.7898   175.6804 </r>
       <r>     0.7195     5.8905   176.1088 </r>
       <r>     0.7922     4.6870   176.4498 </r>
       <r>     0.8650     4.3979   176.7697 </r>
       <r>     0.9377     4.7776   177.1172 </r>
       <r>     1.0105     5.4522   177.5138 </r>
       <r>     1.0832     5.7565   177.9325 </r>
       <r>     1.1559     5.0351   178.2987 </r>
       <r>     1.2287     3.4343   178.5485 </r>
       <r>     1.3014     2.0431   178.6972 </r>
       <r>     1.3742     2.0231   178.8443 </r>
       <r>     1.4469     3.4678   179.0966 </r>
       <r>     1.5196     5.0839   179.4664 </r>
       <r>     1.5924     5.4692   179.8642 </r>
       <r>     1.6651     4.8047   180.2137 </r>
       <r>     1.7379     4.4973   180.5408 </r>
       <r>     1.8106     5.1383   180.9145 </r>
       <r>     1.8833     5.9239   181.3454 </r>
       <r>     1.9561     6.1704   181.7943 </r>
       <r>     2.0288     6.1486   182.2415 </r>
       <r>     2.1015     6.1852   182.6914 </r>
       <r>     2.1743     6.0385   183.1306 </r>
       <r>     2.2470     5.5048   183.5311 </r>
       <r>     2.3198     4.9511   183.8912 </r>
       <r>     2.3925     4.8885   184.2468 </r>
       <r>     2.4652     5.2346   184.6275 </r>
       <r>     2.5380     5.3185   185.0144 </r>
       <r>     2.6107     4.6855   185.3552 </r>
       <r>     2.6835     3.6566   185.6212 </r>
       <r>     2.7562     3.0662   185.8442 </r>
       <r>     2.8289     3.5807   186.1047 </r>
       <r>     2.9017     5.0416   186.4714 </r>
       <r>     2.9744     6.3113   186.9304 </r>
       <r>     3.0471     6.1547   187.3781 </r>
       <r>     3.1199     4.5528   187.7093 </r>
       <r>     3.1926     2.8384   187.9158 </r>
       <r>     3.2654     2.2990   188.0830 </r>
       <r>     3.3381     2.9746   188.2993 </r>
       <r>     3.4108     4.0058   188.5907 </r>
       <r>     3.4836     4.6644   188.9300 </r>
       <r>     3.5563     4.7810   189.2778 </r>
       <r>     3.6291     4.6356   189.6150 </r>
       <r>     3.7018     4.6351   189.9521 </r>
       <r>     3.7745     4.9102   190.3093 </r>
       <r>     3.8473     5.3230   190.6965 </r>
       <r>     3.9200     5.7066   191.1116 </r>
       <r>     3.9927     5.7571   191.5303 </r>
       <r>     4.0655     5.0802   191.8998 </r>
       <r>     4.1382     3.7502   192.1726 </r>
       <r>     4.2110     2.5400   192.3574 </r>
       <r>     4.2837     2.2957   192.5244 </r>
       <r>     4.3564     3.0660   192.7474 </r>
       <r>     4.4292     4.0027   193.0385 </r>
       <r>     4.5019     4.3832   193.3574 </r>
       <r>     4.5747     4.5836   193.6908 </r>
       <r>     4.6474     5.4228   194.0852 </r>
       <r>     4.7201     6.5673   194.5629 </r>
       <r>     4.7929     6.5860   195.0420 </r>
       <r>     4.8656     4.9240   195.4001 </r>
       <r>     4.9384     2.7764   195.6021 </r>
       <r>     5.0111     1.6085   195.7191 </r>
       <r>     5.0838     1.7721   195.8480 </r>
       <r>     5.1566     2.7989   196.0516 </r>
       <r>     5.2293     4.2029   196.3573 </r>
       <r>     5.3020     5.6565   196.7687 </r>
       <r>     5.3748     6.8341   197.2658 </r>
       <r>     5.4475     7.4607   197.8085 </r>
       <r>     5.5203     7.4391   198.3496 </r>
       <r>     5.5930     6.8876   198.8506 </r>
       <r>     5.6657     6.2018   199.3017 </r>
       <r>     5.7385     6.0054   199.7385 </r>
       <r>     5.8112     6.7770   200.2315 </r>
       <r>     5.8840     8.3486   200.8388 </r>
       <r>     5.9567     9.8199   201.5530 </r>
       <r>     6.0294    10.1915   202.2944 </r>
       <r>     6.1022     9.1363   202.9589 </r>
       <r>     6.1749     7.2164   203.4838 </r>
       <r>     6.2476     5.6060   203.8916 </r>
       <r>     6.3204     5.3793   204.2829 </r>
       <r>     6.3931     6.5445   204.7589 </r>
       <r>     6.4659     7.9444   205.3368 </r>
       <r>     6.5386     8.4184   205.9491 </r>
       <r>     6.6113     7.7557   206.5133 </r>
       <r>     6.6841     6.5836   206.9922 </r>
       <r>     6.7568     5.7755   207.4123 </r>
       <r>     6.8296     5.6890   207.8261 </r>
       <r>     6.9023     5.8557   208.2520 </r>
       <r>     6.9750     5.8501   208.6775 </r>
       <r>     7.0478     6.0505   209.1176 </r>
       <r>     7.1205     6.9021   209.6197 </r>
       <r>     7.1932     7.9352   210.1969 </r>
       <r>     7.2660     8.1545   210.7900 </r>
       <r>     7.3387     7.1700   211.3116 </r>
       <r>     7.4115     5.6875   211.7253 </r>
       <r>     7.4842     4.9360   212.0843 </r>
       <r>     7.5569     5.4963   212.4841 </r>
       <r>     7.6297     6.8907   212.9853 </r>
       <r>     7.7024     8.6196   213.6123 </r>
       <r>     7.7752    10.7335   214.3930 </r>
       <r>     7.8479    12.7216   215.3184 </r>
       <r>     7.9206    13.2091   216.2792 </r>
       <r>     7.9934    11.7669   217.1351 </r>
       <r>     8.0661     9.7540   217.8446 </r>
       <r>     8.1388     8.5269   218.4648 </r>
       <r>     8.2116     8.0077   219.0473 </r>
       <r>     8.2843     7.5084   219.5935 </r>
       <r>     8.3571     6.7412   220.0838 </r>
       <r>     8.4298     5.7390   220.5012 </r>
       <r>     8.5025     4.6826   220.8419 </r>
       <r>     8.5753     3.9533   221.1294 </r>
       <r>     8.6480     4.1784   221.4333 </r>
       <r>     8.7208     6.0861   221.8760 </r>
       <r>     8.7935     9.5475   222.5705 </r>
       <r>     8.8662    12.8327   223.5039 </r>
       <r>     8.9390    14.0702   224.5274 </r>
       <r>     9.0117    13.1626   225.4848 </r>
       <r>     9.0845    11.0708   226.2901 </r>
       <r>     9.1572     8.2627   226.8911 </r>
       <r>     9.2299     5.1451   227.2654 </r>
       <r>     9.3027     2.7367   227.4644 </r>
       <r>     9.3754     1.7648   227.5928 </r>
       <r>     9.4481     1.8157   227.7249 </r>
       <r>     9.5209     1.8787   227.8615 </r>
       <r>     9.5936     1.4060   227.9638 </r>
       <r>     9.6664     0.6453   228.0107 </r>
       <r>     9.7391     0.0902   228.0173 </r>
       <r>     9.8118    -0.1010   228.0099 </r>
       <r>     9.8846    -0.0866   228.0036 </r>
       <r>     9.9573    -0.0371   228.0009 </r>
       <r>    10.0301    -0.0105   228.0002 </r>
       <r>    10.1028    -0.0021   228.0000 </r>
       <r>    10.1755    -0.0003   228.0000 </r>
       <r>    10.2483    -0.0000   228.0000 </r>
       <r>    10.3210    -0.0000   228.0000 </r>
       <r>    10.3937    -0.0000   228.0000 </r>
       <r>    10.4665    -0.0000   228.0000 </r>
       <r>    10.5392    -0.0000   228.0000 </r>
       <r>    10.6120    -0.0000   228.0000 </r>
       <r>    10.6847    -0.0000   228.0000 </r>
       <r>    10.7574    -0.0000   228.0000 </r>
       <r>    10.8302     0.0000   228.0000 </r>
       <r>    10.9029     0.0000   228.0000 </r>
       <r>    10.9757     0.0000   228.0000 </r>
       <r>    11.0484     0.0000   228.0000 </r>
       <r>    11.1211     0.0000   228.0000 </r>
       <r>    11.1939     0.0000   228.0000 </r>
       <r>    11.2666     0.0000   228.0000 </r>
       <r>    11.3393     0.0000   228.0000 </r>
       <r>    11.4121     0.0000   228.0000 </r>
       <r>    11.4848     0.0000   228.0000 </r>
      </set>
     </set>
    </array>
   </total>
  </dos>
 </calculation>
 <structure name="finalpos" >
  <crystal>
   <varray name="basis" >
    <v>       7.26000023       0.00000000       0.00000000 </v>
    <v>       0.00000000       5.13359547       0.00000000 </v>
    <v>       0.00000000       0.00000000      23.98379135 </v>
   </varray>
   <i name="volume">    893.87360752 </i>
   <varray name="rec_basis" >
    <v>       0.13774104       0.00000000       0.00000000 </v>
    <v>       0.00000000       0.19479525       0.00000000 </v>
    <v>       0.00000000       0.00000000       0.04169483 </v>
   </varray>
  </crystal>
  <varray name="positions" >
   <v>       0.00000000       0.00000000       0.00000000 </v>
   <v>       0.00000000       0.50000000       0.00000000 </v>
   <v>       0.50000000       0.00000000       0.00000000 </v>
   <v>       0.50000000       0.50000000       0.00000000 </v>
   <v>       0.25000000       0.25000000       0.05351109 </v>
   <v>       0.25000000       0.75000000       0.05351109 </v>
   <v>       0.75000000       0.25000000       0.05351109 </v>
   <v>       0.75000000       0.75000000       0.05351109 </v>
   <v>       0.00000000       0.00000000       0.10541371 </v>
   <v>      -0.00000000       0.50000000       0.10541371 </v>
   <v>       0.50000000       0.00000000       0.10541371 </v>
   <v>       0.50000000       0.50000000       0.10541371 </v>
   <v>       0.25000000       0.25000000       0.15715010 </v>
   <v>       0.25000000       0.75000000       0.15715010 </v>
   <v>       0.75000000       0.25000000       0.15715010 </v>
   <v>       0.75000000       0.75000000       0.15715010 </v>
   <v>       0.00000000       0.00000000       0.20866257 </v>
   <v>      -0.00000000       0.50000000       0.20866257 </v>
   <v>       0.50000000       0.00000000       0.20866257 </v>
   <v>       0.50000000       0.50000000       0.20866257 </v>
   <v>       0.25000000       0.25000000       0.25947965 </v>
   <v>       0.25000000       0.75000000       0.25947965 </v>
   <v>       0.75000000       0.25000000       0.25947965 </v>
   <v>       0.75000000       0.75000000       0.25947965 </v>
   <v>      -0.00000000       0.00000000       0.31415415 </v>
   <v>      -0.00000000       0.50000000       0.31415415 </v>
   <v>       0.50000000      -0.00000000       0.31415415 </v>
   <v>       0.50000000       0.50000000       0.31415415 </v>
   <v>       0.25000000       0.25000000       0.36181799 </v>
   <v>       0.25000000       0.75000000       0.36181799 </v>
   <v>       0.75000000       0.25000000       0.36181799 </v>
   <v>       0.75000000       0.75000000       0.36181799 </v>
  </varray>
  <varray name="selective"  type="logical" >
   <v type="logical" >  F  F  F </v>
   <v type="logical" >  F  F  F </v>
   <v type="logical" >  F  F  F </v>
   <v type="logical" >  F  F  F </v>
   <v type="logical" >  F  F  F </v>
   <v type="logical" >  F  F  F </v>
   <v type="logical" >  F  F  F </v>
   <v type="logical" >  F  F  F </v>
   <v type="logical" >  T  T  T </v>
   <v type="logical" >  T  T  T </v>
   <v type="logical" >  T  T  T </v>
   <v type="logical" >  T  T  T </v>
   <v type="logical" >  T  T  T </v>
   <v type="logical" >  T  T  T </v>
   <v type="logical" >  T  T  T </v>
   <v type="logical" >  T  T  T </v>
   <v type="logical" >  T  T  T </v>
   <v type="logical" >  T  T  T </v>
   <v type="logical" >  T  T  T </v>
   <v type="logical" >  T  T  T </v>
   <v type="logical" >  T  T  T </v>
   <v type="logical" >  T  T  T </v>
   <v type="logical" >  T  T  T </v>
   <v type="logical" >  T  T  T </v>
   <v type="logical" >  T  T  T </v>
   <v type="logical" >  T  T  T </v>
   <v type="logical" >  T  T  T </v>
   <v type="logical" >  T  T  T </v>
   <v type="logical" >  T  T  T </v>
   <v type="logical" >  T  T  T </v>
   <v type="logical" >  T  T  T </v>
   <v type="logical" >  T  T  T </v>
  </varray>
  <nose>
   <v>      -3.00000000       0.00000000       0.00010000       0.00010000 </v>
  </nose>
 </structure>
</modeling>
