unknown system                          
           1
    10.890000    0.000000    0.000000
     0.000000    7.700393    0.000000
     0.000000    0.000000   21.416994
   Cu
    54
Direct configuration=     1
   0.00000000  0.00000000  0.00000000
   0.00000000  0.33333333  0.00000000
   0.00000000  0.66666667  0.00000000
   0.33333333  0.00000000  0.00000000
   0.33333333  0.33333333  0.00000000
   0.33333333  0.66666667  0.00000000
   0.66666667  0.00000000  0.00000000
   0.66666667  0.33333333  0.00000000
   0.66666667  0.66666667  0.00000000
   0.16666667  0.16666667  0.05992432
   0.16666667  0.50000000  0.05992432
   0.16666667  0.83333333  0.05992432
   0.50000000  0.16666667  0.05992432
   0.50000000  0.50000000  0.05992432
   0.50000000  0.83333333  0.05992432
   0.83333333  0.16666667  0.05992432
   0.83333333  0.50000000  0.05992432
   0.83333333  0.83333333  0.05992432
   0.00000000  0.00000000  0.11984864
   0.00000000  0.33333333  0.11984864
   0.00000000  0.66666667  0.11984864
   0.33333333  0.00000000  0.11984864
   0.33333333  0.33333333  0.11984864
   0.33333333  0.66666667  0.11984864
   0.66666667  0.00000000  0.11984864
   0.66666667  0.33333333  0.11984864
   0.66666667  0.66666667  0.11984864
   0.16666667  0.16666667  0.17977296
   0.16666667  0.50000000  0.17977296
   0.16666667  0.83333333  0.17977296
   0.50000000  0.16666667  0.17977296
   0.50000000  0.50000000  0.17977296
   0.50000000  0.83333333  0.17977296
   0.83333333  0.16666667  0.17977296
   0.83333333  0.50000000  0.17977296
   0.83333333  0.83333333  0.17977296
   0.00000000  0.00000000  0.23969728
   0.00000000  0.33333333  0.23969728
   0.00000000  0.66666667  0.23969728
   0.33333333  0.00000000  0.23969728
   0.33333333  0.33333333  0.23969728
   0.33333333  0.66666667  0.23969728
   0.66666667  0.00000000  0.23969728
   0.66666667  0.33333333  0.23969728
   0.66666667  0.66666667  0.23969728
   0.16666667  0.16666667  0.29962161
   0.16666667  0.50000000  0.29962161
   0.16666667  0.83333333  0.29962161
   0.50000000  0.16666667  0.29962161
   0.50000000  0.50000000  0.29962161
   0.50000000  0.83333333  0.29962161
   0.83333333  0.16666667  0.29962161
   0.83333333  0.50000000  0.29962161
   0.83333333  0.83333333  0.29962161
Direct configuration=     2
   0.00000000  0.00000000  0.00000000
   0.00000000  0.33333333  0.00000000
   0.00000000  0.66666667  0.00000000
   0.33333333  0.00000000  0.00000000
   0.33333333  0.33333333  0.00000000
   0.33333333  0.66666667  0.00000000
   0.66666667  0.00000000  0.00000000
   0.66666667  0.33333333  0.00000000
   0.66666667  0.66666667  0.00000000
   0.16666667  0.16666667  0.05992432
   0.16666667  0.50000000  0.05992432
   0.16666667  0.83333333  0.05992432
   0.50000000  0.16666667  0.05992432
   0.50000000  0.50000000  0.05992432
   0.50000000  0.83333333  0.05992432
   0.83333333  0.16666667  0.05992432
   0.83333333  0.50000000  0.05992432
   0.83333333  0.83333333  0.05992432
  -0.00000000 -0.00000000  0.12000022
  -0.00000000  0.33333333  0.12000022
  -0.00000000  0.66666667  0.12000022
   0.33333333 -0.00000000  0.12000022
   0.33333333  0.33333333  0.12000022
   0.33333333  0.66666667  0.12000022
   0.66666667 -0.00000000  0.12000022
   0.66666667  0.33333333  0.12000022
   0.66666667  0.66666667  0.12000022
   0.16666667  0.16666667  0.17962225
   0.16666667  0.50000000  0.17962225
   0.16666667  0.83333333  0.17962225
   0.50000000  0.16666667  0.17962225
   0.50000000  0.50000000  0.17962225
   0.50000000  0.83333333  0.17962225
   0.83333333  0.16666667  0.17962225
   0.83333333  0.50000000  0.17962225
   0.83333333  0.83333333  0.17962225
  -0.00000000 -0.00000000  0.24034695
   0.00000000  0.33333333  0.24034695
  -0.00000000  0.66666667  0.24034695
   0.33333333 -0.00000000  0.24034695
   0.33333333  0.33333333  0.24034695
   0.33333333  0.66666667  0.24034695
   0.66666667 -0.00000000  0.24034695
   0.66666667  0.33333333  0.24034695
   0.66666667  0.66666667  0.24034695
   0.16666667  0.16666667  0.29850684
   0.16666667  0.50000000  0.29850684
   0.16666667  0.83333333  0.29850684
   0.50000000  0.16666667  0.29850684
   0.50000000  0.50000000  0.29850684
   0.50000000  0.83333333  0.29850684
   0.83333333  0.16666667  0.29850684
   0.83333333  0.50000000  0.29850684
   0.83333333  0.83333333  0.29850684
Direct configuration=     3
   0.00000000  0.00000000  0.00000000
   0.00000000  0.33333333  0.00000000
   0.00000000  0.66666667  0.00000000
   0.33333333  0.00000000  0.00000000
   0.33333333  0.33333333  0.00000000
   0.33333333  0.66666667  0.00000000
   0.66666667  0.00000000  0.00000000
   0.66666667  0.33333333  0.00000000
   0.66666667  0.66666667  0.00000000
   0.16666667  0.16666667  0.05992432
   0.16666667  0.50000000  0.05992432
   0.16666667  0.83333333  0.05992432
   0.50000000  0.16666667  0.05992432
   0.50000000  0.50000000  0.05992432
   0.50000000  0.83333333  0.05992432
   0.83333333  0.16666667  0.05992432
   0.83333333  0.50000000  0.05992432
   0.83333333  0.83333333  0.05992432
  -0.00000000 -0.00000000  0.12045494
  -0.00000000  0.33333333  0.12045494
  -0.00000000  0.66666667  0.12045494
   0.33333333 -0.00000000  0.12045494
   0.33333333  0.33333333  0.12045494
   0.33333333  0.66666667  0.12045494
   0.66666667 -0.00000000  0.12045494
   0.66666667  0.33333333  0.12045494
   0.66666667  0.66666667  0.12045494
   0.16666667  0.16666667  0.17917010
   0.16666667  0.50000000  0.17917010
   0.16666667  0.83333333  0.17917010
   0.50000000  0.16666667  0.17917010
   0.50000000  0.50000000  0.17917010
   0.50000000  0.83333333  0.17917010
   0.83333333  0.16666667  0.17917010
   0.83333333  0.50000000  0.17917010
   0.83333333  0.83333333  0.17917010
  -0.00000000 -0.00000000  0.24229596
   0.00000000  0.33333333  0.24229596
  -0.00000000  0.66666667  0.24229596
   0.33333333 -0.00000000  0.24229596
   0.33333333  0.33333333  0.24229596
   0.33333333  0.66666667  0.24229596
   0.66666667 -0.00000000  0.24229596
   0.66666667  0.33333333  0.24229596
   0.66666667  0.66666667  0.24229596
   0.16666667  0.16666667  0.29516253
   0.16666667  0.50000000  0.29516253
   0.16666667  0.83333333  0.29516253
   0.50000000  0.16666667  0.29516253
   0.50000000  0.50000000  0.29516253
   0.50000000  0.83333333  0.29516253
   0.83333333  0.16666667  0.29516253
   0.83333333  0.50000000  0.29516253
   0.83333333  0.83333333  0.29516253
Direct configuration=     4
   0.00000000  0.00000000  0.00000000
   0.00000000  0.33333333  0.00000000
   0.00000000  0.66666667  0.00000000
   0.33333333  0.00000000  0.00000000
   0.33333333  0.33333333  0.00000000
   0.33333333  0.66666667  0.00000000
   0.66666667  0.00000000  0.00000000
   0.66666667  0.33333333  0.00000000
   0.66666667  0.66666667  0.00000000
   0.16666667  0.16666667  0.05992432
   0.16666667  0.50000000  0.05992432
   0.16666667  0.83333333  0.05992432
   0.50000000  0.16666667  0.05992432
   0.50000000  0.50000000  0.05992432
   0.50000000  0.83333333  0.05992432
   0.83333333  0.16666667  0.05992432
   0.83333333  0.50000000  0.05992432
   0.83333333  0.83333333  0.05992432
  -0.00000000 -0.00000000  0.12041697
  -0.00000000  0.33333333  0.12041697
  -0.00000000  0.66666667  0.12041697
   0.33333333 -0.00000000  0.12041697
   0.33333333  0.33333333  0.12041697
   0.33333333  0.66666667  0.12041697
   0.66666667 -0.00000000  0.12041697
   0.66666667  0.33333333  0.12041697
   0.66666667  0.66666667  0.12041697
   0.16666667  0.16666667  0.17920786
   0.16666667  0.50000000  0.17920786
   0.16666667  0.83333333  0.17920786
   0.50000000  0.16666667  0.17920786
   0.50000000  0.50000000  0.17920786
   0.50000000  0.83333333  0.17920786
   0.83333333  0.16666667  0.17920786
   0.83333333  0.50000000  0.17920786
   0.83333333  0.83333333  0.17920786
  -0.00000000 -0.00000000  0.24213321
   0.00000000  0.33333333  0.24213321
  -0.00000000  0.66666667  0.24213321
   0.33333333 -0.00000000  0.24213321
   0.33333333  0.33333333  0.24213321
   0.33333333  0.66666667  0.24213321
   0.66666667 -0.00000000  0.24213321
   0.66666667  0.33333333  0.24213321
   0.66666667  0.66666667  0.24213321
   0.16666667  0.16666667  0.29544180
   0.16666667  0.50000000  0.29544180
   0.16666667  0.83333333  0.29544180
   0.50000000  0.16666667  0.29544180
   0.50000000  0.50000000  0.29544180
   0.50000000  0.83333333  0.29544180
   0.83333333  0.16666667  0.29544180
   0.83333333  0.50000000  0.29544180
   0.83333333  0.83333333  0.29544180
Direct configuration=     5
   0.00000000  0.00000000  0.00000000
   0.00000000  0.33333333  0.00000000
   0.00000000  0.66666667  0.00000000
   0.33333333  0.00000000  0.00000000
   0.33333333  0.33333333  0.00000000
   0.33333333  0.66666667  0.00000000
   0.66666667  0.00000000  0.00000000
   0.66666667  0.33333333  0.00000000
   0.66666667  0.66666667  0.00000000
   0.16666667  0.16666667  0.05992432
   0.16666667  0.50000000  0.05992432
   0.16666667  0.83333333  0.05992432
   0.50000000  0.16666667  0.05992432
   0.50000000  0.50000000  0.05992432
   0.50000000  0.83333333  0.05992432
   0.83333333  0.16666667  0.05992432
   0.83333333  0.50000000  0.05992432
   0.83333333  0.83333333  0.05992432
  -0.00000000 -0.00000000  0.12053902
  -0.00000000  0.33333333  0.12053902
  -0.00000000  0.66666667  0.12053902
   0.33333333 -0.00000000  0.12053902
   0.33333333  0.33333333  0.12053902
   0.33333333  0.66666667  0.12053902
   0.66666667 -0.00000000  0.12053902
   0.66666667  0.33333333  0.12053902
   0.66666667  0.66666667  0.12053902
   0.16666667  0.16666667  0.17892468
   0.16666667  0.50000000  0.17892468
   0.16666667  0.83333333  0.17892468
   0.50000000  0.16666667  0.17892468
   0.50000000  0.50000000  0.17892468
   0.50000000  0.83333333  0.17892468
   0.83333333  0.16666667  0.17892468
   0.83333333  0.50000000  0.17892468
   0.83333333  0.83333333  0.17892468
  -0.00000000 -0.00000000  0.24176572
   0.00000000  0.33333333  0.24176572
  -0.00000000  0.66666667  0.24176572
   0.33333333 -0.00000000  0.24176572
   0.33333333  0.33333333  0.24176572
   0.33333333  0.66666667  0.24176572
   0.66666667 -0.00000000  0.24176572
   0.66666667  0.33333333  0.24176572
   0.66666667  0.66666667  0.24176572
   0.16666667  0.16666667  0.29509417
   0.16666667  0.50000000  0.29509417
   0.16666667  0.83333333  0.29509417
   0.50000000  0.16666667  0.29509417
   0.50000000  0.50000000  0.29509417
   0.50000000  0.83333333  0.29509417
   0.83333333  0.16666667  0.29509417
   0.83333333  0.50000000  0.29509417
   0.83333333  0.83333333  0.29509417
Direct configuration=     6
   0.00000000  0.00000000  0.00000000
   0.00000000  0.33333333  0.00000000
   0.00000000  0.66666667  0.00000000
   0.33333333  0.00000000  0.00000000
   0.33333333  0.33333333  0.00000000
   0.33333333  0.66666667  0.00000000
   0.66666667  0.00000000  0.00000000
   0.66666667  0.33333333  0.00000000
   0.66666667  0.66666667  0.00000000
   0.16666667  0.16666667  0.05992432
   0.16666667  0.50000000  0.05992432
   0.16666667  0.83333333  0.05992432
   0.50000000  0.16666667  0.05992432
   0.50000000  0.50000000  0.05992432
   0.50000000  0.83333333  0.05992432
   0.83333333  0.16666667  0.05992432
   0.83333333  0.50000000  0.05992432
   0.83333333  0.83333333  0.05992432
  -0.00000000 -0.00000000  0.12090518
  -0.00000000  0.33333333  0.12090518
  -0.00000000  0.66666667  0.12090518
   0.33333333 -0.00000000  0.12090518
   0.33333333  0.33333333  0.12090518
   0.33333333  0.66666667  0.12090518
   0.66666667 -0.00000000  0.12090518
   0.66666667  0.33333333  0.12090518
   0.66666667  0.66666667  0.12090518
   0.16666667  0.16666667  0.17807516
   0.16666667  0.50000000  0.17807516
   0.16666667  0.83333333  0.17807516
   0.50000000  0.16666667  0.17807516
   0.50000000  0.50000000  0.17807516
   0.50000000  0.83333333  0.17807516
   0.83333333  0.16666667  0.17807516
   0.83333333  0.50000000  0.17807516
   0.83333333  0.83333333  0.17807516
  -0.00000000 -0.00000000  0.24066324
   0.00000000  0.33333333  0.24066324
  -0.00000000  0.66666667  0.24066324
   0.33333333 -0.00000000  0.24066324
   0.33333333  0.33333333  0.24066324
   0.33333333  0.66666667  0.24066324
   0.66666667 -0.00000000  0.24066324
   0.66666667  0.33333333  0.24066324
   0.66666667  0.66666667  0.24066324
   0.16666667  0.16666667  0.29405130
   0.16666667  0.50000000  0.29405130
   0.16666667  0.83333333  0.29405130
   0.50000000  0.16666667  0.29405130
   0.50000000  0.50000000  0.29405130
   0.50000000  0.83333333  0.29405130
   0.83333333  0.16666667  0.29405130
   0.83333333  0.50000000  0.29405130
   0.83333333  0.83333333  0.29405130
Direct configuration=     7
   0.00000000  0.00000000  0.00000000
   0.00000000  0.33333333  0.00000000
   0.00000000  0.66666667  0.00000000
   0.33333333  0.00000000  0.00000000
   0.33333333  0.33333333  0.00000000
   0.33333333  0.66666667  0.00000000
   0.66666667  0.00000000  0.00000000
   0.66666667  0.33333333  0.00000000
   0.66666667  0.66666667  0.00000000
   0.16666667  0.16666667  0.05992432
   0.16666667  0.50000000  0.05992432
   0.16666667  0.83333333  0.05992432
   0.50000000  0.16666667  0.05992432
   0.50000000  0.50000000  0.05992432
   0.50000000  0.83333333  0.05992432
   0.83333333  0.16666667  0.05992432
   0.83333333  0.50000000  0.05992432
   0.83333333  0.83333333  0.05992432
  -0.00000000 -0.00000000  0.12047025
  -0.00000000  0.33333333  0.12047025
  -0.00000000  0.66666667  0.12047025
   0.33333333 -0.00000000  0.12047025
   0.33333333  0.33333333  0.12047025
   0.33333333  0.66666667  0.12047025
   0.66666667 -0.00000000  0.12047025
   0.66666667  0.33333333  0.12047025
   0.66666667  0.66666667  0.12047025
   0.16666667  0.16666667  0.17786402
   0.16666667  0.50000000  0.17786402
   0.16666667  0.83333333  0.17786402
   0.50000000  0.16666667  0.17786402
   0.50000000  0.50000000  0.17786402
   0.50000000  0.83333333  0.17786402
   0.83333333  0.16666667  0.17786402
   0.83333333  0.50000000  0.17786402
   0.83333333  0.83333333  0.17786402
  -0.00000000 -0.00000000  0.24023238
   0.00000000  0.33333333  0.24023238
  -0.00000000  0.66666667  0.24023238
   0.33333333  0.00000000  0.24023238
   0.33333333  0.33333333  0.24023238
   0.33333333  0.66666667  0.24023238
   0.66666667  0.00000000  0.24023238
   0.66666667  0.33333333  0.24023238
   0.66666667  0.66666667  0.24023238
   0.16666667  0.16666667  0.29360081
   0.16666667  0.50000000  0.29360081
   0.16666667  0.83333333  0.29360081
   0.50000000  0.16666667  0.29360081
   0.50000000  0.50000000  0.29360081
   0.50000000  0.83333333  0.29360081
   0.83333333  0.16666667  0.29360081
   0.83333333  0.50000000  0.29360081
   0.83333333  0.83333333  0.29360081
Direct configuration=     8
   0.00000000  0.00000000  0.00000000
   0.00000000  0.33333333  0.00000000
   0.00000000  0.66666667  0.00000000
   0.33333333  0.00000000  0.00000000
   0.33333333  0.33333333  0.00000000
   0.33333333  0.66666667  0.00000000
   0.66666667  0.00000000  0.00000000
   0.66666667  0.33333333  0.00000000
   0.66666667  0.66666667  0.00000000
   0.16666667  0.16666667  0.05992432
   0.16666667  0.50000000  0.05992432
   0.16666667  0.83333333  0.05992432
   0.50000000  0.16666667  0.05992432
   0.50000000  0.50000000  0.05992432
   0.50000000  0.83333333  0.05992432
   0.83333333  0.16666667  0.05992432
   0.83333333  0.50000000  0.05992432
   0.83333333  0.83333333  0.05992432
  -0.00000000 -0.00000000  0.11916546
  -0.00000000  0.33333333  0.11916546
  -0.00000000  0.66666667  0.11916546
   0.33333333 -0.00000000  0.11916546
   0.33333333  0.33333333  0.11916546
   0.33333333  0.66666667  0.11916546
   0.66666667 -0.00000000  0.11916546
   0.66666667  0.33333333  0.11916546
   0.66666667  0.66666667  0.11916546
   0.16666667  0.16666667  0.17723063
   0.16666667  0.50000000  0.17723063
   0.16666667  0.83333333  0.17723063
   0.50000000  0.16666667  0.17723063
   0.50000000  0.50000000  0.17723063
   0.50000000  0.83333333  0.17723063
   0.83333333  0.16666667  0.17723063
   0.83333333  0.50000000  0.17723063
   0.83333333  0.83333333  0.17723063
  -0.00000000 -0.00000000  0.23893977
   0.00000000  0.33333333  0.23893977
  -0.00000000  0.66666667  0.23893977
   0.33333333  0.00000000  0.23893977
   0.33333333  0.33333333  0.23893977
   0.33333333  0.66666667  0.23893977
   0.66666667  0.00000000  0.23893977
   0.66666667  0.33333333  0.23893977
   0.66666667  0.66666667  0.23893977
   0.16666667  0.16666667  0.29224935
   0.16666667  0.50000000  0.29224935
   0.16666667  0.83333333  0.29224935
   0.50000000  0.16666667  0.29224935
   0.50000000  0.50000000  0.29224935
   0.50000000  0.83333333  0.29224935
   0.83333333  0.16666667  0.29224935
   0.83333333  0.50000000  0.29224935
   0.83333333  0.83333333  0.29224935
Direct configuration=     9
   0.00000000  0.00000000  0.00000000
   0.00000000  0.33333333  0.00000000
   0.00000000  0.66666667  0.00000000
   0.33333333  0.00000000  0.00000000
   0.33333333  0.33333333  0.00000000
   0.33333333  0.66666667  0.00000000
   0.66666667  0.00000000  0.00000000
   0.66666667  0.33333333  0.00000000
   0.66666667  0.66666667  0.00000000
   0.16666667  0.16666667  0.05992432
   0.16666667  0.50000000  0.05992432
   0.16666667  0.83333333  0.05992432
   0.50000000  0.16666667  0.05992432
   0.50000000  0.50000000  0.05992432
   0.50000000  0.83333333  0.05992432
   0.83333333  0.16666667  0.05992432
   0.83333333  0.50000000  0.05992432
   0.83333333  0.83333333  0.05992432
  -0.00000000 -0.00000000  0.11903528
  -0.00000000  0.33333333  0.11903528
  -0.00000000  0.66666667  0.11903528
   0.33333333 -0.00000000  0.11903528
   0.33333333  0.33333333  0.11903528
   0.33333333  0.66666667  0.11903528
   0.66666667 -0.00000000  0.11903528
   0.66666667  0.33333333  0.11903528
   0.66666667  0.66666667  0.11903528
   0.16666667  0.16666667  0.17716744
   0.16666667  0.50000000  0.17716744
   0.16666667  0.83333333  0.17716744
   0.50000000  0.16666667  0.17716744
   0.50000000  0.50000000  0.17716744
   0.50000000  0.83333333  0.17716744
   0.83333333  0.16666667  0.17716744
   0.83333333  0.50000000  0.17716744
   0.83333333  0.83333333  0.17716744
  -0.00000000 -0.00000000  0.23881081
   0.00000000  0.33333333  0.23881081
  -0.00000000  0.66666667  0.23881081
   0.33333333  0.00000000  0.23881081
   0.33333333  0.33333333  0.23881081
   0.33333333  0.66666667  0.23881081
   0.66666667  0.00000000  0.23881081
   0.66666667  0.33333333  0.23881081
   0.66666667  0.66666667  0.23881081
   0.16666667  0.16666667  0.29211451
   0.16666667  0.50000000  0.29211451
   0.16666667  0.83333333  0.29211451
   0.50000000  0.16666667  0.29211451
   0.50000000  0.50000000  0.29211451
   0.50000000  0.83333333  0.29211451
   0.83333333  0.16666667  0.29211451
   0.83333333  0.50000000  0.29211451
   0.83333333  0.83333333  0.29211451
Direct configuration=    10
   0.00000000  0.00000000  0.00000000
   0.00000000  0.33333333  0.00000000
   0.00000000  0.66666667  0.00000000
   0.33333333  0.00000000  0.00000000
   0.33333333  0.33333333  0.00000000
   0.33333333  0.66666667  0.00000000
   0.66666667  0.00000000  0.00000000
   0.66666667  0.33333333  0.00000000
   0.66666667  0.66666667  0.00000000
   0.16666667  0.16666667  0.05992432
   0.16666667  0.50000000  0.05992432
   0.16666667  0.83333333  0.05992432
   0.50000000  0.16666667  0.05992432
   0.50000000  0.50000000  0.05992432
   0.50000000  0.83333333  0.05992432
   0.83333333  0.16666667  0.05992432
   0.83333333  0.50000000  0.05992432
   0.83333333  0.83333333  0.05992432
  -0.00000000 -0.00000000  0.11885351
  -0.00000000  0.33333333  0.11885351
  -0.00000000  0.66666667  0.11885351
   0.33333333 -0.00000000  0.11885351
   0.33333333  0.33333333  0.11885351
   0.33333333  0.66666667  0.11885351
   0.66666667 -0.00000000  0.11885351
   0.66666667  0.33333333  0.11885351
   0.66666667  0.66666667  0.11885351
   0.16666667  0.16666667  0.17653172
   0.16666667  0.50000000  0.17653172
   0.16666667  0.83333333  0.17653172
   0.50000000  0.16666667  0.17653172
   0.50000000  0.50000000  0.17653172
   0.50000000  0.83333333  0.17653172
   0.83333333  0.16666667  0.17653172
   0.83333333  0.50000000  0.17653172
   0.83333333  0.83333333  0.17653172
  -0.00000000 -0.00000000  0.23845536
   0.00000000  0.33333333  0.23845536
  -0.00000000  0.66666667  0.23845536
   0.33333333  0.00000000  0.23845536
   0.33333333  0.33333333  0.23845536
   0.33333333  0.66666667  0.23845536
   0.66666667  0.00000000  0.23845536
   0.66666667  0.33333333  0.23845536
   0.66666667  0.66666667  0.23845536
   0.16666667  0.16666667  0.29183992
   0.16666667  0.50000000  0.29183992
   0.16666667  0.83333333  0.29183992
   0.50000000  0.16666667  0.29183992
   0.50000000  0.50000000  0.29183992
   0.50000000  0.83333333  0.29183992
   0.83333333  0.16666667  0.29183992
   0.83333333  0.50000000  0.29183992
   0.83333333  0.83333333  0.29183992
