       N       E                     dE             d eps       ncg     rms          rms(c)
DAV:   1     0.156350947753E+05    0.15635E+05   -0.56226E+05 12336   0.190E+03
DAV:   2     0.231432375378E+04   -0.13321E+05   -0.12745E+05 12336   0.453E+02
DAV:   3    -0.368181608115E+03   -0.26825E+04   -0.24285E+04 12344   0.233E+02
DAV:   4    -0.611627751079E+03   -0.24345E+03   -0.22607E+03 14456   0.953E+01
DAV:   5    -0.621920175219E+03   -0.10292E+02   -0.10162E+02 15872   0.174E+01    0.113E+02
