  10  10   0   0
  0.1692928E+02  0.2566798E-09  0.2566798E-09  0.2967047E-08  0.5000000E-15
  1.000000000000000E-004
  CAR 
 unknown system                          
     18.23167901     -8.82117305  301      2.02035117      1.00000000
     -8.821  0.0000E+00  0.0000E+00  0.0000E+00  0.0000E+00
     -8.731  0.0000E+00  0.0000E+00  0.0000E+00  0.0000E+00
     -8.641  0.0000E+00  0.0000E+00  0.0000E+00  0.0000E+00
     -8.551  0.0000E+00  0.0000E+00  0.0000E+00  0.0000E+00
     -8.460 -0.2370E-31 -0.2370E-31 -0.2137E-32 -0.2137E-32
     -8.370 -0.2961E-28 -0.2961E-28 -0.2673E-29 -0.2673E-29
     -8.280 -0.2457E-25 -0.2457E-25 -0.2218E-26 -0.2218E-26
     -8.190 -0.1352E-22 -0.1352E-22 -0.1221E-23 -0.1221E-23
     -8.100 -0.4931E-20 -0.4931E-20 -0.4459E-21 -0.4459E-21
     -8.010 -0.1191E-17 -0.1191E-17 -0.1079E-18 -0.1079E-18
     -7.919 -0.1841E-15 -0.1841E-15 -0.1671E-16 -0.1671E-16
     -7.829 -0.1932E-13 -0.1932E-13 -0.1759E-14 -0.1759E-14
     -7.739 -0.1334E-11 -0.1334E-11 -0.1221E-12 -0.1221E-12
     -7.649 -0.6045E-10 -0.6045E-10 -0.5573E-11 -0.5573E-11
     -7.559 -0.1787E-08 -0.1786E-08 -0.1667E-09 -0.1667E-09
     -7.469 -0.3416E-07 -0.3416E-07 -0.3247E-08 -0.3247E-08
     -7.378 -0.4167E-06 -0.4167E-06 -0.4083E-07 -0.4083E-07
     -7.288 -0.3157E-05 -0.3157E-05 -0.3255E-06 -0.3255E-06
     -7.198 -0.1397E-04 -0.1397E-04 -0.1585E-05 -0.1585E-05
     -7.108 -0.2940E-04 -0.2940E-04 -0.4236E-05 -0.4236E-05
     -7.018  0.1107E-04  0.1107E-04 -0.3239E-05 -0.3239E-05
     -6.927  0.2084E-03  0.2084E-03  0.1555E-04  0.1555E-04
     -6.837  0.4827E-03  0.4827E-03  0.5908E-04  0.5908E-04
     -6.747  0.5277E-03  0.5277E-03  0.1067E-03  0.1067E-03
     -6.657  0.2966E-03  0.2966E-03  0.1334E-03  0.1334E-03
     -6.567  0.1739E-03  0.1739E-03  0.1491E-03  0.1491E-03
     -6.477  0.3634E-03  0.3634E-03  0.1819E-03  0.1819E-03
     -6.386  0.5446E-03  0.5446E-03  0.2310E-03  0.2310E-03
     -6.296  0.4007E-03  0.4007E-03  0.2671E-03  0.2671E-03
     -6.206  0.1142E-03  0.1142E-03  0.2774E-03  0.2774E-03
     -6.116  0.5121E-04  0.5121E-04  0.2820E-03  0.2820E-03
     -6.026  0.2870E-03  0.2870E-03  0.3079E-03  0.3079E-03
     -5.936  0.5284E-03  0.5284E-03  0.3556E-03  0.3556E-03
     -5.845  0.4579E-03  0.4579E-03  0.3968E-03  0.3968E-03
     -5.755  0.2261E-03  0.2261E-03  0.4172E-03  0.4172E-03
     -5.665  0.2388E-03  0.2388E-03  0.4388E-03  0.4388E-03
     -5.575  0.4758E-03  0.4758E-03  0.4817E-03  0.4817E-03
     -5.485  0.5305E-03  0.5305E-03  0.5295E-03  0.5295E-03
     -5.394  0.2921E-03  0.2921E-03  0.5559E-03  0.5559E-03
     -5.304  0.4948E-04  0.4948E-04  0.5603E-03  0.5603E-03
     -5.214 -0.3221E-04 -0.3221E-04  0.5574E-03  0.5574E-03
     -5.124 -0.3532E-04 -0.3532E-04  0.5542E-03  0.5542E-03
     -5.034 -0.3473E-04 -0.3473E-04  0.5511E-03  0.5511E-03
     -4.944  0.2623E-04  0.2623E-04  0.5535E-03  0.5535E-03
     -4.853  0.2477E-03  0.2477E-03  0.5758E-03  0.5758E-03
     -4.763  0.5183E-03  0.5183E-03  0.6225E-03  0.6225E-03
     -4.673  0.5344E-03  0.5344E-03  0.6707E-03  0.6707E-03
     -4.583  0.2753E-03  0.2753E-03  0.6955E-03  0.6955E-03
     -4.493  0.3986E-04  0.3986E-04  0.6991E-03  0.6991E-03
     -4.403 -0.3169E-04 -0.3169E-04  0.6963E-03  0.6963E-03
     -4.312 -0.3903E-04 -0.3903E-04  0.6928E-03  0.6928E-03
     -4.222 -0.1044E-03 -0.1044E-03  0.6833E-03  0.6833E-03
     -4.132 -0.2473E-03 -0.2473E-03  0.6610E-03  0.6610E-03
     -4.042 -0.9460E-04 -0.9460E-04  0.6525E-03  0.6525E-03
     -3.952  0.1232E-02  0.1232E-02  0.7636E-03  0.7636E-03
     -3.861  0.3868E-02  0.3868E-02  0.1112E-02  0.1112E-02
     -3.771  0.5959E-02  0.5959E-02  0.1650E-02  0.1650E-02
     -3.681  0.5555E-02  0.5555E-02  0.2151E-02  0.2151E-02
     -3.591  0.3588E-02  0.3588E-02  0.2474E-02  0.2474E-02
     -3.501  0.2706E-02  0.2706E-02  0.2718E-02  0.2718E-02
     -3.411  0.3072E-02  0.3072E-02  0.2995E-02  0.2995E-02
     -3.320  0.2530E-02  0.2530E-02  0.3223E-02  0.3223E-02
     -3.230  0.1119E-02  0.1119E-02  0.3324E-02  0.3324E-02
     -3.140  0.1137E-02  0.1137E-02  0.3427E-02  0.3427E-02
     -3.050  0.2894E-02  0.2894E-02  0.3688E-02  0.3688E-02
     -2.960  0.3794E-02  0.3794E-02  0.4030E-02  0.4030E-02
     -2.870  0.2376E-02  0.2376E-02  0.4244E-02  0.4244E-02
     -2.779  0.7340E-03  0.7340E-03  0.4310E-02  0.4310E-02
     -2.689  0.1324E-02  0.1324E-02  0.4430E-02  0.4430E-02
     -2.599  0.3508E-02  0.3508E-02  0.4746E-02  0.4746E-02
     -2.509  0.4515E-02  0.4515E-02  0.5153E-02  0.5153E-02
     -2.419  0.3508E-02  0.3508E-02  0.5470E-02  0.5470E-02
     -2.328  0.2597E-02  0.2597E-02  0.5704E-02  0.5704E-02
     -2.238  0.3006E-02  0.3006E-02  0.5975E-02  0.5975E-02
     -2.148  0.3234E-02  0.3234E-02  0.6267E-02  0.6267E-02
     -2.058  0.2238E-02  0.2238E-02  0.6468E-02  0.6468E-02
     -1.968  0.1586E-02  0.1586E-02  0.6611E-02  0.6611E-02
     -1.878  0.2444E-02  0.2444E-02  0.6832E-02  0.6832E-02
     -1.787  0.4315E-02  0.4315E-02  0.7221E-02  0.7221E-02
     -1.697  0.7764E-02  0.7764E-02  0.7921E-02  0.7921E-02
     -1.607  0.1325E-01  0.1325E-01  0.9116E-02  0.9116E-02
     -1.517  0.1802E-01  0.1802E-01  0.1074E-01  0.1074E-01
     -1.427  0.1812E-01  0.1812E-01  0.1237E-01  0.1237E-01
     -1.337  0.1359E-01  0.1359E-01  0.1360E-01  0.1360E-01
     -1.246  0.9135E-02  0.9135E-02  0.1442E-01  0.1442E-01
     -1.156  0.7651E-02  0.7651E-02  0.1511E-01  0.1511E-01
     -1.066  0.7341E-02  0.7341E-02  0.1578E-01  0.1578E-01
     -0.976  0.6492E-02  0.6492E-02  0.1636E-01  0.1636E-01
     -0.886  0.6239E-02  0.6239E-02  0.1692E-01  0.1692E-01
     -0.795  0.8522E-02  0.8522E-02  0.1769E-01  0.1769E-01
     -0.705  0.1261E-01  0.1261E-01  0.1883E-01  0.1883E-01
     -0.615  0.1608E-01  0.1608E-01  0.2028E-01  0.2028E-01
     -0.525  0.1902E-01  0.1902E-01  0.2199E-01  0.2199E-01
     -0.435  0.2167E-01  0.2167E-01  0.2395E-01  0.2395E-01
     -0.345  0.2119E-01  0.2119E-01  0.2586E-01  0.2586E-01
     -0.254  0.1675E-01  0.1675E-01  0.2737E-01  0.2737E-01
     -0.164  0.1202E-01  0.1202E-01  0.2845E-01  0.2845E-01
     -0.074  0.9924E-02  0.9924E-02  0.2935E-01  0.2935E-01
      0.016  0.1062E-01  0.1062E-01  0.3031E-01  0.3031E-01
      0.106  0.1319E-01  0.1319E-01  0.3150E-01  0.3150E-01
      0.196  0.1611E-01  0.1611E-01  0.3295E-01  0.3295E-01
      0.287  0.1831E-01  0.1831E-01  0.3460E-01  0.3460E-01
      0.377  0.1913E-01  0.1913E-01  0.3632E-01  0.3632E-01
      0.467  0.1941E-01  0.1941E-01  0.3807E-01  0.3807E-01
      0.557  0.2152E-01  0.2152E-01  0.4002E-01  0.4002E-01
      0.647  0.2533E-01  0.2533E-01  0.4230E-01  0.4230E-01
      0.738  0.2778E-01  0.2778E-01  0.4480E-01  0.4480E-01
      0.828  0.2631E-01  0.2631E-01  0.4718E-01  0.4718E-01
      0.918  0.2151E-01  0.2151E-01  0.4912E-01  0.4912E-01
      1.008  0.1746E-01  0.1746E-01  0.5069E-01  0.5069E-01
      1.098  0.1692E-01  0.1692E-01  0.5222E-01  0.5222E-01
      1.188  0.1664E-01  0.1664E-01  0.5372E-01  0.5372E-01
      1.279  0.1272E-01  0.1272E-01  0.5486E-01  0.5486E-01
      1.369  0.6597E-02  0.6597E-02  0.5546E-01  0.5546E-01
      1.459  0.1877E-02  0.1877E-02  0.5563E-01  0.5563E-01
      1.549 -0.2046E-03 -0.2046E-03  0.5561E-01  0.5561E-01
      1.639 -0.5853E-03 -0.5853E-03  0.5556E-01  0.5556E-01
      1.729 -0.2690E-03 -0.2690E-03  0.5553E-01  0.5553E-01
      1.820  0.8243E-03  0.8243E-03  0.5561E-01  0.5561E-01
      1.910  0.2660E-02  0.2660E-02  0.5585E-01  0.5585E-01
      2.000  0.3704E-02  0.3704E-02  0.5618E-01  0.5618E-01
      2.090  0.2807E-02  0.2807E-02  0.5643E-01  0.5643E-01
      2.180  0.1153E-02  0.1153E-02  0.5654E-01  0.5654E-01
      2.270  0.3388E-03  0.3388E-03  0.5657E-01  0.5657E-01
      2.361  0.3809E-03  0.3809E-03  0.5660E-01  0.5660E-01
      2.451  0.4615E-03  0.4615E-03  0.5664E-01  0.5664E-01
      2.541  0.2560E-03  0.2560E-03  0.5667E-01  0.5667E-01
      2.631 -0.1089E-05 -0.1088E-05  0.5667E-01  0.5667E-01
      2.721 -0.1659E-03 -0.1659E-03  0.5665E-01  0.5665E-01
      2.812 -0.1585E-03 -0.1585E-03  0.5664E-01  0.5664E-01
      2.902  0.5182E-03  0.5182E-03  0.5668E-01  0.5668E-01
      2.992  0.2136E-02  0.2136E-02  0.5688E-01  0.5688E-01
      3.082  0.3391E-02  0.3391E-02  0.5718E-01  0.5718E-01
      3.172  0.2751E-02  0.2751E-02  0.5743E-01  0.5743E-01
      3.262  0.1035E-02  0.1035E-02  0.5752E-01  0.5752E-01
      3.353 -0.1195E-04 -0.1195E-04  0.5752E-01  0.5752E-01
      3.443 -0.1699E-03 -0.1699E-03  0.5751E-01  0.5751E-01
      3.533 -0.7081E-04 -0.7081E-04  0.5750E-01  0.5750E-01
      3.623 -0.1477E-04 -0.1477E-04  0.5750E-01  0.5750E-01
      3.713 -0.1863E-05 -0.1863E-05  0.5750E-01  0.5750E-01
      3.803 -0.8037E-06 -0.8037E-06  0.5750E-01  0.5750E-01
      3.894 -0.6579E-05 -0.6579E-05  0.5750E-01  0.5750E-01
      3.984 -0.3960E-04 -0.3960E-04  0.5750E-01  0.5750E-01
      4.074 -0.1316E-03 -0.1316E-03  0.5748E-01  0.5748E-01
      4.164 -0.1491E-03 -0.1491E-03  0.5747E-01  0.5747E-01
      4.254  0.4664E-03  0.4664E-03  0.5751E-01  0.5751E-01
      4.345  0.2050E-02  0.2050E-02  0.5770E-01  0.5770E-01
      4.435  0.3369E-02  0.3369E-02  0.5800E-01  0.5800E-01
      4.525  0.2823E-02  0.2823E-02  0.5826E-01  0.5826E-01
      4.615  0.1112E-02  0.1112E-02  0.5836E-01  0.5836E-01
      4.705  0.1377E-04  0.1377E-04  0.5836E-01  0.5836E-01
      4.795 -0.1727E-03 -0.1727E-03  0.5834E-01  0.5834E-01
      4.886 -0.7524E-04 -0.7524E-04  0.5833E-01  0.5833E-01
      4.976 -0.1614E-04 -0.1614E-04  0.5833E-01  0.5833E-01
      5.066 -0.2183E-05 -0.2183E-05  0.5833E-01  0.5833E-01
      5.156 -0.2028E-05 -0.2028E-05  0.5833E-01  0.5833E-01
      5.246 -0.1515E-04 -0.1515E-04  0.5833E-01  0.5833E-01
      5.336 -0.7420E-04 -0.7420E-04  0.5833E-01  0.5833E-01
      5.427 -0.1968E-03 -0.1968E-03  0.5831E-01  0.5831E-01
      5.517 -0.1449E-03 -0.1449E-03  0.5829E-01  0.5829E-01
      5.607  0.7144E-03  0.7144E-03  0.5836E-01  0.5836E-01
      5.697  0.2742E-02  0.2742E-02  0.5861E-01  0.5861E-01
      5.787  0.5350E-02  0.5350E-02  0.5909E-01  0.5909E-01
      5.878  0.7192E-02  0.7192E-02  0.5974E-01  0.5974E-01
      5.968  0.6652E-02  0.6652E-02  0.6034E-01  0.6034E-01
      6.058  0.3961E-02  0.3962E-02  0.6069E-01  0.6069E-01
      6.148  0.1847E-02  0.1847E-02  0.6086E-01  0.6086E-01
      6.238  0.1541E-02  0.1541E-02  0.6100E-01  0.6100E-01
      6.328  0.1594E-02  0.1594E-02  0.6114E-01  0.6114E-01
      6.419  0.1094E-02  0.1094E-02  0.6124E-01  0.6124E-01
      6.509  0.5968E-03  0.5964E-03  0.6130E-01  0.6130E-01
      6.599  0.4335E-03  0.4334E-03  0.6133E-01  0.6133E-01
      6.689  0.3308E-03  0.3311E-03  0.6136E-01  0.6136E-01
      6.779  0.3668E-03  0.3672E-03  0.6140E-01  0.6140E-01
      6.869  0.8825E-03  0.8826E-03  0.6148E-01  0.6148E-01
      6.960  0.1977E-02  0.1977E-02  0.6166E-01  0.6166E-01
      7.050  0.3492E-02  0.3492E-02  0.6197E-01  0.6197E-01
      7.140  0.4424E-02  0.4424E-02  0.6237E-01  0.6237E-01
      7.230  0.3606E-02  0.3606E-02  0.6269E-01  0.6269E-01
      7.320  0.1739E-02  0.1739E-02  0.6285E-01  0.6285E-01
      7.411  0.4870E-03  0.4872E-03  0.6290E-01  0.6290E-01
      7.501  0.5531E-03  0.5536E-03  0.6295E-01  0.6295E-01
      7.591  0.1717E-02  0.1717E-02  0.6310E-01  0.6310E-01
      7.681  0.2847E-02  0.2847E-02  0.6336E-01  0.6336E-01
      7.771  0.2677E-02  0.2677E-02  0.6360E-01  0.6360E-01
      7.861  0.1390E-02  0.1390E-02  0.6372E-01  0.6372E-01
      7.952  0.2646E-03  0.2646E-03  0.6375E-01  0.6375E-01
      8.042  0.2545E-03  0.2545E-03  0.6377E-01  0.6377E-01
      8.132  0.1301E-02  0.1301E-02  0.6389E-01  0.6389E-01
      8.222  0.2322E-02  0.2322E-02  0.6410E-01  0.6410E-01
      8.312  0.2624E-02  0.2624E-02  0.6433E-01  0.6433E-01
      8.402  0.2964E-02  0.2964E-02  0.6460E-01  0.6460E-01
      8.493  0.3450E-02  0.3450E-02  0.6491E-01  0.6491E-01
      8.583  0.2901E-02  0.2902E-02  0.6517E-01  0.6517E-01
      8.673  0.1693E-02  0.1693E-02  0.6533E-01  0.6533E-01
      8.763  0.1253E-02  0.1253E-02  0.6544E-01  0.6544E-01
      8.853  0.1557E-02  0.1557E-02  0.6558E-01  0.6558E-01
      8.944  0.2319E-02  0.2319E-02  0.6579E-01  0.6579E-01
      9.034  0.3494E-02  0.3494E-02  0.6610E-01  0.6610E-01
      9.124  0.3824E-02  0.3824E-02  0.6645E-01  0.6645E-01
      9.214  0.2825E-02  0.2825E-02  0.6670E-01  0.6670E-01
      9.304  0.2493E-02  0.2492E-02  0.6693E-01  0.6693E-01
      9.394  0.3710E-02  0.3710E-02  0.6726E-01  0.6726E-01
      9.485  0.4156E-02  0.4156E-02  0.6764E-01  0.6764E-01
      9.575  0.2796E-02  0.2796E-02  0.6789E-01  0.6789E-01
      9.665  0.2056E-02  0.2055E-02  0.6808E-01  0.6808E-01
      9.755  0.2835E-02  0.2834E-02  0.6833E-01  0.6833E-01
      9.845  0.2870E-02  0.2871E-02  0.6859E-01  0.6859E-01
      9.935  0.1565E-02  0.1565E-02  0.6873E-01  0.6873E-01
     10.026  0.1158E-02  0.1156E-02  0.6884E-01  0.6884E-01
     10.116  0.2395E-02  0.2393E-02  0.6905E-01  0.6905E-01
     10.206  0.3143E-02  0.3144E-02  0.6933E-01  0.6933E-01
     10.296  0.2321E-02  0.2323E-02  0.6954E-01  0.6954E-01
     10.386  0.1878E-02  0.1879E-02  0.6971E-01  0.6971E-01
     10.477  0.3137E-02  0.3135E-02  0.7000E-01  0.7000E-01
     10.567  0.4323E-02  0.4322E-02  0.7039E-01  0.7039E-01
     10.657  0.3446E-02  0.3447E-02  0.7070E-01  0.7070E-01
     10.747  0.1491E-02  0.1492E-02  0.7083E-01  0.7083E-01
     10.837  0.9835E-03  0.9832E-03  0.7092E-01  0.7092E-01
     10.927  0.2664E-02  0.2663E-02  0.7116E-01  0.7116E-01
     11.018  0.4520E-02  0.4520E-02  0.7157E-01  0.7157E-01
     11.108  0.4081E-02  0.4082E-02  0.7194E-01  0.7194E-01
     11.198  0.1784E-02  0.1785E-02  0.7210E-01  0.7210E-01
     11.288 -0.2425E-04 -0.2382E-04  0.7209E-01  0.7209E-01
     11.378 -0.3614E-03 -0.3615E-03  0.7206E-01  0.7206E-01
     11.468  0.6632E-03  0.6629E-03  0.7212E-01  0.7212E-01
     11.559  0.2759E-02  0.2759E-02  0.7237E-01  0.7237E-01
     11.649  0.4760E-02  0.4759E-02  0.7280E-01  0.7280E-01
     11.739  0.5213E-02  0.5213E-02  0.7327E-01  0.7327E-01
     11.829  0.3744E-02  0.3745E-02  0.7361E-01  0.7361E-01
     11.919  0.1477E-02  0.1478E-02  0.7374E-01  0.7374E-01
     12.010  0.3833E-03  0.3831E-03  0.7378E-01  0.7378E-01
     12.100  0.1388E-02  0.1387E-02  0.7390E-01  0.7390E-01
     12.190  0.3056E-02  0.3055E-02  0.7418E-01  0.7418E-01
     12.280  0.3108E-02  0.3108E-02  0.7446E-01  0.7446E-01
     12.370  0.1530E-02  0.1532E-02  0.7459E-01  0.7459E-01
     12.460  0.1838E-03  0.1845E-03  0.7461E-01  0.7461E-01
     12.551 -0.1767E-03 -0.1767E-03  0.7459E-01  0.7459E-01
     12.641 -0.1002E-03 -0.1003E-03  0.7459E-01  0.7459E-01
     12.731 -0.2514E-04 -0.2517E-04  0.7458E-01  0.7458E-01
     12.821 -0.5303E-05 -0.5307E-05  0.7458E-01  0.7458E-01
     12.911 -0.1101E-04 -0.1100E-04  0.7458E-01  0.7458E-01
     13.001 -0.3743E-04 -0.3740E-04  0.7458E-01  0.7458E-01
     13.092 -0.5097E-04 -0.5099E-04  0.7457E-01  0.7457E-01
     13.182  0.1066E-03  0.1064E-03  0.7458E-01  0.7458E-01
     13.272  0.5768E-03  0.5763E-03  0.7464E-01  0.7464E-01
     13.362  0.1057E-02  0.1057E-02  0.7473E-01  0.7473E-01
     13.452  0.1001E-02  0.1001E-02  0.7482E-01  0.7482E-01
     13.543  0.4787E-03  0.4791E-03  0.7486E-01  0.7486E-01
     13.633  0.5748E-04  0.5771E-04  0.7487E-01  0.7487E-01
     13.723 -0.5466E-04 -0.5465E-04  0.7486E-01  0.7486E-01
     13.813 -0.3161E-04 -0.3164E-04  0.7486E-01  0.7486E-01
     13.903 -0.8099E-05 -0.8111E-05  0.7486E-01  0.7486E-01
     13.993 -0.1202E-05 -0.1204E-05  0.7486E-01  0.7486E-01
     14.084 -0.1109E-06 -0.1112E-06  0.7486E-01  0.7486E-01
     14.174 -0.6554E-08 -0.6573E-08  0.7486E-01  0.7486E-01
     14.264 -0.2516E-09 -0.2525E-09  0.7486E-01  0.7486E-01
     14.354 -0.6326E-11 -0.6351E-11  0.7486E-01  0.7486E-01
     14.444 -0.1047E-12 -0.1051E-12  0.7486E-01  0.7486E-01
     14.534 -0.1144E-14 -0.1149E-14  0.7486E-01  0.7486E-01
     14.625 -0.8208E-17 -0.8208E-17  0.7486E-01  0.7486E-01
     14.715 -0.3451E-27 -0.3434E-27  0.7486E-01  0.7486E-01
     14.805 -0.2472E-24 -0.2460E-24  0.7486E-01  0.7486E-01
     14.895 -0.1174E-21 -0.1169E-21  0.7486E-01  0.7486E-01
     14.985 -0.3694E-19 -0.3679E-19  0.7486E-01  0.7486E-01
     15.076 -0.7439E-17 -0.7410E-17  0.7486E-01  0.7486E-01
     15.166 -0.1024E-14 -0.1020E-14  0.7486E-01  0.7486E-01
     15.256 -0.9249E-13 -0.9220E-13  0.7486E-01  0.7486E-01
     15.346 -0.5494E-11 -0.5479E-11  0.7486E-01  0.7486E-01
     15.436 -0.2137E-09 -0.2132E-09  0.7486E-01  0.7486E-01
     15.526 -0.5410E-08 -0.5398E-08  0.7486E-01  0.7486E-01
     15.617 -0.8825E-07 -0.8808E-07  0.7486E-01  0.7486E-01
     15.707 -0.9114E-06 -0.9100E-06  0.7486E-01  0.7486E-01
     15.797 -0.5753E-05 -0.5746E-05  0.7486E-01  0.7486E-01
     15.887 -0.2031E-04 -0.2030E-04  0.7486E-01  0.7486E-01
     15.977 -0.2705E-04 -0.2707E-04  0.7486E-01  0.7486E-01
     16.067  0.6154E-04  0.6141E-04  0.7486E-01  0.7486E-01
     16.158  0.3151E-03  0.3149E-03  0.7489E-01  0.7489E-01
     16.248  0.5527E-03  0.5526E-03  0.7494E-01  0.7494E-01
     16.338  0.4910E-03  0.4912E-03  0.7498E-01  0.7498E-01
     16.428  0.2097E-03  0.2099E-03  0.7500E-01  0.7500E-01
     16.518  0.1116E-04  0.1123E-04  0.7500E-01  0.7500E-01
     16.609 -0.2939E-04 -0.2939E-04  0.7500E-01  0.7500E-01
     16.699 -0.1396E-04 -0.1397E-04  0.7500E-01  0.7500E-01
     16.789 -0.3153E-05 -0.3157E-05  0.7500E-01  0.7500E-01
     16.879 -0.4161E-06 -0.4167E-06  0.7500E-01  0.7500E-01
     16.969 -0.3409E-07 -0.3416E-07  0.7500E-01  0.7500E-01
     17.059 -0.1782E-08 -0.1787E-08  0.7500E-01  0.7500E-01
     17.150 -0.6029E-10 -0.6045E-10  0.7500E-01  0.7500E-01
     17.240 -0.1331E-11 -0.1334E-11  0.7500E-01  0.7500E-01
     17.330 -0.1926E-13 -0.1932E-13  0.7500E-01  0.7500E-01
     17.420 -0.1836E-15 -0.1843E-15  0.7500E-01  0.7500E-01
     17.510 -0.1026E-17 -0.1026E-17  0.7500E-01  0.7500E-01
     17.600  0.0000E+00  0.0000E+00  0.7500E-01  0.7500E-01
     17.691  0.0000E+00  0.0000E+00  0.7500E-01  0.7500E-01
     17.781  0.0000E+00  0.0000E+00  0.7500E-01  0.7500E-01
     17.871  0.0000E+00  0.0000E+00  0.7500E-01  0.7500E-01
     17.961  0.0000E+00  0.0000E+00  0.7500E-01  0.7500E-01
     18.051  0.0000E+00  0.0000E+00  0.7500E-01  0.7500E-01
     18.142  0.0000E+00  0.0000E+00  0.7500E-01  0.7500E-01
     18.232  0.0000E+00  0.0000E+00  0.7500E-01  0.7500E-01
