   10   10  800    2
  0.1692928E+02  0.2566798E-09  0.2566798E-09  0.2967047E-08  0.5000000E-15
  1.000000000000000E-004
  CAR 
 unknown system                          
     90      3     60
 
  0.0000000E+00  0.0000000E+00  0.0000000E+00  0.1111111E+00
      1         -6.821173       -6.821173   1.000000   1.000000
      2         -6.425802       -6.425802   1.000000   1.000000
      3         -5.952388       -5.952388   1.000000   1.000000
      4         -5.564603       -5.564603   1.000000   1.000000
      5         -4.759042       -4.759042   1.000000   1.000000
      6         -3.818675       -3.818674   1.000000   1.000000
      7         -3.014975       -3.014975   1.000000   1.000000
      8         -2.581773       -2.581773   1.000000   1.000000
      9         -2.517039       -2.517039   1.000000   1.000000
     10         -0.641959       -0.641959   1.000000   1.000000
     11         -0.623646       -0.623646   1.000000   1.000000
     12         -0.538216       -0.538216   1.000000   1.000000
     13         -0.538214       -0.538214   1.000000   1.000000
     14         -0.525962       -0.525962   1.000000   1.000000
     15         -0.525959       -0.525959   1.000000   1.000000
     16         -0.467874       -0.467874   1.000000   1.000000
     17         -0.452939       -0.452939   1.000000   1.000000
     18         -0.452936       -0.452936   1.000000   1.000000
     19         -0.432306       -0.432306   1.000000   1.000000
     20         -0.432304       -0.432304   1.000000   1.000000
     21         -0.380847       -0.380847   1.000000   1.000000
     22         -0.349917       -0.349917   1.000000   1.000000
     23         -0.349913       -0.349913   1.000000   1.000000
     24         -0.323378       -0.323378   1.000000   1.000000
     25         -0.323374       -0.323374   1.000000   1.000000
     26         -0.157902       -0.157902   1.000000   1.000000
     27          0.067176        0.067176   1.000000   1.000000
     28          0.069588        0.069588   1.000000   1.000000
     29          0.069591        0.069591   1.000000   1.000000
     30          0.134126        0.134126   1.000000   1.000000
     31          0.134128        0.134128   1.000000   1.000000
     32          0.327842        0.327842   1.000000   1.000000
     33          0.327843        0.327844   1.000000   1.000000
     34          0.333555        0.333555   1.000000   1.000000
     35          0.333557        0.333557   1.000000   1.000000
     36          0.462086        0.462086   1.000000   1.000000
     37          0.462088        0.462088   1.000000   1.000000
     38          0.588759        0.588759   1.000000   1.000000
     39          0.588761        0.588761   1.000000   1.000000
     40          0.690470        0.690470   1.000000   1.000000
     41          0.690471        0.690471   1.000000   1.000000
     42          0.770677        0.770677   1.000000   1.000000
     43          0.853506        0.853506   1.000000   1.000000
     44          0.853506        0.853506   1.000000   1.000000
     45          1.087379        1.087379   1.000000   1.000000
     46          1.087380        1.087380   1.000000   1.000000
     47          1.176939        1.176939   1.000000   1.000000
     48          1.176940        1.176940   1.000000   1.000000
     49          2.077708        2.077709   0.268015   0.268012
     50          2.368281        2.368282  -0.016854  -0.016854
     51          5.870961        5.871023  -0.000000  -0.000000
     52          6.571220        6.571358  -0.000000  -0.000000
     53          7.333226        7.333366  -0.000000  -0.000000
     54          8.313871        8.313937   0.000000   0.000000
     55          8.812424        8.812543   0.000000   0.000000
     56         10.615761       10.615825   0.000000   0.000000
     57         10.855372       10.855469   0.000000   0.000000
     58         13.329530       13.329590   0.000000   0.000000
     59         13.379180       13.379272   0.000000   0.000000
     60         16.231613       16.231679   0.000000   0.000000
 
  0.3333333E+00  0.5551115E-16  0.0000000E+00  0.6666667E+00
      1         -3.844204       -3.844203   1.000000   1.000000
      2         -3.712166       -3.712166   1.000000   1.000000
      3         -3.427566       -3.427566   1.000000   1.000000
      4         -3.015753       -3.015753   1.000000   1.000000
      5         -2.584266       -2.584266   1.000000   1.000000
      6         -2.197818       -2.197818   1.000000   1.000000
      7         -1.868607       -1.868607   1.000000   1.000000
      8         -1.689290       -1.689290   1.000000   1.000000
      9         -1.617162       -1.617162   1.000000   1.000000
     10         -1.516929       -1.516929   1.000000   1.000000
     11         -1.448696       -1.448696   1.000000   1.000000
     12         -1.228941       -1.228941   1.000000   1.000000
     13         -1.037194       -1.037194   1.000000   1.000000
     14         -0.887527       -0.887527   1.000000   1.000000
     15         -0.716762       -0.716762   1.000000   1.000000
     16         -0.700810       -0.700810   1.000000   1.000000
     17         -0.569572       -0.569572   1.000000   1.000000
     18         -0.504527       -0.504527   1.000000   1.000000
     19         -0.445721       -0.445721   1.000000   1.000000
     20         -0.360246       -0.360246   1.000000   1.000000
     21         -0.355223       -0.355223   1.000000   1.000000
     22         -0.254477       -0.254477   1.000000   1.000000
     23         -0.140007       -0.140007   1.000000   1.000000
     24         -0.111886       -0.111886   1.000000   1.000000
     25          0.041077        0.041077   1.000000   1.000000
     26          0.139410        0.139410   1.000000   1.000000
     27          0.268746        0.268746   1.000000   1.000000
     28          0.343551        0.343551   1.000000   1.000000
     29          0.424447        0.424447   1.000000   1.000000
     30          0.499455        0.499455   1.000000   1.000000
     31          0.505228        0.505228   1.000000   1.000000
     32          0.582818        0.582818   1.000000   1.000000
     33          0.600891        0.600891   1.000000   1.000000
     34          0.654424        0.654424   1.000000   1.000000
     35          0.678779        0.678779   1.000000   1.000000
     36          0.734370        0.734370   1.000000   1.000000
     37          0.769753        0.769753   1.000000   1.000000
     38          0.777134        0.777134   1.000000   1.000000
     39          0.865787        0.865787   1.000000   1.000000
     40          0.895893        0.895893   1.000000   1.000000
     41          1.052523        1.052523   1.000000   1.000000
     42          1.133206        1.133206   1.000000   1.000000
     43          1.142014        1.142014   1.000000   1.000000
     44          1.201398        1.201398   1.000000   1.000000
     45          1.306519        1.306519   1.000003   1.000003
     46          1.946098        1.946099   0.791471   0.791470
     47          3.053534        3.053535  -0.000000  -0.000000
     48          4.410542        4.410543  -0.000000  -0.000000
     49          5.910582        5.910583  -0.000000  -0.000000
     50          7.129381        7.129382  -0.000000  -0.000000
     51          8.479325        8.479339   0.000000   0.000000
     52          9.041962        9.041971   0.000000   0.000000
     53          9.416423        9.416430   0.000000   0.000000
     54          9.759772        9.759837   0.000000   0.000000
     55         10.149431       10.149555   0.000000   0.000000
     56         10.543738       10.543815   0.000000   0.000000
     57         11.002306       11.002363   0.000000   0.000000
     58         11.591217       11.591233   0.000000   0.000000
     59         11.749758       11.749815   0.000000   0.000000
     60         12.188152       12.188230   0.000000   0.000000
 
 -0.3333333E+00  0.3333333E+00  0.0000000E+00  0.2222222E+00
      1         -2.387424       -2.387424   1.000000   1.000000
      2         -1.607840       -1.607840   1.000000   1.000000
      3         -1.597142       -1.597142   1.000000   1.000000
      4         -1.592846       -1.592846   1.000000   1.000000
      5         -1.534483       -1.534483   1.000000   1.000000
      6         -1.480032       -1.480032   1.000000   1.000000
      7         -1.479853       -1.479853   1.000000   1.000000
      8         -1.440022       -1.440022   1.000000   1.000000
      9         -1.431605       -1.431605   1.000000   1.000000
     10         -1.431599       -1.431599   1.000000   1.000000
     11         -1.407214       -1.407214   1.000000   1.000000
     12         -1.406124       -1.406123   1.000000   1.000000
     13         -1.242303       -1.242303   1.000000   1.000000
     14         -1.205904       -1.205904   1.000000   1.000000
     15         -1.110531       -1.110531   1.000000   1.000000
     16         -1.087077       -1.087077   1.000000   1.000000
     17         -0.766771       -0.766771   1.000000   1.000000
     18         -0.726530       -0.726530   1.000000   1.000000
     19         -0.722002       -0.722002   1.000000   1.000000
     20         -0.656210       -0.656210   1.000000   1.000000
     21         -0.466305       -0.466305   1.000000   1.000000
     22         -0.415253       -0.415253   1.000000   1.000000
     23          0.043161        0.043161   1.000000   1.000000
     24          0.095920        0.095920   1.000000   1.000000
     25          0.168997        0.168997   1.000000   1.000000
     26          0.184117        0.184118   1.000000   1.000000
     27          0.271749        0.271749   1.000000   1.000000
     28          0.275304        0.275304   1.000000   1.000000
     29          0.306443        0.306443   1.000000   1.000000
     30          0.309032        0.309032   1.000000   1.000000
     31          0.312367        0.312367   1.000000   1.000000
     32          0.608996        0.608996   1.000000   1.000000
     33          0.667251        0.667251   1.000000   1.000000
     34          0.796490        0.796490   1.000000   1.000000
     35          0.798109        0.798109   1.000000   1.000000
     36          0.832732        0.832733   1.000000   1.000000
     37          0.892002        0.892002   1.000000   1.000000
     38          0.968044        0.968044   1.000000   1.000000
     39          0.974920        0.974920   1.000000   1.000000
     40          1.005464        1.005464   1.000000   1.000000
     41          1.077206        1.077206   1.000000   1.000000
     42          5.715941        5.715941  -0.000000  -0.000000
     43          5.720297        5.720297  -0.000000  -0.000000
     44          5.744045        5.744046  -0.000000  -0.000000
     45          5.897512        5.897513  -0.000000  -0.000000
     46          5.903112        5.903112  -0.000000  -0.000000
     47          6.180273        6.180273  -0.000000  -0.000000
     48          6.296919        6.296920  -0.000000  -0.000000
     49          6.890665        6.890665  -0.000000  -0.000000
     50          7.038726        7.038726  -0.000000  -0.000000
     51          7.634662        7.634662   0.000000   0.000000
     52          7.636236        7.636236   0.000000   0.000000
     53          7.757171        7.757171   0.000000   0.000000
     54          8.181929        8.181929   0.000000   0.000000
     55          8.196080        8.196080   0.000000   0.000000
     56          8.776848        8.776849   0.000000   0.000000
     57          9.159300        9.159300   0.000000   0.000000
     58          9.422700        9.422701   0.000000   0.000000
     59         10.424741       10.424742   0.000000   0.000000
     60         11.030645       11.030645   0.000000   0.000000
