 vasp.6.3.2 27Jun22 (build Aug 17 2022 15:43:34) complex                        
  
 executed on           tv2STDVTST date 2025.02.04  14:22:02
 running   20 mpi-ranks, with    1 threads/rank
 distrk:  each k-point on   20 cores,    1 groups
 distr:  one band on NCORE=   5 cores,    4 groups


--------------------------------------------------------------------------------------------------------


 -----------------------------------------------------------------------------
|                                                                             |
|           W    W    AA    RRRRR   N    N  II  N    N   GGGG   !!!           |
|           W    W   A  A   R    R  NN   N  II  NN   N  G    G  !!!           |
|           W    W  A    A  R    R  N N  N  II  N N  N  G       !!!           |
|           W WW W  AAAAAA  RRRRR   N  N N  II  N  N N  G  GGG   !            |
|           WW  WW  A    A  R   R   N   NN  II  N   NN  G    G                |
|           W    W  A    A  R    R  N    N  II  N    N   GGGG   !!!           |
|                                                                             |
|     Found issues when parsing the INCAR file                                |
|     In line 61: Tagname --- R W I G S contains invalid characters.          |
|     Please check if the interpretation in the OUTCAR file is correct.       |
|                                                                             |
 -----------------------------------------------------------------------------

 INCAR:
    = \=\=\=\=\=\=\=\=\=\=\=\=\=\=\=\=\=\=\=\=\=\=\=\=\=\=\=\=\=\=\=\=\=\=\=\=\=\=\=\=\=\=\=\=\=\=\=\=\=\=\=\=\=\=\=\=\=\=\=\=\=\=\=\=\=\=\=\=\=\=\=\=
    = \=\=\=\=\=\=\=\=\=\=\=\=\=\=\=\=\=\=\=\=\=\=\=\=\=\=\=\=\=\=\=\=\=\=\=\=\=\=\=\=\=\=\=\=\=\=\=\=\=\=\=\=\=\=\=\=\=\=\=\=\=\=\=\=\=\=\=\=\=\=\=\=
   ISTART = 0
   ICHARG = 2
   IPIPOL = 3
   IVDW = 11
    = \=\=\=\=\=\=\=\=\=\=\=\=\=\=\=\=\=\=\=\=\=\=\=\=\=\=\=\=\=\=\=\=\=\=\=\=\=\=\=\=\=\=\=\=\=\=\=\=\=\=\=\=\=\=\=\=\=\=\=\=\=\=\=\=\=\=\=\=\=\=\=\=
    = \=\=\=\=\=\=\=\=\=\=\=\=\=\=\=\=\=\=\=\=\=\=\=\=\=\=\=\=\=\=\=\=\=\=\=\=\=\=\=\=\=\=\=\=\=\=\=\=\=\=\=\=\=\=\=\=\=\=\=\=\=\=\=\=\=\=\=\=\=\=\=\=
   ISPIN = 2
    = \=\=\=\=\=\=\=\=\=\=\=\=\=\=\=\=\=\=\=\=\=\=\=\=\=\=\=\=\=\=\=\=\=\=\=\=\=\=\=\=\=\=\=\=\=\=\=\=\=\=\=\=\=\=\=\=\=\=\=\=\=\=\=\=\=\=\=\=\=\=\=\=
    = \=\=\=\=\=\=\=\=\=\=\=\=\=\=\=\=\=\=\=\=\=\=\=\=\=\=\=\=\=\=\=\=\=\=\=\=\=\=\=\=\=\=\=\=\=\=\=\=\=\=\=\=\=\=\=\=\=\=\=\=\=\=\=\=\=\=\=\=\=\=\=\=
   ENCUT = 400
   PREC = Normal
   EDIFF = 2E-04
   GGA = PE
   ISMEAR = 1
   SIGMA = 0.2
   LREAL = .FALSE.
    = \=\=\=\=\=\=\=\=\=\=\=\=\=\=\=\=\=\=\=\=\=\=\=\=\=\=\=\=\=\=\=\=\=\=\=\=\=\=\=\=\=\=\=\=\=\=\=\=\=\=\=\=\=\=\=\=\=\=\=\=\=\=\=\=\=\=\=\=\=\=\=\=
    = \=\=\=\=\=\=\=\=\=\=\=\=\=\=\=\=\=\=\=\=\=\=\=\=\=\=\=\=\=\=\=\=\=\=\=\=\=\=\=\=\=\=\=\=\=\=\=\=\=\=\=\=\=\=\=\=\=\=\=\=\=\=\=\=\=\=\=\=\=\=\=\=
   ISYM = 1
   NSW = 800
   IBRION = 2
   POTIM = 0.5
   ISIF = 2
   EDIFFG = -.03
    = \=\=\=\=\=\=\=\=\=\=\=\=\=\=\=\=\=\=\=\=\=\=\=\=\=\=\=\=\=\=\=\=\=\=\=\=\=\=\=\=\=\=\=\=\=\=\=\=\=\=\=\=\=\=\=\=\=\=\=\=\=\=\=\=\=\=\=\=\=\=\=\=
    = \=\=\=\=\=\=\=\=\=\=\=\=\=\=\=\=\=\=\=\=\=\=\=\=\=\=\=\=\=\=\=\=\=\=\=\=\=\=\=\=\=\=\=\=\=\=\=\=\=\=\=\=\=\=\=\=\=\=\=\=\=\=\=\=\=\=\=\=\=\=\=\=
   NPAR = 4
   LWAVE = .FALSE.
   LCHARG = .FALSE.

 POTCAR:    PAW_PBE Cu 22Jun2005                  
 POTCAR:    PAW_PBE H 15Jun2001                   
 -----------------------------------------------------------------------------
|                                                                             |
|           W    W    AA    RRRRR   N    N  II  N    N   GGGG   !!!           |
|           W    W   A  A   R    R  NN   N  II  NN   N  G    G  !!!           |
|           W    W  A    A  R    R  N N  N  II  N N  N  G       !!!           |
|           W WW W  AAAAAA  RRRRR   N  N N  II  N  N N  G  GGG   !            |
|           WW  WW  A    A  R   R   N   NN  II  N   NN  G    G                |
|           W    W  A    A  R    R  N    N  II  N    N   GGGG   !!!           |
|                                                                             |
|     You use a magnetic or noncollinear calculation, but did not specify     |
|     the initial magnetic moment with the MAGMOM tag. Note that a            |
|     default of 1 will be used for all atoms. This ferromagnetic setup       |
|     may break the symmetry of the crystal, in particular it may rule        |
|     out finding an antiferromagnetic solution. Thence, we recommend         |
|     setting the initial magnetic moment manually or verifying carefully     |
|     that this magnetic setup is desired.                                    |
|                                                                             |
 -----------------------------------------------------------------------------

 POTCAR:    PAW_PBE Cu 22Jun2005                  
   SHA256 =  0e71e558f37a4e8407882b4609ceaae59938afaad9ced71dfe8490308a0ab630 Cu/POTCAR             
   COPYR  = (c) Copyright 22Jun2005 Georg Kresse                                                    
   COPYR  = This file is part of the software VASP. Any use, copying, and all other rights are regul
   COPYR  = If you do not have a valid VASP license, you may not use, copy or distribute this file. 
   VRHFIN =Cu: d10 p1                                                                               
   LEXCH  = PE                                                                                      
   EATOM  =  1390.9808 eV,  102.2342 Ry                                                             
                                                                                                    
   TITEL  = PAW_PBE Cu 22Jun2005                                                                    
   LULTRA =        F    use ultrasoft PP ?                                                          
   IUNSCR =        1    unscreen: 0-lin 1-nonlin 2-no                                               
   RPACOR =    2.000    partial core radius                                                         
   POMASS =   63.546; ZVAL   =   11.000    mass and valenz                                          
   RCORE  =    2.300    outmost cutoff radius                                                       
   RWIGS  =    2.200; RWIGS  =    1.164    wigner-seitz radius (au A)                               
   ENMAX  =  295.446; ENMIN  =  221.585 eV                                                          
   ICORE  =        3    local potential                                                             
   LCOR   =        T    correct aug charges                                                         
   LPAW   =        T    paw PP                                                                      
   EAUG   =  586.980                                                                                
   DEXC   =    0.000                                                                                
   RMAX   =    2.344    core radius for proj-oper                                                   
   RAUG   =    1.300    factor for augmentation sphere                                              
   RDEP   =    2.302    radius for radial grids                                                     
   RDEPT  =    1.771    core radius for aug-charge                                                  
                                                                                                    
   Atomic configuration                                                                             
    9 entries                                                                                       
     n  l   j            E        occ.                                                              
     1  0  0.50     -8850.2468   2.0000                                                             
     2  0  0.50     -1062.3498   2.0000                                                             
     2  1  1.50      -916.8226   6.0000                                                             
     3  0  0.50      -114.6929   2.0000                                                             
     3  1  1.50       -72.1325   6.0000                                                             
     3  2  2.50        -5.0394  10.0000                                                             
     4  0  0.50        -4.6097   1.0000                                                             
     4  1  0.50        -4.0817   0.0000                                                             
     4  3  2.50        -1.3606   0.0000                                                             
   Description                                                                                      
     l       E           TYP  RCUT    TYP  RCUT                                                     
     2     -5.0393973     23  2.200                                                                 
     2     10.8846608     23  2.200                                                                 
     0     -4.6097109     23  2.200                                                                 
     0      8.2520465     23  2.200                                                                 
     1     -2.7211652     23  2.200                                                                 
     1     21.7055443     23  2.200                                                                 
     3      2.7211652     23  2.300                                                                 
  local pseudopotential read in
  partial core-charges read in
  partial kinetic energy density read in
  atomic valenz-charges read in
  non local Contribution for L=           2  read in
    real space projection operators read in
  non local Contribution for L=           2  read in
    real space projection operators read in
  non local Contribution for L=           0  read in
    real space projection operators read in
  non local Contribution for L=           0  read in
    real space projection operators read in
  non local Contribution for L=           1  read in
    real space projection operators read in
  non local Contribution for L=           1  read in
    real space projection operators read in
    PAW grid and wavefunctions read in
 
   number of l-projection  operators is LMAX  =           6
   number of lm-projection operators is LMMAX =          18
 
 POTCAR:    PAW_PBE H 15Jun2001                   
   SHA256 =  030f79b5d3ab3cf0e668861823c8fb652ff669f3e15e46930bd03bfd63a607b6 H/POTCAR              
   COPYR  = (c) Copyright 15Jun2001 Georg Kresse                                                    
   COPYR  = This file is part of the software VASP. Any use, copying, and all other rights are regul
   COPYR  = If you do not have a valid VASP license, you may not use, copy or distribute this file. 
   VRHFIN =H: ultrasoft test                                                                        
   LEXCH  = PE                                                                                      
   EATOM  =    12.4884 eV,    0.9179 Ry                                                             
                                                                                                    
   TITEL  = PAW_PBE H 15Jun2001                                                                     
   LULTRA =        F    use ultrasoft PP ?                                                          
   IUNSCR =        0    unscreen: 0-lin 1-nonlin 2-no                                               
   RPACOR =    0.000    partial core radius                                                         
   POMASS =    1.000; ZVAL   =    1.000    mass and valenz                                          
   RCORE  =    1.100    outmost cutoff radius                                                       
   RWIGS  =    0.700; RWIGS  =    0.370    wigner-seitz radius (au A)                               
   ENMAX  =  250.000; ENMIN  =  200.000 eV                                                          
   RCLOC  =    0.701    cutoff for local pot                                                        
   LCOR   =        T    correct aug charges                                                         
   LPAW   =        T    paw PP                                                                      
   EAUG   =  400.000                                                                                
   RMAX   =    1.123    core radius for proj-oper                                                   
   RAUG   =    1.200    factor for augmentation sphere                                              
   RDEP   =    1.112    radius for radial grids                                                     
   RDEPT  =    0.926    core radius for aug-charge                                                  
                                                                                                    
   Atomic configuration                                                                             
    2 entries                                                                                       
     n  l   j            E        occ.                                                              
     1  0  0.50        -6.4927   1.0000                                                             
     2  1  0.50        -3.4015   0.0000                                                             
   Description                                                                                      
     l       E           TYP  RCUT    TYP  RCUT                                                     
     0     -6.4927494     23  1.100                                                                 
     0      6.8029130     23  1.100                                                                 
     1     -4.0817478     23  1.100                                                                 
  local pseudopotential read in
  atomic valenz-charges read in
  non local Contribution for L=           0  read in
    real space projection operators read in
  non local Contribution for L=           0  read in
    real space projection operators read in
  non local Contribution for L=           1  read in
    real space projection operators read in
    PAW grid and wavefunctions read in
 
   number of l-projection  operators is LMAX  =           3
   number of lm-projection operators is LMMAX =           5
 
  PAW_PBE Cu 22Jun2005                  :
 energy of atom  1       EATOM=-1390.9808
 kinetic energy error for atom=    0.0232 (will be added to EATOM!!)
  PAW_PBE H 15Jun2001                   :
 energy of atom  2       EATOM=  -12.4884
 kinetic energy error for atom=    0.0098 (will be added to EATOM!!)
 
 
 POSCAR: FCC Cu
  positions in cartesian coordinates
  No initial velocities read in
 exchange correlation table for  LEXCH =        8
   RHO(1)=    0.500       N(1)  =     2000
   RHO(2)=  100.500       N(2)  =     4000

 VTST: version 4.2, (08/11/21)

 CHAIN: initializing optimizer
 
 OPT: Using VASP Conjugate-Gradient optimizer
 CHAIN: Read ICHAIN            0
 
 POSCAR: FCC Cu
  positions in cartesian coordinates
  No initial velocities read in
 


--------------------------------------------------------------------------------------------------------


 ion  position               nearest neighbor table
   1  0.000  0.000  0.000-   2 2.57   2 2.57   2 2.57
   2  0.333  0.333  0.071-   3 2.51   3 2.51   3 2.51   1 2.57   1 2.57   1 2.57
   3  0.667  0.667  0.139-   2 2.51   2 2.51   2 2.51   4 2.53   4 2.53   4 2.53
   4  0.000  0.000  0.208-   5 2.51   5 2.51   5 2.51   3 2.53   3 2.53   3 2.53
   5  0.333  0.333  0.277-   4 2.51   4 2.51   4 2.51   6 2.53   6 2.53   6 2.53
   6  0.667  0.667  0.346-   7 2.51   7 2.51   7 2.51   5 2.53   5 2.53   5 2.53
   7  0.000  0.000  0.414-   8 2.49   8 2.49   8 2.49   6 2.51   6 2.51   6 2.51
   8  0.333  0.333  0.481-   7 2.49   7 2.49   7 2.49
   9  0.667  0.667  0.534-  10 0.75
  10  0.667  0.667  0.559-   9 0.75
 
  LATTYP: Found a hexagonal cell.
 ALAT       =     2.5667977333
 C/A-ratio  =    11.5593335643
  
  Lattice vectors:
  
 A1 = (  -1.2833988667,  -2.2229120434,   0.0000000000)
 A2 = (   2.5667977333,   0.0000000000,   0.0000000000)
 A3 = (   0.0000000000,   0.0000000000,  29.6704711914)


Analysis of symmetry for initial positions (statically):
=====================================================================
 Subroutine PRICEL returns:
 Original cell was already a primitive cell.
 

 Routine SETGRP: Setting up the symmetry group for a 
 hexagonal supercell.


 Subroutine GETGRP returns: Found  6 space group operations
 (whereof  6 operations were pure point group operations)
 out of a pool of 24 trial point group operations.


The static configuration has the point symmetry C_3v.


Analysis of symmetry for dynamics (positions and initial velocities):
=====================================================================
 Subroutine PRICEL returns:
 Original cell was already a primitive cell.
 

 Routine SETGRP: Setting up the symmetry group for a 
 hexagonal supercell.


 Subroutine GETGRP returns: Found  6 space group operations
 (whereof  6 operations were pure point group operations)
 out of a pool of 24 trial point group operations.


The dynamic configuration has the point symmetry C_3v.


Analysis of structural, dynamic, and magnetic symmetry:
=====================================================================
 Subroutine PRICEL returns:
 Original cell was already a primitive cell.
 

 Routine SETGRP: Setting up the symmetry group for a 
 hexagonal supercell.


 Subroutine GETGRP returns: Found  6 space group operations
 (whereof  6 operations were pure point group operations)
 out of a pool of 24 trial point group operations.


The overall configuration has the point symmetry C_3v.


 Subroutine INISYM returns: Found  6 space group operations
 (whereof  6 operations are pure point group operations),
 and found     1 'primitive' translations


----------------------------------------------------------------------------------------

                                     Primitive cell                                     

  volume of cell :     169.2928

  direct lattice vectors                    reciprocal lattice vectors
     2.566797733  0.000000000  0.000000000     0.389590495 -0.224930177  0.000000000
     1.283398867  2.222912043  0.000000000     0.000000000  0.449860355  0.000000000
     0.000000000  0.000000000 29.670471191     0.000000000  0.000000000  0.033703543

  length of vectors
     2.566797733  2.566797733 29.670471191     0.449860355  0.449860355  0.033703543

  position of ions in fractional coordinates (direct lattice)
     0.000000000  0.000000000  0.000000000
     0.333333333  0.333333333  0.070635264
     0.666666667  0.666666667  0.139085938
     0.000000000  0.000000000  0.208165116
     0.333333333  0.333333333  0.276562395
     0.666666667  0.666666667  0.345560339
     0.000000000  0.000000000  0.414005934
     0.333333333  0.333333333  0.481392695
     0.666666667  0.666666666  0.534259303
     0.666666667  0.666666666  0.559402146

  ion indices of the primitive-cell ions
   primitive index   ion index
                 1           1
                 2           2
                 3           3
                 4           4
                 5           5
                 6           6
                 7           7
                 8           8
                 9           9
                10          10

----------------------------------------------------------------------------------------

 
 
 KPOINTS: Auto-mesh                               

Automatic generation of k-mesh.
 Grid dimensions read from file:
 generate k-points for:    3    3    1

 Generating k-lattice:

  Cartesian coordinates                     Fractional coordinates (reciprocal lattice)
     0.129863498 -0.074976726  0.000000000     0.333333333  0.000000000  0.000000000
     0.000000000  0.149953452  0.000000000     0.000000000  0.333333333  0.000000000
     0.000000000  0.000000000  0.033703543     0.000000000  0.000000000  1.000000000

  Length of vectors
     0.149953452  0.149953452  0.033703543

  Shift w.r.t. Gamma in fractional coordinates (k-lattice)
     0.000000000  0.000000000  0.000000000

 
 Subroutine IBZKPT returns following result:
 ===========================================
 
 Found      3 irreducible k-points:
 
 Following reciprocal coordinates:
            Coordinates               Weight
  0.000000  0.000000  0.000000      1.000000
  0.333333  0.000000  0.000000      6.000000
 -0.333333  0.333333  0.000000      2.000000
 
 Following cartesian coordinates:
            Coordinates               Weight
  0.000000  0.000000  0.000000      1.000000
  0.129863 -0.074977  0.000000      6.000000
 -0.129863  0.224930  0.000000      2.000000
 


--------------------------------------------------------------------------------------------------------




 Dimension of arrays:
   k-points           NKPTS =      3   k-points in BZ     NKDIM =      3   number of bands    NBANDS=     60
   number of dos      NEDOS =    301   number of ions     NIONS =     10
   non local maximal  LDIM  =      6   non local SUM 2l+1 LMDIM =     18
   total plane-waves  NPLWV =  29400
   max r-space proj   IRMAX =      1   max aug-charges    IRDMAX=   5229
   dimension x,y,z NGX =    14 NGY =   14 NGZ =  150
   dimension x,y,z NGXF=    28 NGYF=   28 NGZF=  300
   support grid    NGXF=    28 NGYF=   28 NGZF=  300
   ions per type =               8   2
   NGX,Y,Z   is equivalent  to a cutoff of   9.07,  9.07,  8.40 a.u.
   NGXF,Y,Z  is equivalent  to a cutoff of  18.13, 18.13, 16.81 a.u.

 SYSTEM =  unknown system                          
 POSCAR =  FCC Cu                                  

 Startparameter for this run:
   NWRITE =      2    write-flag & timer
   PREC   = normal    normal or accurate (medium, high low for compatibility)
   ISTART =      0    job   : 0-new  1-cont  2-samecut
   ICHARG =      2    charge: 1-file 2-atom 10-const
   ISPIN  =      2    spin polarized calculation?
   LNONCOLLINEAR =      F non collinear calculations
   LSORBIT =      F    spin-orbit coupling
   INIWAV =      1    electr: 0-lowe 1-rand  2-diag
   LASPH  =      F    aspherical Exc in radial PAW
 Electronic Relaxation 1
   ENCUT  =  400.0 eV  29.40 Ry    5.42 a.u.   4.19  4.19 48.39*2*pi/ulx,y,z
   ENINI  =  400.0     initial cutoff
   ENAUG  =  587.0 eV  augmentation charge cutoff
   NELM   =     60;   NELMIN=  2; NELMDL= -5     # of ELM steps 
   EDIFF  = 0.2E-03   stopping-criterion for ELM
   LREAL  =      F    real-space projection
   NLSPLINE    = F    spline interpolate recip. space projectors
   LCOMPAT=      F    compatible to vasp.4.4
   GGA_COMPAT  = T    GGA compatible to vasp.4.4-vasp.4.6
   LMAXPAW     = -100 max onsite density
   LMAXMIX     =    2 max onsite mixed and CHGCAR
   VOSKOWN=      0    Vosko Wilk Nusair interpolation
   ROPT   =    0.00000   0.00000
 Ionic relaxation
   EDIFFG = -.3E-01   stopping-criterion for IOM
   NSW    =    800    number of steps for IOM
   NBLOCK =      1;   KBLOCK =    800    inner block; outer block 
   IBRION =      2    ionic relax: 0-MD 1-quasi-New 2-CG
   NFREE  =      1    steps in history (QN), initial steepest desc. (CG)
   ISIF   =      2    stress and relaxation
   IWAVPR =     11    prediction:  0-non 1-charg 2-wave 3-comb
   ISYM   =      1    0-nonsym 1-usesym 2-fastsym
   LCORR  =      T    Harris-Foulkes like correction to forces

   POTIM  = 0.5000    time-step for ionic-motion
   TEIN   =    0.0    initial temperature
   TEBEG  =    0.0;   TEEND  =   0.0 temperature during run
   SMASS  =  -3.00    Nose mass-parameter (am)
   estimated Nose-frequenzy (Omega)   =  0.10E-29 period in steps = 0.13E+47 mass=  -0.151E-27a.u.
   SCALEE = 1.0000    scale energy and forces
   NPACO  =    256;   APACO  = 10.0  distance and # of slots for P.C.
   PSTRESS=    0.0 pullay stress

  Mass of Ions in am
   POMASS =  63.55  1.00
  Ionic Valenz
   ZVAL   =  11.00  1.00
  Atomic Wigner-Seitz radii
   RWIGS  =  -1.00 -1.00
  virtual crystal weights 
   VCA    =   1.00  1.00
   NELECT =      90.0000    total number of electrons
   NUPDOWN=      -1.0000    fix difference up-down

 DOS related values:
   EMIN   =  10.00;   EMAX   =-10.00  energy-range for DOS
   EFERMI =   0.00
   ISMEAR =     1;   SIGMA  =   0.20  broadening in eV -4-tet -1-fermi 0-gaus

 Electronic relaxation 2 (details)
   IALGO  =     38    algorithm
   LDIAG  =      T    sub-space diagonalisation (order eigenvalues)
   LSUBROT=      F    optimize rotation matrix (better conditioning)
   TURBO    =      0    0=normal 1=particle mesh
   IRESTART =      0    0=no restart 2=restart with 2 vectors
   NREBOOT  =      0    no. of reboots
   NMIN     =      0    reboot dimension
   EREF     =   0.00    reference energy to select bands
   IMIX   =      4    mixing-type and parameters
     AMIX     =   0.40;   BMIX     =  1.00
     AMIX_MAG =   1.60;   BMIX_MAG =  1.00
     AMIN     =   0.10
     WC   =   100.;   INIMIX=   1;  MIXPRE=   1;  MAXMIX= -45

 Intra band minimization:
   WEIMIN = 0.0010     energy-eigenvalue tresh-hold
   EBREAK =  0.83E-06  absolut break condition
   DEPER  =   0.30     relativ break condition  

   TIME   =   0.40     timestep for ELM

  volume/ion in A,a.u.               =      16.93       114.24
  Fermi-wavevector in a.u.,A,eV,Ry     =   1.326202  2.506158 23.930072  1.758811
  Thomas-Fermi vector in A             =   2.455606
 
 Write flags
   LWAVE        =      F    write WAVECAR
   LDOWNSAMPLE  =      F    k-point downsampling of WAVECAR
   LCHARG       =      F    write CHGCAR
   LVTOT        =      F    write LOCPOT, total local potential
   LVHAR        =      F    write LOCPOT, Hartree potential only
   LELF         =      F    write electronic localiz. function (ELF)
   LORBIT       =      0    0 simple, 1 ext, 2 COOP (PROOUT), +10 PAW based schemes


 Dipole corrections
   LMONO  =      F    monopole corrections only (constant potential shift)
   LDIPOL =      F    correct potential (dipole corrections)
   IDIPOL =      0    1-x, 2-y, 3-z, 4-all directions 
   EPSILON=  1.0000000 bulk dielectric constant

 Exchange correlation treatment:
   GGA     =    PE    GGA type
   LEXCH   =     8    internal setting for exchange type
   LIBXC   =     F    Libxc                    
   VOSKOWN =     0    Vosko Wilk Nusair interpolation
   LHFCALC =     F    Hartree Fock is set to
   LHFONE  =     F    Hartree Fock one center treatment
   AEXX    =    0.0000 exact exchange contribution

 Linear response parameters
   LEPSILON=     F    determine dielectric tensor
   LRPA    =     F    only Hartree local field effects (RPA)
   LNABLA  =     F    use nabla operator in PAW spheres
   LVEL    =     F    velocity operator in full k-point grid
   CSHIFT  =0.1000    complex shift for real part using Kramers Kronig
   OMEGAMAX=  -1.0    maximum frequency
   DEG_THRESHOLD= 0.2000000E-02 threshold for treating states as degnerate
   RTIME   =   -0.100 relaxation time in fs
  (WPLASMAI=    0.000 imaginary part of plasma frequency in eV, 0.658/RTIME)
   DFIELD  = 0.0000000 0.0000000 0.0000000 field for delta impulse in time
 
  Optional k-point grid parameters
   LKPOINTS_OPT  =     F    use optional k-point grid
   KPOINTS_OPT_MODE=     1    mode for optional k-point grid
 
 Orbital magnetization related:
   ORBITALMAG=     F  switch on orbital magnetization
   LCHIMAG   =     F  perturbation theory with respect to B field
   DQ        =  0.001000  dq finite difference perturbation B field
   LLRAUG    =     F  two centre corrections for induced B field



--------------------------------------------------------------------------------------------------------


 conjugate gradient relaxation of ions
 charge density and potential will be updated during run
 spin polarized calculation
 Variant of blocked Davidson
 Davidson routine will perform the subspace rotation
 perform sub-space diagonalisation
    after iterative eigenvector-optimisation
 modified Broyden-mixing scheme, WC =      100.0
 initial mixing is a Kerker type mixing with AMIX =  0.4000 and BMIX =      1.0000
 Hartree-type preconditioning will be used
 using additional bands           15
 reciprocal scheme for non local part
 use partial core corrections
 calculate Harris-corrections to forces 
   (improved forces if not selfconsistent)
 use gradient corrections 
 use of overlap-Matrix (Vanderbilt PP)
 Methfessel and Paxton  Order N= 1 SIGMA  =   0.20


--------------------------------------------------------------------------------------------------------


  energy-cutoff  :      400.00
  volume of cell :      169.29
      direct lattice vectors                 reciprocal lattice vectors
     2.566797733  0.000000000  0.000000000     0.389590495 -0.224930177  0.000000000
     1.283398867  2.222912043  0.000000000     0.000000000  0.449860355  0.000000000
     0.000000000  0.000000000 29.670471191     0.000000000  0.000000000  0.033703543

  length of vectors
     2.566797733  2.566797733 29.670471191     0.449860355  0.449860355  0.033703543


 
 k-points in units of 2pi/SCALE and weight: Auto-mesh                               
   0.00000000  0.00000000  0.00000000       0.111
   0.12986350 -0.07497673  0.00000000       0.667
  -0.12986350  0.22493018  0.00000000       0.222
 
 k-points in reciprocal lattice and weights: Auto-mesh                               
   0.00000000  0.00000000  0.00000000       0.111
   0.33333333  0.00000000  0.00000000       0.667
  -0.33333333  0.33333333  0.00000000       0.222
 
 position of ions in fractional coordinates (direct lattice) 
   0.00000000  0.00000000  0.00000000
   0.33333333  0.33333333  0.07063526
   0.66666667  0.66666667  0.13908594
   0.00000000  0.00000000  0.20816512
   0.33333333  0.33333333  0.27656240
   0.66666667  0.66666667  0.34556034
   0.00000000  0.00000000  0.41400593
   0.33333333  0.33333333  0.48139269
   0.66666667  0.66666667  0.53425930
   0.66666667  0.66666667  0.55940215
 
 position of ions in cartesian coordinates  (Angst):
   0.00000000  0.00000000  0.00000000
   1.28339887  0.74097068  2.09578157
   2.56679773  1.48194136  4.12674532
   0.00000000  0.00000000  6.17635708
   1.28339887  0.74097068  8.20573658
   2.56679773  1.48194136 10.25293808
   0.00000000  0.00000000 12.28375114
   1.28339887  0.74097068 14.28314809
   2.56679773  1.48194136 15.85172525
   2.56679773  1.48194136 16.59772525
 


--------------------------------------------------------------------------------------------------------


 k-point   1 :   0.0000 0.0000 0.0000  plane waves:    3091
 k-point   2 :   0.3333 0.0000 0.0000  plane waves:    3081
 k-point   3 :  -0.3333 0.3333 0.0000  plane waves:    3096

 maximum and minimum number of plane-waves per node :       629      605

 maximum number of plane-waves:      3096
 maximum index in each direction: 
   IXMAX=    4   IYMAX=    4   IZMAX=   48
   IXMIN=   -4   IYMIN=   -4   IZMIN=  -48


 parallel 3D FFT for wavefunctions:
    minimum data exchange during FFTs selected (reduces bandwidth)
 parallel 3D FFT for charge:
    minimum data exchange during FFTs selected (reduces bandwidth)


 total amount of memory used by VASP MPI-rank0    34212. kBytes
=======================================================================

   base      :      30000. kBytes
   nonl-proj :        634. kBytes
   fftplans  :        716. kBytes
   grid      :       1856. kBytes
   one-center:         62. kBytes
   wavefun   :        944. kBytes
 
     INWAV:  cpu time      0.0000: real time      0.0004
 Broyden mixing: mesh for mixing (old mesh)
   NGX =  9   NGY =  9   NGZ = 97
  (NGX  = 28   NGY  = 28   NGZ  =300)
  gives a total of   7857 points

 initial charge density was supplied:
 charge density of overlapping atoms calculated
 number of electron      90.0000000 magnetization      10.0000000
 keeping initial charge density in first step


--------------------------------------------------------------------------------------------------------


 Maximum index for augmentation-charges          479 (set IRDMAX)


--------------------------------------------------------------------------------------------------------


 First call to EWALD:  gamma=   0.320
 Maximum number of real-space cells 6x 6x 1
 Maximum number of reciprocal cells 2x 2x13

    FEWALD:  cpu time      0.0019: real time      0.0020


--------------------------------------- Iteration      1(   1)  ---------------------------------------


    POTLOK:  cpu time      0.0227: real time      0.0229
    SETDIJ:  cpu time      0.0068: real time      0.0069
     EDDAV:  cpu time      0.2178: real time      0.2201
       DOS:  cpu time      0.0011: real time      0.0011
    --------------------------------------------
      LOOP:  cpu time      0.2483: real time      0.2510

 eigenvalue-minimisations  :   728
 total energy-change (2. order) : 0.7928908E+03  (-0.3339967E+04)
 number of electron      90.0000000 magnetization      10.0000000
 augmentation part       90.0000000 magnetization      10.0000000

 Free energy of the ion-electron system (eV)
  ---------------------------------------------------
  alpha Z        PSCENC =       285.34744303
  Ewald energy   TEWEN  =     52241.56755907
  -Hartree energ DENC   =    -63294.96369212
  -exchange      EXHF   =         0.00000000
  -V(xc)+E(xc)   XCENC  =       372.50698164
  PAW double counting   =      9828.36862813   -10674.97285505
  entropy T*S    EENTRO =        -0.01914725
  eigenvalues    EBANDS =       882.43750563
  atomic energy  EATOM  =     11152.61838693
  Solvation  Ediel_sol  =         0.00000000
  ---------------------------------------------------
  free energy    TOTEN  =       792.89081001 eV

  energy without entropy =      792.90995726  energy(sigma->0) =      792.89719243


--------------------------------------------------------------------------------------------------------




--------------------------------------- Iteration      1(   2)  ---------------------------------------


     EDDAV:  cpu time      0.2057: real time      0.2080
       DOS:  cpu time      0.0008: real time      0.0008
    --------------------------------------------
      LOOP:  cpu time      0.2065: real time      0.2087

 eigenvalue-minimisations  :   720
 total energy-change (2. order) :-0.7205144E+03  (-0.6914466E+03)
 number of electron      90.0000000 magnetization      10.0000000
 augmentation part       90.0000000 magnetization      10.0000000

 Free energy of the ion-electron system (eV)
  ---------------------------------------------------
  alpha Z        PSCENC =       285.34744303
  Ewald energy   TEWEN  =     52241.56755907
  -Hartree energ DENC   =    -63294.96369212
  -exchange      EXHF   =         0.00000000
  -V(xc)+E(xc)   XCENC  =       372.50698164
  PAW double counting   =      9828.36862813   -10674.97285505
  entropy T*S    EENTRO =        -0.01375324
  eigenvalues    EBANDS =       161.91775198
  atomic energy  EATOM  =     11152.61838693
  Solvation  Ediel_sol  =         0.00000000
  ---------------------------------------------------
  free energy    TOTEN  =        72.37645037 eV

  energy without entropy =       72.39020361  energy(sigma->0) =       72.38103478


--------------------------------------------------------------------------------------------------------




--------------------------------------- Iteration      1(   3)  ---------------------------------------


     EDDAV:  cpu time      0.2103: real time      0.2123
       DOS:  cpu time      0.0008: real time      0.0008
    --------------------------------------------
      LOOP:  cpu time      0.2111: real time      0.2130

 eigenvalue-minimisations  :   748
 total energy-change (2. order) :-0.1051856E+03  (-0.9891002E+02)
 number of electron      90.0000000 magnetization      10.0000000
 augmentation part       90.0000000 magnetization      10.0000000

 Free energy of the ion-electron system (eV)
  ---------------------------------------------------
  alpha Z        PSCENC =       285.34744303
  Ewald energy   TEWEN  =     52241.56755907
  -Hartree energ DENC   =    -63294.96369212
  -exchange      EXHF   =         0.00000000
  -V(xc)+E(xc)   XCENC  =       372.50698164
  PAW double counting   =      9828.36862813   -10674.97285505
  entropy T*S    EENTRO =         0.02169496
  eigenvalues    EBANDS =        56.69667734
  atomic energy  EATOM  =     11152.61838693
  Solvation  Ediel_sol  =         0.00000000
  ---------------------------------------------------
  free energy    TOTEN  =       -32.80917607 eV

  energy without entropy =      -32.83087103  energy(sigma->0) =      -32.81640772


--------------------------------------------------------------------------------------------------------




--------------------------------------- Iteration      1(   4)  ---------------------------------------


     EDDAV:  cpu time      0.2253: real time      0.2272
       DOS:  cpu time      0.0008: real time      0.0008
    --------------------------------------------
      LOOP:  cpu time      0.2261: real time      0.2280

 eigenvalue-minimisations  :   824
 total energy-change (2. order) :-0.4538499E+01  (-0.4501962E+01)
 number of electron      90.0000000 magnetization      10.0000000
 augmentation part       90.0000000 magnetization      10.0000000

 Free energy of the ion-electron system (eV)
  ---------------------------------------------------
  alpha Z        PSCENC =       285.34744303
  Ewald energy   TEWEN  =     52241.56755907
  -Hartree energ DENC   =    -63294.96369212
  -exchange      EXHF   =         0.00000000
  -V(xc)+E(xc)   XCENC  =       372.50698164
  PAW double counting   =      9828.36862813   -10674.97285505
  entropy T*S    EENTRO =         0.03142626
  eigenvalues    EBANDS =        52.14844736
  atomic energy  EATOM  =     11152.61838693
  Solvation  Ediel_sol  =         0.00000000
  ---------------------------------------------------
  free energy    TOTEN  =       -37.34767474 eV

  energy without entropy =      -37.37910101  energy(sigma->0) =      -37.35815017


--------------------------------------------------------------------------------------------------------




--------------------------------------- Iteration      1(   5)  ---------------------------------------


     EDDAV:  cpu time      0.2250: real time      0.2273
       DOS:  cpu time      0.0008: real time      0.0008
    CHARGE:  cpu time      0.0538: real time      0.0540
    MIXING:  cpu time      0.0010: real time      0.0010
    --------------------------------------------
      LOOP:  cpu time      0.2805: real time      0.2830

 eigenvalue-minimisations  :   832
 total energy-change (2. order) :-0.1003456E+00  (-0.1002912E+00)
 number of electron      89.9999973 magnetization       9.3938358
 augmentation part       52.1895562 magnetization       9.0238188

 Broyden mixing:
  rms(total) = 0.27593E+01    rms(broyden)= 0.27592E+01
  rms(prec ) = 0.28244E+01
  weight for this iteration     100.00

 Free energy of the ion-electron system (eV)
  ---------------------------------------------------
  alpha Z        PSCENC =       285.34744303
  Ewald energy   TEWEN  =     52241.56755907
  -Hartree energ DENC   =    -63294.96369212
  -exchange      EXHF   =         0.00000000
  -V(xc)+E(xc)   XCENC  =       372.50698164
  PAW double counting   =      9828.36862813   -10674.97285505
  entropy T*S    EENTRO =         0.03144293
  eigenvalues    EBANDS =        52.04808508
  atomic energy  EATOM  =     11152.61838693
  Solvation  Ediel_sol  =         0.00000000
  ---------------------------------------------------
  free energy    TOTEN  =       -37.44802036 eV

  energy without entropy =      -37.47946329  energy(sigma->0) =      -37.45850134


--------------------------------------------------------------------------------------------------------




--------------------------------------- Iteration      1(   6)  ---------------------------------------


    POTLOK:  cpu time      0.0207: real time      0.0223
    SETDIJ:  cpu time      0.0064: real time      0.0064
     EDDAV:  cpu time      0.2762: real time      0.2786
       DOS:  cpu time      0.0009: real time      0.0009
    CHARGE:  cpu time      0.0530: real time      0.0533
    MIXING:  cpu time      0.0008: real time      0.0008
    --------------------------------------------
      LOOP:  cpu time      0.3580: real time      0.3623

 eigenvalue-minimisations  :   984
 total energy-change (2. order) : 0.3068714E+01  (-0.1068498E+02)
 number of electron      89.9999993 magnetization       9.1474031
 augmentation part       56.7774797 magnetization       6.9122164

 Broyden mixing:
  rms(total) = 0.20228E+01    rms(broyden)= 0.20225E+01
  rms(prec ) = 0.29740E+01
  weight for this iteration     100.00

 eigenvalues of (default mixing * dielectric matrix)
  average eigenvalue GAMMA=   0.7085
  0.7085

 Free energy of the ion-electron system (eV)
  ---------------------------------------------------
  alpha Z        PSCENC =       285.34744303
  Ewald energy   TEWEN  =     52241.56755907
  -Hartree energ DENC   =    -63108.32989941
  -exchange      EXHF   =         0.00000000
  -V(xc)+E(xc)   XCENC  =       365.10505327
  PAW double counting   =     10014.59749246   -10819.35442996
  entropy T*S    EENTRO =        -0.03787984
  eigenvalues    EBANDS =      -165.89303181
  atomic energy  EATOM  =     11152.61838693
  Solvation  Ediel_sol  =         0.00000000
  ---------------------------------------------------
  free energy    TOTEN  =       -34.37930626 eV

  energy without entropy =      -34.34142642  energy(sigma->0) =      -34.36667965


--------------------------------------------------------------------------------------------------------




--------------------------------------- Iteration      1(   7)  ---------------------------------------


    POTLOK:  cpu time      0.0204: real time      0.0207
    SETDIJ:  cpu time      0.0061: real time      0.0061
     EDDAV:  cpu time      0.2769: real time      0.2796
       DOS:  cpu time      0.0008: real time      0.0008
    CHARGE:  cpu time      0.0503: real time      0.0506
    MIXING:  cpu time      0.0006: real time      0.0007
    --------------------------------------------
      LOOP:  cpu time      0.3551: real time      0.3584

 eigenvalue-minimisations  :  1064
 total energy-change (2. order) :-0.6090900E+02  (-0.3070016E+02)
 number of electron      89.9999970 magnetization       9.0086401
 augmentation part       50.5805744 magnetization       5.5866554

 Broyden mixing:
  rms(total) = 0.63651E+01    rms(broyden)= 0.63648E+01
  rms(prec ) = 0.11521E+02
  weight for this iteration     100.00

 eigenvalues of (default mixing * dielectric matrix)
  average eigenvalue GAMMA=   0.4158
  0.7556  0.0760

 Free energy of the ion-electron system (eV)
  ---------------------------------------------------
  alpha Z        PSCENC =       285.34744303
  Ewald energy   TEWEN  =     52241.56755907
  -Hartree energ DENC   =    -63211.33575342
  -exchange      EXHF   =         0.00000000
  -V(xc)+E(xc)   XCENC  =       365.94178927
  PAW double counting   =     10122.68315449   -10945.43826707
  entropy T*S    EENTRO =        -0.00124012
  eigenvalues    EBANDS =      -106.67138259
  atomic energy  EATOM  =     11152.61838693
  Solvation  Ediel_sol  =         0.00000000
  ---------------------------------------------------
  free energy    TOTEN  =       -95.28831040 eV

  energy without entropy =      -95.28707028  energy(sigma->0) =      -95.28789703


--------------------------------------------------------------------------------------------------------




--------------------------------------- Iteration      1(   8)  ---------------------------------------


    POTLOK:  cpu time      0.0192: real time      0.0195
    SETDIJ:  cpu time      0.0059: real time      0.0059
     EDDAV:  cpu time      0.3117: real time      0.3148
       DOS:  cpu time      0.0008: real time      0.0008
    CHARGE:  cpu time      0.0491: real time      0.0494
    MIXING:  cpu time      0.0008: real time      0.0008
    --------------------------------------------
      LOOP:  cpu time      0.3875: real time      0.3912

 eigenvalue-minimisations  :  1232
 total energy-change (2. order) : 0.5522968E+02  (-0.2097828E+02)
 number of electron      89.9999980 magnetization       8.8213258
 augmentation part       56.0873691 magnetization       6.7435418

 Broyden mixing:
  rms(total) = 0.21859E+01    rms(broyden)= 0.21855E+01
  rms(prec ) = 0.27429E+01
  weight for this iteration     100.00

 eigenvalues of (default mixing * dielectric matrix)
  average eigenvalue GAMMA=   0.3951
  0.8130  0.2942  0.0781

 Free energy of the ion-electron system (eV)
  ---------------------------------------------------
  alpha Z        PSCENC =       285.34744303
  Ewald energy   TEWEN  =     52241.56755907
  -Hartree energ DENC   =    -63190.83681223
  -exchange      EXHF   =         0.00000000
  -V(xc)+E(xc)   XCENC  =       365.37753132
  PAW double counting   =     10142.14183359   -10970.59327678
  entropy T*S    EENTRO =        -0.05631925
  eigenvalues    EBANDS =       -65.62497580
  atomic energy  EATOM  =     11152.61838693
  Solvation  Ediel_sol  =         0.00000000
  ---------------------------------------------------
  free energy    TOTEN  =       -40.05863012 eV

  energy without entropy =      -40.00231087  energy(sigma->0) =      -40.03985703


--------------------------------------------------------------------------------------------------------




--------------------------------------- Iteration      1(   9)  ---------------------------------------


    POTLOK:  cpu time      0.0191: real time      0.0194
    SETDIJ:  cpu time      0.0059: real time      0.0059
     EDDAV:  cpu time      0.2941: real time      0.2968
       DOS:  cpu time      0.0008: real time      0.0008
    CHARGE:  cpu time      0.0503: real time      0.0506
    MIXING:  cpu time      0.0008: real time      0.0008
    --------------------------------------------
      LOOP:  cpu time      0.3711: real time      0.3743

 eigenvalue-minimisations  :  1148
 total energy-change (2. order) : 0.6888946E+01  (-0.4489424E+01)
 number of electron      89.9999964 magnetization       8.6942332
 augmentation part       57.1169676 magnetization       7.3773869

 Broyden mixing:
  rms(total) = 0.16518E+01    rms(broyden)= 0.16515E+01
  rms(prec ) = 0.18438E+01
  weight for this iteration     100.00

 eigenvalues of (default mixing * dielectric matrix)
  average eigenvalue GAMMA=   0.3561
  0.8409  0.0816  0.2510  0.2510

 Free energy of the ion-electron system (eV)
  ---------------------------------------------------
  alpha Z        PSCENC =       285.34744303
  Ewald energy   TEWEN  =     52241.56755907
  -Hartree energ DENC   =    -63060.20066421
  -exchange      EXHF   =         0.00000000
  -V(xc)+E(xc)   XCENC  =       365.38584961
  PAW double counting   =     10199.29360921   -11037.11765195
  entropy T*S    EENTRO =        -0.02706281
  eigenvalues    EBANDS =      -180.03715342
  atomic energy  EATOM  =     11152.61838693
  Solvation  Ediel_sol  =         0.00000000
  ---------------------------------------------------
  free energy    TOTEN  =       -33.16968453 eV

  energy without entropy =      -33.14262172  energy(sigma->0) =      -33.16066359


--------------------------------------------------------------------------------------------------------




--------------------------------------- Iteration      1(  10)  ---------------------------------------


    POTLOK:  cpu time      0.0191: real time      0.0194
    SETDIJ:  cpu time      0.0060: real time      0.0060
     EDDAV:  cpu time      0.2795: real time      0.2821
       DOS:  cpu time      0.0007: real time      0.0007
    CHARGE:  cpu time      0.0502: real time      0.0505
    MIXING:  cpu time      0.0009: real time      0.0009
    --------------------------------------------
      LOOP:  cpu time      0.3564: real time      0.3596

 eigenvalue-minimisations  :  1092
 total energy-change (2. order) : 0.2126742E+01  (-0.1648682E+01)
 number of electron      89.9999972 magnetization       8.5895462
 augmentation part       57.3086077 magnetization       7.2577701

 Broyden mixing:
  rms(total) = 0.11667E+01    rms(broyden)= 0.11666E+01
  rms(prec ) = 0.12088E+01
  weight for this iteration     100.00

 eigenvalues of (default mixing * dielectric matrix)
  average eigenvalue GAMMA=   0.3562
  0.8734  0.3021  0.3021  0.0807  0.2229

 Free energy of the ion-electron system (eV)
  ---------------------------------------------------
  alpha Z        PSCENC =       285.34744303
  Ewald energy   TEWEN  =     52241.56755907
  -Hartree energ DENC   =    -63089.79131645
  -exchange      EXHF   =         0.00000000
  -V(xc)+E(xc)   XCENC  =       366.05908842
  PAW double counting   =     10242.88498962   -11086.47866163
  entropy T*S    EENTRO =        -0.00948109
  eigenvalues    EBANDS =      -143.24095019
  atomic energy  EATOM  =     11152.61838693
  Solvation  Ediel_sol  =         0.00000000
  ---------------------------------------------------
  free energy    TOTEN  =       -31.04294228 eV

  energy without entropy =      -31.03346119  energy(sigma->0) =      -31.03978192


--------------------------------------------------------------------------------------------------------




--------------------------------------- Iteration      1(  11)  ---------------------------------------


    POTLOK:  cpu time      0.0191: real time      0.0197
    SETDIJ:  cpu time      0.0058: real time      0.0058
     EDDAV:  cpu time      0.2548: real time      0.2570
       DOS:  cpu time      0.0008: real time      0.0008
    CHARGE:  cpu time      0.0500: real time      0.0502
    MIXING:  cpu time      0.0008: real time      0.0009
    --------------------------------------------
      LOOP:  cpu time      0.3313: real time      0.3344

 eigenvalue-minimisations  :   976
 total energy-change (2. order) : 0.4032903E+00  (-0.1578949E+00)
 number of electron      89.9999974 magnetization       8.1676988
 augmentation part       56.9821729 magnetization       6.7586846

 Broyden mixing:
  rms(total) = 0.10073E+01    rms(broyden)= 0.10073E+01
  rms(prec ) = 0.10604E+01
  weight for this iteration     100.00

 eigenvalues of (default mixing * dielectric matrix)
  average eigenvalue GAMMA=   0.4690
  0.9463  0.6279  0.6279  0.0811  0.2913  0.2396

 Free energy of the ion-electron system (eV)
  ---------------------------------------------------
  alpha Z        PSCENC =       285.34744303
  Ewald energy   TEWEN  =     52241.56755907
  -Hartree energ DENC   =    -63112.17031617
  -exchange      EXHF   =         0.00000000
  -V(xc)+E(xc)   XCENC  =       366.48665337
  PAW double counting   =     10275.68195074   -11123.25488045
  entropy T*S    EENTRO =        -0.00836673
  eigenvalues    EBANDS =      -116.90808180
  atomic energy  EATOM  =     11152.61838693
  Solvation  Ediel_sol  =         0.00000000
  ---------------------------------------------------
  free energy    TOTEN  =       -30.63965200 eV

  energy without entropy =      -30.63128527  energy(sigma->0) =      -30.63686309


--------------------------------------------------------------------------------------------------------




--------------------------------------- Iteration      1(  12)  ---------------------------------------


    POTLOK:  cpu time      0.0190: real time      0.0193
    SETDIJ:  cpu time      0.0058: real time      0.0058
     EDDAV:  cpu time      0.2308: real time      0.2324
       DOS:  cpu time      0.0008: real time      0.0008
    CHARGE:  cpu time      0.0503: real time      0.0506
    MIXING:  cpu time      0.0028: real time      0.0028
    --------------------------------------------
      LOOP:  cpu time      0.3094: real time      0.3117

 eigenvalue-minimisations  :   860
 total energy-change (2. order) : 0.6975178E+00  (-0.1357731E+00)
 number of electron      89.9999975 magnetization       7.1754244
 augmentation part       56.4659944 magnetization       5.6608848

 Broyden mixing:
  rms(total) = 0.81909E+00    rms(broyden)= 0.81909E+00
  rms(prec ) = 0.87597E+00
  weight for this iteration     100.00

 eigenvalues of (default mixing * dielectric matrix)
  average eigenvalue GAMMA=   0.5617
  1.3804  0.6997  0.6997  0.0811  0.4216  0.4216  0.2283

 Free energy of the ion-electron system (eV)
  ---------------------------------------------------
  alpha Z        PSCENC =       285.34744303
  Ewald energy   TEWEN  =     52241.56755907
  -Hartree energ DENC   =    -63148.07197185
  -exchange      EXHF   =         0.00000000
  -V(xc)+E(xc)   XCENC  =       367.35520647
  PAW double counting   =     10360.40891053   -11215.55100910
  entropy T*S    EENTRO =        -0.01098173
  eigenvalues    EBANDS =       -73.60567760
  atomic energy  EATOM  =     11152.61838693
  Solvation  Ediel_sol  =         0.00000000
  ---------------------------------------------------
  free energy    TOTEN  =       -29.94213424 eV

  energy without entropy =      -29.93115251  energy(sigma->0) =      -29.93847366


--------------------------------------------------------------------------------------------------------




--------------------------------------- Iteration      1(  13)  ---------------------------------------


    POTLOK:  cpu time      0.0230: real time      0.0233
    SETDIJ:  cpu time      0.0061: real time      0.0062
     EDDAV:  cpu time      0.2585: real time      0.2604
       DOS:  cpu time      0.0007: real time      0.0007
    CHARGE:  cpu time      0.0501: real time      0.0503
    MIXING:  cpu time      0.0011: real time      0.0012
    --------------------------------------------
      LOOP:  cpu time      0.3396: real time      0.3421

 eigenvalue-minimisations  :   968
 total energy-change (2. order) : 0.2464158E+00  (-0.1544750E+00)
 number of electron      89.9999980 magnetization       5.9968951
 augmentation part       56.1447916 magnetization       4.4371713

 Broyden mixing:
  rms(total) = 0.64587E+00    rms(broyden)= 0.64584E+00
  rms(prec ) = 0.71667E+00
  weight for this iteration     100.00

 eigenvalues of (default mixing * dielectric matrix)
  average eigenvalue GAMMA=   0.6599
  1.3208  1.3208  0.7670  0.7670  0.0811  0.4063  0.3866  0.2298

 Free energy of the ion-electron system (eV)
  ---------------------------------------------------
  alpha Z        PSCENC =       285.34744303
  Ewald energy   TEWEN  =     52241.56755907
  -Hartree energ DENC   =    -63173.71554674
  -exchange      EXHF   =         0.00000000
  -V(xc)+E(xc)   XCENC  =       367.90374239
  PAW double counting   =     10518.23704161   -11382.13424653
  entropy T*S    EENTRO =        -0.01313344
  eigenvalues    EBANDS =       -39.50696477
  atomic energy  EATOM  =     11152.61838693
  Solvation  Ediel_sol  =         0.00000000
  ---------------------------------------------------
  free energy    TOTEN  =       -29.69571845 eV

  energy without entropy =      -29.68258501  energy(sigma->0) =      -29.69134064


--------------------------------------------------------------------------------------------------------




--------------------------------------- Iteration      1(  14)  ---------------------------------------


    POTLOK:  cpu time      0.0200: real time      0.0202
    SETDIJ:  cpu time      0.0059: real time      0.0059
     EDDAV:  cpu time      0.2832: real time      0.2856
       DOS:  cpu time      0.0007: real time      0.0007
    CHARGE:  cpu time      0.0505: real time      0.0508
    MIXING:  cpu time      0.0011: real time      0.0011
    --------------------------------------------
      LOOP:  cpu time      0.3614: real time      0.3644

 eigenvalue-minimisations  :  1104
 total energy-change (2. order) :-0.2053200E+01  (-0.1786618E+00)
 number of electron      89.9999977 magnetization       4.4842303
 augmentation part       56.3145812 magnetization       3.2093500

 Broyden mixing:
  rms(total) = 0.51543E+00    rms(broyden)= 0.51541E+00
  rms(prec ) = 0.55299E+00
  weight for this iteration     100.00

 eigenvalues of (default mixing * dielectric matrix)
  average eigenvalue GAMMA=   0.8361
  3.0003  1.2143  0.7708  0.7708  0.6772  0.0811  0.3906  0.3906  0.2293

 Free energy of the ion-electron system (eV)
  ---------------------------------------------------
  alpha Z        PSCENC =       285.34744303
  Ewald energy   TEWEN  =     52241.56755907
  -Hartree energ DENC   =    -63168.59183121
  -exchange      EXHF   =         0.00000000
  -V(xc)+E(xc)   XCENC  =       366.04967764
  PAW double counting   =     10606.32860405   -11471.87800814
  entropy T*S    EENTRO =        -0.01025016
  eigenvalues    EBANDS =       -43.18049925
  atomic energy  EATOM  =     11152.61838693
  Solvation  Ediel_sol  =         0.00000000
  ---------------------------------------------------
  free energy    TOTEN  =       -31.74891804 eV

  energy without entropy =      -31.73866788  energy(sigma->0) =      -31.74550132


--------------------------------------------------------------------------------------------------------




--------------------------------------- Iteration      1(  15)  ---------------------------------------


    POTLOK:  cpu time      0.0191: real time      0.0194
    SETDIJ:  cpu time      0.0058: real time      0.0059
     EDDAV:  cpu time      0.2980: real time      0.3001
       DOS:  cpu time      0.0008: real time      0.0008
    CHARGE:  cpu time      0.0498: real time      0.0502
    MIXING:  cpu time      0.0013: real time      0.0013
    --------------------------------------------
      LOOP:  cpu time      0.3748: real time      0.3777

 eigenvalue-minimisations  :  1168
 total energy-change (2. order) :-0.1607400E+01  (-0.1606462E+00)
 number of electron      89.9999975 magnetization       3.4184429
 augmentation part       56.5486262 magnetization       2.3946512

 Broyden mixing:
  rms(total) = 0.45556E+00    rms(broyden)= 0.45553E+00
  rms(prec ) = 0.47193E+00
  weight for this iteration     100.00

 eigenvalues of (default mixing * dielectric matrix)
  average eigenvalue GAMMA=   0.9991
  4.0887  1.7457  0.7834  0.7834  0.7517  0.7517  0.0811  0.3880  0.3880  0.2293

 Free energy of the ion-electron system (eV)
  ---------------------------------------------------
  alpha Z        PSCENC =       285.34744303
  Ewald energy   TEWEN  =     52241.56755907
  -Hartree energ DENC   =    -63161.00703738
  -exchange      EXHF   =         0.00000000
  -V(xc)+E(xc)   XCENC  =       364.77061370
  PAW double counting   =     10673.40006141   -11539.17179501
  entropy T*S    EENTRO =        -0.01811369
  eigenvalues    EBANDS =       -50.86343607
  atomic energy  EATOM  =     11152.61838693
  Solvation  Ediel_sol  =         0.00000000
  ---------------------------------------------------
  free energy    TOTEN  =       -33.35631800 eV

  energy without entropy =      -33.33820431  energy(sigma->0) =      -33.35028011


--------------------------------------------------------------------------------------------------------




--------------------------------------- Iteration      1(  16)  ---------------------------------------


    POTLOK:  cpu time      0.0192: real time      0.0195
    SETDIJ:  cpu time      0.0058: real time      0.0058
     EDDAV:  cpu time      0.2728: real time      0.2748
       DOS:  cpu time      0.0008: real time      0.0008
    CHARGE:  cpu time      0.0503: real time      0.0506
    MIXING:  cpu time      0.0013: real time      0.0013
    --------------------------------------------
      LOOP:  cpu time      0.3502: real time      0.3528

 eigenvalue-minimisations  :  1048
 total energy-change (2. order) :-0.1366238E+01  (-0.1506361E+00)
 number of electron      89.9999975 magnetization       2.2451253
 augmentation part       56.5312976 magnetization       1.5111265

 Broyden mixing:
  rms(total) = 0.37401E+00    rms(broyden)= 0.37399E+00
  rms(prec ) = 0.39315E+00
  weight for this iteration     100.00

 eigenvalues of (default mixing * dielectric matrix)
  average eigenvalue GAMMA=   1.2497
  6.8048  1.9637  0.8424  0.8424  0.7821  0.7821  0.0811  0.2293  0.3876  0.3876
  0.6438

 Free energy of the ion-electron system (eV)
  ---------------------------------------------------
  alpha Z        PSCENC =       285.34744303
  Ewald energy   TEWEN  =     52241.56755907
  -Hartree energ DENC   =    -63182.42616823
  -exchange      EXHF   =         0.00000000
  -V(xc)+E(xc)   XCENC  =       364.06698756
  PAW double counting   =     10635.95985037   -11498.73258579
  entropy T*S    EENTRO =        -0.01958138
  eigenvalues    EBANDS =       -33.10444794
  atomic energy  EATOM  =     11152.61838693
  Solvation  Ediel_sol  =         0.00000000
  ---------------------------------------------------
  free energy    TOTEN  =       -34.72255638 eV

  energy without entropy =      -34.70297500  energy(sigma->0) =      -34.71602925


--------------------------------------------------------------------------------------------------------




--------------------------------------- Iteration      1(  17)  ---------------------------------------


    POTLOK:  cpu time      0.0190: real time      0.0195
    SETDIJ:  cpu time      0.0059: real time      0.0060
     EDDAV:  cpu time      0.2571: real time      0.2589
       DOS:  cpu time      0.0007: real time      0.0008
    CHARGE:  cpu time      0.0500: real time      0.0502
    MIXING:  cpu time      0.0027: real time      0.0028
    --------------------------------------------
      LOOP:  cpu time      0.3355: real time      0.3381

 eigenvalue-minimisations  :   984
 total energy-change (2. order) :-0.6206358E+00  (-0.8914718E-01)
 number of electron      89.9999976 magnetization       1.4757074
 augmentation part       56.2865668 magnetization       0.8236270

 Broyden mixing:
  rms(total) = 0.20066E+00    rms(broyden)= 0.20064E+00
  rms(prec ) = 0.21434E+00
  weight for this iteration     100.00

 eigenvalues of (default mixing * dielectric matrix)
  average eigenvalue GAMMA=   1.4290
  9.2090  1.8741  1.0289  1.0289  0.8001  0.8001  0.0811  0.7344  0.2293  0.3872
  0.3872  0.5874

 Free energy of the ion-electron system (eV)
  ---------------------------------------------------
  alpha Z        PSCENC =       285.34744303
  Ewald energy   TEWEN  =     52241.56755907
  -Hartree energ DENC   =    -63209.06962826
  -exchange      EXHF   =         0.00000000
  -V(xc)+E(xc)   XCENC  =       364.15023733
  PAW double counting   =     10615.83748843   -11478.23227162
  entropy T*S    EENTRO =        -0.01305789
  eigenvalues    EBANDS =        -7.54934915
  atomic energy  EATOM  =     11152.61838693
  Solvation  Ediel_sol  =         0.00000000
  ---------------------------------------------------
  free energy    TOTEN  =       -35.34319214 eV

  energy without entropy =      -35.33013424  energy(sigma->0) =      -35.33883950


--------------------------------------------------------------------------------------------------------




--------------------------------------- Iteration      1(  18)  ---------------------------------------


    POTLOK:  cpu time      0.0189: real time      0.0192
    SETDIJ:  cpu time      0.0058: real time      0.0058
     EDDAV:  cpu time      0.2400: real time      0.2427
       DOS:  cpu time      0.0008: real time      0.0008
    CHARGE:  cpu time      0.0494: real time      0.0496
    MIXING:  cpu time      0.0014: real time      0.0014
    --------------------------------------------
      LOOP:  cpu time      0.3163: real time      0.3196

 eigenvalue-minimisations  :   904
 total energy-change (2. order) :-0.4441200E+00  (-0.5319716E-01)
 number of electron      89.9999977 magnetization       1.2146968
 augmentation part       56.1286184 magnetization       0.7301357

 Broyden mixing:
  rms(total) = 0.13646E+00    rms(broyden)= 0.13645E+00
  rms(prec ) = 0.15599E+00
  weight for this iteration     100.00

 eigenvalues of (default mixing * dielectric matrix)
  average eigenvalue GAMMA=   1.5759
 11.5090  2.1316  1.0994  1.0994  0.8162  0.8162  0.0811  0.7132  0.7132  0.2293
  0.3876  0.3876  0.5025

 Free energy of the ion-electron system (eV)
  ---------------------------------------------------
  alpha Z        PSCENC =       285.34744303
  Ewald energy   TEWEN  =     52241.56755907
  -Hartree energ DENC   =    -63213.79596894
  -exchange      EXHF   =         0.00000000
  -V(xc)+E(xc)   XCENC  =       364.15682599
  PAW double counting   =     10600.69773372   -11463.53783860
  entropy T*S    EENTRO =        -0.00750148
  eigenvalues    EBANDS =        -2.83395189
  atomic energy  EATOM  =     11152.61838693
  Solvation  Ediel_sol  =         0.00000000
  ---------------------------------------------------
  free energy    TOTEN  =       -35.78731217 eV

  energy without entropy =      -35.77981069  energy(sigma->0) =      -35.78481168


--------------------------------------------------------------------------------------------------------




--------------------------------------- Iteration      1(  19)  ---------------------------------------


    POTLOK:  cpu time      0.0189: real time      0.0192
    SETDIJ:  cpu time      0.0058: real time      0.0058
     EDDAV:  cpu time      0.2615: real time      0.2635
       DOS:  cpu time      0.0008: real time      0.0008
    CHARGE:  cpu time      0.0505: real time      0.0507
    MIXING:  cpu time      0.0016: real time      0.0016
    --------------------------------------------
      LOOP:  cpu time      0.3392: real time      0.3416

 eigenvalue-minimisations  :  1008
 total energy-change (2. order) :-0.2418994E+00  (-0.2361666E-01)
 number of electron      89.9999977 magnetization       1.0513883
 augmentation part       56.1216457 magnetization       0.6370509

 Broyden mixing:
  rms(total) = 0.99535E-01    rms(broyden)= 0.99522E-01
  rms(prec ) = 0.10595E+00
  weight for this iteration     100.00

 eigenvalues of (default mixing * dielectric matrix)
  average eigenvalue GAMMA=   1.5608
 12.0484  2.3220  1.1633  0.8646  0.8646  0.8055  0.8055  0.0811  0.7899  0.2293
  0.3874  0.3874  0.5513  0.5513

 Free energy of the ion-electron system (eV)
  ---------------------------------------------------
  alpha Z        PSCENC =       285.34744303
  Ewald energy   TEWEN  =     52241.56755907
  -Hartree energ DENC   =    -63215.64326319
  -exchange      EXHF   =         0.00000000
  -V(xc)+E(xc)   XCENC  =       363.94021131
  PAW double counting   =     10584.25772224   -11446.29859731
  entropy T*S    EENTRO =        -0.01031117
  eigenvalues    EBANDS =        -1.80836245
  atomic energy  EATOM  =     11152.61838693
  Solvation  Ediel_sol  =         0.00000000
  ---------------------------------------------------
  free energy    TOTEN  =       -36.02921153 eV

  energy without entropy =      -36.01890037  energy(sigma->0) =      -36.02577448


--------------------------------------------------------------------------------------------------------




--------------------------------------- Iteration      1(  20)  ---------------------------------------


    POTLOK:  cpu time      0.0188: real time      0.0194
    SETDIJ:  cpu time      0.0058: real time      0.0058
     EDDAV:  cpu time      0.2615: real time      0.2634
       DOS:  cpu time      0.0008: real time      0.0008
    CHARGE:  cpu time      0.0514: real time      0.0516
    MIXING:  cpu time      0.0016: real time      0.0016
    --------------------------------------------
      LOOP:  cpu time      0.3400: real time      0.3426

 eigenvalue-minimisations  :  1004
 total energy-change (2. order) :-0.1381502E+00  (-0.7270024E-02)
 number of electron      89.9999976 magnetization       0.7783279
 augmentation part       56.1596613 magnetization       0.4065552

 Broyden mixing:
  rms(total) = 0.78474E-01    rms(broyden)= 0.78467E-01
  rms(prec ) = 0.84977E-01
  weight for this iteration     100.00

 eigenvalues of (default mixing * dielectric matrix)
  average eigenvalue GAMMA=   1.6381
 12.7137  2.7478  1.5632  1.1344  1.1344  0.8013  0.8013  0.0811  0.7727  0.7727
  0.2293  0.3876  0.3876  0.5469  0.4981

 Free energy of the ion-electron system (eV)
  ---------------------------------------------------
  alpha Z        PSCENC =       285.34744303
  Ewald energy   TEWEN  =     52241.56755907
  -Hartree energ DENC   =    -63211.27779802
  -exchange      EXHF   =         0.00000000
  -V(xc)+E(xc)   XCENC  =       363.75904139
  PAW double counting   =     10572.80730898   -11434.25237128
  entropy T*S    EENTRO =        -0.01392370
  eigenvalues    EBANDS =        -6.72300812
  atomic energy  EATOM  =     11152.61838693
  Solvation  Ediel_sol  =         0.00000000
  ---------------------------------------------------
  free energy    TOTEN  =       -36.16736172 eV

  energy without entropy =      -36.15343802  energy(sigma->0) =      -36.16272049


--------------------------------------------------------------------------------------------------------




--------------------------------------- Iteration      1(  21)  ---------------------------------------


    POTLOK:  cpu time      0.0189: real time      0.0192
    SETDIJ:  cpu time      0.0059: real time      0.0059
     EDDAV:  cpu time      0.2823: real time      0.2845
       DOS:  cpu time      0.0008: real time      0.0008
    CHARGE:  cpu time      0.0534: real time      0.0537
    MIXING:  cpu time      0.0021: real time      0.0021
    --------------------------------------------
      LOOP:  cpu time      0.3633: real time      0.3661

 eigenvalue-minimisations  :  1024
 total energy-change (2. order) :-0.1907101E+00  (-0.1358505E-01)
 number of electron      89.9999976 magnetization       0.6088783
 augmentation part       56.1935391 magnetization       0.3305677

 Broyden mixing:
  rms(total) = 0.59468E-01    rms(broyden)= 0.59444E-01
  rms(prec ) = 0.60470E-01
  weight for this iteration     100.00

 eigenvalues of (default mixing * dielectric matrix)
  average eigenvalue GAMMA=   1.6843
 13.3443  3.1738  2.2210  1.0840  1.0840  0.0811  0.7935  0.7935  0.8344  0.8344
  0.2293  0.6151  0.6151  0.3876  0.3876  0.4710

 Free energy of the ion-electron system (eV)
  ---------------------------------------------------
  alpha Z        PSCENC =       285.34744303
  Ewald energy   TEWEN  =     52241.56755907
  -Hartree energ DENC   =    -63203.19570774
  -exchange      EXHF   =         0.00000000
  -V(xc)+E(xc)   XCENC  =       363.56582718
  PAW double counting   =     10560.66581603   -11421.91145592
  entropy T*S    EENTRO =        -0.02099465
  eigenvalues    EBANDS =       -14.99494572
  atomic energy  EATOM  =     11152.61838693
  Solvation  Ediel_sol  =         0.00000000
  ---------------------------------------------------
  free energy    TOTEN  =       -36.35807179 eV

  energy without entropy =      -36.33707714  energy(sigma->0) =      -36.35107358


--------------------------------------------------------------------------------------------------------




--------------------------------------- Iteration      1(  22)  ---------------------------------------


    POTLOK:  cpu time      0.0203: real time      0.0206
    SETDIJ:  cpu time      0.0061: real time      0.0061
     EDDAV:  cpu time      0.2407: real time      0.2425
       DOS:  cpu time      0.0008: real time      0.0008
    CHARGE:  cpu time      0.0527: real time      0.0532
    MIXING:  cpu time      0.0019: real time      0.0019
    --------------------------------------------
      LOOP:  cpu time      0.3225: real time      0.3251

 eigenvalue-minimisations  :   904
 total energy-change (2. order) :-0.4022473E-01  (-0.4169399E-02)
 number of electron      89.9999976 magnetization       0.4792103
 augmentation part       56.1780847 magnetization       0.2456296

 Broyden mixing:
  rms(total) = 0.47120E-01    rms(broyden)= 0.47109E-01
  rms(prec ) = 0.47480E-01
  weight for this iteration     100.00

 eigenvalues of (default mixing * dielectric matrix)
  average eigenvalue GAMMA=   1.7445
 13.9244  4.1150  2.0606  1.5234  1.0152  1.0152  0.0811  0.7899  0.7899  0.8655
  0.7932  0.2293  0.3876  0.3876  0.6286  0.5766  0.4743

 Free energy of the ion-electron system (eV)
  ---------------------------------------------------
  alpha Z        PSCENC =       285.34744303
  Ewald energy   TEWEN  =     52241.56755907
  -Hartree energ DENC   =    -63201.59987086
  -exchange      EXHF   =         0.00000000
  -V(xc)+E(xc)   XCENC  =       363.58012102
  PAW double counting   =     10563.61646952   -11425.33937560
  entropy T*S    EENTRO =        -0.02301789
  eigenvalues    EBANDS =       -16.16601175
  atomic energy  EATOM  =     11152.61838693
  Solvation  Ediel_sol  =         0.00000000
  ---------------------------------------------------
  free energy    TOTEN  =       -36.39829652 eV

  energy without entropy =      -36.37527863  energy(sigma->0) =      -36.39062389


--------------------------------------------------------------------------------------------------------




--------------------------------------- Iteration      1(  23)  ---------------------------------------


    POTLOK:  cpu time      0.0189: real time      0.0192
    SETDIJ:  cpu time      0.0061: real time      0.0062
     EDDAV:  cpu time      0.2391: real time      0.2408
       DOS:  cpu time      0.0008: real time      0.0008
    CHARGE:  cpu time      0.0532: real time      0.0535
    MIXING:  cpu time      0.0020: real time      0.0020
    --------------------------------------------
      LOOP:  cpu time      0.3201: real time      0.3224

 eigenvalue-minimisations  :   896
 total energy-change (2. order) :-0.4935507E-01  (-0.2653392E-02)
 number of electron      89.9999976 magnetization       0.3492546
 augmentation part       56.1762480 magnetization       0.1577485

 Broyden mixing:
  rms(total) = 0.40057E-01    rms(broyden)= 0.40047E-01
  rms(prec ) = 0.41852E-01
  weight for this iteration     100.00

 eigenvalues of (default mixing * dielectric matrix)
  average eigenvalue GAMMA=   1.8127
 14.3792  5.0612  2.1749  1.9573  1.0666  1.0666  0.9300  0.9300  0.7930  0.7930
  0.0811  0.2293  0.7281  0.3876  0.3876  0.6205  0.5727  0.4708

 Free energy of the ion-electron system (eV)
  ---------------------------------------------------
  alpha Z        PSCENC =       285.34744303
  Ewald energy   TEWEN  =     52241.56755907
  -Hartree energ DENC   =    -63199.23712475
  -exchange      EXHF   =         0.00000000
  -V(xc)+E(xc)   XCENC  =       363.54302272
  PAW double counting   =     10566.14744191   -11428.08887858
  entropy T*S    EENTRO =        -0.02396219
  eigenvalues    EBANDS =       -18.32153973
  atomic energy  EATOM  =     11152.61838693
  Solvation  Ediel_sol  =         0.00000000
  ---------------------------------------------------
  free energy    TOTEN  =       -36.44765159 eV

  energy without entropy =      -36.42368940  energy(sigma->0) =      -36.43966419


--------------------------------------------------------------------------------------------------------




--------------------------------------- Iteration      1(  24)  ---------------------------------------


    POTLOK:  cpu time      0.0190: real time      0.0192
    SETDIJ:  cpu time      0.0058: real time      0.0058
     EDDAV:  cpu time      0.2238: real time      0.2257
       DOS:  cpu time      0.0008: real time      0.0008
    CHARGE:  cpu time      0.0517: real time      0.0519
    MIXING:  cpu time      0.0020: real time      0.0020
    --------------------------------------------
      LOOP:  cpu time      0.3030: real time      0.3055

 eigenvalue-minimisations  :   828
 total energy-change (2. order) :-0.2569449E+00  (-0.2649435E-02)
 number of electron      89.9999976 magnetization       0.2629557
 augmentation part       56.1836144 magnetization       0.1026876

 Broyden mixing:
  rms(total) = 0.31809E-01    rms(broyden)= 0.31797E-01
  rms(prec ) = 0.33405E-01
  weight for this iteration     100.00

 eigenvalues of (default mixing * dielectric matrix)
  average eigenvalue GAMMA=   1.8689
 14.8830  6.1049  2.6161  1.9664  1.1977  1.0173  1.0173  0.0811  0.7927  0.7927
  0.9229  0.2293  0.7786  0.3876  0.3876  0.6956  0.5844  0.5844  0.4692

 Free energy of the ion-electron system (eV)
  ---------------------------------------------------
  alpha Z        PSCENC =       285.34744303
  Ewald energy   TEWEN  =     52241.56755907
  -Hartree energ DENC   =    -63196.70219313
  -exchange      EXHF   =         0.00000000
  -V(xc)+E(xc)   XCENC  =       363.28012471
  PAW double counting   =     10570.32658431   -11432.38567181
  entropy T*S    EENTRO =        -0.02450957
  eigenvalues    EBANDS =       -20.73232007
  atomic energy  EATOM  =     11152.61838693
  Solvation  Ediel_sol  =         0.00000000
  ---------------------------------------------------
  free energy    TOTEN  =       -36.70459653 eV

  energy without entropy =      -36.68008696  energy(sigma->0) =      -36.69642668


--------------------------------------------------------------------------------------------------------




--------------------------------------- Iteration      1(  25)  ---------------------------------------


    POTLOK:  cpu time      0.0190: real time      0.0192
    SETDIJ:  cpu time      0.0058: real time      0.0058
     EDDAV:  cpu time      0.2400: real time      0.2417
       DOS:  cpu time      0.0008: real time      0.0008
    CHARGE:  cpu time      0.0515: real time      0.0518
    MIXING:  cpu time      0.0023: real time      0.0023
    --------------------------------------------
      LOOP:  cpu time      0.3194: real time      0.3217

 eigenvalue-minimisations  :   908
 total energy-change (2. order) :-0.1978418E+00  (-0.7980892E-03)
 number of electron      89.9999976 magnetization       0.1767701
 augmentation part       56.1809865 magnetization       0.0418239

 Broyden mixing:
  rms(total) = 0.25399E-01    rms(broyden)= 0.25393E-01
  rms(prec ) = 0.26960E-01
  weight for this iteration     100.00

 eigenvalues of (default mixing * dielectric matrix)
  average eigenvalue GAMMA=   1.9641
 15.7085  7.4352  3.0914  2.0856  1.4429  1.0754  1.0754  0.0811  0.7932  0.7932
  0.8893  0.8893  0.2293  0.7325  0.3876  0.3876  0.6008  0.6008  0.4709  0.5127

 Free energy of the ion-electron system (eV)
  ---------------------------------------------------
  alpha Z        PSCENC =       285.34744303
  Ewald energy   TEWEN  =     52241.56755907
  -Hartree energ DENC   =    -63195.34364497
  -exchange      EXHF   =         0.00000000
  -V(xc)+E(xc)   XCENC  =       363.10054729
  PAW double counting   =     10573.38635731   -11435.60301885
  entropy T*S    EENTRO =        -0.02381789
  eigenvalues    EBANDS =       -21.95225026
  atomic energy  EATOM  =     11152.61838693
  Solvation  Ediel_sol  =         0.00000000
  ---------------------------------------------------
  free energy    TOTEN  =       -36.90243833 eV

  energy without entropy =      -36.87862044  energy(sigma->0) =      -36.89449903


--------------------------------------------------------------------------------------------------------




--------------------------------------- Iteration      1(  26)  ---------------------------------------


    POTLOK:  cpu time      0.0188: real time      0.0191
    SETDIJ:  cpu time      0.0058: real time      0.0058
     EDDAV:  cpu time      0.2534: real time      0.2556
       DOS:  cpu time      0.0008: real time      0.0008
[...]
      2      -3.7122      1.00000
      3      -3.4276      1.00000
      4      -3.0158      1.00000
      5      -2.5843      1.00000
      6      -2.1978      1.00000
      7      -1.8686      1.00000
      8      -1.6893      1.00000
      9      -1.6172      1.00000
     10      -1.5169      1.00000
     11      -1.4487      1.00000
     12      -1.2289      1.00000
     13      -1.0372      1.00000
     14      -0.8875      1.00000
     15      -0.7168      1.00000
     16      -0.7008      1.00000
     17      -0.5696      1.00000
     18      -0.5045      1.00000
     19      -0.4457      1.00000
     20      -0.3602      1.00000
     21      -0.3552      1.00000
     22      -0.2545      1.00000
     23      -0.1400      1.00000
     24      -0.1119      1.00000
     25       0.0411      1.00000
     26       0.1394      1.00000
     27       0.2687      1.00000
     28       0.3436      1.00000
     29       0.4244      1.00000
     30       0.4995      1.00000
     31       0.5052      1.00000
     32       0.5828      1.00000
     33       0.6009      1.00000
     34       0.6544      1.00000
     35       0.6788      1.00000
     36       0.7344      1.00000
     37       0.7698      1.00000
     38       0.7771      1.00000
     39       0.8658      1.00000
     40       0.8959      1.00000
     41       1.0525      1.00000
     42       1.1332      1.00000
     43       1.1420      1.00000
     44       1.2014      1.00000
     45       1.3065      1.00000
     46       1.9461      0.79147
     47       3.0535     -0.00000
     48       4.4105     -0.00000
     49       5.9106     -0.00000
     50       7.1294     -0.00000
     51       8.4793      0.00000
     52       9.0420      0.00000
     53       9.4164      0.00000
     54       9.7598      0.00000
     55      10.1496      0.00000
     56      10.5438      0.00000
     57      11.0024      0.00000
     58      11.5912      0.00000
     59      11.7498      0.00000
     60      12.1882      0.00000

 k-point     3 :      -0.3333    0.3333    0.0000
  band No.  band energies     occupation 
      1      -2.3874      1.00000
      2      -1.6078      1.00000
      3      -1.5971      1.00000
      4      -1.5928      1.00000
      5      -1.5345      1.00000
      6      -1.4800      1.00000
      7      -1.4799      1.00000
      8      -1.4400      1.00000
      9      -1.4316      1.00000
     10      -1.4316      1.00000
     11      -1.4072      1.00000
     12      -1.4061      1.00000
     13      -1.2423      1.00000
     14      -1.2059      1.00000
     15      -1.1105      1.00000
     16      -1.0871      1.00000
     17      -0.7668      1.00000
     18      -0.7265      1.00000
     19      -0.7220      1.00000
     20      -0.6562      1.00000
     21      -0.4663      1.00000
     22      -0.4153      1.00000
     23       0.0432      1.00000
     24       0.0959      1.00000
     25       0.1690      1.00000
     26       0.1841      1.00000
     27       0.2717      1.00000
     28       0.2753      1.00000
     29       0.3064      1.00000
     30       0.3090      1.00000
     31       0.3124      1.00000
     32       0.6090      1.00000
     33       0.6673      1.00000
     34       0.7965      1.00000
     35       0.7981      1.00000
     36       0.8327      1.00000
     37       0.8920      1.00000
     38       0.9680      1.00000
     39       0.9749      1.00000
     40       1.0055      1.00000
     41       1.0772      1.00000
     42       5.7159     -0.00000
     43       5.7203     -0.00000
     44       5.7440     -0.00000
     45       5.8975     -0.00000
     46       5.9031     -0.00000
     47       6.1803     -0.00000
     48       6.2969     -0.00000
     49       6.8907     -0.00000
     50       7.0387     -0.00000
     51       7.6347      0.00000
     52       7.6362      0.00000
     53       7.7572      0.00000
     54       8.1819      0.00000
     55       8.1961      0.00000
     56       8.7768      0.00000
     57       9.1593      0.00000
     58       9.4227      0.00000
     59      10.4247      0.00000
     60      11.0306      0.00000


--------------------------------------------------------------------------------------------------------


 soft charge-density along one line, spin component           1
         0         1         2         3         4         5         6         7         8         9
 total charge-density along one line
 
 soft charge-density along one line, spin component           2
         0         1         2         3         4         5         6         7         8         9
 total charge-density along one line
 
 pseudopotential strength for first ion, spin component:           1
 -6.060  -0.000   0.000  -0.004   0.000  -2.335   0.000  -0.000
 -0.000  -6.112  -0.000   0.000  -0.004   0.000  -2.299   0.000
  0.000  -0.000  -6.138  -0.000   0.000  -0.000   0.000  -2.281
 -0.004   0.000  -0.000  -6.112  -0.000   0.003  -0.000   0.000
  0.000  -0.004   0.000  -0.000  -6.060  -0.000   0.003  -0.000
 -2.335   0.000  -0.000   0.003  -0.000   8.624  -0.000   0.000
  0.000  -2.299   0.000  -0.000   0.003  -0.000   8.601  -0.000
 -0.000   0.000  -2.281   0.000  -0.000   0.000  -0.000   8.589
  0.003  -0.000   0.000  -2.299   0.000  -0.002  -0.000  -0.000
 -0.000   0.003  -0.000   0.000  -2.335   0.000  -0.002   0.000
  0.000   0.000   0.003   0.000   0.000   0.000   0.000   0.001
  0.000   0.000   0.005   0.000   0.000   0.000   0.000   0.003
  0.000  -0.012  -0.000  -0.000   0.000   0.000   0.012  -0.000
 -0.000  -0.000  -0.011  -0.000  -0.000  -0.000  -0.000   0.009
  0.000  -0.000  -0.000  -0.012   0.000   0.000  -0.000  -0.000
  0.000  -0.014  -0.000   0.000   0.000   0.000   0.014  -0.000
  0.000   0.000  -0.011   0.000   0.000  -0.000  -0.000   0.010
  0.000   0.000  -0.000  -0.014   0.000   0.000  -0.000  -0.000
 pseudopotential strength for first ion, spin component:           2
 -6.060  -0.000   0.000  -0.004   0.000  -2.335   0.000  -0.000
 -0.000  -6.112  -0.000   0.000  -0.004   0.000  -2.299   0.000
  0.000  -0.000  -6.138  -0.000   0.000  -0.000   0.000  -2.281
 -0.004   0.000  -0.000  -6.112  -0.000   0.003  -0.000   0.000
  0.000  -0.004   0.000  -0.000  -6.060  -0.000   0.003  -0.000
 -2.335   0.000  -0.000   0.003  -0.000   8.624  -0.000   0.000
  0.000  -2.299   0.000  -0.000   0.003  -0.000   8.601  -0.000
 -0.000   0.000  -2.281   0.000  -0.000   0.000  -0.000   8.589
  0.003  -0.000   0.000  -2.299   0.000  -0.002  -0.000  -0.000
 -0.000   0.003  -0.000   0.000  -2.335   0.000  -0.002   0.000
  0.000   0.000   0.003   0.000   0.000   0.000   0.000   0.001
  0.000   0.000   0.005   0.000   0.000   0.000   0.000   0.003
  0.000  -0.012  -0.000  -0.000   0.000   0.000   0.012  -0.000
 -0.000  -0.000  -0.011  -0.000  -0.000  -0.000  -0.000   0.009
  0.000  -0.000  -0.000  -0.012   0.000   0.000  -0.000  -0.000
  0.000  -0.014  -0.000   0.000   0.000   0.000   0.014  -0.000
  0.000   0.000  -0.011   0.000   0.000  -0.000  -0.000   0.010
  0.000   0.000  -0.000  -0.014   0.000   0.000  -0.000  -0.000
 total augmentation occupancy for first ion, spin component:           1
  1.932   0.000  -0.000  -0.004  -0.000  -0.016  -0.000   0.000   0.005   0.000   0.000  -0.000  -0.000  -0.000   0.006   0.000
  0.000   1.929   0.000   0.000  -0.004  -0.000  -0.023  -0.000  -0.000   0.005   0.000   0.000   0.007  -0.000   0.000  -0.013
 -0.000   0.000   1.915   0.000  -0.000   0.000  -0.000  -0.017  -0.000   0.000  -0.067   0.028  -0.000   0.077  -0.000   0.000
 -0.004   0.000   0.000   1.929  -0.000   0.005  -0.000  -0.000  -0.023   0.000   0.000   0.000   0.000   0.000   0.007  -0.000
 -0.000  -0.004  -0.000  -0.000   1.932  -0.000   0.005   0.000   0.000  -0.016   0.000  -0.000   0.006  -0.000   0.000  -0.001
 -0.016  -0.000   0.000   0.005  -0.000   0.013  -0.000  -0.000   0.000  -0.000   0.000  -0.000  -0.000  -0.000   0.004   0.000
 -0.000  -0.023  -0.000  -0.000   0.005  -0.000   0.010  -0.000   0.000   0.000   0.000   0.000   0.019   0.000   0.000  -0.002
  0.000  -0.000  -0.017  -0.000   0.000  -0.000  -0.000   0.012  -0.000  -0.000  -0.022   0.001  -0.000   0.021  -0.000   0.000
  0.005  -0.000  -0.000  -0.023   0.000   0.000   0.000  -0.000   0.010   0.000  -0.000   0.000   0.000  -0.000   0.019  -0.000
 -0.000   0.005   0.000   0.000  -0.016  -0.000   0.000  -0.000   0.000   0.013   0.000  -0.000   0.004  -0.000   0.000  -0.000
  0.000   0.000  -0.067  -0.000   0.000   0.000  -0.000  -0.022  -0.000   0.000   1.752  -0.149   0.000   0.176   0.000   0.000
 -0.000   0.000   0.028   0.000  -0.000  -0.000   0.000   0.001   0.000  -0.000  -0.149   0.018   0.000  -0.025  -0.000   0.000
 -0.000   0.007  -0.000   0.000   0.006  -0.000   0.019  -0.000   0.000   0.004  -0.000   0.000   0.234   0.000   0.000  -0.015
 -0.000   0.000   0.077   0.000  -0.000  -0.000   0.000   0.021   0.000  -0.000   0.176  -0.025   0.000   0.112  -0.000   0.000
  0.006   0.000  -0.000   0.007   0.000   0.004   0.000  -0.000   0.019   0.000   0.000   0.000   0.000  -0.000   0.234  -0.000
  0.000  -0.013   0.000  -0.000  -0.001   0.000  -0.002   0.000  -0.000  -0.000   0.000   0.000  -0.015   0.000  -0.000   0.001
  0.000   0.000  -0.019   0.000   0.000   0.000   0.000  -0.001  -0.000   0.000  -0.023   0.003  -0.000  -0.009   0.000   0.000
 -0.001  -0.000   0.000  -0.013  -0.000  -0.000  -0.000   0.000  -0.002  -0.000  -0.000   0.000  -0.000   0.000  -0.015   0.000
 total augmentation occupancy for first ion, spin component:           2
  0.000   0.000   0.000  -0.000  -0.000   0.000   0.000   0.000  -0.000  -0.000   0.000  -0.000   0.000   0.000  -0.000  -0.000
  0.000  -0.000   0.000  -0.000  -0.000   0.000   0.000   0.000   0.000  -0.000   0.000   0.000  -0.000   0.000  -0.000   0.000
  0.000   0.000  -0.000   0.000   0.000   0.000   0.000  -0.000   0.000   0.000  -0.000   0.000   0.000  -0.000   0.000  -0.000
 -0.000  -0.000   0.000  -0.000  -0.000  -0.000   0.000   0.000   0.000  -0.000  -0.000   0.000  -0.000   0.000  -0.000   0.000
 -0.000  -0.000   0.000  -0.000   0.000  -0.000  -0.000   0.000  -0.000   0.000   0.000  -0.000  -0.000   0.000  -0.000   0.000
  0.000   0.000   0.000  -0.000  -0.000   0.000   0.000   0.000  -0.000  -0.000  -0.000  -0.000  -0.000   0.000   0.000   0.000
  0.000   0.000   0.000   0.000  -0.000   0.000  -0.000   0.000  -0.000  -0.000  -0.000   0.000  -0.000   0.000  -0.000   0.000
  0.000   0.000  -0.000   0.000   0.000   0.000   0.000  -0.000   0.000   0.000   0.000   0.000  -0.000  -0.000  -0.000   0.000
 -0.000   0.000   0.000   0.000  -0.000  -0.000  -0.000   0.000  -0.000  -0.000   0.000   0.000  -0.000  -0.000  -0.000   0.000
 -0.000  -0.000   0.000  -0.000   0.000  -0.000  -0.000   0.000  -0.000   0.000  -0.000  -0.000   0.000   0.000   0.000  -0.000
  0.000   0.000  -0.000   0.000   0.000  -0.000  -0.000   0.000  -0.000  -0.000   0.000  -0.000   0.000  -0.000   0.000   0.000
 -0.000   0.000   0.000   0.000  -0.000  -0.000   0.000   0.000  -0.000  -0.000  -0.000   0.000   0.000   0.000   0.000  -0.000
  0.000  -0.000   0.000  -0.000  -0.000  -0.000  -0.000  -0.000  -0.000   0.000   0.000   0.000   0.000   0.000   0.000  -0.000
  0.000   0.000  -0.000   0.000   0.000   0.000   0.000  -0.000  -0.000   0.000  -0.000   0.000   0.000  -0.000  -0.000  -0.000
 -0.000  -0.000   0.000  -0.000  -0.000   0.000  -0.000  -0.000  -0.000   0.000  -0.000   0.000   0.000   0.000   0.000  -0.000
 -0.000   0.000  -0.000   0.000   0.000   0.000   0.000   0.000   0.000  -0.000   0.000  -0.000  -0.000  -0.000  -0.000   0.000
 -0.000   0.000   0.000  -0.000  -0.000  -0.000  -0.000   0.000   0.000  -0.000  -0.000  -0.000   0.000   0.000   0.000  -0.000
  0.000   0.000  -0.000   0.000   0.000  -0.000   0.000   0.000   0.000  -0.000   0.000  -0.000  -0.000  -0.000  -0.000   0.000


------------------------ aborting loop because EDIFF is reached ----------------------------------------


    CHARGE:  cpu time      0.0499: real time      0.0502
    FORLOC:  cpu time      0.0012: real time      0.0012
    FORNL :  cpu time      0.0937: real time      0.0941
    STRESS:  cpu time      0.1072: real time      0.1077
    FORCOR:  cpu time      0.0185: real time      0.0186
    FORHAR:  cpu time      0.0030: real time      0.0030
    MIXING:  cpu time      0.0005: real time      0.0005
    OFIELD:  cpu time      0.0000: real time      0.0000

 ---------------------------------------------------------------------------------------------

         DFTD3 V3.0 Rev 1        
 Edisp (eV)   -3.67180

 E6    (eV) :    -1.5310
 E8    (eV) :    -2.1408
 % E8        : 58.30
    FORVDW:  cpu time      0.0724: real time      0.0727

  FORCE on cell =-STRESS in cart. coord.  units (eV):
  Direction    XX          YY          ZZ          XY          YZ          ZX
  --------------------------------------------------------------------------------------
  Alpha Z   285.34744   285.34744   285.34744
  Ewald   59049.63902 59049.63902-64932.16629    -0.00000     0.00000    -0.00000
  Hartree 62283.81150 62283.81150-60464.91754     0.00000    -0.00000    -0.00000
  E(xc)    -520.99106  -520.99090  -521.08502    -0.00013     0.00000     0.00000
  Local  ************************124328.65810     0.00402    -0.00000    -0.00001
  n-local  -178.22068  -171.27951  -180.11613     6.01157    -1.12560     1.95606
  augment   759.79093   759.79538   753.58553    -0.00386     0.00000     0.00001
  Kinetic   755.68870   729.31310   734.00157   -22.84136    -2.19326     3.79889
  Fock        0.00000     0.00000     0.00000     0.00000     0.00000     0.00000
  vdW        -4.34387    -4.34387    -3.75227     0.00000     0.00000     0.00000
  -------------------------------------------------------------------------------------
  Total      -4.44534    -4.44534    -0.44463    -0.00000    -0.00000    -0.00000
  in kB     -42.07043   -42.07043    -4.20792    -0.00000    -0.00000    -0.00000
  external pressure =      -29.45 kB  Pullay stress =        0.00 kB


 VOLUME and BASIS-vectors are now :
 -----------------------------------------------------------------------------
  energy-cutoff  :      400.00
  volume of cell :      169.29
      direct lattice vectors                 reciprocal lattice vectors
     2.566797733  0.000000000  0.000000000     0.389590495 -0.224930177  0.000000000
     1.283398867  2.222912043  0.000000000     0.000000000  0.449860355  0.000000000
     0.000000000  0.000000000 29.670471191     0.000000000  0.000000000  0.033703543

  length of vectors
     2.566797733  2.566797733 29.670471191     0.449860355  0.449860355  0.033703543


 FORCES acting on ions
    electron-ion (+dipol)            ewald-force                    non-local-force                 convergence-correction
 -----------------------------------------------------------------------------------------------
   -.314E-05 -.181E-05 0.608E+04   0.105E-07 -.334E-08 -.607E+04   0.694E-17 0.139E-16 -.347E+01   -.876E-06 -.506E-06 -.210E+00
   0.396E-05 0.351E-05 0.437E+04   -.266E-07 0.218E-09 -.437E+04   0.139E-16 -.139E-16 0.413E+00   -.274E-05 -.158E-05 -.402E-01
   -.770E-05 -.417E-05 0.266E+04   0.258E-07 0.102E-07 -.266E+04   0.347E-17 0.000E+00 0.169E+00   -.177E-05 -.102E-05 0.326E+00
   0.141E-05 0.815E-06 0.971E+03   0.315E-09 -.102E-07 -.971E+03   -.173E-17 0.173E-17 -.850E+00   0.125E-05 0.724E-06 0.705E+00
   0.259E-05 0.272E-05 -.733E+03   -.255E-07 0.123E-09 0.732E+03   0.867E-18 -.173E-17 0.657E+00   0.145E-05 0.838E-06 0.716E+00
   -.461E-05 -.238E-05 -.242E+04   0.253E-07 0.102E-07 0.242E+04   -.867E-18 -.173E-17 -.138E+00   0.109E-05 0.632E-06 0.575E+00
   0.253E-05 0.146E-05 -.412E+04   0.676E-09 -.105E-07 0.412E+04   0.694E-17 0.139E-16 0.830E-01   -.125E-05 -.721E-06 0.905E-01
   0.679E-05 0.516E-05 -.583E+04   -.104E-07 0.242E-08 0.582E+04   0.139E-16 0.139E-16 0.446E+01   -.544E-06 -.314E-06 -.191E+00
   0.255E-06 0.210E-06 -.498E+03   -.270E-10 0.759E-09 0.494E+03   -.217E-18 0.000E+00 0.481E+01   0.884E-09 0.521E-09 -.414E-01
   0.160E-06 0.155E-06 -.480E+03   -.563E-11 0.906E-10 0.485E+03   0.000E+00 0.217E-18 -.487E+01   -.118E-10 -.785E-11 -.444E-01
 -----------------------------------------------------------------------------------------------
   0.225E-05 0.568E-05 -.311E+01   0.219E-12 -.563E-13 0.227E-12   0.432E-16 0.262E-16 0.127E+01   -.337E-05 -.195E-05 0.188E+01
 
 
 POSITION                                       TOTAL-FORCE (eV/Angst)
 -----------------------------------------------------------------------------------
     -0.00000     -0.00000      0.01363        -0.000000     -0.000000     -0.017364
      1.28340      0.74097      2.00694        -0.000000     -0.000000     -0.007635
      2.56680      1.48194      4.02355        -0.000000     -0.000000      0.002344
     -0.00000     -0.00000      6.05149        -0.000000     -0.000000      0.027921
      1.28340      0.74097      8.06742         0.000000      0.000000     -0.021312
      2.56680      1.48194     10.09781        -0.000000     -0.000000      0.017458
      0.00000     -0.00000     12.11911        -0.000000     -0.000000      0.014280
      1.28340      0.74097     14.11684         0.000000      0.000000     -0.029598
      2.56680      1.48194     16.30919        -0.000000     -0.000000      0.024671
      2.56680      1.48194     17.06794        -0.000000     -0.000000     -0.010766
 -----------------------------------------------------------------------------------
    total drift:                               -0.000001      0.000004      0.041811


--------------------------------------------------------------------------------------------------------



  FREE ENERGIE OF THE ION-ELECTRON SYSTEM (eV)
  ---------------------------------------------------
  free  energy   TOTEN  =       -40.88250145 eV

  energy  without entropy=      -40.85548012  energy(sigma->0) =      -40.87349434
 
 d Force = 0.1386241E-03[ 0.115E-03, 0.163E-03]  d Energy = 0.1987919E-03-0.602E-04
 d Force = 0.1939105E+02[ 0.194E+02, 0.194E+02]  d Ewald  = 0.1939105E+02-0.137E-06


--------------------------------------------------------------------------------------------------------


    POTLOK:  cpu time      0.0254: real time      0.0256


--------------------------------------------------------------------------------------------------------


 stress matrix after NEB project (eV)
     -4.44534     -0.00000     -0.00000
     -0.00000     -4.44534     -0.00000
     -0.00000     -0.00000     -0.44463
  FORCES: max atom, RMS     0.029598    0.019257
  FORCE total and by dimension    0.060896    0.029598
  Stress total and by dimension    6.302360    4.445337


--------------------------------------------------------------------------------------------------------


  
 reached required accuracy - stopping structural energy minimisation
     LOOP+:  cpu time      1.2151: real time      1.2818
    4ORBIT:  cpu time      0.0000: real time      0.0000

 total amount of memory used by VASP MPI-rank0    34212. kBytes
=======================================================================

   base      :      30000. kBytes
   nonl-proj :        634. kBytes
   fftplans  :        716. kBytes
   grid      :       1856. kBytes
   one-center:         62. kBytes
   wavefun   :        944. kBytes
 
  
  
 General timing and accounting informations for this job:
 ========================================================
  
                  Total CPU time used (sec):       96.791
                            User time (sec):       96.080
                          System time (sec):        0.710
                         Elapsed time (sec):       99.935
  
                   Maximum memory used (kb):      230952.
                   Average memory used (kb):          N/A
  
                          Minor page faults:       218146
                          Major page faults:         6522
                 Voluntary context switches:         3469
