<?xml version="1.0" encoding="ISO-8859-1"?>
<modeling>
 <generator>
  <i name="program" type="string">vasp </i>
  <i name="version" type="string">6.3.2  </i>
  <i name="subversion" type="string">27Jun22 (build Aug 17 2022 15:43:34) complex                          parallel </i>
  <i name="platform" type="string">tv2STDVTST </i>
  <i name="date" type="string">2025 02 04 </i>
  <i name="time" type="string">14:22:02 </i>
 </generator>
 <incar>
  <i type="int" name="ISTART">     0</i>
  <i type="string" name="PREC">Normal</i>
  <i type="int" name="ISPIN">     2</i>
  <i type="int" name="ICHARG">     2</i>
  <i type="int" name="IBRION">     2</i>
  <i name="EDIFF">      0.00020000</i>
  <i name="EDIFFG">     -0.03000000</i>
  <i type="int" name="NSW">   800</i>
  <i type="int" name="ISIF">     2</i>
  <i type="int" name="ISYM">     1</i>
  <i name="ENCUT">    400.00000000</i>
  <i name="POTIM">      0.50000000</i>
  <i type="logical" name="LREAL"> F  </i>
  <i type="int" name="ISMEAR">     1</i>
  <i name="SIGMA">      0.20000000</i>
  <i type="logical" name="LWAVE"> F  </i>
  <i type="logical" name="LCHARG"> F  </i>
  <i type="string" name="GGA">PE</i>
  <i type="int" name="IVDW">    11</i>
 </incar>
 <primitive_cell>
  <structure name="primitive_cell" >
   <crystal>
    <varray name="basis" >
     <v>       2.56679773       0.00000000       0.00000000 </v>
     <v>       1.28339887       2.22291204       0.00000000 </v>
     <v>       0.00000000       0.00000000      29.67047119 </v>
    </varray>
    <i name="volume">    169.29275369 </i>
    <varray name="rec_basis" >
     <v>       0.38959050      -0.22493018       0.00000000 </v>
     <v>       0.00000000       0.44986035       0.00000000 </v>
     <v>       0.00000000       0.00000000       0.03370354 </v>
    </varray>
   </crystal>
   <varray name="positions" >
    <v>       0.00000000       0.00000000       0.00000000 </v>
    <v>       0.33333333       0.33333333       0.07063526 </v>
    <v>       0.66666667       0.66666667       0.13908594 </v>
    <v>       0.00000000       0.00000000       0.20816512 </v>
    <v>       0.33333333       0.33333333       0.27656240 </v>
    <v>       0.66666667       0.66666667       0.34556034 </v>
    <v>       0.00000000       0.00000000       0.41400593 </v>
    <v>       0.33333333       0.33333333       0.48139269 </v>
    <v>       0.66666667       0.66666667       0.53425930 </v>
    <v>       0.66666667       0.66666667       0.55940215 </v>
   </varray>
  </structure>
  <varray name="primitive_index" >
   <v type="int" >        1 </v>
   <v type="int" >        2 </v>
   <v type="int" >        3 </v>
   <v type="int" >        4 </v>
   <v type="int" >        5 </v>
   <v type="int" >        6 </v>
   <v type="int" >        7 </v>
   <v type="int" >        8 </v>
   <v type="int" >        9 </v>
   <v type="int" >       10 </v>
  </varray>
 </primitive_cell>
 <kpoints>
  <generation param="Monkhorst-Pack">
   <v type="int" name="divisions">       3        3        1 </v>
   <v name="usershift">      0.00000000       0.00000000       0.00000000 </v>
   <v name="genvec1">      0.33333333       0.00000000       0.00000000 </v>
   <v name="genvec2">      0.00000000       0.33333333       0.00000000 </v>
   <v name="genvec3">      0.00000000       0.00000000       1.00000000 </v>
   <v name="shift">      0.00000000       0.00000000       0.00000000 </v>
  </generation>
  <varray name="kpointlist" >
   <v>       0.00000000       0.00000000       0.00000000 </v>
   <v>       0.33333333       0.00000000       0.00000000 </v>
   <v>      -0.33333333       0.33333333       0.00000000 </v>
  </varray>
  <varray name="weights" >
   <v>       0.11111111 </v>
   <v>       0.66666667 </v>
   <v>       0.22222222 </v>
  </varray>
 </kpoints>
 <parameters>
  <separator name="general" >
   <i type="string" name="SYSTEM">unknown system</i>
   <i type="logical" name="LCOMPAT"> F  </i>
  </separator>
  <separator name="electronic" >
   <i type="string" name="PREC">normal</i>
   <i name="ENMAX">    400.00000000</i>
   <i name="ENAUG">    586.98000000</i>
   <i name="EDIFF">      0.00020000</i>
   <i type="int" name="IALGO">    38</i>
   <i type="int" name="IWAVPR">    11</i>
   <i type="int" name="NBANDS">    60</i>
   <i type="int" name="NBANDSLOW">    -1</i>
   <i type="int" name="NBANDSHIGH">    -1</i>
   <i name="NELECT">     90.00000000</i>
   <i type="int" name="TURBO">     0</i>
   <i type="int" name="IRESTART">     0</i>
   <i type="int" name="NREBOOT">     0</i>
   <i type="int" name="NMIN">     0</i>
   <i name="EREF">      0.00000000</i>
   <separator name="electronic smearing" >
    <i type="int" name="ISMEAR">     1</i>
    <i name="SIGMA">      0.20000000</i>
    <i name="KSPACING">      0.50000000</i>
    <i type="logical" name="KGAMMA"> T  </i>
    <i type="logical" name="KBLOWUP"> T  </i>
   </separator>
   <separator name="electronic projectors" >
    <i type="logical" name="LREAL"> F  </i>
    <v name="ROPT">      0.00000000      0.00000000</v>
    <i type="int" name="LMAXPAW">  -100</i>
    <i type="int" name="LMAXMIX">     2</i>
    <i type="logical" name="NLSPLINE"> F  </i>
   </separator>
   <separator name="electronic startup" >
    <i type="int" name="ISTART">     0</i>
    <i type="int" name="ICHARG">     2</i>
    <i type="int" name="INIWAV">     1</i>
   </separator>
   <separator name="electronic spin" >
    <i type="int" name="ISPIN">     2</i>
    <i type="logical" name="LNONCOLLINEAR"> F  </i>
    <v name="MAGMOM">      1.00000000      1.00000000      1.00000000      1.00000000      1.00000000      1.00000000      1.00000000      1.00000000      1.00000000      1.00000000</v>
    <i name="NUPDOWN">     -1.00000000</i>
    <i type="logical" name="LSORBIT"> F  </i>
    <v name="SAXIS">      0.00000000      0.00000000      1.00000000</v>
    <i type="logical" name="LSPIRAL"> F  </i>
    <v name="QSPIRAL">      0.00000000      0.00000000      0.00000000</v>
    <i type="logical" name="LZEROZ"> F  </i>
   </separator>
   <separator name="electronic exchange-correlation" >
    <i type="logical" name="LASPH"> F  </i>
    <i type="logical" name="LMETAGGA"> F  </i>
   </separator>
   <separator name="electronic convergence" >
    <i type="int" name="NELM">    60</i>
    <i type="int" name="NELMDL">    -5</i>
    <i type="int" name="NELMIN">     2</i>
    <i name="ENINI">    400.00000000</i>
    <separator name="electronic convergence detail" >
     <i type="logical" name="LDIAG"> T  </i>
     <i type="logical" name="LSUBROT"> F  </i>
     <i name="WEIMIN">      0.00100000</i>
     <i name="EBREAK">      0.00000083</i>
     <i name="DEPER">      0.30000000</i>
     <i type="int" name="NRMM">     4</i>
     <i name="TIME">      0.40000000</i>
    </separator>
   </separator>
   <separator name="electronic mixer" >
    <i name="AMIX">      0.40000000</i>
    <i name="BMIX">      1.00000000</i>
    <i name="AMIN">      0.10000000</i>
    <i name="AMIX_MAG">      1.60000000</i>
    <i name="BMIX_MAG">      1.00000000</i>
    <separator name="electronic mixer details" >
     <i type="int" name="IMIX">     4</i>
     <i type="logical" name="MIXFIRST"> F  </i>
     <i type="int" name="MAXMIX">   -45</i>
     <i name="WC">    100.00000000</i>
     <i type="int" name="INIMIX">     1</i>
     <i type="int" name="MIXPRE">     1</i>
     <i type="int" name="MREMOVE">     5</i>
    </separator>
   </separator>
   <separator name="electronic dipolcorrection" >
    <i type="logical" name="LDIPOL"> F  </i>
    <i type="logical" name="LMONO"> F  </i>
    <i type="int" name="IDIPOL">     0</i>
    <i name="EPSILON">      1.00000000</i>
    <v name="DIPOL">   -100.00000000   -100.00000000   -100.00000000</v>
    <i name="EFIELD">      0.00000000</i>
   </separator>
  </separator>
  <separator name="grids" >
   <i type="int" name="NGX">    14</i>
   <i type="int" name="NGY">    14</i>
   <i type="int" name="NGZ">   150</i>
   <i type="int" name="NGXF">    28</i>
   <i type="int" name="NGYF">    28</i>
   <i type="int" name="NGZF">   300</i>
   <i type="logical" name="ADDGRID"> F  </i>
  </separator>
  <separator name="ionic" >
   <i type="int" name="NSW">   800</i>
   <i type="int" name="IBRION">     2</i>
   <i type="int" name="MDALGO">     0</i>
   <i type="int" name="ISIF">     2</i>
   <i name="PSTRESS">      0.00000000</i>
   <i name="EDIFFG">     -0.03000000</i>
   <i type="int" name="NFREE">     1</i>
   <i name="POTIM">      0.50000000</i>
   <i name="SMASS">     -3.00000000</i>
   <i name="SCALEE">      1.00000000</i>
  </separator>
  <separator name="ionic md" >
   <i name="TEBEG">      0.00010000</i>
   <i name="TEEND">      0.00010000</i>
   <i type="int" name="NBLOCK">     1</i>
   <i type="int" name="KBLOCK">   800</i>
   <i type="int" name="NPACO">   256</i>
   <i name="APACO">     10.00000000</i>
  </separator>
  <separator name="symmetry" >
   <i type="int" name="ISYM">     1</i>
   <i name="SYMPREC">      0.00001000</i>
  </separator>
  <separator name="dos" >
   <i type="int" name="LORBIT">     0</i>
   <v name="RWIGS">     -1.00000000     -1.00000000</v>
   <i type="int" name="NEDOS">   301</i>
   <i name="EMIN">     10.00000000</i>
   <i name="EMAX">    -10.00000000</i>
   <i name="EFERMI">      0.00000000</i>
  </separator>
  <separator name="writing" >
   <i type="int" name="NWRITE">     2</i>
   <i type="logical" name="LWAVE"> F  </i>
   <i type="logical" name="LDOWNSAMPLE"> F  </i>
   <i type="logical" name="LCHARG"> F  </i>
   <i type="logical" name="LPARD"> F  </i>
   <i type="logical" name="LVTOT"> F  </i>
   <i type="logical" name="LVHAR"> F  </i>
   <i type="logical" name="LELF"> F  </i>
   <i type="logical" name="LOPTICS"> F  </i>
   <v name="STM">      0.00000000      0.00000000      0.00000000      0.00000000      0.00000000      0.00000000      0.00000000</v>
  </separator>
  <separator name="performance" >
   <i type="int" name="NPAR">     4</i>
   <i type="int" name="NSIM">     4</i>
   <i type="int" name="NBLK">    -1</i>
   <i type="logical" name="LPLANE"> T  </i>
   <i type="logical" name="LSCALAPACK"> T  </i>
   <i type="logical" name="LSCAAWARE"> F  </i>
   <i type="logical" name="LSCALU"> F  </i>
   <i type="logical" name="LASYNC"> F  </i>
   <i type="logical" name="LORBITALREAL"> F  </i>
  </separator>
  <separator name="miscellaneous" >
   <i type="int" name="IDIOT">     3</i>
   <i type="int" name="PHON_NSTRUCT">    -1</i>
   <i type="logical" name="LMUSIC"> F  </i>
   <v name="POMASS">     63.54600000      1.00000000</v>
   <v name="DARWINR">      0.00000000      0.00000000</v>
   <v name="DARWINV">      1.00000000      1.00000000</v>
   <i type="logical" name="LCORR"> T  </i>
  </separator>
  <i type="logical" name="GGA_COMPAT"> T  </i>
  <i type="logical" name="LBERRY"> F  </i>
  <i type="int" name="ICORELEVEL">     0</i>
  <i type="logical" name="LDAU"> F  </i>
  <i type="int" name="I_CONSTRAINED_M">     0</i>
  <separator name="electronic exchange-correlation" >
   <i type="string" name="GGA">PE</i>
   <i type="int" name="VOSKOWN">     0</i>
   <i type="logical" name="LHFCALC"> F  </i>
   <i type="string" name="PRECFOCK"></i>
   <i type="logical" name="LSYMGRAD"> F  </i>
   <i type="logical" name="LHFONE"> F  </i>
   <i type="logical" name="LRHFCALC"> F  </i>
   <i type="logical" name="LTHOMAS"> F  </i>
   <i type="logical" name="LMODELHF"> F  </i>
   <i type="logical" name="LFOCKACE"> F  </i>
   <i name="ENCUT4O">     -1.00000000</i>
   <i type="int" name="EXXOEP">     0</i>
   <i type="int" name="FOURORBIT">     0</i>
   <i name="AEXX">      0.00000000</i>
   <i name="HFALPHA">      0.00000000</i>
   <i name="MCALPHA">      0.00000000</i>
   <i name="ALDAX">      1.00000000</i>
   <i name="AGGAX">      1.00000000</i>
   <i name="ALDAC">      1.00000000</i>
   <i name="AGGAC">      1.00000000</i>
   <i type="int" name="NKREDX">     1</i>
   <i type="int" name="NKREDY">     1</i>
   <i type="int" name="NKREDZ">     1</i>
   <i type="logical" name="SHIFTRED"> F  </i>
   <i type="logical" name="ODDONLY"> F  </i>
   <i type="logical" name="EVENONLY"> F  </i>
   <i type="int" name="LMAXFOCK">     0</i>
   <i type="int" name="NMAXFOCKAE">     0</i>
   <i type="logical" name="LFOCKAEDFT"> F  </i>
   <i name="HFSCREEN">      0.00000000</i>
   <i name="HFSCREENC">      0.00000000</i>
   <i type="int" name="NBANDSGWLOW">     0</i>
  </separator>
  <separator name="vdW DFT" >
   <i type="logical" name="LUSE_VDW"> F  </i>
   <i name="Zab_VDW">     -0.84910000</i>
   <i name="PARAM1">      0.12340000</i>
   <i name="PARAM2">      1.00000000</i>
   <i name="PARAM3">      0.00000000</i>
  </separator>
  <separator name="model GW" >
   <i type="int" name="MODEL_GW">     0</i>
   <i name="MODEL_EPS0">     10.15756522</i>
   <i name="MODEL_ALPHA">      1.00000000</i>
  </separator>
  <separator name="linear response parameters" >
   <i type="logical" name="LEPSILON"> F  </i>
   <i type="logical" name="LRPA"> F  </i>
   <i type="logical" name="LNABLA"> F  </i>
   <i type="logical" name="LVEL"> F  </i>
   <i name="CSHIFT">      0.10000000</i>
   <i name="OMEGAMAX">     -1.00000000</i>
   <i name="DEG_THRESHOLD">      0.00200000</i>
   <i name="RTIME">     -0.10000000</i>
   <i name="WPLASMAI">      0.00000000</i>
   <v name="DFIELD">      0.00000000      0.00000000      0.00000000</v>
   <v name="WPLASMA">      0.00000000      0.00000000      0.00000000      0.00000000      0.00000000      0.00000000      0.00000000      0.00000000      0.00000000</v>
  </separator>
  <separator name="orbital magnetization" >
   <i type="logical" name="NUCIND"> F  </i>
   <v name="MAGPOS">      0.00000000      0.00000000      0.00000000</v>
   <i type="logical" name="LNICSALL"> T  </i>
   <i type="logical" name="ORBITALMAG"> F  </i>
   <i type="logical" name="LMAGBLOCH"> F  </i>
   <i type="logical" name="LCHIMAG"> F  </i>
   <i type="logical" name="LGAUGE"> T  </i>
   <i type="int" name="MAGATOM">     0</i>
   <v name="MAGDIPOL">      0.00000000      0.00000000      0.00000000</v>
   <v name="AVECCONST">      0.00000000      0.00000000      0.00000000</v>
  </separator>
  <separator name="response functions" >
   <i type="logical" name="LFINITE_TEMPERATURE"> F  </i>
   <i type="logical" name="LADDER"> F  </i>
   <i type="logical" name="LRPAFORCE"> F  </i>
   <i type="logical" name="LFXC"> F  </i>
   <i type="logical" name="LHARTREE"> T  </i>
   <i type="int" name="IBSE">     0</i>
   <v type="int" name="KPOINT">    -1     0     0     0</v>
   <i type="logical" name="LTCTC"> F  </i>
   <i type="logical" name="LTCTE"> F  </i>
   <i type="logical" name="LTETE"> F  </i>
   <i type="logical" name="LTRIPLET"> F  </i>
   <i type="logical" name="LFXCEPS"> F  </i>
   <i type="logical" name="LFXHEG"> F  </i>
   <i type="int" name="NATURALO">     2</i>
   <i type="logical" name="LHOLEGF"> F  </i>
   <i type="logical" name="L2ORDER"> F  </i>
   <i type="logical" name="LDMP1"> F  </i>
   <i type="logical" name="LMP2LT"> F  </i>
   <i type="logical" name="LSMP2LT"> F  </i>
   <i type="logical" name="LGWLF"> F  </i>
   <i name="ENCUTGW">     -2.00000000</i>
   <i name="ENCUTGWSOFT">     -2.00000000</i>
   <i name="ENCUTLF">     -1.00000000</i>
   <i type="logical" name="LESF_SPLINES"> F  </i>
   <i type="int" name="LMAXMP2">    -1</i>
   <i name="SCISSOR">      0.00000000</i>
   <i type="int" name="NOMEGA">     0</i>
   <i type="int" name="NOMEGAR">     0</i>
   <i type="int" name="NBANDSGW">    -1</i>
   <i type="int" name="NBANDSO">    -1</i>
   <i type="int" name="NBANDSV">    -1</i>
   <i type="int" name="NELMGW">     1</i>
   <i type="int" name="NELMHF">     1</i>
   <i type="int" name="DIM">     3</i>
   <i type="int" name="IESPILON">     4</i>
   <i type="int" name="ANTIRES">     0</i>
   <i name="OMEGAMAX">    -30.00000000</i>
   <i name="OMEGAMIN">    -30.00000000</i>
   <i name="OMEGATL">   -200.00000000</i>
   <i type="int" name="OMEGAGRID">     0</i>
   <i name="CSHIFT">     -0.10000000</i>
   <i type="logical" name="LSELFENERGY"> F  </i>
   <i type="logical" name="LSPECTRAL"> F  </i>
   <i type="logical" name="LSPECTRALGW"> F  </i>
   <i type="logical" name="LSINGLES"> F  </i>
   <i type="logical" name="LFERMIGW"> F  </i>
   <i type="logical" name="ODDONLYGW"> F  </i>
   <i type="logical" name="EVENONLYGW"> F  </i>
   <i type="int" name="NKREDLFX">     1</i>
   <i type="int" name="NKREDLFY">     1</i>
   <i type="int" name="NKREDLFZ">     1</i>
   <i type="int" name="MAXMEM">  2800</i>
   <i type="int" name="TELESCOPE">     0</i>
   <i type="int" name="NTAUPAR">    -1</i>
   <i type="int" name="NOMEGAPAR">    -1</i>
   <i name="DAMP_NEWTON">      0.80000001</i>
   <i name="LAMBDA">      1.00000000</i>
  </separator>
  <separator name="External order field" >
   <i name="OFIELD_KAPPA">      0.00000000</i>
   <v name="OFIELD_K">      0.00000000      0.00000000      0.00000000</v>
   <i name="OFIELD_Q6_NEAR">      0.00000000</i>
   <i name="OFIELD_Q6_FAR">      0.00000000</i>
   <i name="OFIELD_A">      0.00000000</i>
  </separator>
  <separator name="optional k-points parameters" >
   <i type="int" name="KPOINTS_OPT_MODE">     1</i>
   <i type="logical" name="LKPOINTS_OPT"> F  </i>
  </separator>
 </parameters>
 <atominfo>
  <atoms>      10 </atoms>
  <types>       2 </types>
  <array name="atoms" >
   <dimension dim="1">ion</dimension>
   <field type="string">element</field>
   <field type="int">atomtype</field>
   <set>
    <rc><c>Cu</c><c>   1</c></rc>
    <rc><c>Cu</c><c>   1</c></rc>
    <rc><c>Cu</c><c>   1</c></rc>
    <rc><c>Cu</c><c>   1</c></rc>
    <rc><c>Cu</c><c>   1</c></rc>
    <rc><c>Cu</c><c>   1</c></rc>
    <rc><c>Cu</c><c>   1</c></rc>
    <rc><c>Cu</c><c>   1</c></rc>
    <rc><c>H </c><c>   2</c></rc>
    <rc><c>H </c><c>   2</c></rc>
   </set>
  </array>
  <array name="atomtypes" >
   <dimension dim="1">type</dimension>
   <field type="int">atomspertype</field>
   <field type="string">element</field>
   <field>mass</field>
   <field>valence</field>
   <field type="string">pseudopotential</field>
   <set>
    <rc><c>   8</c><c>Cu</c><c>     63.54600000</c><c>     11.00000000</c><c>  PAW_PBE Cu 22Jun2005                  </c></rc>
    <rc><c>   2</c><c>H </c><c>      1.00000000</c><c>      1.00000000</c><c>  PAW_PBE H 15Jun2001                   </c></rc>
   </set>
  </array>
 </atominfo>
 <structure name="initialpos" >
  <crystal>
   <varray name="basis" >
    <v>       2.56679773       0.00000000       0.00000000 </v>
    <v>       1.28339887       2.22291204       0.00000000 </v>
    <v>       0.00000000       0.00000000      29.67047119 </v>
   </varray>
   <i name="volume">    169.29275369 </i>
   <varray name="rec_basis" >
    <v>       0.38959050      -0.22493018       0.00000000 </v>
    <v>       0.00000000       0.44986035       0.00000000 </v>
    <v>       0.00000000       0.00000000       0.03370354 </v>
   </varray>
  </crystal>
  <varray name="positions" >
   <v>       0.00000000       0.00000000       0.00000000 </v>
   <v>       0.33333333       0.33333333       0.07063526 </v>
   <v>       0.66666667       0.66666667       0.13908594 </v>
   <v>       0.00000000       0.00000000       0.20816512 </v>
   <v>       0.33333333       0.33333333       0.27656240 </v>
   <v>       0.66666667       0.66666667       0.34556034 </v>
   <v>       0.00000000       0.00000000       0.41400593 </v>
   <v>       0.33333333       0.33333333       0.48139269 </v>
   <v>       0.66666667       0.66666667       0.53425930 </v>
   <v>       0.66666667       0.66666667       0.55940215 </v>
  </varray>
 </structure>
 <calculation>
  <scstep>
   <time name="dav">    0.22    0.22</time>
   <time name="total">    0.25    0.25</time>
   <energy>
    <i name="alphaZ">    285.34744303 </i>
    <i name="ewald">  52241.56755907 </i>
    <i name="hartreedc"> -63294.96369212 </i>
    <i name="XCdc">    372.50698164 </i>
    <i name="pawpsdc">   9828.36862813 </i>
    <i name="pawaedc"> -10674.97285505 </i>
    <i name="eentropy">     -0.01914725 </i>
    <i name="bandstr">    882.43750563 </i>
    <i name="atom">  11152.61838693 </i>
    <i name="e_fr_energy">    792.89081001 </i>
    <i name="e_wo_entrp">    792.90995726 </i>
    <i name="e_0_energy">    792.89719243 </i>
   </energy>
  </scstep>
  <scstep>
   <time name="dav">    0.21    0.21</time>
   <time name="total">    0.21    0.21</time>
   <energy>
    <i name="e_fr_energy">     72.37645037 </i>
    <i name="e_wo_entrp">     72.39020361 </i>
    <i name="e_0_energy">     72.38103478 </i>
   </energy>
  </scstep>
  <scstep>
   <time name="dav">    0.21    0.21</time>
   <time name="total">    0.21    0.21</time>
   <energy>
    <i name="e_fr_energy">    -32.80917607 </i>
    <i name="e_wo_entrp">    -32.83087103 </i>
    <i name="e_0_energy">    -32.81640772 </i>
   </energy>
  </scstep>
  <scstep>
   <time name="dav">    0.23    0.23</time>
   <time name="total">    0.23    0.23</time>
   <energy>
    <i name="e_fr_energy">    -37.34767474 </i>
    <i name="e_wo_entrp">    -37.37910101 </i>
    <i name="e_0_energy">    -37.35815017 </i>
   </energy>
  </scstep>
  <scstep>
   <time name="dav">    0.23    0.23</time>
   <time name="total">    0.28    0.28</time>
   <energy>
    <i name="e_fr_energy">    -37.44802036 </i>
    <i name="e_wo_entrp">    -37.47946329 </i>
    <i name="e_0_energy">    -37.45850134 </i>
   </energy>
  </scstep>
  <scstep>
   <time name="dav">    0.28    0.28</time>
   <time name="total">    0.36    0.36</time>
   <energy>
    <i name="e_fr_energy">    -34.37930626 </i>
    <i name="e_wo_entrp">    -34.34142642 </i>
    <i name="e_0_energy">    -34.36667965 </i>
   </energy>
  </scstep>
  <scstep>
   <time name="dav">    0.28    0.28</time>
   <time name="total">    0.36    0.36</time>
   <energy>
    <i name="e_fr_energy">    -95.28831040 </i>
    <i name="e_wo_entrp">    -95.28707028 </i>
    <i name="e_0_energy">    -95.28789703 </i>
   </energy>
  </scstep>
  <scstep>
   <time name="dav">    0.31    0.31</time>
   <time name="total">    0.39    0.39</time>
   <energy>
    <i name="e_fr_energy">    -40.05863012 </i>
    <i name="e_wo_entrp">    -40.00231087 </i>
    <i name="e_0_energy">    -40.03985703 </i>
   </energy>
  </scstep>
  <scstep>
   <time name="dav">    0.29    0.30</time>
   <time name="total">    0.37    0.37</time>
   <energy>
    <i name="e_fr_energy">    -33.16968453 </i>
    <i name="e_wo_entrp">    -33.14262172 </i>
    <i name="e_0_energy">    -33.16066359 </i>
   </energy>
  </scstep>
  <scstep>
   <time name="dav">    0.28    0.28</time>
   <time name="total">    0.36    0.36</time>
   <energy>
    <i name="e_fr_energy">    -31.04294228 </i>
    <i name="e_wo_entrp">    -31.03346119 </i>
    <i name="e_0_energy">    -31.03978192 </i>
   </energy>
  </scstep>
  <scstep>
   <time name="dav">    0.25    0.26</time>
   <time name="total">    0.33    0.33</time>
   <energy>
    <i name="e_fr_energy">    -30.63965200 </i>
    <i name="e_wo_entrp">    -30.63128527 </i>
    <i name="e_0_energy">    -30.63686309 </i>
   </energy>
  </scstep>
  <scstep>
   <time name="dav">    0.23    0.23</time>
   <time name="total">    0.31    0.31</time>
   <energy>
    <i name="e_fr_energy">    -29.94213424 </i>
    <i name="e_wo_entrp">    -29.93115251 </i>
    <i name="e_0_energy">    -29.93847366 </i>
   </energy>
  </scstep>
  <scstep>
   <time name="dav">    0.26    0.26</time>
   <time name="total">    0.34    0.34</time>
   <energy>
    <i name="e_fr_energy">    -29.69571845 </i>
    <i name="e_wo_entrp">    -29.68258501 </i>
    <i name="e_0_energy">    -29.69134064 </i>
   </energy>
  </scstep>
  <scstep>
   <time name="dav">    0.28    0.29</time>
   <time name="total">    0.36    0.36</time>
   <energy>
    <i name="e_fr_energy">    -31.74891804 </i>
    <i name="e_wo_entrp">    -31.73866788 </i>
    <i name="e_0_energy">    -31.74550132 </i>
   </energy>
  </scstep>
  <scstep>
   <time name="dav">    0.30    0.30</time>
   <time name="total">    0.37    0.38</time>
   <energy>
    <i name="e_fr_energy">    -33.35631800 </i>
    <i name="e_wo_entrp">    -33.33820431 </i>
    <i name="e_0_energy">    -33.35028011 </i>
   </energy>
  </scstep>
  <scstep>
   <time name="dav">    0.27    0.27</time>
   <time name="total">    0.35    0.35</time>
   <energy>
    <i name="e_fr_energy">    -34.72255638 </i>
    <i name="e_wo_entrp">    -34.70297500 </i>
    <i name="e_0_energy">    -34.71602925 </i>
   </energy>
  </scstep>
  <scstep>
   <time name="dav">    0.26    0.26</time>
   <time name="total">    0.34    0.34</time>
   <energy>
    <i name="e_fr_energy">    -35.34319214 </i>
    <i name="e_wo_entrp">    -35.33013424 </i>
    <i name="e_0_energy">    -35.33883950 </i>
   </energy>
  </scstep>
  <scstep>
   <time name="dav">    0.24    0.24</time>
   <time name="total">    0.32    0.32</time>
   <energy>
    <i name="e_fr_energy">    -35.78731217 </i>
    <i name="e_wo_entrp">    -35.77981069 </i>
    <i name="e_0_energy">    -35.78481168 </i>
   </energy>
  </scstep>
  <scstep>
   <time name="dav">    0.26    0.26</time>
   <time name="total">    0.34    0.34</time>
   <energy>
    <i name="e_fr_energy">    -36.02921153 </i>
    <i name="e_wo_entrp">    -36.01890037 </i>
    <i name="e_0_energy">    -36.02577448 </i>
   </energy>
  </scstep>
  <scstep>
   <time name="dav">    0.26    0.26</time>
   <time name="total">    0.34    0.34</time>
   <energy>
    <i name="e_fr_energy">    -36.16736172 </i>
    <i name="e_wo_entrp">    -36.15343802 </i>
    <i name="e_0_energy">    -36.16272049 </i>
   </energy>
  </scstep>
  <scstep>
   <time name="dav">    0.28    0.28</time>
   <time name="total">    0.36    0.37</time>
   <energy>
    <i name="e_fr_energy">    -36.35807179 </i>
    <i name="e_wo_entrp">    -36.33707714 </i>
    <i name="e_0_energy">    -36.35107358 </i>
   </energy>
  </scstep>
  <scstep>
   <time name="dav">    0.24    0.24</time>
   <time name="total">    0.32    0.33</time>
   <energy>
    <i name="e_fr_energy">    -36.39829652 </i>
    <i name="e_wo_entrp">    -36.37527863 </i>
    <i name="e_0_energy">    -36.39062389 </i>
   </energy>
  </scstep>
  <scstep>
   <time name="dav">    0.24    0.24</time>
   <time name="total">    0.32    0.32</time>
   <energy>
    <i name="e_fr_energy">    -36.44765159 </i>
    <i name="e_wo_entrp">    -36.42368940 </i>
    <i name="e_0_energy">    -36.43966419 </i>
   </energy>
  </scstep>
  <scstep>
   <time name="dav">    0.22    0.23</time>
   <time name="total">    0.30    0.31</time>
   <energy>
    <i name="e_fr_energy">    -36.70459653 </i>
    <i name="e_wo_entrp">    -36.68008696 </i>
    <i name="e_0_energy">    -36.69642668 </i>
   </energy>
  </scstep>
  <scstep>
   <time name="dav">    0.24    0.24</time>
   <time name="total">    0.32    0.32</time>
   <energy>
    <i name="e_fr_energy">    -36.90243833 </i>
    <i name="e_wo_entrp">    -36.87862044 </i>
    <i name="e_0_energy">    -36.89449903 </i>
   </energy>
  </scstep>
  <scstep>
   <time name="dav">    0.25    0.26</time>
   <time name="total">    0.33    0.34</time>
   <energy>
    <i name="e_fr_energy">    -36.98450185 </i>
    <i name="e_wo_entrp">    -36.96173865 </i>
    <i name="e_0_energy">    -36.97691412 </i>
   </energy>
  </scstep>
  <scstep>
   <time name="dav">    0.24    0.24</time>
   <time name="total">    0.32    0.32</time>
   <energy>
    <i name="e_fr_energy">    -37.00314755 </i>
    <i name="e_wo_entrp">    -36.97971087 </i>
    <i name="e_0_energy">    -36.99533532 </i>
   </energy>
  </scstep>
  <scstep>
   <time name="dav">    0.21    0.22</time>
   <time name="total">    0.29    0.30</time>
   <energy>
    <i name="e_fr_energy">    -37.00938512 </i>
    <i name="e_wo_entrp">    -36.98575050 </i>
    <i name="e_0_energy">    -37.00150691 </i>
   </energy>
  </scstep>
  <scstep>
   <time name="dav">    0.19    0.19</time>
   <time name="total">    0.27    0.27</time>
   <energy>
    <i name="e_fr_energy">    -37.01251519 </i>
    <i name="e_wo_entrp">    -36.98789597 </i>
    <i name="e_0_energy">    -37.00430878 </i>
   </energy>
  </scstep>
  <scstep>
   <time name="dav">    0.19    0.19</time>
   <time name="total">    0.27    0.27</time>
   <energy>
    <i name="e_fr_energy">    -37.01411916 </i>
    <i name="e_wo_entrp">    -36.98926684 </i>
    <i name="e_0_energy">    -37.00583505 </i>
   </energy>
  </scstep>
  <scstep>
   <time name="dav">    0.17    0.17</time>
   <time name="total">    0.25    0.25</time>
   <energy>
    <i name="e_fr_energy">    -37.01520197 </i>
    <i name="e_wo_entrp">    -36.98978946 </i>
    <i name="e_0_energy">    -37.00673113 </i>
   </energy>
  </scstep>
  <scstep>
   <time name="dav">    0.18    0.18</time>
   <time name="total">    0.26    0.26</time>
   <energy>
    <i name="e_fr_energy">    -37.01652256 </i>
    <i name="e_wo_entrp">    -36.99148809 </i>
    <i name="e_0_energy">    -37.00817774 </i>
   </energy>
  </scstep>
  <scstep>
   <time name="dav">    0.17    0.17</time>
   <time name="total">    0.25    0.25</time>
   <energy>
    <i name="e_fr_energy">    -37.01758017 </i>
    <i name="e_wo_entrp">    -36.99228855 </i>
    <i name="e_0_energy">    -37.00914963 </i>
   </energy>
  </scstep>
  <scstep>
   <time name="dav">    0.16    0.16</time>
   <time name="total">    0.24    0.24</time>
   <energy>
    <i name="e_fr_energy">    -37.01841897 </i>
    <i name="e_wo_entrp">    -36.99320189 </i>
    <i name="e_0_energy">    -37.01001327 </i>
   </energy>
  </scstep>
  <scstep>
   <time name="dav">    0.16    0.16</time>
   <time name="total">    0.25    0.25</time>
   <energy>
    <i name="e_fr_energy">    -37.01895936 </i>
    <i name="e_wo_entrp">    -36.99378903 </i>
    <i name="e_0_energy">    -37.01056925 </i>
   </energy>
  </scstep>
  <scstep>
   <time name="dav">    0.15    0.15</time>
   <time name="total">    0.18    0.18</time>
   <energy>
    <i name="alphaZ">    285.34744303 </i>
    <i name="ewald">  52241.56755907 </i>
    <i name="hartreedc"> -63193.07354857 </i>
    <i name="XCdc">    363.02747023 </i>
    <i name="pawpsdc">  10572.80281457 </i>
    <i name="pawaedc"> -11434.89469324 </i>
    <i name="eentropy">     -0.02522137 </i>
    <i name="bandstr">    -24.38935367 </i>
    <i name="atom">  11152.61838693 </i>
    <i name="e_fr_energy">    -37.01914303 </i>
    <i name="e_wo_entrp">    -36.99392165 </i>
    <i name="e_0_energy">    -37.01073590 </i>
   </energy>
  </scstep>
  <structure>
   <crystal>
    <varray name="basis" >
     <v>       2.56679773       0.00000000       0.00000000 </v>
     <v>       1.28339887       2.22291204       0.00000000 </v>
     <v>       0.00000000       0.00000000      29.67047119 </v>
    </varray>
    <i name="volume">    169.29275369 </i>
    <varray name="rec_basis" >
     <v>       0.38959050      -0.22493018       0.00000000 </v>
     <v>       0.00000000       0.44986035       0.00000000 </v>
     <v>       0.00000000       0.00000000       0.03370354 </v>
    </varray>
   </crystal>
   <varray name="positions" >
    <v>       0.00000000       0.00000000       0.00000000 </v>
    <v>       0.33333333       0.33333333       0.07063526 </v>
    <v>       0.66666667       0.66666667       0.13908594 </v>
    <v>       0.00000000       0.00000000       0.20816512 </v>
    <v>       0.33333333       0.33333333       0.27656240 </v>
    <v>       0.66666667       0.66666667       0.34556034 </v>
    <v>       0.00000000       0.00000000       0.41400593 </v>
    <v>       0.33333333       0.33333333       0.48139269 </v>
    <v>       0.66666667       0.66666667       0.53425930 </v>
    <v>       0.66666667       0.66666667       0.55940215 </v>
   </varray>
  </structure>
  <varray name="forces" >
   <v>       0.00000000       0.00000000       0.47203718 </v>
   <v>       0.00000000      -0.00000000      -0.39741824 </v>
   <v>      -0.00000000       0.00000000       0.00839979 </v>
   <v>      -0.00000000      -0.00000000      -0.00258986 </v>
   <v>      -0.00000000      -0.00000000      -0.02139651 </v>
   <v>      -0.00000000       0.00000000      -0.01885106 </v>
   <v>       0.00000000      -0.00000000      -0.09648970 </v>
   <v>       0.00000000       0.00000000      -0.58372143 </v>
   <v>      -0.00000000      -0.00000000      -0.65092532 </v>
   <v>      -0.00000000      -0.00000000       1.29095516 </v>
  </varray>
  <varray name="stress" >
   <v>     -46.10898932      -0.00000000       0.00000000 </v>
   <v>      -0.00000000     -46.10898932      -0.00000000 </v>
   <v>      -0.00000000      -0.00000000      -2.88751177 </v>
  </varray>
  <energy>
   <i name="e_fr_energy">    -40.68904353 </i>
   <i name="e_wo_entrp">    -40.66382216 </i>
   <i name="e_0_energy">    -40.68063641 </i>
  </energy>
  <time name="totalsc">   11.34   11.50</time>
 </calculation>
 <calculation>
  <scstep>
   <time name="dav">    0.22    0.22</time>
   <time name="total">    0.30    0.30</time>
   <energy>
    <i name="alphaZ">    285.34744303 </i>
    <i name="ewald">  52463.45698564 </i>
    <i name="hartreedc"> -63415.91078355 </i>
    <i name="XCdc">    363.00623094 </i>
    <i name="pawpsdc">  10572.73905544 </i>
    <i name="pawaedc"> -11434.82406305 </i>
    <i name="eentropy">     -0.02863039 </i>
    <i name="bandstr">    -23.41234464 </i>
    <i name="atom">  11152.61838693 </i>
    <i name="e_fr_energy">    -37.00771965 </i>
    <i name="e_wo_entrp">    -36.97908925 </i>
    <i name="e_0_energy">    -36.99817618 </i>
   </energy>
  </scstep>
  <scstep>
   <time name="dav">    0.30    0.30</time>
   <time name="total">    0.37    0.38</time>
   <energy>
    <i name="e_fr_energy">    -37.03270918 </i>
    <i name="e_wo_entrp">    -37.00129990 </i>
    <i name="e_0_energy">    -37.02223942 </i>
   </energy>
  </scstep>
  <scstep>
   <time name="dav">    0.31    0.31</time>
   <time name="total">    0.38    0.39</time>
   <energy>
    <i name="e_fr_energy">    -37.03443266 </i>
    <i name="e_wo_entrp">    -37.00934119 </i>
    <i name="e_0_energy">    -37.02606883 </i>
   </energy>
  </scstep>
  <scstep>
   <time name="dav">    0.29    0.29</time>
   <time name="total">    0.36    0.37</time>
   <energy>
    <i name="e_fr_energy">    -37.01893179 </i>
    <i name="e_wo_entrp">    -36.99060285 </i>
    <i name="e_0_energy">    -37.00948881 </i>
   </energy>
  </scstep>
  <scstep>
   <time name="dav">    0.27    0.28</time>
   <time name="total">    0.35    0.35</time>
   <energy>
    <i name="e_fr_energy">    -37.02040811 </i>
    <i name="e_wo_entrp">    -36.99730556 </i>
    <i name="e_0_energy">    -37.01270726 </i>
   </energy>
  </scstep>
  <scstep>
   <time name="dav">    0.29    0.29</time>
   <time name="total">    0.37    0.37</time>
   <energy>
    <i name="e_fr_energy">    -37.01808053 </i>
    <i name="e_wo_entrp">    -36.99076080 </i>
    <i name="e_0_energy">    -37.00897395 </i>
   </energy>
  </scstep>
  <scstep>
   <time name="dav">    0.27    0.27</time>
   <time name="total">    0.34    0.35</time>
   <energy>
    <i name="e_fr_energy">    -37.01815708 </i>
    <i name="e_wo_entrp">    -36.99222493 </i>
    <i name="e_0_energy">    -37.00951303 </i>
   </energy>
  </scstep>
  <scstep>
   <time name="dav">    0.19    0.19</time>
   <time name="total">    0.21    0.22</time>
   <energy>
    <i name="alphaZ">    285.34744303 </i>
    <i name="ewald">  52463.45698564 </i>
    <i name="hartreedc"> -63407.73929596 </i>
    <i name="XCdc">    362.87780350 </i>
    <i name="pawpsdc">  10574.75249962 </i>
    <i name="pawaedc"> -11436.95368622 </i>
    <i name="eentropy">     -0.02631110 </i>
    <i name="bandstr">    -31.35203288 </i>
    <i name="atom">  11152.61838693 </i>
    <i name="e_fr_energy">    -37.01820744 </i>
    <i name="e_wo_entrp">    -36.99189634 </i>
    <i name="e_0_energy">    -37.00943708 </i>
   </energy>
  </scstep>
  <structure>
   <crystal>
    <varray name="basis" >
     <v>       2.56679773       0.00000000       0.00000000 </v>
     <v>       1.28339887       2.22291204       0.00000000 </v>
     <v>       0.00000000       0.00000000      29.67047119 </v>
    </varray>
    <i name="volume">    169.29275369 </i>
    <varray name="rec_basis" >
     <v>       0.38959050      -0.22493018       0.00000000 </v>
     <v>       0.00000000       0.44986035       0.00000000 </v>
     <v>       0.00000000       0.00000000       0.03370354 </v>
    </varray>
   </crystal>
   <varray name="positions" >
    <v>       0.00000000       0.00000000       0.00076751 </v>
    <v>       0.33333333       0.33333333       0.06998908 </v>
    <v>       0.66666667       0.66666667       0.13909960 </v>
    <v>      -0.00000000      -0.00000000       0.20816090 </v>
    <v>       0.33333333       0.33333333       0.27652761 </v>
    <v>       0.66666667       0.66666667       0.34552969 </v>
    <v>       0.00000000      -0.00000000       0.41384905 </v>
    <v>       0.33333333       0.33333333       0.48044359 </v>
    <v>       0.66666667       0.66666667       0.53320093 </v>
    <v>       0.66666667       0.66666667       0.56150117 </v>
   </varray>
  </structure>
  <varray name="forces" >
   <v>       0.00000000       0.00000000       0.30370278 </v>
   <v>      -0.00000000       0.00000000      -0.14280211 </v>
   <v>       0.00000000       0.00000000      -0.07135555 </v>
   <v>      -0.00000000       0.00000000      -0.00850885 </v>
   <v>      -0.00000000       0.00000000      -0.01351507 </v>
   <v>      -0.00000000      -0.00000000      -0.04825227 </v>
   <v>      -0.00000000      -0.00000000      -0.20424404 </v>
   <v>       0.00000000       0.00000000      -0.26131671 </v>
   <v>      -0.00000000       0.00000000       0.91139685 </v>
   <v>      -0.00000000       0.00000000      -0.46510503 </v>
  </varray>
  <varray name="stress" >
   <v>     -44.30523997      -0.00000000      -0.00000000 </v>
   <v>      -0.00000000     -44.30523997       0.00000000 </v>
   <v>       0.00000000       0.00000000     -11.86924994 </v>
  </varray>
  <energy>
   <i name="e_fr_energy">    -40.71481548 </i>
   <i name="e_wo_entrp">    -40.68850438 </i>
   <i name="e_0_energy">    -40.70604511 </i>
  </energy>
  <time name="totalsc">    3.10    3.21</time>
 </calculation>
 <calculation>
  <scstep>
   <time name="dav">    0.21    0.21</time>
   <time name="total">    0.29    0.30</time>
   <energy>
    <i name="alphaZ">    285.34744303 </i>
    <i name="ewald">  52371.89005934 </i>
    <i name="hartreedc"> -63316.04971149 </i>
    <i name="XCdc">    362.88628946 </i>
    <i name="pawpsdc">  10575.00113445 </i>
    <i name="pawaedc"> -11437.20787860 </i>
    <i name="eentropy">     -0.02590834 </i>
    <i name="bandstr">    -31.50428764 </i>
    <i name="atom">  11152.61838693 </i>
    <i name="e_fr_energy">    -37.04447286 </i>
    <i name="e_wo_entrp">    -37.01856452 </i>
    <i name="e_0_energy">    -37.03583674 </i>
   </energy>
  </scstep>
  <scstep>
   <time name="dav">    0.29    0.29</time>
   <time name="total">    0.37    0.37</time>
   <energy>
    <i name="e_fr_energy">    -37.04789084 </i>
    <i name="e_wo_entrp">    -37.02396905 </i>
    <i name="e_0_energy">    -37.03991691 </i>
   </energy>
  </scstep>
  <scstep>
   <time name="dav">    0.33    0.33</time>
   <time name="total">    0.40    0.41</time>
   <energy>
    <i name="e_fr_energy">    -37.04875252 </i>
    <i name="e_wo_entrp">    -37.01988354 </i>
    <i name="e_0_energy">    -37.03912953 </i>
   </energy>
  </scstep>
  <scstep>
   <time name="dav">    0.22    0.23</time>
   <time name="total">    0.31    0.31</time>
   <energy>
    <i name="e_fr_energy">    -37.04703903 </i>
    <i name="e_wo_entrp">    -37.02272966 </i>
    <i name="e_0_energy">    -37.03893591 </i>
   </energy>
  </scstep>
  <scstep>
   <time name="dav">    0.20    0.20</time>
   <time name="total">    0.28    0.28</time>
   <energy>
    <i name="e_fr_energy">    -37.04694841 </i>
    <i name="e_wo_entrp">    -37.02021523 </i>
    <i name="e_0_energy">    -37.03803735 </i>
   </energy>
  </scstep>
  <scstep>
   <time name="dav">    0.19    0.19</time>
   <time name="total">    0.26    0.27</time>
   <energy>
    <i name="e_fr_energy">    -37.04665280 </i>
    <i name="e_wo_entrp">    -37.02109408 </i>
    <i name="e_0_energy">    -37.03813323 </i>
   </energy>
  </scstep>
  <scstep>
   <time name="dav">    0.16    0.16</time>
   <time name="total">    0.19    0.19</time>
   <energy>
    <i name="alphaZ">    285.34744303 </i>
    <i name="ewald">  52371.89005934 </i>
    <i name="hartreedc"> -63319.01570496 </i>
    <i name="XCdc">    362.93528474 </i>
    <i name="pawpsdc">  10573.93547674 </i>
    <i name="pawaedc"> -11436.09974096 </i>
    <i name="eentropy">     -0.02577354 </i>
    <i name="bandstr">    -28.63210553 </i>
    <i name="atom">  11152.61838693 </i>
    <i name="e_fr_energy">    -37.04667421 </i>
    <i name="e_wo_entrp">    -37.02090067 </i>
    <i name="e_0_energy">    -37.03808303 </i>
   </energy>
  </scstep>
  <structure>
   <crystal>
    <varray name="basis" >
     <v>       2.56679773       0.00000000       0.00000000 </v>
     <v>       1.28339887       2.22291204       0.00000000 </v>
     <v>       0.00000000       0.00000000      29.67047119 </v>
    </varray>
    <i name="volume">    169.29275369 </i>
    <varray name="rec_basis" >
     <v>       0.38959050      -0.22493018       0.00000000 </v>
     <v>       0.00000000       0.44986035       0.00000000 </v>
     <v>       0.00000000       0.00000000       0.03370354 </v>
    </varray>
   </crystal>
   <varray name="positions" >
    <v>       0.00000000       0.00000000       0.00045181 </v>
    <v>       0.33333333       0.33333333       0.07025487 </v>
    <v>       0.66666667       0.66666667       0.13909398 </v>
    <v>      -0.00000000      -0.00000000       0.20816264 </v>
    <v>       0.33333333       0.33333333       0.27654192 </v>
    <v>       0.66666667       0.66666667       0.34554230 </v>
    <v>       0.00000000      -0.00000000       0.41391358 </v>
    <v>       0.33333333       0.33333333       0.48083398 </v>
    <v>       0.66666667       0.66666667       0.53363627 </v>
    <v>       0.66666667       0.66666667       0.56063779 </v>
   </varray>
  </structure>
  <varray name="forces" >
   <v>      -0.00000000      -0.00000000       0.36703882 </v>
   <v>      -0.00000000      -0.00000000      -0.25078550 </v>
   <v>       0.00000000       0.00000000      -0.04007353 </v>
   <v>      -0.00000000      -0.00000000      -0.00683348 </v>
   <v>       0.00000000       0.00000000      -0.01625491 </v>
   <v>      -0.00000000       0.00000000      -0.03059799 </v>
   <v>       0.00000000      -0.00000000      -0.15625221 </v>
   <v>       0.00000000       0.00000000      -0.38609495 </v>
   <v>      -0.00000000      -0.00000000       0.62391237 </v>
   <v>      -0.00000000      -0.00000000      -0.10405862 </v>
  </varray>
  <varray name="stress" >
   <v>     -46.14872308      -0.00000000      -0.00000000 </v>
   <v>      -0.00000000     -46.14872308       0.00000000 </v>
   <v>      -0.00000000       0.00000000     -11.84097597 </v>
  </varray>
  <energy>
   <i name="e_fr_energy">    -40.72467722 </i>
   <i name="e_wo_entrp">    -40.69890368 </i>
   <i name="e_0_energy">    -40.71608604 </i>
  </energy>
  <time name="totalsc">    2.51    2.58</time>
 </calculation>
 <calculation>
  <scstep>
   <time name="dav">    0.21    0.21</time>
   <time name="total">    0.29    0.29</time>
   <energy>
    <i name="alphaZ">    285.34744303 </i>
    <i name="ewald">  52592.08374332 </i>
    <i name="hartreedc"> -63538.92288565 </i>
    <i name="XCdc">    362.98404026 </i>
    <i name="pawpsdc">  10573.92638928 </i>
    <i name="pawaedc"> -11436.08743580 </i>
    <i name="eentropy">     -0.02466635 </i>
    <i name="bandstr">    -28.98363864 </i>
    <i name="atom">  11152.61838693 </i>
    <i name="e_fr_energy">    -37.05862362 </i>
    <i name="e_wo_entrp">    -37.03395727 </i>
    <i name="e_0_energy">    -37.05040150 </i>
   </energy>
  </scstep>
  <scstep>
   <time name="dav">    0.29    0.30</time>
   <time name="total">    0.37    0.37</time>
   <energy>
    <i name="e_fr_energy">    -37.07797072 </i>
    <i name="e_wo_entrp">    -37.04641563 </i>
    <i name="e_0_energy">    -37.06745236 </i>
   </energy>
  </scstep>
  <scstep>
   <time name="dav">    0.31    0.31</time>
   <time name="total">    0.39    0.39</time>
   <energy>
    <i name="e_fr_energy">    -37.07386699 </i>
    <i name="e_wo_entrp">    -37.05029384 </i>
    <i name="e_0_energy">    -37.06600927 </i>
   </energy>
  </scstep>
  <scstep>
   <time name="dav">    0.29    0.29</time>
   <time name="total">    0.36    0.37</time>
   <energy>
    <i name="e_fr_energy">    -37.07285118 </i>
    <i name="e_wo_entrp">    -37.04732391 </i>
    <i name="e_0_energy">    -37.06434209 </i>
   </energy>
  </scstep>
  <scstep>
   <time name="dav">    0.23    0.23</time>
   <time name="total">    0.31    0.31</time>
   <energy>
    <i name="e_fr_energy">    -37.07286074 </i>
    <i name="e_wo_entrp">    -37.04629513 </i>
    <i name="e_0_energy">    -37.06400554 </i>
   </energy>
  </scstep>
  <scstep>
   <time name="dav">    0.23    0.24</time>
   <time name="total">    0.31    0.31</time>
   <energy>
    <i name="e_fr_energy">    -37.07262362 </i>
    <i name="e_wo_entrp">    -37.04676817 </i>
    <i name="e_0_energy">    -37.06400514 </i>
   </energy>
  </scstep>
  <scstep>
   <time name="dav">    0.19    0.19</time>
   <time name="total">    0.21    0.21</time>
   <energy>
    <i name="alphaZ">    285.34744303 </i>
    <i name="ewald">  52592.08374332 </i>
    <i name="hartreedc"> -63538.69133662 </i>
    <i name="XCdc">    362.98181898 </i>
    <i name="pawpsdc">  10582.21858637 </i>
    <i name="pawaedc"> -11444.52245758 </i>
    <i name="eentropy">     -0.02582004 </i>
    <i name="bandstr">    -29.08289938 </i>
    <i name="atom">  11152.61838693 </i>
    <i name="e_fr_energy">    -37.07253500 </i>
    <i name="e_wo_entrp">    -37.04671496 </i>
    <i name="e_0_energy">    -37.06392832 </i>
   </energy>
  </scstep>
  <structure>
   <crystal>
    <varray name="basis" >
     <v>       2.56679773       0.00000000       0.00000000 </v>
     <v>       1.28339887       2.22291204       0.00000000 </v>
     <v>       0.00000000       0.00000000      29.67047119 </v>
    </varray>
    <i name="volume">    169.29275369 </i>
    <varray name="rec_basis" >
     <v>       0.38959050      -0.22493018       0.00000000 </v>
     <v>       0.00000000       0.44986035       0.00000000 </v>
     <v>       0.00000000       0.00000000       0.03370354 </v>
    </varray>
   </crystal>
   <varray name="positions" >
    <v>      -0.00000000      -0.00000000       0.00119932 </v>
    <v>       0.33333333       0.33333333       0.06971243 </v>
    <v>       0.66666667       0.66666667       0.13903774 </v>
    <v>      -0.00000000      -0.00000000       0.20815134 </v>
    <v>       0.33333333       0.33333333       0.27650860 </v>
    <v>       0.66666667       0.66666667       0.34548866 </v>
    <v>       0.00000000      -0.00000000       0.41363958 </v>
    <v>       0.33333333       0.33333333       0.48001077 </v>
    <v>       0.66666667       0.66666667       0.53429173 </v>
    <v>       0.66666667       0.66666667       0.56102897 </v>
   </varray>
  </structure>
  <varray name="forces" >
   <v>      -0.00000000       0.00000000       0.21576344 </v>
   <v>       0.00000000       0.00000000      -0.02362577 </v>
   <v>       0.00000000      -0.00000000      -0.08569749 </v>
   <v>      -0.00000000      -0.00000000      -0.01555136 </v>
   <v>      -0.00000000      -0.00000000      -0.01941272 </v>
   <v>      -0.00000000       0.00000000      -0.07383213 </v>
   <v>      -0.00000000      -0.00000000      -0.21967801 </v>
   <v>       0.00000000      -0.00000000      -0.25352917 </v>
   <v>      -0.00000000      -0.00000000       0.53191058 </v>
   <v>      -0.00000000      -0.00000000      -0.05634737 </v>
  </varray>
  <varray name="stress" >
   <v>     -45.06271872      -0.00000000      -0.00000000 </v>
   <v>      -0.00000000     -45.06271872       0.00000000 </v>
   <v>      -0.00000000       0.00000000      -7.41727382 </v>
  </varray>
  <energy>
   <i name="e_fr_energy">    -40.75296708 </i>
   <i name="e_wo_entrp">    -40.72714704 </i>
   <i name="e_0_energy">    -40.74436040 </i>
  </energy>
  <time name="totalsc">    2.64    2.69</time>
 </calculation>
 <calculation>
  <scstep>
   <time name="dav">    0.21    0.21</time>
   <time name="total">    0.29    0.30</time>
   <energy>
    <i name="alphaZ">    285.34744303 </i>
    <i name="ewald">  53067.09342324 </i>
    <i name="hartreedc"> -64012.87135172 </i>
    <i name="XCdc">    363.10858837 </i>
    <i name="pawpsdc">  10582.34570054 </i>
    <i name="pawaedc"> -11444.65203355 </i>
    <i name="eentropy">     -0.02323558 </i>
    <i name="bandstr">    -29.98300264 </i>
    <i name="atom">  11152.61838693 </i>
    <i name="e_fr_energy">    -37.01608137 </i>
    <i name="e_wo_entrp">    -36.99284579 </i>
    <i name="e_0_energy">    -37.00833618 </i>
   </energy>
  </scstep>
  <scstep>
   <time name="dav">    0.29    0.29</time>
   <time name="total">    0.37    0.37</time>
   <energy>
    <i name="e_fr_energy">    -37.11009550 </i>
    <i name="e_wo_entrp">    -37.07518490 </i>
    <i name="e_0_energy">    -37.09845863 </i>
   </energy>
  </scstep>
  <scstep>
   <time name="dav">    0.30    0.31</time>
   <time name="total">    0.38    0.39</time>
   <energy>
    <i name="e_fr_energy">    -37.09303559 </i>
    <i name="e_wo_entrp">    -37.07196764 </i>
    <i name="e_0_energy">    -37.08601294 </i>
   </energy>
  </scstep>
  <scstep>
   <time name="dav">    0.30    0.30</time>
   <time name="total">    0.37    0.38</time>
   <energy>
    <i name="e_fr_energy">    -37.08687128 </i>
    <i name="e_wo_entrp">    -37.06262454 </i>
    <i name="e_0_energy">    -37.07878904 </i>
   </energy>
  </scstep>
  <scstep>
   <time name="dav">    0.29    0.29</time>
   <time name="total">    0.37    0.37</time>
   <energy>
    <i name="e_fr_energy">    -37.08697410 </i>
    <i name="e_wo_entrp">    -37.06034342 </i>
    <i name="e_0_energy">    -37.07809721 </i>
   </energy>
  </scstep>
  <scstep>
   <time name="dav">    0.28    0.28</time>
   <time name="total">    0.36    0.36</time>
   <energy>
    <i name="e_fr_energy">    -37.08569656 </i>
    <i name="e_wo_entrp">    -37.05938408 </i>
    <i name="e_0_energy">    -37.07692573 </i>
   </energy>
  </scstep>
  <scstep>
   <time name="dav">    0.31    0.32</time>
   <time name="total">    0.39    0.39</time>
   <energy>
    <i name="e_fr_energy">    -37.08536141 </i>
    <i name="e_wo_entrp">    -37.05941981 </i>
    <i name="e_0_energy">    -37.07671421 </i>
   </energy>
  </scstep>
  <scstep>
   <time name="dav">    0.20    0.20</time>
   <time name="total">    0.23    0.23</time>
   <energy>
    <i name="alphaZ">    285.34744303 </i>
    <i name="ewald">  53067.09342324 </i>
    <i name="hartreedc"> -64012.33537346 </i>
    <i name="XCdc">    363.09345129 </i>
    <i name="pawpsdc">  10603.79302556 </i>
    <i name="pawaedc"> -11466.45360610 </i>
    <i name="eentropy">     -0.02521058 </i>
    <i name="bandstr">    -30.21685288 </i>
    <i name="atom">  11152.61838693 </i>
    <i name="e_fr_energy">    -37.08531298 </i>
    <i name="e_wo_entrp">    -37.06010239 </i>
    <i name="e_0_energy">    -37.07690945 </i>
   </energy>
  </scstep>
  <structure>
   <crystal>
    <varray name="basis" >
     <v>       2.56679773       0.00000000       0.00000000 </v>
     <v>       1.28339887       2.22291204       0.00000000 </v>
     <v>       0.00000000       0.00000000      29.67047119 </v>
    </varray>
    <i name="volume">    169.29275369 </i>
    <varray name="rec_basis" >
     <v>       0.38959050      -0.22493018       0.00000000 </v>
     <v>       0.00000000       0.44986035       0.00000000 </v>
     <v>       0.00000000       0.00000000       0.03370354 </v>
    </varray>
   </crystal>
   <varray name="positions" >
    <v>      -0.00000000      -0.00000000       0.00279684 </v>
    <v>       0.33333333       0.33333333       0.06855315 </v>
    <v>       0.66666667       0.66666667       0.13891754 </v>
    <v>      -0.00000000      -0.00000000       0.20812721 </v>
    <v>       0.33333333       0.33333333       0.27643741 </v>
    <v>       0.66666667       0.66666667       0.34537403 </v>
    <v>       0.00000000      -0.00000000       0.41305400 </v>
    <v>       0.33333333       0.33333333       0.47825144 </v>
    <v>       0.66666667       0.66666667       0.53569254 </v>
    <v>       0.66666667       0.66666667       0.56186499 </v>
   </varray>
  </structure>
  <varray name="forces" >
   <v>       0.00000000       0.00000000      -0.23544921 </v>
   <v>      -0.00000000       0.00000000       0.53061946 </v>
   <v>      -0.00000000      -0.00000000      -0.18875517 </v>
   <v>      -0.00000000       0.00000000      -0.04207033 </v>
   <v>      -0.00000000      -0.00000000      -0.02744959 </v>
   <v>      -0.00000000      -0.00000000      -0.13529219 </v>
   <v>      -0.00000000       0.00000000      -0.33095431 </v>
   <v>       0.00000000       0.00000000       0.05921278 </v>
   <v>      -0.00000000       0.00000000       0.25713670 </v>
   <v>      -0.00000000       0.00000000       0.11300186 </v>
  </varray>
  <varray name="stress" >
   <v>     -41.86038947      -0.00000000      -0.00000000 </v>
   <v>      -0.00000000     -41.86038947       0.00000000 </v>
   <v>       0.00000000      -0.00000000       3.81690625 </v>
  </varray>
  <energy>
   <i name="e_fr_energy">    -40.77178416 </i>
   <i name="e_wo_entrp">    -40.74657357 </i>
   <i name="e_0_energy">    -40.76338063 </i>
  </energy>
  <time name="totalsc">    3.16    3.25</time>
 </calculation>
 <calculation>
  <scstep>
   <time name="dav">    0.21    0.21</time>
   <time name="total">    0.29    0.29</time>
   <energy>
    <i name="alphaZ">    285.34744303 </i>
    <i name="ewald">  52973.54644080 </i>
    <i name="hartreedc"> -63919.25819379 </i>
    <i name="XCdc">    363.06756090 </i>
    <i name="pawpsdc">  10603.82897650 </i>
    <i name="pawaedc"> -11466.48118868 </i>
    <i name="eentropy">     -0.02616856 </i>
    <i name="bandstr">    -29.72866812 </i>
    <i name="atom">  11152.61838693 </i>
    <i name="e_fr_energy">    -37.08541098 </i>
    <i name="e_wo_entrp">    -37.05924242 </i>
    <i name="e_0_energy">    -37.07668813 </i>
   </energy>
  </scstep>
  <scstep>
   <time name="dav">    0.30    0.30</time>
   <time name="total">    0.38    0.38</time>
   <energy>
    <i name="e_fr_energy">    -37.08862544 </i>
    <i name="e_wo_entrp">    -37.06569318 </i>
    <i name="e_0_energy">    -37.08098135 </i>
   </energy>
  </scstep>
  <scstep>
   <time name="dav">    0.29    0.29</time>
   <time name="total">    0.36    0.37</time>
   <energy>
    <i name="e_fr_energy">    -37.08786069 </i>
    <i name="e_wo_entrp">    -37.06210546 </i>
    <i name="e_0_energy">    -37.07927562 </i>
   </energy>
  </scstep>
  <scstep>
   <time name="dav">    0.19    0.19</time>
   <time name="total">    0.21    0.21</time>
   <energy>
    <i name="alphaZ">    285.34744303 </i>
    <i name="ewald">  52973.54644080 </i>
    <i name="hartreedc"> -63919.44346080 </i>
    <i name="XCdc">    363.06569000 </i>
    <i name="pawpsdc">  10601.53286263 </i>
    <i name="pawaedc"> -11464.12045487 </i>
    <i name="eentropy">     -0.02543716 </i>
    <i name="bandstr">    -29.60929189 </i>
    <i name="atom">  11152.61838693 </i>
    <i name="e_fr_energy">    -37.08782134 </i>
    <i name="e_wo_entrp">    -37.06238417 </i>
    <i name="e_0_energy">    -37.07934228 </i>
   </energy>
  </scstep>
  <structure>
   <crystal>
    <varray name="basis" >
     <v>       2.56679773       0.00000000       0.00000000 </v>
     <v>       1.28339887       2.22291204       0.00000000 </v>
     <v>       0.00000000       0.00000000      29.67047119 </v>
    </varray>
    <i name="volume">    169.29275369 </i>
    <varray name="rec_basis" >
     <v>       0.38959050      -0.22493018       0.00000000 </v>
     <v>       0.00000000       0.44986035       0.00000000 </v>
     <v>       0.00000000       0.00000000       0.03370354 </v>
    </varray>
   </crystal>
   <varray name="positions" >
    <v>      -0.00000000      -0.00000000       0.00248382 </v>
    <v>       0.33333333       0.33333333       0.06878030 </v>
    <v>       0.66666667       0.66666667       0.13894109 </v>
    <v>      -0.00000000      -0.00000000       0.20813194 </v>
    <v>       0.33333333       0.33333333       0.27645136 </v>
    <v>       0.66666667       0.66666667       0.34539649 </v>
    <v>       0.00000000      -0.00000000       0.41316874 </v>
    <v>       0.33333333       0.33333333       0.47859617 </v>
    <v>       0.66666667       0.66666667       0.53541806 </v>
    <v>       0.66666667       0.66666667       0.56170118 </v>
   </varray>
  </structure>
  <varray name="forces" >
   <v>      -0.00000000      -0.00000000      -0.15896663 </v>
   <v>       0.00000000      -0.00000000       0.42805966 </v>
   <v>       0.00000000      -0.00000000      -0.16662543 </v>
   <v>       0.00000000       0.00000000      -0.03281448 </v>
   <v>      -0.00000000       0.00000000      -0.02280833 </v>
   <v>      -0.00000000      -0.00000000      -0.12203191 </v>
   <v>       0.00000000      -0.00000000      -0.30593971 </v>
   <v>       0.00000000       0.00000000       0.00190130 </v>
   <v>       0.00000000       0.00000000       0.30978988 </v>
   <v>       0.00000000       0.00000000       0.06943564 </v>
  </varray>
  <varray name="stress" >
   <v>     -39.31838248      -0.00000000      -0.00000000 </v>
   <v>      -0.00000000     -39.31838248       0.00000000 </v>
   <v>       0.00000000       0.00000000       4.58717186 </v>
  </varray>
  <energy>
   <i name="e_fr_energy">    -40.77301598 </i>
   <i name="e_wo_entrp">    -40.74757882 </i>
   <i name="e_0_energy">    -40.76453693 </i>
  </energy>
  <time name="totalsc">    1.65    1.71</time>
 </calculation>
 <calculation>
  <scstep>
   <time name="dav">    0.21    0.21</time>
   <time name="total">    0.29    0.29</time>
   <energy>
    <i name="alphaZ">    285.34744303 </i>
    <i name="ewald">  53220.55271509 </i>
    <i name="hartreedc"> -64165.91451425 </i>
    <i name="XCdc">    363.08242014 </i>
    <i name="pawpsdc">  10600.60877136 </i>
    <i name="pawaedc"> -11463.17311522 </i>
    <i name="eentropy">     -0.02486831 </i>
    <i name="bandstr">    -30.18662932 </i>
    <i name="atom">  11152.61838693 </i>
    <i name="e_fr_energy">    -37.08939056 </i>
    <i name="e_wo_entrp">    -37.06452225 </i>
    <i name="e_0_energy">    -37.08110112 </i>
   </energy>
  </scstep>
  <scstep>
   <time name="dav">    0.26    0.26</time>
   <time name="total">    0.34    0.34</time>
   <energy>
    <i name="e_fr_energy">    -37.10445532 </i>
    <i name="e_wo_entrp">    -37.07894924 </i>
    <i name="e_0_energy">    -37.09595330 </i>
   </energy>
  </scstep>
  <scstep>
   <time name="dav">    0.25    0.26</time>
   <time name="total">    0.33    0.33</time>
   <energy>
    <i name="e_fr_energy">    -37.10423765 </i>
    <i name="e_wo_entrp">    -37.08038090 </i>
    <i name="e_0_energy">    -37.09628540 </i>
   </energy>
  </scstep>
  <scstep>
   <time name="dav">    0.20    0.21</time>
   <time name="total">    0.28    0.28</time>
   <energy>
    <i name="e_fr_energy">    -37.10432318 </i>
    <i name="e_wo_entrp">    -37.07758379 </i>
    <i name="e_0_energy">    -37.09541005 </i>
   </energy>
  </scstep>
  <scstep>
   <time name="dav">    0.19    0.20</time>
   <time name="total">    0.27    0.27</time>
   <energy>
    <i name="e_fr_energy">    -37.10361102 </i>
    <i name="e_wo_entrp">    -37.07947686 </i>
    <i name="e_0_energy">    -37.09556630 </i>
   </energy>
  </scstep>
  <scstep>
   <time name="dav">    0.20    0.20</time>
   <time name="total">    0.27    0.27</time>
   <energy>
    <i name="e_fr_energy">    -37.10333289 </i>
    <i name="e_wo_entrp">    -37.07812264 </i>
    <i name="e_0_energy">    -37.09492948 </i>
   </energy>
  </scstep>
  <scstep>
   <time name="dav">    0.20    0.20</time>
   <time name="total">    0.23    0.23</time>
   <energy>
    <i name="alphaZ">    285.34744303 </i>
    <i name="ewald">  53220.55271509 </i>
    <i name="hartreedc"> -64166.18342417 </i>
    <i name="XCdc">    363.10861653 </i>
    <i name="pawpsdc">  10603.00060345 </i>
    <i name="pawaedc"> -11465.64047194 </i>
    <i name="eentropy">     -0.02517696 </i>
    <i name="bandstr">    -29.88207333 </i>
    <i name="atom">  11152.61838693 </i>
    <i name="e_fr_energy">    -37.10338137 </i>
    <i name="e_wo_entrp">    -37.07820441 </i>
    <i name="e_0_energy">    -37.09498905 </i>
   </energy>
  </scstep>
  <structure>
   <crystal>
    <varray name="basis" >
     <v>       2.56679773       0.00000000       0.00000000 </v>
     <v>       1.28339887       2.22291204       0.00000000 </v>
     <v>       0.00000000       0.00000000      29.67047119 </v>
    </varray>
    <i name="volume">    169.29275369 </i>
    <varray name="rec_basis" >
     <v>       0.38959050      -0.22493018       0.00000000 </v>
     <v>       0.00000000       0.44986035       0.00000000 </v>
     <v>       0.00000000       0.00000000       0.03370354 </v>
    </varray>
   </crystal>
   <varray name="positions" >
    <v>      -0.00000000      -0.00000000       0.00264354 </v>
    <v>       0.33333333       0.33333333       0.06929136 </v>
    <v>       0.66666667       0.66666667       0.13857101 </v>
    <v>      -0.00000000      -0.00000000       0.20805892 </v>
    <v>       0.33333333       0.33333333       0.27638431 </v>
    <v>       0.66666667       0.66666667       0.34511748 </v>
    <v>       0.00000000      -0.00000000       0.41237994 </v>
    <v>       0.33333333       0.33333333       0.47807307 </v>
    <v>       0.66666667       0.66666667       0.53645873 </v>
    <v>       0.66666667       0.66666667       0.56209078 </v>
   </varray>
  </structure>
  <varray name="forces" >
   <v>      -0.00000000      -0.00000000      -0.09518699 </v>
   <v>      -0.00000000       0.00000000       0.25102439 </v>
   <v>      -0.00000000      -0.00000000      -0.02239757 </v>
   <v>       0.00000000       0.00000000      -0.06775119 </v>
   <v>      -0.00000000      -0.00000000      -0.05986733 </v>
   <v>      -0.00000000       0.00000000      -0.17228148 </v>
   <v>       0.00000000       0.00000000      -0.16247673 </v>
   <v>       0.00000000       0.00000000      -0.03217757 </v>
   <v>       0.00000000       0.00000000      -0.12691531 </v>
   <v>       0.00000000       0.00000000       0.48802978 </v>
  </varray>
  <varray name="stress" >
   <v>     -45.04531274      -0.00000000       0.00000000 </v>
   <v>      -0.00000000     -45.04531274      -0.00000000 </v>
   <v>      -0.00000000      -0.00000000       2.48150621 </v>
  </varray>
  <energy>
   <i name="e_fr_energy">    -40.79234058 </i>
   <i name="e_wo_entrp">    -40.76716362 </i>
   <i name="e_0_energy">    -40.78394826 </i>
  </energy>
  <time name="totalsc">    2.39    2.44</time>
 </calculation>
 <calculation>
  <scstep>
   <time name="dav">    0.21    0.21</time>
   <time name="total">    0.29    0.29</time>
   <energy>
    <i name="alphaZ">    285.34744303 </i>
    <i name="ewald">  53409.27669758 </i>
    <i name="hartreedc"> -64354.53537172 </i>
    <i name="XCdc">    363.12343999 </i>
    <i name="pawpsdc">  10602.93611366 </i>
    <i name="pawaedc"> -11465.56176429 </i>
    <i name="eentropy">     -0.02473221 </i>
    <i name="bandstr">    -30.27645183 </i>
    <i name="atom">  11152.61838693 </i>
    <i name="e_fr_energy">    -37.09623885 </i>
    <i name="e_wo_entrp">    -37.07150664 </i>
    <i name="e_0_energy">    -37.08799478 </i>
   </energy>
  </scstep>
  <scstep>
   <time name="dav">    0.26    0.26</time>
   <time name="total">    0.33    0.34</time>
   <energy>
    <i name="e_fr_energy">    -37.10451309 </i>
    <i name="e_wo_entrp">    -37.08024822 </i>
    <i name="e_0_energy">    -37.09642480 </i>
   </energy>
  </scstep>
  <scstep>
   <time name="dav">    0.24    0.24</time>
   <time name="total">    0.32    0.32</time>
   <energy>
    <i name="e_fr_energy">    -37.10434837 </i>
    <i name="e_wo_entrp">    -37.08002423 </i>
    <i name="e_0_energy">    -37.09624032 </i>
   </energy>
  </scstep>
  <scstep>
   <time name="dav">    0.20    0.20</time>
   <time name="total">    0.27    0.27</time>
   <energy>
    <i name="e_fr_energy">    -37.10444281 </i>
    <i name="e_wo_entrp">    -37.07893252 </i>
    <i name="e_0_energy">    -37.09593938 </i>
   </energy>
  </scstep>
  <scstep>
   <time name="dav">    0.18    0.18</time>
   <time name="total">    0.26    0.26</time>
   <energy>
    <i name="e_fr_energy">    -37.10446828 </i>
    <i name="e_wo_entrp">    -37.08196542 </i>
    <i name="e_0_energy">    -37.09696733 </i>
   </energy>
  </scstep>
  <scstep>
   <time name="dav">    0.17    0.17</time>
   <time name="total">    0.25    0.25</time>
   <energy>
    <i name="e_fr_energy">    -37.10400685 </i>
    <i name="e_wo_entrp">    -37.07871749 </i>
    <i name="e_0_energy">    -37.09557706 </i>
   </energy>
  </scstep>
  <scstep>
   <time name="dav">    0.16    0.17</time>
   <time name="total">    0.19    0.19</time>
   <energy>
    <i name="alphaZ">    285.34744303 </i>
    <i name="ewald">  53409.27669758 </i>
    <i name="hartreedc"> -64354.37162949 </i>
    <i name="XCdc">    363.13754124 </i>
    <i name="pawpsdc">  10606.02193441 </i>
    <i name="pawaedc"> -11468.67208882 </i>
    <i name="eentropy">     -0.02451091 </i>
    <i name="bandstr">    -30.43767933 </i>
    <i name="atom">  11152.61838693 </i>
    <i name="e_fr_energy">    -37.10390535 </i>
    <i name="e_wo_entrp">    -37.07939444 </i>
    <i name="e_0_energy">    -37.09573505 </i>
   </energy>
  </scstep>
  <structure>
   <crystal>
    <varray name="basis" >
     <v>       2.56679773       0.00000000       0.00000000 </v>
     <v>       1.28339887       2.22291204       0.00000000 </v>
     <v>       0.00000000       0.00000000      29.67047119 </v>
    </varray>
    <i name="volume">    169.29275369 </i>
    <varray name="rec_basis" >
     <v>       0.38959050      -0.22493018       0.00000000 </v>
     <v>       0.00000000       0.44986035       0.00000000 </v>
     <v>       0.00000000       0.00000000       0.03370354 </v>
    </varray>
   </crystal>
   <varray name="positions" >
    <v>      -0.00000000      -0.00000000       0.00276507 </v>
    <v>       0.33333333       0.33333333       0.06968023 </v>
    <v>       0.66666667       0.66666667       0.13828941 </v>
    <v>      -0.00000000      -0.00000000       0.20800335 </v>
    <v>       0.33333333       0.33333333       0.27633329 </v>
    <v>       0.66666667       0.66666667       0.34490518 </v>
    <v>       0.00000000      -0.00000000       0.41177975 </v>
    <v>       0.33333333       0.33333333       0.47767504 </v>
    <v>       0.66666667       0.66666667       0.53725058 </v>
    <v>       0.66666667       0.66666667       0.56238723 </v>
   </varray>
  </structure>
  <varray name="forces" >
   <v>       0.00000000       0.00000000      -0.05463797 </v>
   <v>      -0.00000000      -0.00000000       0.09321519 </v>
   <v>      -0.00000000       0.00000000       0.10838075 </v>
   <v>      -0.00000000       0.00000000      -0.09454782 </v>
   <v>       0.00000000       0.00000000      -0.09131579 </v>
   <v>       0.00000000       0.00000000      -0.20699219 </v>
   <v>      -0.00000000      -0.00000000      -0.04789238 </v>
   <v>      -0.00000000      -0.00000000      -0.04454466 </v>
   <v>      -0.00000000       0.00000000      -0.54029390 </v>
   <v>      -0.00000000       0.00000000       0.87862878 </v>
  </varray>
  <varray name="stress" >
   <v>     -38.74202967      -0.00000000      -0.00000000 </v>
   <v>      -0.00000000     -38.74202967       0.00000000 </v>
   <v>      -0.00000000       0.00000000      12.61967513 </v>
  </varray>
  <energy>
   <i name="e_fr_energy">    -40.79647373 </i>
   <i name="e_wo_entrp">    -40.77196282 </i>
   <i name="e_0_energy">    -40.78830343 </i>
  </energy>
  <time name="totalsc">    2.30    2.39</time>
 </calculation>
 <calculation>
  <scstep>
   <time name="dav">    0.21    0.21</time>
   <time name="total">    0.29    0.29</time>
   <energy>
    <i name="alphaZ">    285.34744303 </i>
    <i name="ewald">  53508.60995785 </i>
    <i name="hartreedc"> -64453.95969821 </i>
    <i name="XCdc">    363.13760979 </i>
    <i name="pawpsdc">  10606.10315559 </i>
    <i name="pawaedc"> -11468.76647037 </i>
    <i name="eentropy">     -0.02482874 </i>
    <i name="bandstr">    -30.17365312 </i>
    <i name="atom">  11152.61838693 </i>
    <i name="e_fr_energy">    -37.10809725 </i>
    <i name="e_wo_entrp">    -37.08326851 </i>
    <i name="e_0_energy">    -37.09982100 </i>
   </energy>
  </scstep>
  <scstep>
   <time name="dav">    0.26    0.26</time>
   <time name="total">    0.34    0.34</time>
   <energy>
    <i name="e_fr_energy">    -37.11019136 </i>
    <i name="e_wo_entrp">    -37.08633659 </i>
    <i name="e_0_energy">    -37.10223977 </i>
   </energy>
  </scstep>
  <scstep>
   <time name="dav">    0.20    0.20</time>
   <time name="total">    0.28    0.28</time>
   <energy>
    <i name="e_fr_energy">    -37.11021406 </i>
    <i name="e_wo_entrp">    -37.08487586 </i>
    <i name="e_0_energy">    -37.10176800 </i>
   </energy>
  </scstep>
  <scstep>
   <time name="dav">    0.18    0.18</time>
   <time name="total">    0.20    0.20</time>
   <energy>
    <i name="alphaZ">    285.34744303 </i>
    <i name="ewald">  53508.60995785 </i>
    <i name="hartreedc"> -64453.34303591 </i>
    <i name="XCdc">    363.13129271 </i>
    <i name="pawpsdc">  10606.30926169 </i>
    <i name="pawaedc"> -11468.96034662 </i>
    <i name="eentropy">     -0.02412781 </i>
    <i name="bandstr">    -30.79894801 </i>
    <i name="atom">  11152.61838693 </i>
    <i name="e_fr_energy">    -37.11011612 </i>
    <i name="e_wo_entrp">    -37.08598831 </i>
    <i name="e_0_energy">    -37.10207352 </i>
   </energy>
  </scstep>
  <structure>
   <crystal>
    <varray name="basis" >
     <v>       2.56679773       0.00000000       0.00000000 </v>
     <v>       1.28339887       2.22291204       0.00000000 </v>
     <v>       0.00000000       0.00000000      29.67047119 </v>
    </varray>
    <i name="volume">    169.29275369 </i>
    <varray name="rec_basis" >
     <v>       0.38959050      -0.22493018       0.00000000 </v>
     <v>       0.00000000       0.44986035       0.00000000 </v>
     <v>       0.00000000       0.00000000       0.03370354 </v>
    </varray>
   </crystal>
   <varray name="positions" >
    <v>      -0.00000000      -0.00000000       0.00280804 </v>
    <v>       0.33333333       0.33333333       0.06989156 </v>
    <v>       0.66666667       0.66666667       0.13818482 </v>
    <v>      -0.00000000      -0.00000000       0.20795079 </v>
    <v>       0.33333333       0.33333333       0.27628378 </v>
    <v>       0.66666667       0.66666667       0.34474682 </v>
    <v>       0.00000000      -0.00000000       0.41148002 </v>
    <v>       0.33333333       0.33333333       0.47747276 </v>
    <v>       0.66666667       0.66666667       0.53747981 </v>
    <v>       0.66666667       0.66666667       0.56277073 </v>
   </varray>
  </structure>
  <varray name="forces" >
   <v>       0.00000000      -0.00000000      -0.02074536 </v>
   <v>      -0.00000000      -0.00000000       0.02172392 </v>
   <v>      -0.00000000       0.00000000       0.14574289 </v>
   <v>       0.00000000       0.00000000      -0.10243522 </v>
   <v>       0.00000000       0.00000000      -0.11068349 </v>
   <v>       0.00000000       0.00000000      -0.21609790 </v>
   <v>       0.00000000       0.00000000      -0.01043782 </v>
   <v>      -0.00000000      -0.00000000      -0.04077255 </v>
   <v>       0.00000000       0.00000000      -0.38821929 </v>
   <v>       0.00000000       0.00000000       0.72192482 </v>
  </varray>
  <varray name="stress" >
   <v>     -38.05254157      -0.00000000       0.00000000 </v>
   <v>      -0.00000000     -38.05254157      -0.00000000 </v>
   <v>      -0.00000000      -0.00000000      12.23805534 </v>
  </varray>
  <energy>
   <i name="e_fr_energy">    -40.80478905 </i>
   <i name="e_wo_entrp">    -40.78066124 </i>
   <i name="e_0_energy">    -40.79674645 </i>
  </energy>
  <time name="totalsc">    1.50    1.58</time>
 </calculation>
 <calculation>
  <scstep>
   <time name="dav">    0.22    0.22</time>
   <time name="total">    0.30    0.30</time>
   <energy>
    <i name="alphaZ">    285.34744303 </i>
    <i name="ewald">  53807.66881686 </i>
    <i name="hartreedc"> -64752.21360798 </i>
    <i name="XCdc">    363.12748425 </i>
    <i name="pawpsdc">  10606.36804797 </i>
    <i name="pawaedc"> -11469.01397111 </i>
    <i name="eentropy">     -0.02557778 </i>
    <i name="bandstr">    -30.97673985 </i>
    <i name="atom">  11152.61838693 </i>
    <i name="e_fr_energy">    -37.09971767 </i>
    <i name="e_wo_entrp">    -37.07413990 </i>
    <i name="e_0_energy">    -37.09119175 </i>
   </energy>
  </scstep>
  <scstep>
   <time name="dav">    0.27    0.27</time>
   <time name="total">    0.34    0.35</time>
   <energy>
    <i name="e_fr_energy">    -37.11937846 </i>
    <i name="e_wo_entrp">    -37.09732676 </i>
    <i name="e_0_energy">    -37.11202789 </i>
   </energy>
  </scstep>
  <scstep>
   <time name="dav">    0.25    0.25</time>
   <time name="total">    0.33    0.33</time>
   <energy>
    <i name="e_fr_energy">    -37.11929697 </i>
    <i name="e_wo_entrp">    -37.09269582 </i>
    <i name="e_0_energy">    -37.11042992 </i>
   </energy>
  </scstep>
  <scstep>
   <time name="dav">    0.28    0.28</time>
   <time name="total">    0.35    0.35</time>
   <energy>
    <i name="e_fr_energy">    -37.11792127 </i>
    <i name="e_wo_entrp">    -37.09441598 </i>
    <i name="e_0_energy">    -37.11008617 </i>
   </energy>
  </scstep>
  <scstep>
   <time name="dav">    0.30    0.30</time>
   <time name="total">    0.38    0.38</time>
   <energy>
    <i name="e_fr_energy">    -37.11733522 </i>
    <i name="e_wo_entrp">    -37.09221708 </i>
    <i name="e_0_energy">    -37.10896251 </i>
   </energy>
  </scstep>
  <scstep>
   <time name="dav">    0.23    0.23</time>
   <time name="total">    0.30    0.31</time>
   <energy>
    <i name="e_fr_energy">    -37.11723258 </i>
    <i name="e_wo_entrp">    -37.09307349 </i>
    <i name="e_0_energy">    -37.10917955 </i>
   </energy>
  </scstep>
  <scstep>
   <time name="dav">    0.17    0.17</time>
   <time name="total">    0.20    0.20</time>
   <energy>
    <i name="alphaZ">    285.34744303 </i>
    <i name="ewald">  53807.66881686 </i>
    <i name="hartreedc"> -64750.30414442 </i>
    <i name="XCdc">    363.10622462 </i>
    <i name="pawpsdc">  10609.24543737 </i>
    <i name="pawaedc"> -11471.98749662 </i>
    <i name="eentropy">     -0.02442802 </i>
    <i name="bandstr">    -32.78748459 </i>
    <i name="atom">  11152.61838693 </i>
    <i name="e_fr_energy">    -37.11724484 </i>
    <i name="e_wo_entrp">    -37.09281682 </i>
    <i name="e_0_energy">    -37.10910217 </i>
   </energy>
  </scstep>
  <structure>
   <crystal>
    <varray name="basis" >
     <v>       2.56679773       0.00000000       0.00000000 </v>
     <v>       1.28339887       2.22291204       0.00000000 </v>
     <v>       0.00000000       0.00000000      29.67047119 </v>
    </varray>
    <i name="volume">    169.29275369 </i>
    <varray name="rec_basis" >
     <v>       0.38959050      -0.22493018       0.00000000 </v>
     <v>       0.00000000       0.44986035       0.00000000 </v>
     <v>       0.00000000       0.00000000       0.03370354 </v>
    </varray>
   </crystal>
   <varray name="positions" >
    <v>      -0.00000000      -0.00000000       0.00293696 </v>
    <v>       0.33333333       0.33333333       0.07052552 </v>
    <v>       0.66666667       0.66666667       0.13787105 </v>
    <v>      -0.00000000      -0.00000000       0.20779309 </v>
    <v>       0.33333333       0.33333333       0.27613526 </v>
    <v>       0.66666667       0.66666667       0.34427175 </v>
    <v>       0.00000000      -0.00000000       0.41058084 </v>
    <v>       0.33333333       0.33333333       0.47686589 </v>
    <v>       0.66666667       0.66666667       0.53816752 </v>
    <v>       0.66666667       0.66666667       0.56392124 </v>
   </varray>
  </structure>
  <varray name="forces" >
   <v>      -0.00000000       0.00000000       0.05710251 </v>
   <v>       0.00000000      -0.00000000      -0.16091497 </v>
   <v>       0.00000000      -0.00000000       0.29979320 </v>
   <v>       0.00000000      -0.00000000      -0.11112590 </v>
   <v>      -0.00000000      -0.00000000      -0.15214697 </v>
   <v>      -0.00000000      -0.00000000      -0.24559267 </v>
   <v>       0.00000000       0.00000000       0.09656492 </v>
   <v>      -0.00000000      -0.00000000      -0.04654629 </v>
   <v>       0.00000000      -0.00000000       0.01985035 </v>
   <v>       0.00000000      -0.00000000       0.24301582 </v>
  </varray>
  <varray name="stress" >
   <v>     -41.10855777      -0.00000000      -0.00000000 </v>
   <v>      -0.00000000     -41.10855777      -0.00000000 </v>
   <v>      -0.00000000      -0.00000000       6.74398441 </v>
  </varray>
  <energy>
   <i name="e_fr_energy">    -40.81858925 </i>
   <i name="e_wo_entrp">    -40.79416122 </i>
   <i name="e_0_energy">    -40.81044657 </i>
  </energy>
  <time name="totalsc">    2.59    2.68</time>
 </calculation>
 <calculation>
  <scstep>
   <time name="dav">    0.21    0.21</time>
   <time name="total">    0.29    0.29</time>
   <energy>
    <i name="alphaZ">    285.34744303 </i>
    <i name="ewald">  53930.46125424 </i>
    <i name="hartreedc"> -64872.95548233 </i>
    <i name="XCdc">    363.10519206 </i>
    <i name="pawpsdc">  10609.24540361 </i>
    <i name="pawaedc"> -11471.98260410 </i>
    <i name="eentropy">     -0.02475603 </i>
    <i name="bandstr">    -32.92734976 </i>
    <i name="atom">  11152.61838693 </i>
    <i name="e_fr_energy">    -37.11251235 </i>
    <i name="e_wo_entrp">    -37.08775632 </i>
    <i name="e_0_energy">    -37.10426034 </i>
   </energy>
  </scstep>
  <scstep>
   <time name="dav">    0.26    0.27</time>
   <time name="total">    0.34    0.34</time>
   <energy>
    <i name="e_fr_energy">    -37.11563836 </i>
    <i name="e_wo_entrp">    -37.09168974 </i>
    <i name="e_0_energy">    -37.10765549 </i>
   </energy>
  </scstep>
  <scstep>
   <time name="dav">    0.22    0.22</time>
   <time name="total">    0.24    0.25</time>
   <energy>
    <i name="alphaZ">    285.34744303 </i>
    <i name="ewald">  53930.46125424 </i>
    <i name="hartreedc"> -64872.38929613 </i>
    <i name="XCdc">    363.09830525 </i>
    <i name="pawpsdc">  10609.76075706 </i>
    <i name="pawaedc"> -11472.49163757 </i>
    <i name="eentropy">     -0.02457336 </i>
    <i name="bandstr">    -33.49622318 </i>
    <i name="atom">  11152.61838693 </i>
    <i name="e_fr_energy">    -37.11558373 </i>
    <i name="e_wo_entrp">    -37.09101038 </i>
    <i name="e_0_energy">    -37.10739262 </i>
   </energy>
  </scstep>
  <structure>
   <crystal>
    <varray name="basis" >
     <v>       2.56679773       0.00000000       0.00000000 </v>
     <v>       1.28339887       2.22291204       0.00000000 </v>
     <v>       0.00000000       0.00000000      29.67047119 </v>
    </varray>
    <i name="volume">    169.29275369 </i>
    <varray name="rec_basis" >
     <v>       0.38959050      -0.22493018       0.00000000 </v>
[...]
       <r>    11.1979     1.4275    57.6774 </r>
       <r>    11.2881    -0.0194    57.6757 </r>
       <r>    11.3783    -0.2892    57.6496 </r>
       <r>    11.4685     0.5306    57.6974 </r>
       <r>    11.5586     2.2076    57.8965 </r>
       <r>    11.6488     3.8077    58.2399 </r>
       <r>    11.7390     4.1704    58.6159 </r>
       <r>    11.8292     2.9954    58.8861 </r>
       <r>    11.9193     1.1816    58.9926 </r>
       <r>    12.0095     0.3066    59.0203 </r>
       <r>    12.0997     1.1108    59.1204 </r>
       <r>    12.1899     2.4450    59.3409 </r>
       <r>    12.2801     2.4860    59.5651 </r>
       <r>    12.3702     1.2241    59.6755 </r>
       <r>    12.4604     0.1470    59.6887 </r>
       <r>    12.5506    -0.1414    59.6760 </r>
       <r>    12.6408    -0.0802    59.6687 </r>
       <r>    12.7309    -0.0201    59.6669 </r>
       <r>    12.8211    -0.0042    59.6666 </r>
       <r>    12.9113    -0.0088    59.6658 </r>
       <r>    13.0015    -0.0299    59.6631 </r>
       <r>    13.0916    -0.0408    59.6594 </r>
       <r>    13.1818     0.0853    59.6671 </r>
       <r>    13.2720     0.4614    59.7087 </r>
       <r>    13.3622     0.8455    59.7849 </r>
       <r>    13.4523     0.8005    59.8571 </r>
       <r>    13.5425     0.3829    59.8916 </r>
       <r>    13.6327     0.0460    59.8958 </r>
       <r>    13.7229    -0.0437    59.8918 </r>
       <r>    13.8130    -0.0253    59.8896 </r>
       <r>    13.9032    -0.0065    59.8890 </r>
       <r>    13.9934    -0.0010    59.8889 </r>
       <r>    14.0836    -0.0001    59.8889 </r>
       <r>    14.1738    -0.0000    59.8889 </r>
       <r>    14.2639    -0.0000    59.8889 </r>
       <r>    14.3541    -0.0000    59.8889 </r>
       <r>    14.4443    -0.0000    59.8889 </r>
       <r>    14.5345    -0.0000    59.8889 </r>
       <r>    14.6246    -0.0000    59.8889 </r>
       <r>    14.7148    -0.0000    59.8889 </r>
       <r>    14.8050    -0.0000    59.8889 </r>
       <r>    14.8952    -0.0000    59.8889 </r>
       <r>    14.9853    -0.0000    59.8889 </r>
       <r>    15.0755    -0.0000    59.8889 </r>
       <r>    15.1657    -0.0000    59.8889 </r>
       <r>    15.2559    -0.0000    59.8889 </r>
       <r>    15.3460    -0.0000    59.8889 </r>
       <r>    15.4362    -0.0000    59.8889 </r>
       <r>    15.5264    -0.0000    59.8889 </r>
       <r>    15.6166    -0.0001    59.8889 </r>
       <r>    15.7067    -0.0007    59.8888 </r>
       <r>    15.7969    -0.0046    59.8884 </r>
       <r>    15.8871    -0.0162    59.8869 </r>
       <r>    15.9773    -0.0216    59.8850 </r>
       <r>    16.0675     0.0492    59.8894 </r>
       <r>    16.1576     0.2521    59.9122 </r>
       <r>    16.2478     0.4421    59.9520 </r>
       <r>    16.3380     0.3928    59.9875 </r>
       <r>    16.4282     0.1678    60.0026 </r>
       <r>    16.5183     0.0089    60.0034 </r>
       <r>    16.6085    -0.0235    60.0013 </r>
       <r>    16.6987    -0.0112    60.0003 </r>
       <r>    16.7889    -0.0025    60.0000 </r>
       <r>    16.8790    -0.0003    60.0000 </r>
       <r>    16.9692    -0.0000    60.0000 </r>
       <r>    17.0594    -0.0000    60.0000 </r>
       <r>    17.1496    -0.0000    60.0000 </r>
       <r>    17.2397    -0.0000    60.0000 </r>
       <r>    17.3299    -0.0000    60.0000 </r>
       <r>    17.4201    -0.0000    60.0000 </r>
       <r>    17.5103    -0.0000    60.0000 </r>
       <r>    17.6004     0.0000    60.0000 </r>
       <r>    17.6906     0.0000    60.0000 </r>
       <r>    17.7808     0.0000    60.0000 </r>
       <r>    17.8710     0.0000    60.0000 </r>
       <r>    17.9612     0.0000    60.0000 </r>
       <r>    18.0513     0.0000    60.0000 </r>
       <r>    18.1415     0.0000    60.0000 </r>
       <r>    18.2317     0.0000    60.0000 </r>
      </set>
      <set comment="spin 2">
       <r>    -8.8212     0.0000     0.0000 </r>
       <r>    -8.7310     0.0000     0.0000 </r>
       <r>    -8.6408     0.0000     0.0000 </r>
       <r>    -8.5506     0.0000     0.0000 </r>
       <r>    -8.4605    -0.0000    -0.0000 </r>
       <r>    -8.3703    -0.0000    -0.0000 </r>
       <r>    -8.2801    -0.0000    -0.0000 </r>
       <r>    -8.1899    -0.0000    -0.0000 </r>
       <r>    -8.0998    -0.0000    -0.0000 </r>
       <r>    -8.0096    -0.0000    -0.0000 </r>
       <r>    -7.9194    -0.0000    -0.0000 </r>
       <r>    -7.8292    -0.0000    -0.0000 </r>
       <r>    -7.7391    -0.0000    -0.0000 </r>
       <r>    -7.6489    -0.0000    -0.0000 </r>
       <r>    -7.5587    -0.0000    -0.0000 </r>
       <r>    -7.4685    -0.0000    -0.0000 </r>
       <r>    -7.3784    -0.0003    -0.0000 </r>
       <r>    -7.2882    -0.0025    -0.0003 </r>
       <r>    -7.1980    -0.0112    -0.0013 </r>
       <r>    -7.1078    -0.0235    -0.0034 </r>
       <r>    -7.0176     0.0089    -0.0026 </r>
       <r>    -6.9275     0.1667     0.0124 </r>
       <r>    -6.8373     0.3862     0.0473 </r>
       <r>    -6.7471     0.4222     0.0853 </r>
       <r>    -6.6569     0.2373     0.1067 </r>
       <r>    -6.5668     0.1391     0.1193 </r>
       <r>    -6.4766     0.2907     0.1455 </r>
       <r>    -6.3864     0.4357     0.1848 </r>
       <r>    -6.2962     0.3206     0.2137 </r>
       <r>    -6.2061     0.0914     0.2219 </r>
       <r>    -6.1159     0.0410     0.2256 </r>
       <r>    -6.0257     0.2296     0.2463 </r>
       <r>    -5.9355     0.4227     0.2844 </r>
       <r>    -5.8454     0.3663     0.3175 </r>
       <r>    -5.7552     0.1809     0.3338 </r>
       <r>    -5.6650     0.1910     0.3510 </r>
       <r>    -5.5748     0.3807     0.3853 </r>
       <r>    -5.4847     0.4244     0.4236 </r>
       <r>    -5.3945     0.2337     0.4447 </r>
       <r>    -5.3043     0.0396     0.4483 </r>
       <r>    -5.2141    -0.0258     0.4459 </r>
       <r>    -5.1239    -0.0283     0.4434 </r>
       <r>    -5.0338    -0.0278     0.4409 </r>
       <r>    -4.9436     0.0210     0.4428 </r>
       <r>    -4.8534     0.1982     0.4606 </r>
       <r>    -4.7632     0.4146     0.4980 </r>
       <r>    -4.6731     0.4275     0.5366 </r>
       <r>    -4.5829     0.2202     0.5564 </r>
       <r>    -4.4927     0.0319     0.5593 </r>
       <r>    -4.4025    -0.0254     0.5570 </r>
       <r>    -4.3124    -0.0312     0.5542 </r>
       <r>    -4.2222    -0.0836     0.5467 </r>
       <r>    -4.1320    -0.1979     0.5288 </r>
       <r>    -4.0418    -0.0757     0.5220 </r>
       <r>    -3.9517     0.9852     0.6109 </r>
       <r>    -3.8615     3.0946     0.8899 </r>
       <r>    -3.7713     4.7671     1.3198 </r>
       <r>    -3.6811     4.4442     1.7206 </r>
       <r>    -3.5910     2.8707     1.9794 </r>
       <r>    -3.5008     2.1647     2.1746 </r>
       <r>    -3.4106     2.4572     2.3962 </r>
       <r>    -3.3204     2.0236     2.5787 </r>
       <r>    -3.2303     0.8950     2.6594 </r>
       <r>    -3.1401     0.9097     2.7415 </r>
       <r>    -3.0499     2.3153     2.9502 </r>
       <r>    -2.9597     3.0350     3.2239 </r>
       <r>    -2.8695     1.9008     3.3953 </r>
       <r>    -2.7794     0.5872     3.4483 </r>
       <r>    -2.6892     1.0596     3.5438 </r>
       <r>    -2.5990     2.8068     3.7969 </r>
       <r>    -2.5088     3.6117     4.1226 </r>
       <r>    -2.4187     2.8067     4.3757 </r>
       <r>    -2.3285     2.0776     4.5631 </r>
       <r>    -2.2383     2.4049     4.7799 </r>
       <r>    -2.1481     2.5870     5.0132 </r>
       <r>    -2.0580     1.7903     5.1747 </r>
       <r>    -1.9678     1.2689     5.2891 </r>
       <r>    -1.8776     1.9555     5.4654 </r>
       <r>    -1.7874     3.4518     5.7767 </r>
       <r>    -1.6973     6.2109     6.3368 </r>
       <r>    -1.6071    10.6020     7.2928 </r>
       <r>    -1.5169    14.4132     8.5925 </r>
       <r>    -1.4267    14.4950     9.8997 </r>
       <r>    -1.3366    10.8681    10.8797 </r>
       <r>    -1.2464     7.3083    11.5387 </r>
       <r>    -1.1562     6.1209    12.0907 </r>
       <r>    -1.0660     5.8727    12.6203 </r>
       <r>    -0.9758     5.1933    13.0886 </r>
       <r>    -0.8857     4.9915    13.5387 </r>
       <r>    -0.7955     6.8175    14.1535 </r>
       <r>    -0.7053    10.0865    15.0631 </r>
       <r>    -0.6151    12.8645    16.2231 </r>
       <r>    -0.5250    15.2187    17.5955 </r>
       <r>    -0.4348    17.3349    19.1587 </r>
       <r>    -0.3446    16.9490    20.6871 </r>
       <r>    -0.2544    13.4006    21.8955 </r>
       <r>    -0.1643     9.6180    22.7628 </r>
       <r>    -0.0741     7.9395    23.4788 </r>
       <r>     0.0161     8.4973    24.2450 </r>
       <r>     0.1063    10.5487    25.1963 </r>
       <r>     0.1964    12.8870    26.3584 </r>
       <r>     0.2866    14.6461    27.6791 </r>
       <r>     0.3768    15.3070    29.0594 </r>
       <r>     0.4670    15.5297    30.4598 </r>
       <r>     0.5571    17.2134    32.0120 </r>
       <r>     0.6473    20.2638    33.8394 </r>
       <r>     0.7375    22.2211    35.8432 </r>
       <r>     0.8277    21.0498    37.7414 </r>
       <r>     0.9179    17.2047    39.2928 </r>
       <r>     1.0080    13.9664    40.5523 </r>
       <r>     1.0982    13.5333    41.7726 </r>
       <r>     1.1884    13.3147    42.9733 </r>
       <r>     1.2786    10.1741    43.8908 </r>
       <r>     1.3687     5.2775    44.3667 </r>
       <r>     1.4589     1.5015    44.5021 </r>
       <r>     1.5491    -0.1637    44.4873 </r>
       <r>     1.6393    -0.4682    44.4451 </r>
       <r>     1.7294    -0.2152    44.4257 </r>
       <r>     1.8196     0.6594    44.4851 </r>
       <r>     1.9098     2.1278    44.6770 </r>
       <r>     2.0000     2.9636    44.9443 </r>
       <r>     2.0901     2.2456    45.1468 </r>
       <r>     2.1803     0.9223    45.2299 </r>
       <r>     2.2705     0.2710    45.2544 </r>
       <r>     2.3607     0.3047    45.2818 </r>
       <r>     2.4508     0.3692    45.3151 </r>
       <r>     2.5410     0.2048    45.3336 </r>
       <r>     2.6312    -0.0009    45.3335 </r>
       <r>     2.7214    -0.1327    45.3216 </r>
       <r>     2.8116    -0.1268    45.3101 </r>
       <r>     2.9017     0.4146    45.3475 </r>
       <r>     2.9919     1.7091    45.5016 </r>
       <r>     3.0821     2.7131    45.7463 </r>
       <r>     3.1723     2.2008    45.9448 </r>
       <r>     3.2624     0.8282    46.0194 </r>
       <r>     3.3526    -0.0096    46.0186 </r>
       <r>     3.4428    -0.1359    46.0063 </r>
       <r>     3.5330    -0.0567    46.0012 </r>
       <r>     3.6231    -0.0118    46.0001 </r>
       <r>     3.7133    -0.0015    46.0000 </r>
       <r>     3.8035    -0.0006    45.9999 </r>
       <r>     3.8937    -0.0053    45.9995 </r>
       <r>     3.9838    -0.0317    45.9966 </r>
       <r>     4.0740    -0.1053    45.9871 </r>
       <r>     4.1642    -0.1193    45.9764 </r>
       <r>     4.2544     0.3731    46.0100 </r>
       <r>     4.3445     1.6403    46.1579 </r>
       <r>     4.4347     2.6955    46.4010 </r>
       <r>     4.5249     2.2582    46.6046 </r>
       <r>     4.6151     0.8899    46.6849 </r>
       <r>     4.7053     0.0110    46.6859 </r>
       <r>     4.7954    -0.1381    46.6734 </r>
       <r>     4.8856    -0.0602    46.6680 </r>
       <r>     4.9758    -0.0129    46.6668 </r>
       <r>     5.0660    -0.0017    46.6667 </r>
       <r>     5.1561    -0.0016    46.6665 </r>
       <r>     5.2463    -0.0121    46.6654 </r>
       <r>     5.3365    -0.0594    46.6601 </r>
       <r>     5.4267    -0.1574    46.6459 </r>
       <r>     5.5168    -0.1159    46.6354 </r>
       <r>     5.6070     0.5715    46.6870 </r>
       <r>     5.6972     2.1937    46.8848 </r>
       <r>     5.7874     4.2800    47.2707 </r>
       <r>     5.8775     5.7536    47.7896 </r>
       <r>     5.9677     5.3217    48.2695 </r>
       <r>     6.0579     3.1693    48.5553 </r>
       <r>     6.1481     1.4776    48.6885 </r>
       <r>     6.2382     1.2329    48.7997 </r>
       <r>     6.3284     1.2755    48.9147 </r>
       <r>     6.4186     0.8753    48.9936 </r>
       <r>     6.5088     0.4771    49.0367 </r>
       <r>     6.5990     0.3467    49.0679 </r>
       <r>     6.6891     0.2649    49.0918 </r>
       <r>     6.7793     0.2938    49.1183 </r>
       <r>     6.8695     0.7061    49.1820 </r>
       <r>     6.9597     1.5815    49.3246 </r>
       <r>     7.0498     2.7936    49.5765 </r>
       <r>     7.1400     3.5393    49.8957 </r>
       <r>     7.2302     2.8845    50.1558 </r>
       <r>     7.3204     1.3913    50.2812 </r>
       <r>     7.4105     0.3898    50.3164 </r>
       <r>     7.5007     0.4429    50.3563 </r>
       <r>     7.5909     1.3737    50.4802 </r>
       <r>     7.6811     2.2773    50.6856 </r>
       <r>     7.7712     2.1414    50.8787 </r>
       <r>     7.8614     1.1119    50.9789 </r>
       <r>     7.9516     0.2117    50.9980 </r>
       <r>     8.0418     0.2036    51.0164 </r>
       <r>     8.1319     1.0404    51.1102 </r>
       <r>     8.2221     1.8574    51.2777 </r>
       <r>     8.3123     2.0993    51.4670 </r>
       <r>     8.4025     2.3711    51.6808 </r>
       <r>     8.4927     2.7600    51.9297 </r>
       <r>     8.5828     2.3214    52.1390 </r>
       <r>     8.6730     1.3544    52.2612 </r>
       <r>     8.7632     1.0021    52.3515 </r>
       <r>     8.8534     1.2458    52.4639 </r>
       <r>     8.9435     1.8551    52.6312 </r>
       <r>     9.0337     2.7951    52.8832 </r>
       <r>     9.1239     3.0593    53.1591 </r>
       <r>     9.2141     2.2601    53.3629 </r>
       <r>     9.3042     1.9940    53.5427 </r>
       <r>     9.3944     2.9683    53.8104 </r>
       <r>     9.4846     3.3247    54.1102 </r>
       <r>     9.5748     2.2365    54.3119 </r>
       <r>     9.6649     1.6443    54.4602 </r>
       <r>     9.7551     2.2673    54.6646 </r>
       <r>     9.8453     2.2964    54.8717 </r>
       <r>     9.9355     1.2523    54.9846 </r>
       <r>    10.0256     0.9249    55.0680 </r>
       <r>    10.1158     1.9147    55.2407 </r>
       <r>    10.2060     2.5150    55.4675 </r>
       <r>    10.2962     1.8586    55.6351 </r>
       <r>    10.3864     1.5030    55.7706 </r>
       <r>    10.4765     2.5082    55.9968 </r>
       <r>    10.5667     3.4578    56.3086 </r>
       <r>    10.6569     2.7580    56.5573 </r>
       <r>    10.7471     1.1939    56.6650 </r>
       <r>    10.8372     0.7866    56.7359 </r>
       <r>    10.9274     2.1305    56.9280 </r>
       <r>    11.0176     3.6159    57.2541 </r>
       <r>    11.1078     3.2659    57.5486 </r>
       <r>    11.1979     1.4283    57.6774 </r>
       <r>    11.2881    -0.0191    57.6757 </r>
       <r>    11.3783    -0.2892    57.6496 </r>
       <r>    11.4685     0.5303    57.6974 </r>
       <r>    11.5586     2.2070    57.8964 </r>
       <r>    11.6488     3.8069    58.2397 </r>
       <r>    11.7390     4.1701    58.6158 </r>
       <r>    11.8292     2.9961    58.8859 </r>
       <r>    11.9193     1.1825    58.9926 </r>
       <r>    12.0095     0.3065    59.0202 </r>
       <r>    12.0997     1.1096    59.1203 </r>
       <r>    12.1899     2.4443    59.3407 </r>
       <r>    12.2801     2.4868    59.5649 </r>
       <r>    12.3702     1.2253    59.6754 </r>
       <r>    12.4604     0.1476    59.6887 </r>
       <r>    12.5506    -0.1414    59.6760 </r>
       <r>    12.6408    -0.0803    59.6688 </r>
       <r>    12.7309    -0.0201    59.6669 </r>
       <r>    12.8211    -0.0042    59.6666 </r>
       <r>    12.9113    -0.0088    59.6658 </r>
       <r>    13.0015    -0.0299    59.6631 </r>
       <r>    13.0916    -0.0408    59.6594 </r>
       <r>    13.1818     0.0851    59.6671 </r>
       <r>    13.2720     0.4610    59.7086 </r>
       <r>    13.3622     0.8453    59.7849 </r>
       <r>    13.4523     0.8007    59.8571 </r>
       <r>    13.5425     0.3833    59.8916 </r>
       <r>    13.6327     0.0462    59.8958 </r>
       <r>    13.7229    -0.0437    59.8919 </r>
       <r>    13.8130    -0.0253    59.8896 </r>
       <r>    13.9032    -0.0065    59.8890 </r>
       <r>    13.9934    -0.0010    59.8889 </r>
       <r>    14.0836    -0.0001    59.8889 </r>
       <r>    14.1738    -0.0000    59.8889 </r>
       <r>    14.2639    -0.0000    59.8889 </r>
       <r>    14.3541    -0.0000    59.8889 </r>
       <r>    14.4443    -0.0000    59.8889 </r>
       <r>    14.5345    -0.0000    59.8889 </r>
       <r>    14.6246    -0.0000    59.8889 </r>
       <r>    14.7148    -0.0000    59.8889 </r>
       <r>    14.8050    -0.0000    59.8889 </r>
       <r>    14.8952    -0.0000    59.8889 </r>
       <r>    14.9853    -0.0000    59.8889 </r>
       <r>    15.0755    -0.0000    59.8889 </r>
       <r>    15.1657    -0.0000    59.8889 </r>
       <r>    15.2559    -0.0000    59.8889 </r>
       <r>    15.3460    -0.0000    59.8889 </r>
       <r>    15.4362    -0.0000    59.8889 </r>
       <r>    15.5264    -0.0000    59.8889 </r>
       <r>    15.6166    -0.0001    59.8889 </r>
       <r>    15.7067    -0.0007    59.8888 </r>
       <r>    15.7969    -0.0046    59.8884 </r>
       <r>    15.8871    -0.0162    59.8869 </r>
       <r>    15.9773    -0.0217    59.8850 </r>
       <r>    16.0675     0.0491    59.8894 </r>
       <r>    16.1576     0.2519    59.9121 </r>
       <r>    16.2478     0.4421    59.9520 </r>
       <r>    16.3380     0.3930    59.9874 </r>
       <r>    16.4282     0.1679    60.0026 </r>
       <r>    16.5183     0.0090    60.0034 </r>
       <r>    16.6085    -0.0235    60.0013 </r>
       <r>    16.6987    -0.0112    60.0003 </r>
       <r>    16.7889    -0.0025    60.0000 </r>
       <r>    16.8790    -0.0003    60.0000 </r>
       <r>    16.9692    -0.0000    60.0000 </r>
       <r>    17.0594    -0.0000    60.0000 </r>
       <r>    17.1496    -0.0000    60.0000 </r>
       <r>    17.2397    -0.0000    60.0000 </r>
       <r>    17.3299    -0.0000    60.0000 </r>
       <r>    17.4201    -0.0000    60.0000 </r>
       <r>    17.5103    -0.0000    60.0000 </r>
       <r>    17.6004     0.0000    60.0000 </r>
       <r>    17.6906     0.0000    60.0000 </r>
       <r>    17.7808     0.0000    60.0000 </r>
       <r>    17.8710     0.0000    60.0000 </r>
       <r>    17.9612     0.0000    60.0000 </r>
       <r>    18.0513     0.0000    60.0000 </r>
       <r>    18.1415     0.0000    60.0000 </r>
       <r>    18.2317     0.0000    60.0000 </r>
      </set>
     </set>
    </array>
   </total>
  </dos>
 </calculation>
 <structure name="finalpos" >
  <crystal>
   <varray name="basis" >
    <v>       2.56679773       0.00000000       0.00000000 </v>
    <v>       1.28339887       2.22291204       0.00000000 </v>
    <v>       0.00000000       0.00000000      29.67047119 </v>
   </varray>
   <i name="volume">    169.29275369 </i>
   <varray name="rec_basis" >
    <v>       0.38959050      -0.22493018       0.00000000 </v>
    <v>       0.00000000       0.44986035       0.00000000 </v>
    <v>       0.00000000       0.00000000       0.03370354 </v>
   </varray>
  </crystal>
  <varray name="positions" >
   <v>      -0.00000000      -0.00000000       0.00045948 </v>
   <v>       0.33333333       0.33333333       0.06764084 </v>
   <v>       0.66666667       0.66666667       0.13560795 </v>
   <v>       0.00000000      -0.00000000       0.20395660 </v>
   <v>       0.33333333       0.33333333       0.27190076 </v>
   <v>       0.66666667       0.66666667       0.34033181 </v>
   <v>       0.00000000      -0.00000000       0.40845678 </v>
   <v>       0.33333333       0.33333333       0.47578760 </v>
   <v>       0.66666667       0.66666667       0.54967736 </v>
   <v>       0.66666667       0.66666667       0.57524996 </v>
  </varray>
 </structure>
</modeling>
