unknown system                          
           1
     2.566798    0.000000    0.000000
     1.283399    2.222912    0.000000
     0.000000    0.000000   29.670471
   Cu   H 
     8     2
Direct configuration=     1
   0.00000000  0.00000000  0.00000000
   0.33333333  0.33333333  0.07063526
   0.66666667  0.66666667  0.13908594
   0.00000000  0.00000000  0.20816512
   0.33333333  0.33333333  0.27656240
   0.66666667  0.66666667  0.34556034
   0.00000000  0.00000000  0.41400593
   0.33333333  0.33333333  0.48139269
   0.66666667  0.66666667  0.53425930
   0.66666667  0.66666667  0.55940215
Direct configuration=     2
   0.00000000  0.00000000  0.00076751
   0.33333333  0.33333333  0.06998908
   0.66666667  0.66666667  0.13909960
  -0.00000000 -0.00000000  0.20816090
   0.33333333  0.33333333  0.27652761
   0.66666667  0.66666667  0.34552969
   0.00000000 -0.00000000  0.41384905
   0.33333333  0.33333333  0.48044359
   0.66666667  0.66666667  0.53320093
   0.66666667  0.66666667  0.56150117
Direct configuration=     3
   0.00000000  0.00000000  0.00045181
   0.33333333  0.33333333  0.07025487
   0.66666667  0.66666667  0.13909398
  -0.00000000 -0.00000000  0.20816264
   0.33333333  0.33333333  0.27654192
   0.66666667  0.66666667  0.34554230
   0.00000000 -0.00000000  0.41391358
   0.33333333  0.33333333  0.48083398
   0.66666667  0.66666667  0.53363627
   0.66666667  0.66666667  0.56063779
Direct configuration=     4
  -0.00000000 -0.00000000  0.00119932
   0.33333333  0.33333333  0.06971243
   0.66666667  0.66666667  0.13903774
  -0.00000000 -0.00000000  0.20815134
   0.33333333  0.33333333  0.27650860
   0.66666667  0.66666667  0.34548866
   0.00000000 -0.00000000  0.41363958
   0.33333333  0.33333333  0.48001077
   0.66666667  0.66666667  0.53429173
   0.66666667  0.66666667  0.56102897
Direct configuration=     5
  -0.00000000 -0.00000000  0.00279684
   0.33333333  0.33333333  0.06855315
   0.66666667  0.66666667  0.13891754
  -0.00000000 -0.00000000  0.20812721
   0.33333333  0.33333333  0.27643741
   0.66666667  0.66666667  0.34537403
   0.00000000 -0.00000000  0.41305400
   0.33333333  0.33333333  0.47825144
   0.66666667  0.66666667  0.53569254
   0.66666667  0.66666667  0.56186499
Direct configuration=     6
  -0.00000000 -0.00000000  0.00248382
   0.33333333  0.33333333  0.06878030
   0.66666667  0.66666667  0.13894109
  -0.00000000 -0.00000000  0.20813194
   0.33333333  0.33333333  0.27645136
   0.66666667  0.66666667  0.34539649
   0.00000000 -0.00000000  0.41316874
   0.33333333  0.33333333  0.47859617
   0.66666667  0.66666667  0.53541806
   0.66666667  0.66666667  0.56170118
Direct configuration=     7
  -0.00000000 -0.00000000  0.00264354
   0.33333333  0.33333333  0.06929136
   0.66666667  0.66666667  0.13857101
  -0.00000000 -0.00000000  0.20805892
   0.33333333  0.33333333  0.27638431
   0.66666667  0.66666667  0.34511748
   0.00000000 -0.00000000  0.41237994
   0.33333333  0.33333333  0.47807307
   0.66666667  0.66666667  0.53645873
   0.66666667  0.66666667  0.56209078
Direct configuration=     8
  -0.00000000 -0.00000000  0.00276507
   0.33333333  0.33333333  0.06968023
   0.66666667  0.66666667  0.13828941
  -0.00000000 -0.00000000  0.20800335
   0.33333333  0.33333333  0.27633329
   0.66666667  0.66666667  0.34490518
   0.00000000 -0.00000000  0.41177975
   0.33333333  0.33333333  0.47767504
   0.66666667  0.66666667  0.53725058
   0.66666667  0.66666667  0.56238723
Direct configuration=     9
  -0.00000000 -0.00000000  0.00280804
   0.33333333  0.33333333  0.06989156
   0.66666667  0.66666667  0.13818482
  -0.00000000 -0.00000000  0.20795079
   0.33333333  0.33333333  0.27628378
   0.66666667  0.66666667  0.34474682
   0.00000000 -0.00000000  0.41148002
   0.33333333  0.33333333  0.47747276
   0.66666667  0.66666667  0.53747981
   0.66666667  0.66666667  0.56277073
Direct configuration=    10
  -0.00000000 -0.00000000  0.00293696
   0.33333333  0.33333333  0.07052552
   0.66666667  0.66666667  0.13787105
  -0.00000000 -0.00000000  0.20779309
   0.33333333  0.33333333  0.27613526
   0.66666667  0.66666667  0.34427175
   0.00000000 -0.00000000  0.41058084
   0.33333333  0.33333333  0.47686589
   0.66666667  0.66666667  0.53816752
   0.66666667  0.66666667  0.56392124
Direct configuration=    11
  -0.00000000 -0.00000000  0.00298969
   0.33333333  0.33333333  0.07078486
   0.66666667  0.66666667  0.13774270
   0.00000000 -0.00000000  0.20772859
   0.33333333  0.33333333  0.27607451
   0.66666667  0.66666667  0.34407741
   0.00000000 -0.00000000  0.41021302
   0.33333333  0.33333333  0.47661764
   0.66666667  0.66666667  0.53844884
   0.66666667  0.66666667  0.56439188
Direct configuration=    12
  -0.00000000 -0.00000000  0.00305269
   0.33333333  0.33333333  0.07075885
   0.66666667  0.66666667  0.13787528
   0.00000000 -0.00000000  0.20763745
   0.33333333  0.33333333  0.27595517
   0.66666667  0.66666667  0.34386140
   0.00000000 -0.00000000  0.41013507
   0.33333333  0.33333333  0.47648951
   0.66666667  0.66666667  0.53866203
   0.66666667  0.66666667  0.56464167
Direct configuration=    13
  -0.00000000 -0.00000000  0.00324169
   0.33333333  0.33333333  0.07068084
   0.66666667  0.66666667  0.13827302
   0.00000000 -0.00000000  0.20736403
   0.33333333  0.33333333  0.27559716
   0.66666667  0.66666667  0.34321338
   0.00000000 -0.00000000  0.40990124
   0.33333333  0.33333333  0.47610512
   0.66666667  0.66666667  0.53930162
   0.66666667  0.66666667  0.56539102
Direct configuration=    14
  -0.00000000 -0.00000000  0.00361969
   0.33333333  0.33333333  0.07052482
   0.66666667  0.66666667  0.13906850
   0.00000000 -0.00000000  0.20681720
   0.33333333  0.33333333  0.27488114
   0.66666667  0.66666667  0.34191734
   0.00000000 -0.00000000  0.40943356
   0.33333333  0.33333333  0.47533633
   0.66666667  0.66666667  0.54058079
   0.66666667  0.66666667  0.56688974
Direct configuration=    15
  -0.00000000 -0.00000000  0.00368559
   0.33333333  0.33333333  0.07054573
   0.66666667  0.66666667  0.13918244
   0.00000000 -0.00000000  0.20674304
   0.33333333  0.33333333  0.27454767
   0.66666667  0.66666667  0.34164392
  -0.00000000 -0.00000000  0.40922989
   0.33333333  0.33333333  0.47519705
   0.66666667  0.66666667  0.54118630
   0.66666667  0.66666667  0.56710750
Direct configuration=    16
  -0.00000000 -0.00000000  0.00373884
   0.33333333  0.33333333  0.07056263
   0.66666667  0.66666667  0.13927451
   0.00000000 -0.00000000  0.20668310
   0.33333333  0.33333333  0.27427817
   0.66666667  0.66666667  0.34142297
  -0.00000000 -0.00000000  0.40906530
   0.33333333  0.33333333  0.47508449
   0.66666667  0.66666667  0.54167563
   0.66666667  0.66666667  0.56728348
Direct configuration=    17
  -0.00000000 -0.00000000  0.00369991
   0.33333333  0.33333333  0.07066000
   0.66666667  0.66666667  0.13913062
   0.00000000 -0.00000000  0.20673937
   0.33333333  0.33333333  0.27411170
   0.66666667  0.66666667  0.34145776
  -0.00000000 -0.00000000  0.40894093
   0.33333333  0.33333333  0.47511473
   0.66666667  0.66666667  0.54178692
   0.66666667  0.66666667  0.56742719
Direct configuration=    18
  -0.00000000 -0.00000000  0.00361790
   0.33333333  0.33333333  0.07086512
   0.66666667  0.66666667  0.13882746
   0.00000000 -0.00000000  0.20685793
   0.33333333  0.33333333  0.27376098
   0.66666667  0.66666667  0.34153107
  -0.00000000 -0.00000000  0.40867891
   0.33333333  0.33333333  0.47517843
   0.66666667  0.66666667  0.54202137
   0.66666667  0.66666667  0.56772994
Direct configuration=    19
  -0.00000000 -0.00000000  0.00361156
   0.33333333  0.33333333  0.07088098
   0.66666667  0.66666667  0.13880403
  -0.00000000 -0.00000000  0.20686710
   0.33333333  0.33333333  0.27373387
   0.66666667  0.66666667  0.34153674
  -0.00000000 -0.00000000  0.40865866
   0.33333333  0.33333333  0.47518336
   0.66666667  0.66666667  0.54203949
   0.66666667  0.66666667  0.56775335
Direct configuration=    20
  -0.00000000 -0.00000000  0.00360164
   0.33333333  0.33333333  0.07087295
   0.66666667  0.66666667  0.13870902
  -0.00000000 -0.00000000  0.20678590
   0.33333333  0.33333333  0.27372884
   0.66666667  0.66666667  0.34151121
  -0.00000000 -0.00000000  0.40865387
   0.33333333  0.33333333  0.47520047
   0.66666667  0.66666667  0.54214493
   0.66666667  0.66666667  0.56786029
Direct configuration=    21
  -0.00000000 -0.00000000  0.00357190
   0.33333333  0.33333333  0.07084887
   0.66666667  0.66666667  0.13842402
  -0.00000000 -0.00000000  0.20654231
   0.33333333  0.33333333  0.27371375
   0.66666667  0.66666667  0.34143461
  -0.00000000 -0.00000000  0.40863951
   0.33333333  0.33333333  0.47525182
   0.66666667  0.66666667  0.54246122
   0.66666667  0.66666667  0.56818113
Direct configuration=    22
  -0.00000000 -0.00000000  0.00351241
   0.33333333  0.33333333  0.07080069
   0.66666667  0.66666667  0.13785400
  -0.00000000 -0.00000000  0.20605514
   0.33333333  0.33333333  0.27368358
   0.66666667  0.66666667  0.34128141
   0.00000000 -0.00000000  0.40861079
   0.33333333  0.33333333  0.47535450
   0.66666667  0.66666667  0.54309381
   0.66666667  0.66666667  0.56882281
Direct configuration=    23
  -0.00000000 -0.00000000  0.00349938
   0.33333333  0.33333333  0.07072439
   0.66666667  0.66666667  0.13781410
  -0.00000000 -0.00000000  0.20598523
   0.33333333  0.33333333  0.27363681
   0.66666667  0.66666667  0.34126877
   0.00000000 -0.00000000  0.40862000
   0.33333333  0.33333333  0.47536384
   0.66666667  0.66666667  0.54322625
   0.66666667  0.66666667  0.56893036
Direct configuration=    24
  -0.00000000 -0.00000000  0.00346031
   0.33333333  0.33333333  0.07049550
   0.66666667  0.66666667  0.13769440
  -0.00000000 -0.00000000  0.20577550
   0.33333333  0.33333333  0.27349649
   0.66666667  0.66666667  0.34123084
   0.00000000 -0.00000000  0.40864764
   0.33333333  0.33333333  0.47539186
   0.66666667  0.66666667  0.54362356
   0.66666667  0.66666667  0.56925303
Direct configuration=    25
  -0.00000000 -0.00000000  0.00338217
   0.33333333  0.33333333  0.07003772
   0.66666667  0.66666667  0.13745499
   0.00000000 -0.00000000  0.20535604
   0.33333333  0.33333333  0.27321585
   0.66666667  0.66666667  0.34115500
   0.00000000 -0.00000000  0.40870291
   0.33333333  0.33333333  0.47544790
   0.66666667  0.66666667  0.54441818
   0.66666667  0.66666667  0.56989836
Direct configuration=    26
  -0.00000000 -0.00000000  0.00335439
   0.33333333  0.33333333  0.06987495
   0.66666667  0.66666667  0.13736986
   0.00000000 -0.00000000  0.20520689
   0.33333333  0.33333333  0.27311607
   0.66666667  0.66666667  0.34112803
   0.00000000 -0.00000000  0.40872256
   0.33333333  0.33333333  0.47546783
   0.66666667  0.66666667  0.54470073
   0.66666667  0.66666667  0.57012783
Direct configuration=    27
  -0.00000000 -0.00000000  0.00327866
   0.33333333  0.33333333  0.06975932
   0.66666667  0.66666667  0.13729903
   0.00000000 -0.00000000  0.20513016
   0.33333333  0.33333333  0.27300019
   0.66666667  0.66666667  0.34110254
   0.00000000 -0.00000000  0.40873060
   0.33333333  0.33333333  0.47548092
   0.66666667  0.66666667  0.54487427
   0.66666667  0.66666667  0.57041345
Direct configuration=    28
  -0.00000000 -0.00000000  0.00315706
   0.33333333  0.33333333  0.06957364
   0.66666667  0.66666667  0.13718529
   0.00000000 -0.00000000  0.20500694
   0.33333333  0.33333333  0.27281410
   0.66666667  0.66666667  0.34106160
   0.00000000 -0.00000000  0.40874350
   0.33333333  0.33333333  0.47550196
   0.66666667  0.66666667  0.54515294
   0.66666667  0.66666667  0.57087211
Direct configuration=    29
  -0.00000000 -0.00000000  0.00291385
   0.33333333  0.33333333  0.06920228
   0.66666667  0.66666667  0.13695781
   0.00000000 -0.00000000  0.20476050
   0.33333333  0.33333333  0.27244192
   0.66666667  0.66666667  0.34097972
   0.00000000 -0.00000000  0.40876931
   0.33333333  0.33333333  0.47554402
   0.66666667  0.66666667  0.54571028
   0.66666667  0.66666667  0.57178944
Direct configuration=    30
  -0.00000000 -0.00000000  0.00307879
   0.33333333  0.33333333  0.06945414
   0.66666667  0.66666667  0.13711209
   0.00000000 -0.00000000  0.20492764
   0.33333333  0.33333333  0.27269433
   0.66666667  0.66666667  0.34103525
   0.00000000 -0.00000000  0.40875181
   0.33333333  0.33333333  0.47551549
   0.66666667  0.66666667  0.54533229
   0.66666667  0.66666667  0.57116731
Direct configuration=    31
  -0.00000000 -0.00000000  0.00291359
   0.33333333  0.33333333  0.06933287
   0.66666667  0.66666667  0.13700779
   0.00000000 -0.00000000  0.20486907
   0.33333333  0.33333333  0.27254231
   0.66666667  0.66666667  0.34099651
   0.00000000 -0.00000000  0.40876576
   0.33333333  0.33333333  0.47554917
   0.66666667  0.66666667  0.54563684
   0.66666667  0.66666667  0.57145522
Direct configuration=    32
  -0.00000000 -0.00000000  0.00241796
   0.33333333  0.33333333  0.06896908
   0.66666667  0.66666667  0.13669489
  -0.00000000 -0.00000000  0.20469337
   0.33333333  0.33333333  0.27208626
   0.66666667  0.66666667  0.34088027
   0.00000000 -0.00000000  0.40880762
   0.33333333  0.33333333  0.47565021
   0.66666667  0.66666667  0.54655050
   0.66666667  0.66666667  0.57231897
Direct configuration=    33
  -0.00000000 -0.00000000  0.00142671
   0.33333333  0.33333333  0.06824151
   0.66666667  0.66666667  0.13606908
  -0.00000000 -0.00000000  0.20434196
   0.33333333  0.33333333  0.27117415
   0.66666667  0.66666667  0.34064780
   0.00000000 -0.00000000  0.40889134
   0.33333333  0.33333333  0.47585228
   0.66666667  0.66666667  0.54837782
   0.66666667  0.66666667  0.57404648
Direct configuration=    34
  -0.00000000 -0.00000000  0.00193222
   0.33333333  0.33333333  0.06861255
   0.66666667  0.66666667  0.13638822
  -0.00000000 -0.00000000  0.20452117
   0.33333333  0.33333333  0.27163930
   0.66666667  0.66666667  0.34076635
   0.00000000 -0.00000000  0.40884864
   0.33333333  0.33333333  0.47574923
   0.66666667  0.66666667  0.54744594
   0.66666667  0.66666667  0.57316549
Direct configuration=    35
  -0.00000000 -0.00000000  0.00167947
   0.33333333  0.33333333  0.06842703
   0.66666667  0.66666667  0.13622865
  -0.00000000 -0.00000000  0.20443157
   0.33333333  0.33333333  0.27140673
   0.66666667  0.66666667  0.34070707
   0.00000000 -0.00000000  0.40886999
   0.33333333  0.33333333  0.47580076
   0.66666667  0.66666667  0.54791188
   0.66666667  0.66666667  0.57360599
Direct configuration=    36
  -0.00000000 -0.00000000  0.00122809
   0.33333333  0.33333333  0.06821183
   0.66666667  0.66666667  0.13601190
   0.00000000 -0.00000000  0.20419611
   0.33333333  0.33333333  0.27137607
   0.66666667  0.66666667  0.34051766
   0.00000000 -0.00000000  0.40881356
   0.33333333  0.33333333  0.47586895
   0.66666667  0.66666667  0.54869780
   0.66666667  0.66666667  0.57414717
Direct configuration=    37
  -0.00000000 -0.00000000  0.00109557
   0.33333333  0.33333333  0.06814865
   0.66666667  0.66666667  0.13594827
   0.00000000 -0.00000000  0.20412698
   0.33333333  0.33333333  0.27136707
   0.66666667  0.66666667  0.34046205
   0.00000000 -0.00000000  0.40879699
   0.33333333  0.33333333  0.47588897
   0.66666667  0.66666667  0.54892852
   0.66666667  0.66666667  0.57430605
Direct configuration=    38
  -0.00000000 -0.00000000  0.00080587
   0.33333333  0.33333333  0.06802081
   0.66666667  0.66666667  0.13583374
   0.00000000 -0.00000000  0.20394930
   0.33333333  0.33333333  0.27156556
   0.66666667  0.66666667  0.34032091
   0.00000000 -0.00000000  0.40869655
   0.33333333  0.33333333  0.47590169
   0.66666667  0.66666667  0.54917128
   0.66666667  0.66666667  0.57480342
Direct configuration=    39
  -0.00000000 -0.00000000  0.00076628
   0.33333333  0.33333333  0.06800334
   0.66666667  0.66666667  0.13581809
   0.00000000 -0.00000000  0.20392502
   0.33333333  0.33333333  0.27159269
   0.66666667  0.66666667  0.34030162
   0.00000000 -0.00000000  0.40868283
   0.33333333  0.33333333  0.47590342
   0.66666667  0.66666667  0.54920446
   0.66666667  0.66666667  0.57487139
Direct configuration=    40
  -0.00000000 -0.00000000  0.00078107
   0.33333333  0.33333333  0.06800987
   0.66666667  0.66666667  0.13582394
   0.00000000 -0.00000000  0.20393409
   0.33333333  0.33333333  0.27158256
   0.66666667  0.66666667  0.34030882
   0.00000000 -0.00000000  0.40868795
   0.33333333  0.33333333  0.47590277
   0.66666667  0.66666667  0.54919207
   0.66666667  0.66666667  0.57484600
Direct configuration=    41
  -0.00000000 -0.00000000  0.00076938
   0.33333333  0.33333333  0.06800471
   0.66666667  0.66666667  0.13581932
   0.00000000 -0.00000000  0.20392692
   0.33333333  0.33333333  0.27159057
   0.66666667  0.66666667  0.34030313
   0.00000000 -0.00000000  0.40868390
   0.33333333  0.33333333  0.47590329
   0.66666667  0.66666667  0.54920186
   0.66666667  0.66666667  0.57486607
Direct configuration=    42
  -0.00000000 -0.00000000  0.00077522
   0.33333333  0.33333333  0.06800729
   0.66666667  0.66666667  0.13582163
   0.00000000 -0.00000000  0.20393050
   0.33333333  0.33333333  0.27158656
   0.66666667  0.66666667  0.34030597
   0.00000000 -0.00000000  0.40868593
   0.33333333  0.33333333  0.47590303
   0.66666667  0.66666667  0.54919696
   0.66666667  0.66666667  0.57485604
Direct configuration=    43
  -0.00000000 -0.00000000  0.00077056
   0.33333333  0.33333333  0.06800523
   0.66666667  0.66666667  0.13581978
   0.00000000 -0.00000000  0.20392764
   0.33333333  0.33333333  0.27158976
   0.66666667  0.66666667  0.34030370
   0.00000000 -0.00000000  0.40868431
   0.33333333  0.33333333  0.47590324
   0.66666667  0.66666667  0.54920087
   0.66666667  0.66666667  0.57486405
Direct configuration=    44
  -0.00000000 -0.00000000  0.00077289
   0.33333333  0.33333333  0.06800626
   0.66666667  0.66666667  0.13582071
   0.00000000 -0.00000000  0.20392907
   0.33333333  0.33333333  0.27158816
   0.66666667  0.66666667  0.34030484
   0.00000000 -0.00000000  0.40868512
   0.33333333  0.33333333  0.47590313
   0.66666667  0.66666667  0.54919892
   0.66666667  0.66666667  0.57486004
Direct configuration=    45
  -0.00000000 -0.00000000  0.00077144
   0.33333333  0.33333333  0.06800562
   0.66666667  0.66666667  0.13582014
   0.00000000 -0.00000000  0.20392819
   0.33333333  0.33333333  0.27158915
   0.66666667  0.66666667  0.34030413
   0.00000000 -0.00000000  0.40868462
   0.33333333  0.33333333  0.47590320
   0.66666667  0.66666667  0.54920013
   0.66666667  0.66666667  0.57486252
Direct configuration=    46
  -0.00000000 -0.00000000  0.00064874
   0.33333333  0.33333333  0.06789660
   0.66666667  0.66666667  0.13575103
   0.00000000 -0.00000000  0.20388335
   0.33333333  0.33333333  0.27173500
   0.66666667  0.66666667  0.34027145
   0.00000000 -0.00000000  0.40859669
   0.33333333  0.33333333  0.47588619
   0.66666667  0.66666667  0.54941775
   0.66666667  0.66666667  0.57498233
Direct configuration=    47
  -0.00000000 -0.00000000  0.00063013
   0.33333333  0.33333333  0.06788006
   0.66666667  0.66666667  0.13574054
   0.00000000 -0.00000000  0.20387655
   0.33333333  0.33333333  0.27175713
   0.66666667  0.66666667  0.34026649
   0.00000000 -0.00000000  0.40858335
   0.33333333  0.33333333  0.47588361
   0.66666667  0.66666667  0.54945076
   0.66666667  0.66666667  0.57500051
Direct configuration=    48
  -0.00000000 -0.00000000  0.00059289
   0.33333333  0.33333333  0.06784698
   0.66666667  0.66666667  0.13571957
   0.00000000 -0.00000000  0.20386295
   0.33333333  0.33333333  0.27180139
   0.66666667  0.66666667  0.34025657
   0.00000000 -0.00000000  0.40855667
   0.33333333  0.33333333  0.47587845
   0.66666667  0.66666667  0.54951680
   0.66666667  0.66666667  0.57503686
Direct configuration=    49
  -0.00000000 -0.00000000  0.00052112
   0.33333333  0.33333333  0.06773607
   0.66666667  0.66666667  0.13565952
   0.00000000 -0.00000000  0.20391334
   0.33333333  0.33333333  0.27185485
   0.66666667  0.66666667  0.34029705
   0.00000000 -0.00000000  0.40850292
   0.33333333  0.33333333  0.47582957
   0.66666667  0.66666667  0.54960318
   0.66666667  0.66666667  0.57515151
Direct configuration=    50
  -0.00000000 -0.00000000  0.00045948
   0.33333333  0.33333333  0.06764084
   0.66666667  0.66666667  0.13560795
   0.00000000 -0.00000000  0.20395660
   0.33333333  0.33333333  0.27190076
   0.66666667  0.66666667  0.34033181
   0.00000000 -0.00000000  0.40845678
   0.33333333  0.33333333  0.47578760
   0.66666667  0.66666667  0.54967736
   0.66666667  0.66666667  0.57524996
