       N       E                     dE             d eps       ncg     rms          rms(c)
DAV:   1     0.155219178815E+05    0.15522E+05   -0.56070E+05 12296   0.190E+03
DAV:   2     0.225659990392E+04   -0.13265E+05   -0.12693E+05 12288   0.452E+02
DAV:   3    -0.387952242032E+03   -0.26446E+04   -0.23936E+04 12288   0.232E+02
DAV:   4    -0.608967707537E+03   -0.22102E+03   -0.20975E+03 13344   0.946E+01
DAV:   5    -0.614937571160E+03   -0.59699E+01   -0.59376E+01 13576   0.158E+01    0.112E+02
