  28  28   0   0
  0.3021577E+02  0.7260000E-09  0.5133596E-09  0.2270039E-08  0.5000000E-15
  1.000000000000000E-004
  CAR 
 unknown system                          
     10.90757012    -10.60576026  301      0.39100629      1.00000000
    -10.606  0.0000E+00  0.0000E+00  0.0000E+00  0.0000E+00
    -10.534  0.0000E+00  0.0000E+00  0.0000E+00  0.0000E+00
    -10.462  0.0000E+00  0.0000E+00  0.0000E+00  0.0000E+00
    -10.391  0.0000E+00  0.0000E+00  0.0000E+00  0.0000E+00
    -10.319  0.0000E+00  0.0000E+00  0.0000E+00  0.0000E+00
    -10.247 -0.2502E-31 -0.2502E-31 -0.1794E-32 -0.1794E-32
    -10.175 -0.7544E-29 -0.7544E-29 -0.5428E-30 -0.5428E-30
    -10.104 -0.1760E-26 -0.1760E-26 -0.1267E-27 -0.1267E-27
    -10.032 -0.3165E-24 -0.3165E-24 -0.2283E-25 -0.2283E-25
     -9.960 -0.4390E-22 -0.4390E-22 -0.3171E-23 -0.3171E-23
     -9.889 -0.4693E-20 -0.4693E-20 -0.3397E-21 -0.3397E-21
     -9.817 -0.3865E-18 -0.3865E-18 -0.2806E-19 -0.2806E-19
     -9.745 -0.2375E-16 -0.2375E-16 -0.1731E-17 -0.1731E-17
     -9.674 -0.1154E-14 -0.1154E-14 -0.8448E-16 -0.8448E-16
     -9.602 -0.4304E-13 -0.4304E-13 -0.3171E-14 -0.3171E-14
     -9.530 -0.1231E-11 -0.1231E-11 -0.9142E-13 -0.9142E-13
     -9.458 -0.2693E-10 -0.2693E-10 -0.2023E-11 -0.2023E-11
     -9.387 -0.4498E-09 -0.4498E-09 -0.3428E-10 -0.3428E-10
     -9.315 -0.5712E-08 -0.5712E-08 -0.4439E-09 -0.4439E-09
     -9.243 -0.5485E-07 -0.5485E-07 -0.4377E-08 -0.4377E-08
     -9.172 -0.3949E-06 -0.3949E-06 -0.3270E-07 -0.3270E-07
     -9.100 -0.2102E-05 -0.2102E-05 -0.1834E-06 -0.1834E-06
     -9.028 -0.8058E-05 -0.8058E-05 -0.7613E-06 -0.7613E-06
     -8.956 -0.2097E-04 -0.2097E-04 -0.2265E-05 -0.2265E-05
     -8.885 -0.3062E-04 -0.3062E-04 -0.4461E-05 -0.4461E-05
     -8.813  0.5071E-05  0.5071E-05 -0.4097E-05 -0.4097E-05
     -8.741  0.1407E-03  0.1407E-03  0.5994E-05  0.5994E-05
     -8.670  0.3549E-03  0.3549E-03  0.3144E-04  0.3144E-04
     -8.598  0.5052E-03  0.5052E-03  0.6767E-04  0.6767E-04
     -8.526  0.4855E-03  0.4855E-03  0.1025E-03  0.1025E-03
     -8.454  0.4288E-03  0.4288E-03  0.1332E-03  0.1332E-03
     -8.383  0.5775E-03  0.5775E-03  0.1746E-03  0.1746E-03
     -8.311  0.9011E-03  0.9011E-03  0.2393E-03  0.2393E-03
     -8.239  0.1062E-02  0.1062E-02  0.3155E-03  0.3155E-03
     -8.168  0.8977E-03  0.8977E-03  0.3798E-03  0.3798E-03
     -8.096  0.6908E-03  0.6908E-03  0.4294E-03  0.4294E-03
     -8.024  0.7501E-03  0.7501E-03  0.4832E-03  0.4832E-03
     -7.952  0.9373E-03  0.9373E-03  0.5504E-03  0.5504E-03
     -7.881  0.9524E-03  0.9524E-03  0.6187E-03  0.6187E-03
     -7.809  0.9284E-03  0.9284E-03  0.6852E-03  0.6852E-03
     -7.737  0.1271E-02  0.1271E-02  0.7764E-03  0.7764E-03
     -7.666  0.1892E-02  0.1892E-02  0.9121E-03  0.9121E-03
     -7.594  0.2162E-02  0.2162E-02  0.1067E-02  0.1067E-02
     -7.522  0.1834E-02  0.1834E-02  0.1199E-02  0.1199E-02
     -7.450  0.1438E-02  0.1438E-02  0.1302E-02  0.1302E-02
     -7.379  0.1432E-02  0.1432E-02  0.1404E-02  0.1404E-02
     -7.307  0.1556E-02  0.1556E-02  0.1516E-02  0.1516E-02
     -7.235  0.1411E-02  0.1411E-02  0.1617E-02  0.1617E-02
     -7.164  0.1124E-02  0.1124E-02  0.1698E-02  0.1698E-02
     -7.092  0.9736E-03  0.9736E-03  0.1768E-02  0.1768E-02
     -7.020  0.9005E-03  0.9005E-03  0.1832E-02  0.1832E-02
     -6.948  0.8704E-03  0.8704E-03  0.1895E-02  0.1895E-02
     -6.877  0.1266E-02  0.1266E-02  0.1985E-02  0.1985E-02
     -6.805  0.2264E-02  0.2264E-02  0.2148E-02  0.2148E-02
     -6.733  0.3172E-02  0.3172E-02  0.2375E-02  0.2375E-02
     -6.662  0.3171E-02  0.3171E-02  0.2603E-02  0.2603E-02
     -6.590  0.2503E-02  0.2503E-02  0.2782E-02  0.2782E-02
     -6.518  0.2068E-02  0.2068E-02  0.2930E-02  0.2930E-02
     -6.447  0.2094E-02  0.2094E-02  0.3081E-02  0.3081E-02
     -6.375  0.2135E-02  0.2135E-02  0.3234E-02  0.3234E-02
     -6.303  0.2066E-02  0.2066E-02  0.3382E-02  0.3382E-02
     -6.231  0.2107E-02  0.2107E-02  0.3533E-02  0.3533E-02
     -6.160  0.2247E-02  0.2247E-02  0.3694E-02  0.3694E-02
     -6.088  0.2443E-02  0.2443E-02  0.3869E-02  0.3869E-02
     -6.016  0.2832E-02  0.2832E-02  0.4072E-02  0.4072E-02
     -5.945  0.3201E-02  0.3201E-02  0.4302E-02  0.4302E-02
     -5.873  0.3029E-02  0.3029E-02  0.4519E-02  0.4519E-02
     -5.801  0.2435E-02  0.2435E-02  0.4694E-02  0.4694E-02
     -5.729  0.2191E-02  0.2191E-02  0.4851E-02  0.4851E-02
     -5.658  0.2588E-02  0.2588E-02  0.5036E-02  0.5036E-02
     -5.586  0.3230E-02  0.3230E-02  0.5268E-02  0.5268E-02
     -5.514  0.3917E-02  0.3917E-02  0.5549E-02  0.5549E-02
     -5.443  0.4721E-02  0.4721E-02  0.5887E-02  0.5887E-02
     -5.371  0.5295E-02  0.5295E-02  0.6267E-02  0.6267E-02
     -5.299  0.5138E-02  0.5138E-02  0.6636E-02  0.6636E-02
     -5.227  0.4546E-02  0.4546E-02  0.6962E-02  0.6962E-02
     -5.156  0.4504E-02  0.4504E-02  0.7285E-02  0.7285E-02
     -5.084  0.5408E-02  0.5408E-02  0.7672E-02  0.7672E-02
     -5.012  0.6327E-02  0.6327E-02  0.8126E-02  0.8126E-02
     -4.941  0.5950E-02  0.5950E-02  0.8553E-02  0.8553E-02
     -4.869  0.4329E-02  0.4329E-02  0.8863E-02  0.8863E-02
     -4.797  0.3104E-02  0.3104E-02  0.9086E-02  0.9086E-02
     -4.725  0.3701E-02  0.3701E-02  0.9351E-02  0.9351E-02
     -4.654  0.5974E-02  0.5974E-02  0.9780E-02  0.9780E-02
     -4.582  0.8950E-02  0.8950E-02  0.1042E-01  0.1042E-01
     -4.510  0.1207E-01  0.1207E-01  0.1129E-01  0.1129E-01
     -4.439  0.1508E-01  0.1508E-01  0.1237E-01  0.1237E-01
     -4.367  0.1721E-01  0.1721E-01  0.1360E-01  0.1360E-01
     -4.295  0.1746E-01  0.1746E-01  0.1485E-01  0.1485E-01
     -4.223  0.1619E-01  0.1619E-01  0.1602E-01  0.1602E-01
     -4.152  0.1565E-01  0.1565E-01  0.1714E-01  0.1714E-01
     -4.080  0.1772E-01  0.1772E-01  0.1841E-01  0.1841E-01
     -4.008  0.2167E-01  0.2167E-01  0.1996E-01  0.1996E-01
     -3.937  0.2561E-01  0.2561E-01  0.2180E-01  0.2180E-01
     -3.865  0.2907E-01  0.2907E-01  0.2388E-01  0.2388E-01
     -3.793  0.3280E-01  0.3280E-01  0.2624E-01  0.2624E-01
     -3.721  0.3638E-01  0.3638E-01  0.2884E-01  0.2884E-01
     -3.650  0.3769E-01  0.3769E-01  0.3155E-01  0.3155E-01
     -3.578  0.3573E-01  0.3573E-01  0.3411E-01  0.3411E-01
     -3.506  0.3250E-01  0.3250E-01  0.3644E-01  0.3644E-01
     -3.435  0.3050E-01  0.3050E-01  0.3863E-01  0.3863E-01
     -3.363  0.2980E-01  0.2980E-01  0.4076E-01  0.4076E-01
     -3.291  0.2943E-01  0.2943E-01  0.4287E-01  0.4287E-01
     -3.220  0.3049E-01  0.3049E-01  0.4506E-01  0.4506E-01
     -3.148  0.3558E-01  0.3558E-01  0.4761E-01  0.4761E-01
     -3.076  0.4457E-01  0.4457E-01  0.5081E-01  0.5081E-01
     -3.004  0.5251E-01  0.5251E-01  0.5457E-01  0.5457E-01
     -2.933  0.5406E-01  0.5406E-01  0.5845E-01  0.5845E-01
     -2.861  0.5007E-01  0.5007E-01  0.6204E-01  0.6204E-01
     -2.789  0.4734E-01  0.4734E-01  0.6544E-01  0.6544E-01
     -2.718  0.5110E-01  0.5110E-01  0.6910E-01  0.6910E-01
     -2.646  0.5997E-01  0.5997E-01  0.7340E-01  0.7340E-01
     -2.574  0.6855E-01  0.6855E-01  0.7832E-01  0.7832E-01
     -2.502  0.7233E-01  0.7233E-01  0.8350E-01  0.8350E-01
     -2.431  0.6994E-01  0.6994E-01  0.8852E-01  0.8852E-01
     -2.359  0.6335E-01  0.6335E-01  0.9306E-01  0.9306E-01
     -2.287  0.5617E-01  0.5617E-01  0.9709E-01  0.9709E-01
     -2.216  0.5131E-01  0.5131E-01  0.1008E+00  0.1008E+00
     -2.144  0.4991E-01  0.4991E-01  0.1043E+00  0.1043E+00
     -2.072  0.5130E-01  0.5130E-01  0.1080E+00  0.1080E+00
     -2.000  0.5439E-01  0.5439E-01  0.1119E+00  0.1119E+00
     -1.929  0.5897E-01  0.5897E-01  0.1162E+00  0.1162E+00
     -1.857  0.6423E-01  0.6423E-01  0.1208E+00  0.1208E+00
     -1.785  0.6707E-01  0.6707E-01  0.1256E+00  0.1256E+00
     -1.714  0.6570E-01  0.6570E-01  0.1303E+00  0.1303E+00
     -1.642  0.6301E-01  0.6301E-01  0.1348E+00  0.1348E+00
     -1.570  0.6362E-01  0.6362E-01  0.1394E+00  0.1394E+00
     -1.498  0.6946E-01  0.6946E-01  0.1443E+00  0.1443E+00
     -1.427  0.7915E-01  0.7915E-01  0.1500E+00  0.1500E+00
     -1.355  0.8942E-01  0.8942E-01  0.1564E+00  0.1564E+00
     -1.283  0.9650E-01  0.9650E-01  0.1634E+00  0.1634E+00
     -1.212  0.9652E-01  0.9652E-01  0.1703E+00  0.1703E+00
     -1.140  0.8575E-01  0.8575E-01  0.1764E+00  0.1764E+00
     -1.068  0.6384E-01  0.6384E-01  0.1810E+00  0.1810E+00
     -0.996  0.3717E-01  0.3717E-01  0.1837E+00  0.1837E+00
     -0.925  0.1547E-01  0.1547E-01  0.1848E+00  0.1848E+00
     -0.853  0.4146E-02  0.4146E-02  0.1851E+00  0.1851E+00
     -0.781  0.1721E-02  0.1721E-02  0.1852E+00  0.1852E+00
     -0.710  0.3852E-02  0.3852E-02  0.1855E+00  0.1855E+00
     -0.638  0.7098E-02  0.7098E-02  0.1860E+00  0.1860E+00
     -0.566  0.9386E-02  0.9386E-02  0.1867E+00  0.1867E+00
     -0.494  0.9601E-02  0.9601E-02  0.1873E+00  0.1873E+00
     -0.423  0.7837E-02  0.7837E-02  0.1879E+00  0.1879E+00
     -0.351  0.5276E-02  0.5276E-02  0.1883E+00  0.1883E+00
     -0.279  0.3322E-02  0.3322E-02  0.1885E+00  0.1885E+00
     -0.208  0.2774E-02  0.2774E-02  0.1887E+00  0.1887E+00
     -0.136  0.3421E-02  0.3421E-02  0.1890E+00  0.1890E+00
     -0.064  0.4351E-02  0.4351E-02  0.1893E+00  0.1893E+00
      0.007  0.5018E-02  0.5018E-02  0.1896E+00  0.1896E+00
      0.079  0.5797E-02  0.5797E-02  0.1901E+00  0.1901E+00
      0.151  0.7053E-02  0.7053E-02  0.1906E+00  0.1906E+00
      0.223  0.8214E-02  0.8214E-02  0.1912E+00  0.1912E+00
      0.294  0.8461E-02  0.8461E-02  0.1918E+00  0.1918E+00
      0.366  0.7837E-02  0.7837E-02  0.1923E+00  0.1923E+00
      0.438  0.6995E-02  0.6995E-02  0.1928E+00  0.1928E+00
      0.509  0.6270E-02  0.6270E-02  0.1933E+00  0.1933E+00
      0.581  0.5573E-02  0.5573E-02  0.1937E+00  0.1937E+00
      0.653  0.4850E-02  0.4850E-02  0.1940E+00  0.1940E+00
      0.725  0.4323E-02  0.4323E-02  0.1943E+00  0.1943E+00
      0.796  0.4465E-02  0.4465E-02  0.1946E+00  0.1946E+00
      0.868  0.5492E-02  0.5492E-02  0.1950E+00  0.1950E+00
      0.940  0.6718E-02  0.6718E-02  0.1955E+00  0.1955E+00
      1.011  0.7057E-02  0.7057E-02  0.1960E+00  0.1960E+00
      1.083  0.6351E-02  0.6351E-02  0.1965E+00  0.1965E+00
      1.155  0.5455E-02  0.5455E-02  0.1969E+00  0.1969E+00
      1.227  0.4926E-02  0.4926E-02  0.1972E+00  0.1972E+00
      1.298  0.4544E-02  0.4544E-02  0.1976E+00  0.1976E+00
      1.370  0.4211E-02  0.4211E-02  0.1979E+00  0.1979E+00
      1.442  0.4432E-02  0.4432E-02  0.1982E+00  0.1982E+00
      1.513  0.5526E-02  0.5526E-02  0.1986E+00  0.1986E+00
      1.585  0.6756E-02  0.6756E-02  0.1991E+00  0.1991E+00
      1.657  0.6730E-02  0.6730E-02  0.1995E+00  0.1995E+00
      1.729  0.4996E-02  0.4996E-02  0.1999E+00  0.1999E+00
      1.800  0.3034E-02  0.3034E-02  0.2001E+00  0.2001E+00
      1.872  0.2993E-02  0.2993E-02  0.2003E+00  0.2003E+00
      1.944  0.5462E-02  0.5462E-02  0.2007E+00  0.2007E+00
      2.015  0.8788E-02  0.8788E-02  0.2014E+00  0.2014E+00
      2.087  0.1050E-01  0.1050E-01  0.2021E+00  0.2021E+00
      2.159  0.9397E-02  0.9397E-02  0.2028E+00  0.2028E+00
      2.231  0.6528E-02  0.6528E-02  0.2032E+00  0.2032E+00
      2.302  0.4061E-02  0.4061E-02  0.2035E+00  0.2035E+00
      2.374  0.3259E-02  0.3259E-02  0.2038E+00  0.2038E+00
      2.446  0.3711E-02  0.3711E-02  0.2040E+00  0.2040E+00
      2.517  0.4352E-02  0.4352E-02  0.2043E+00  0.2043E+00
      2.589  0.4642E-02  0.4642E-02  0.2047E+00  0.2047E+00
      2.661  0.4615E-02  0.4615E-02  0.2050E+00  0.2050E+00
      2.733  0.4368E-02  0.4368E-02  0.2053E+00  0.2053E+00
      2.804  0.4000E-02  0.4000E-02  0.2056E+00  0.2056E+00
      2.876  0.3738E-02  0.3738E-02  0.2059E+00  0.2059E+00
      2.948  0.3776E-02  0.3776E-02  0.2062E+00  0.2062E+00
      3.019  0.4313E-02  0.4313E-02  0.2065E+00  0.2065E+00
      3.091  0.5526E-02  0.5526E-02  0.2069E+00  0.2069E+00
      3.163  0.6871E-02  0.6871E-02  0.2073E+00  0.2073E+00
      3.234  0.6986E-02  0.6986E-02  0.2079E+00  0.2079E+00
      3.306  0.5370E-02  0.5370E-02  0.2082E+00  0.2082E+00
      3.378  0.3550E-02  0.3550E-02  0.2085E+00  0.2085E+00
      3.450  0.3391E-02  0.3391E-02  0.2087E+00  0.2087E+00
      3.521  0.4704E-02  0.4704E-02  0.2091E+00  0.2091E+00
      3.593  0.5785E-02  0.5785E-02  0.2095E+00  0.2095E+00
      3.665  0.5902E-02  0.5902E-02  0.2099E+00  0.2099E+00
      3.736  0.5775E-02  0.5775E-02  0.2103E+00  0.2103E+00
      3.808  0.5878E-02  0.5878E-02  0.2107E+00  0.2107E+00
      3.880  0.5791E-02  0.5791E-02  0.2112E+00  0.2112E+00
      3.952  0.5156E-02  0.5156E-02  0.2115E+00  0.2115E+00
      4.023  0.4246E-02  0.4246E-02  0.2118E+00  0.2118E+00
      4.095  0.3617E-02  0.3616E-02  0.2121E+00  0.2121E+00
      4.167  0.3549E-02  0.3549E-02  0.2123E+00  0.2123E+00
      4.238  0.3966E-02  0.3965E-02  0.2126E+00  0.2126E+00
      4.310  0.4782E-02  0.4782E-02  0.2130E+00  0.2130E+00
      4.382  0.5937E-02  0.5937E-02  0.2134E+00  0.2134E+00
      4.454  0.6932E-02  0.6933E-02  0.2139E+00  0.2139E+00
      4.525  0.6891E-02  0.6891E-02  0.2144E+00  0.2144E+00
      4.597  0.5516E-02  0.5515E-02  0.2148E+00  0.2148E+00
      4.669  0.3729E-02  0.3729E-02  0.2151E+00  0.2151E+00
      4.740  0.2927E-02  0.2926E-02  0.2153E+00  0.2153E+00
      4.812  0.3592E-02  0.3592E-02  0.2155E+00  0.2155E+00
      4.884  0.4829E-02  0.4830E-02  0.2159E+00  0.2159E+00
      4.956  0.5337E-02  0.5338E-02  0.2163E+00  0.2163E+00
      5.027  0.4915E-02  0.4916E-02  0.2166E+00  0.2166E+00
      5.099  0.4791E-02  0.4790E-02  0.2169E+00  0.2169E+00
      5.171  0.6219E-02  0.6217E-02  0.2174E+00  0.2174E+00
      5.242  0.8884E-02  0.8881E-02  0.2180E+00  0.2180E+00
      5.314  0.1104E-01  0.1104E-01  0.2188E+00  0.2188E+00
      5.386  0.1138E-01  0.1138E-01  0.2196E+00  0.2196E+00
      5.458  0.1048E-01  0.1048E-01  0.2204E+00  0.2204E+00
      5.529  0.9866E-02  0.9867E-02  0.2211E+00  0.2211E+00
      5.601  0.1001E-01  0.1001E-01  0.2218E+00  0.2218E+00
      5.673  0.9972E-02  0.9971E-02  0.2225E+00  0.2225E+00
      5.744  0.8954E-02  0.8953E-02  0.2232E+00  0.2232E+00
      5.816  0.7382E-02  0.7382E-02  0.2237E+00  0.2237E+00
      5.888  0.6378E-02  0.6378E-02  0.2242E+00  0.2242E+00
      5.960  0.6580E-02  0.6580E-02  0.2246E+00  0.2246E+00
      6.031  0.7746E-02  0.7746E-02  0.2252E+00  0.2252E+00
      6.103  0.9079E-02  0.9079E-02  0.2258E+00  0.2258E+00
      6.175  0.9581E-02  0.9580E-02  0.2265E+00  0.2265E+00
      6.246  0.8614E-02  0.8613E-02  0.2271E+00  0.2271E+00
      6.318  0.6634E-02  0.6634E-02  0.2276E+00  0.2276E+00
      6.390  0.5051E-02  0.5053E-02  0.2280E+00  0.2280E+00
      6.461  0.5103E-02  0.5104E-02  0.2283E+00  0.2283E+00
      6.533  0.6833E-02  0.6833E-02  0.2288E+00  0.2288E+00
      6.605  0.8905E-02  0.8904E-02  0.2295E+00  0.2295E+00
      6.677  0.9491E-02  0.9491E-02  0.2302E+00  0.2302E+00
      6.748  0.7963E-02  0.7964E-02  0.2307E+00  0.2307E+00
      6.820  0.5727E-02  0.5728E-02  0.2311E+00  0.2311E+00
      6.892  0.4897E-02  0.4897E-02  0.2315E+00  0.2315E+00
      6.963  0.6392E-02  0.6391E-02  0.2319E+00  0.2319E+00
      7.035  0.9512E-02  0.9508E-02  0.2326E+00  0.2326E+00
      7.107  0.1249E-01  0.1248E-01  0.2335E+00  0.2335E+00
      7.179  0.1339E-01  0.1339E-01  0.2345E+00  0.2345E+00
      7.250  0.1174E-01  0.1174E-01  0.2353E+00  0.2353E+00
      7.322  0.9322E-02  0.9324E-02  0.2360E+00  0.2360E+00
      7.394  0.8566E-02  0.8567E-02  0.2366E+00  0.2366E+00
      7.465  0.9938E-02  0.9939E-02  0.2373E+00  0.2373E+00
      7.537  0.1175E-01  0.1175E-01  0.2382E+00  0.2382E+00
      7.609  0.1235E-01  0.1235E-01  0.2390E+00  0.2390E+00
      7.681  0.1170E-01  0.1170E-01  0.2399E+00  0.2399E+00
      7.752  0.1088E-01  0.1088E-01  0.2407E+00  0.2407E+00
      7.824  0.1040E-01  0.1039E-01  0.2414E+00  0.2414E+00
      7.896  0.9638E-02  0.9638E-02  0.2421E+00  0.2421E+00
      7.967  0.8196E-02  0.8196E-02  0.2427E+00  0.2427E+00
      8.039  0.7017E-02  0.7017E-02  0.2432E+00  0.2432E+00
      8.111  0.7324E-02  0.7322E-02  0.2437E+00  0.2437E+00
      8.183  0.8736E-02  0.8734E-02  0.2443E+00  0.2443E+00
      8.254  0.9682E-02  0.9682E-02  0.2450E+00  0.2450E+00
      8.326  0.9587E-02  0.9587E-02  0.2457E+00  0.2457E+00
      8.398  0.9355E-02  0.9355E-02  0.2464E+00  0.2464E+00
      8.469  0.9535E-02  0.9535E-02  0.2471E+00  0.2471E+00
      8.541  0.9321E-02  0.9323E-02  0.2478E+00  0.2478E+00
      8.613  0.7968E-02  0.7971E-02  0.2483E+00  0.2483E+00
      8.685  0.6094E-02  0.6097E-02  0.2488E+00  0.2488E+00
      8.756  0.4811E-02  0.4812E-02  0.2491E+00  0.2491E+00
      8.828  0.4296E-02  0.4296E-02  0.2494E+00  0.2494E+00
      8.900  0.3826E-02  0.3827E-02  0.2497E+00  0.2497E+00
      8.971  0.2831E-02  0.2832E-02  0.2499E+00  0.2499E+00
      9.043  0.1497E-02  0.1498E-02  0.2500E+00  0.2500E+00
      9.115  0.4151E-03  0.4154E-03  0.2500E+00  0.2500E+00
      9.187 -0.9445E-04 -0.9439E-04  0.2500E+00  0.2500E+00
      9.258 -0.1701E-03 -0.1701E-03  0.2500E+00  0.2500E+00
      9.330 -0.9719E-04 -0.9722E-04  0.2500E+00  0.2500E+00
      9.402 -0.3490E-04 -0.3492E-04  0.2500E+00  0.2500E+00
      9.473 -0.8803E-05 -0.8808E-05  0.2500E+00  0.2500E+00
      9.545 -0.1623E-05 -0.1624E-05  0.2500E+00  0.2500E+00
      9.617 -0.2230E-06 -0.2232E-06  0.2500E+00  0.2500E+00
      9.688 -0.2307E-07 -0.2309E-07  0.2500E+00  0.2500E+00
      9.760 -0.1809E-08 -0.1811E-08  0.2500E+00  0.2500E+00
      9.832 -0.1081E-09 -0.1082E-09  0.2500E+00  0.2500E+00
      9.904 -0.4930E-11 -0.4936E-11  0.2500E+00  0.2500E+00
      9.975 -0.1722E-12 -0.1724E-12  0.2500E+00  0.2500E+00
     10.047 -0.4614E-14 -0.4620E-14  0.2500E+00  0.2500E+00
     10.119 -0.9461E-16 -0.9461E-16  0.2500E+00  0.2500E+00
     10.190 -0.1720E-17 -0.1720E-17  0.2500E+00  0.2500E+00
     10.262  0.0000E+00  0.0000E+00  0.2500E+00  0.2500E+00
     10.334  0.0000E+00  0.0000E+00  0.2500E+00  0.2500E+00
     10.406  0.0000E+00  0.0000E+00  0.2500E+00  0.2500E+00
     10.477  0.0000E+00  0.0000E+00  0.2500E+00  0.2500E+00
     10.549  0.0000E+00  0.0000E+00  0.2500E+00  0.2500E+00
     10.621  0.0000E+00  0.0000E+00  0.2500E+00  0.2500E+00
     10.692  0.0000E+00  0.0000E+00  0.2500E+00  0.2500E+00
     10.764  0.0000E+00  0.0000E+00  0.2500E+00  0.2500E+00
     10.836  0.0000E+00  0.0000E+00  0.2500E+00  0.2500E+00
     10.908  0.0000E+00  0.0000E+00  0.2500E+00  0.2500E+00
