       N       E                     dE             d eps       ncg     rms          rms(c)
DAV:   1     0.277521470801E+04    0.27752E+04   -0.11087E+05  3200   0.167E+03
DAV:   2     0.291450319300E+03   -0.24838E+04   -0.23803E+04  3200   0.396E+02
DAV:   3    -0.906933323582E+02   -0.38214E+03   -0.34390E+03  3200   0.202E+02
DAV:   4    -0.114269590291E+03   -0.23576E+02   -0.22985E+02  3624   0.710E+01
DAV:   5    -0.114798659797E+03   -0.52907E+00   -0.52770E+00  3592   0.967E+00    0.481E+01
DAV:   6    -0.925501297247E+02    0.22249E+02   -0.27888E+02  3424   0.121E+02    0.247E+01
DAV:   7    -0.799428172177E+02    0.12607E+02   -0.70660E+01  3512   0.774E+01    0.118E+01
DAV:   8    -0.784333238542E+02    0.15095E+01   -0.19375E+01  3640   0.658E+01    0.115E+01
DAV:   9    -0.761538296655E+02    0.22795E+01   -0.52895E+00  4408   0.341E+01    0.832E+00
DAV:  10    -0.760479468051E+02    0.10588E+00   -0.56299E+00  4768   0.293E+01    0.758E+00
DAV:  11    -0.759692023182E+02    0.78744E-01   -0.37348E+00  3776   0.329E+01    0.575E+00
DAV:  12    -0.789917793354E+02   -0.30226E+01   -0.21617E+00  3984   0.104E+01    0.305E+00
DAV:  13    -0.848784985960E+02   -0.58867E+01   -0.30131E+00  4416   0.118E+01    0.220E+00
DAV:  14    -0.886734341044E+02   -0.37949E+01   -0.22236E+00  4312   0.108E+01    0.186E+00
DAV:  15    -0.925984685381E+02   -0.39250E+01   -0.35372E+00  4032   0.900E+00    0.142E+00
DAV:  16    -0.938854885233E+02   -0.12870E+01   -0.10004E+00  3976   0.101E+01    0.114E+00
DAV:  17    -0.947306835574E+02   -0.84520E+00   -0.81488E-01  3928   0.636E+00    0.837E-01
DAV:  18    -0.954831823061E+02   -0.75250E+00   -0.45016E-01  3472   0.279E+00    0.562E-01
DAV:  19    -0.958672304402E+02   -0.38405E+00   -0.98381E-02  3672   0.164E+00    0.462E-01
DAV:  20    -0.960661194738E+02   -0.19889E+00   -0.41319E-02  4136   0.233E+00    0.387E-01
DAV:  21    -0.962065916421E+02   -0.14047E+00   -0.24069E-02  4168   0.147E+00    0.267E-01
DAV:  22    -0.964219497128E+02   -0.21536E+00   -0.23335E-02  4024   0.134E+00    0.265E-01
DAV:  23    -0.965538331481E+02   -0.13188E+00   -0.10011E-02  4056   0.744E-01    0.152E-01
DAV:  24    -0.966926807464E+02   -0.13885E+00   -0.55934E-03  3600   0.715E-01    0.145E-01
DAV:  25    -0.967522280159E+02   -0.59547E-01   -0.18581E-03  3528   0.535E-01    0.126E-01
DAV:  26    -0.967757468466E+02   -0.23519E-01   -0.15345E-03  3696   0.335E-01    0.622E-02
DAV:  27    -0.967852487185E+02   -0.95019E-02   -0.84283E-04  3072   0.247E-01    0.406E-02
DAV:  28    -0.967908700469E+02   -0.56213E-02   -0.38629E-04  2352   0.128E-01    0.139E-02
DAV:  29    -0.967910683469E+02   -0.19830E-03   -0.63490E-05  2136   0.487E-02
   1 F= -.10669506E+03 E0= -.10667912E+03  d E =-.106695E+03  mag=     0.0023
       N       E                     dE             d eps       ncg     rms          rms(c)
DAV:   1    -0.968056028359E+02   -0.14733E-01   -0.18799E+01  3488   0.952E+00    0.450E-01
DAV:   2    -0.968422381254E+02   -0.36635E-01   -0.39538E-01  4848   0.504E+00    0.614E-01
DAV:   3    -0.968378740164E+02    0.43641E-02   -0.29786E-02  3664   0.342E+00    0.243E-01
DAV:   4    -0.968378452400E+02    0.28776E-04   -0.77639E-03  3968   0.116E+00    0.238E-01
DAV:   5    -0.968377672871E+02    0.77953E-04   -0.33416E-03  3304   0.878E-01    0.198E-01
DAV:   6    -0.968372359925E+02    0.53129E-03   -0.20610E-03  3656   0.442E-01    0.880E-02
DAV:   7    -0.968372719075E+02   -0.35915E-04   -0.10427E-03  3288   0.646E-01
   2 F= -.10675545E+03 E0= -.10673946E+03  d E =-.603950E-01  mag=     0.0012
       N       E                     dE             d eps       ncg     rms          rms(c)
DAV:   1    -0.965380464215E+02    0.29919E+00   -0.17761E+02  3536   0.312E+01    0.146E+00
DAV:   2    -0.969483175101E+02   -0.41027E+00   -0.43472E+00  5152   0.173E+01    0.202E+00
DAV:   3    -0.968933260754E+02    0.54991E-01   -0.29315E-01  3728   0.113E+01    0.727E-01
DAV:   4    -0.968948112533E+02   -0.14852E-02   -0.79635E-02  3688   0.340E+00    0.723E-01
DAV:   5    -0.968945281184E+02    0.28313E-03   -0.37800E-02  3392   0.291E+00    0.603E-01
DAV:   6    -0.968901940953E+02    0.43340E-02   -0.16302E-02  4432   0.128E+00    0.339E-01
DAV:   7    -0.968895866163E+02    0.60748E-03   -0.10809E-02  4688   0.180E+00    0.187E-01
DAV:   8    -0.968889025089E+02    0.68411E-03   -0.29533E-03  3776   0.129E+00    0.982E-02
DAV:   9    -0.968888675658E+02    0.34943E-04   -0.11492E-03  3216   0.386E-01
   3 F= -.10685070E+03 E0= -.10683577E+03  d E =-.155643E+00  mag=     0.0005
       N       E                     dE             d eps       ncg     rms          rms(c)
DAV:   1    -0.968756804400E+02    0.13222E-01   -0.46866E+00  3456   0.471E+00    0.226E-01
DAV:   2    -0.968836072911E+02   -0.79269E-02   -0.85791E-02  4928   0.239E+00    0.282E-01
DAV:   3    -0.968829387364E+02    0.66855E-03   -0.90783E-03  3528   0.171E+00    0.104E-01
DAV:   4    -0.968830072844E+02   -0.68548E-04   -0.20479E-03  3304   0.533E-01    0.963E-02
DAV:   5    -0.968830428155E+02   -0.35531E-04   -0.10222E-03  3008   0.562E-01
   4 F= -.10685233E+03 E0= -.10683766E+03  d E =-.157271E+00  mag=     0.0003
       N       E                     dE             d eps       ncg     rms          rms(c)
DAV:   1    -0.968589757687E+02    0.24032E-01   -0.15685E+01  3504   0.908E+00    0.284E-01
DAV:   2    -0.968872968962E+02   -0.28321E-01   -0.29177E-01  4752   0.340E+00    0.413E-01
DAV:   3    -0.968862063104E+02    0.10906E-02   -0.19452E-02  3528   0.252E+00    0.239E-01
DAV:   4    -0.968860403781E+02    0.16593E-03   -0.57921E-03  3512   0.109E+00    0.220E-01
DAV:   5    -0.968857962920E+02    0.24409E-03   -0.22126E-03  3384   0.884E-01    0.195E-01
DAV:   6    -0.968853098698E+02    0.48642E-03   -0.42839E-03  4760   0.622E-01    0.791E-02
DAV:   7    -0.968852288178E+02    0.81052E-04   -0.29694E-04  2048   0.286E-01
   5 F= -.10687615E+03 E0= -.10686242E+03  d E =-.238202E-01  mag=     0.0002
       N       E                     dE             d eps       ncg     rms          rms(c)
DAV:   1    -0.965950938145E+02    0.29022E+00   -0.14354E+02  3504   0.284E+01    0.948E-01
DAV:   2    -0.968918751520E+02   -0.29678E+00   -0.30466E+00  4896   0.126E+01    0.145E+00
DAV:   3    -0.968687790130E+02    0.23096E-01   -0.18512E-01  3976   0.865E+00    0.736E-01
DAV:   4    -0.968665544023E+02    0.22246E-02   -0.53964E-02  3640   0.339E+00    0.704E-01
DAV:   5    -0.968646946590E+02    0.18597E-02   -0.26191E-02  3464   0.247E+00    0.614E-01
DAV:   6    -0.968583358668E+02    0.63588E-02   -0.33421E-02  4576   0.213E+00    0.242E-01
DAV:   7    -0.968582551940E+02    0.80673E-04   -0.71993E-03  4160   0.126E+00    0.145E-01
DAV:   8    -0.968579991200E+02    0.25607E-03   -0.19550E-03  3360   0.870E-01    0.549E-02
DAV:   9    -0.968580218099E+02   -0.22690E-04   -0.55911E-04  2528   0.240E-01
   6 F= -.10691444E+03 E0= -.10690379E+03  d E =-.621126E-01  mag=     0.0001
       N       E                     dE             d eps       ncg     rms          rms(c)
DAV:   1    -0.968381859659E+02    0.19813E-01   -0.15999E+01  3520   0.918E+00    0.279E-01
DAV:   2    -0.968668412402E+02   -0.28655E-01   -0.28864E-01  5024   0.364E+00    0.426E-01
DAV:   3    -0.968652927731E+02    0.15485E-02   -0.26664E-02  3552   0.299E+00    0.248E-01
DAV:   4    -0.968651664979E+02    0.12628E-03   -0.69859E-03  3440   0.106E+00    0.212E-01
DAV:   5    -0.968649271823E+02    0.23932E-03   -0.27149E-03  3528   0.691E-01    0.183E-01
DAV:   6    -0.968645077706E+02    0.41941E-03   -0.39874E-03  4352   0.765E-01    0.654E-02
DAV:   7    -0.968644593573E+02    0.48413E-04   -0.52326E-04  2200   0.294E-01
   7 F= -.10693616E+03 E0= -.10692687E+03  d E =-.217181E-01  mag=     0.0000
       N       E                     dE             d eps       ncg     rms          rms(c)
DAV:   1    -0.965961894063E+02    0.26832E+00   -0.14627E+02  3520   0.288E+01    0.930E-01
DAV:   2    -0.969002498879E+02   -0.30406E+00   -0.30201E+00  5296   0.139E+01    0.157E+00
DAV:   3    -0.968664868702E+02    0.33763E-01   -0.25731E-01  4416   0.100E+01    0.779E-01
DAV:   4    -0.968643035473E+02    0.21833E-02   -0.54390E-02  3424   0.303E+00    0.707E-01
DAV:   5    -0.968627378569E+02    0.15657E-02   -0.33025E-02  3552   0.215E+00    0.611E-01
DAV:   6    -0.968558294491E+02    0.69084E-02   -0.35525E-02  4832   0.242E+00    0.226E-01
DAV:   7    -0.968557058425E+02    0.12361E-03   -0.65528E-03  3872   0.117E+00    0.124E-01
DAV:   8    -0.968555832183E+02    0.12262E-03   -0.22955E-03  3312   0.938E-01    0.506E-02
DAV:   9    -0.968555967156E+02   -0.13497E-04   -0.43654E-04  2352   0.244E-01
   8 F= -.10697344E+03 E0= -.10696854E+03  d E =-.589984E-01  mag=     0.0000
       N       E                     dE             d eps       ncg     rms          rms(c)
DAV:   1    -0.961601206009E+02    0.69546E+00   -0.62277E+02  4304   0.655E+01    0.201E+00
DAV:   2    -0.969118762040E+02   -0.75176E+00   -0.77837E+00  4848   0.312E+01    0.358E+00
DAV:   3    -0.967461436986E+02    0.16573E+00   -0.12184E+00  4288   0.208E+01    0.139E+00
DAV:   4    -0.967431294618E+02    0.30142E-02   -0.30475E-01  3536   0.631E+00    0.129E+00
DAV:   5    -0.967362687460E+02    0.68607E-02   -0.20431E-01  3520   0.483E+00    0.894E-01
DAV:   6    -0.967251005792E+02    0.11168E-01   -0.11098E-01  4800   0.501E+00    0.588E-01
DAV:   7    -0.967220300932E+02    0.30705E-02   -0.33200E-02  3792   0.278E+00    0.213E-01
DAV:   8    -0.967219687354E+02    0.61358E-04   -0.81200E-03  3440   0.155E+00    0.107E-01
DAV:   9    -0.967220570468E+02   -0.88311E-04   -0.22934E-03  3440   0.498E-01    0.621E-02
DAV:  10    -0.967220861487E+02   -0.29102E-04   -0.37712E-04  2176   0.160E-01
   9 F= -.10693356E+03 E0= -.10693732E+03  d E =-.191219E-01  mag=     0.0000
       N       E                     dE             d eps       ncg     rms          rms(c)
DAV:   1    -0.963108866531E+02    0.41117E+00   -0.32467E+02  3760   0.451E+01    0.119E+00
DAV:   2    -0.968785911964E+02   -0.56770E+00   -0.59019E+00  4592   0.122E+01    0.168E+00
DAV:   3    -0.968656476364E+02    0.12944E-01   -0.40664E-01  3328   0.902E+00    0.112E+00
DAV:   4    -0.968585665600E+02    0.70811E-02   -0.74600E-02  3536   0.429E+00    0.881E-01
DAV:   5    -0.968521151876E+02    0.64514E-02   -0.31683E-02  4912   0.307E+00    0.801E-01
DAV:   6    -0.968401515403E+02    0.11964E-01   -0.44409E-02  5888   0.379E+00    0.366E-01
DAV:   7    -0.968379482872E+02    0.22033E-02   -0.15574E-02  5248   0.179E+00    0.165E-01
DAV:   8    -0.968379145851E+02    0.33702E-04   -0.45797E-03  3472   0.789E-01    0.997E-02
DAV:   9    -0.968379112635E+02    0.33216E-05   -0.17102E-03  3248   0.490E-01
  10 F= -.10698018E+03 E0= -.10697762E+03  d E =-.657361E-01  mag=     0.0000
       N       E                     dE             d eps       ncg     rms          rms(c)
DAV:   1    -0.967694121862E+02    0.68502E-01   -0.37135E+01  3472   0.141E+01    0.422E-01
DAV:   2    -0.968430975051E+02   -0.73685E-01   -0.73844E-01  5264   0.642E+00    0.766E-01
DAV:   3    -0.968355810391E+02    0.75165E-02   -0.67070E-02  3840   0.473E+00    0.386E-01
DAV:   4    -0.968357440983E+02   -0.16306E-03   -0.16768E-02  3344   0.135E+00    0.364E-01
DAV:   5    -0.968348582183E+02    0.88588E-03   -0.72663E-03  3376   0.996E-01    0.300E-01
DAV:   6    -0.968334069534E+02    0.14513E-02   -0.11666E-02  4704   0.133E+00    0.147E-01
DAV:   7    -0.968332017523E+02    0.20520E-03   -0.16500E-03  3680   0.422E-01    0.123E-01
DAV:   8    -0.968330125504E+02    0.18920E-03   -0.14462E-03  3232   0.513E-01
  11 F= -.10699608E+03 E0= -.10699397E+03  d E =-.159013E-01  mag=     0.0000
       N       E                     dE             d eps       ncg     rms          rms(c)
DAV:   1    -0.968205663856E+02    0.12635E-01   -0.40278E+00  3456   0.461E+00    0.129E-01
DAV:   2    -0.968279505923E+02   -0.73842E-02   -0.74186E-02  4992   0.180E+00    0.217E-01
DAV:   3    -0.968275025850E+02    0.44801E-03   -0.69274E-03  3664   0.140E+00    0.117E-01
DAV:   4    -0.968275190189E+02   -0.16434E-04   -0.16644E-03  3200   0.441E-01
  12 F= -.10699748E+03 E0= -.10699552E+03  d E =-.173060E-01  mag=     0.0000
       N       E                     dE             d eps       ncg     rms          rms(c)
DAV:   1    -0.968235292980E+02    0.39733E-02   -0.27354E+00  3472   0.379E+00    0.129E-01
DAV:   2    -0.968280167321E+02   -0.44874E-02   -0.46754E-02  4912   0.148E+00    0.201E-01
DAV:   3    -0.968278174632E+02    0.19927E-03   -0.67444E-03  3344   0.134E+00    0.116E-01
DAV:   4    -0.968277719132E+02    0.45550E-04   -0.10834E-03  3120   0.414E-01
  13 F= -.10699954E+03 E0= -.10699777E+03  d E =-.205920E-02  mag=     0.0000
