 vasp.6.3.2 27Jun22 (build Aug 17 2022 15:43:34) complex                        
  
 executed on           tv2STDVTST date 2025.01.21  16:23:08
 running   20 mpi-ranks, with    1 threads/rank
 distrk:  each k-point on   20 cores,    1 groups
 distr:  one band on NCORE=   5 cores,    4 groups


--------------------------------------------------------------------------------------------------------


 -----------------------------------------------------------------------------
|                                                                             |
|           W    W    AA    RRRRR   N    N  II  N    N   GGGG   !!!           |
|           W    W   A  A   R    R  NN   N  II  NN   N  G    G  !!!           |
|           W    W  A    A  R    R  N N  N  II  N N  N  G       !!!           |
|           W WW W  AAAAAA  RRRRR   N  N N  II  N  N N  G  GGG   !            |
|           WW  WW  A    A  R   R   N   NN  II  N   NN  G    G                |
|           W    W  A    A  R    R  N    N  II  N    N   GGGG   !!!           |
|                                                                             |
|     Found issues when parsing the INCAR file                                |
|     In line 64: Tagname --- R W I G S contains invalid characters.          |
|     Please check if the interpretation in the OUTCAR file is correct.       |
|                                                                             |
 -----------------------------------------------------------------------------

 INCAR:
    = \=\=\=\=\=\=\=\=\=\=\=\=\=\=\=\=\=\=\=\=\=\=\=\=\=\=\=\=\=\=\=\=\=\=\=\=\=\=\=\=\=\=\=\=\=\=\=\=\=\=\=\=\=\=\=\=\=\=\=\=\=\=\=\=\=\=\=\=\=\=\=\=
    = \=\=\=\=\=\=\=\=\=\=\=\=\=\=\=\=\=\=\=\=\=\=\=\=\=\=\=\=\=\=\=\=\=\=\=\=\=\=\=\=\=\=\=\=\=\=\=\=\=\=\=\=\=\=\=\=\=\=\=\=\=\=\=\=\=\=\=\=\=\=\=\=
   ISTART = 0
   ICHARG = 2
   IPIPOL = 3
   IVDW = 11
   IDIPOL = 3
   IVDW = 11
    = \=\=\=\=\=\=\=\=\=\=\=\=\=\=\=\=\=\=\=\=\=\=\=\=\=\=\=\=\=\=\=\=\=\=\=\=\=\=\=\=\=\=\=\=\=\=\=\=\=\=\=\=\=\=\=\=\=\=\=\=\=\=\=\=\=\=\=\=\=\=\=\=
    = \=\=\=\=\=\=\=\=\=\=\=\=\=\=\=\=\=\=\=\=\=\=\=\=\=\=\=\=\=\=\=\=\=\=\=\=\=\=\=\=\=\=\=\=\=\=\=\=\=\=\=\=\=\=\=\=\=\=\=\=\=\=\=\=\=\=\=\=\=\=\=\=
   ISPIN = 2
    = \=\=\=\=\=\=\=\=\=\=\=\=\=\=\=\=\=\=\=\=\=\=\=\=\=\=\=\=\=\=\=\=\=\=\=\=\=\=\=\=\=\=\=\=\=\=\=\=\=\=\=\=\=\=\=\=\=\=\=\=\=\=\=\=\=\=\=\=\=\=\=\=
    = \=\=\=\=\=\=\=\=\=\=\=\=\=\=\=\=\=\=\=\=\=\=\=\=\=\=\=\=\=\=\=\=\=\=\=\=\=\=\=\=\=\=\=\=\=\=\=\=\=\=\=\=\=\=\=\=\=\=\=\=\=\=\=\=\=\=\=\=\=\=\=\=
   ENCUT = 400
   PREC = Normal
   EDIFF = 2E-04
   GGA = PE
   ISMEAR = 1
   SIGMA = 0.2
   LREAL = .FALSE.
    = \=\=\=\=\=\=\=\=\=\=\=\=\=\=\=\=\=\=\=\=\=\=\=\=\=\=\=\=\=\=\=\=\=\=\=\=\=\=\=\=\=\=\=\=\=\=\=\=\=\=\=\=\=\=\=\=\=\=\=\=\=\=\=\=\=\=\=\=\=\=\=\=
    = \=\=\=\=\=\=\=\=\=\=\=\=\=\=\=\=\=\=\=\=\=\=\=\=\=\=\=\=\=\=\=\=\=\=\=\=\=\=\=\=\=\=\=\=\=\=\=\=\=\=\=\=\=\=\=\=\=\=\=\=\=\=\=\=\=\=\=\=\=\=\=\=
   ISYM = 1
   NSW = 800
   IBRION = 2
   POTIM = 0.5
   ISIF = 2
   EDIFFG = -.03
    = \=\=\=\=\=\=\=\=\=\=\=\=\=\=\=\=\=\=\=\=\=\=\=\=\=\=\=\=\=\=\=\=\=\=\=\=\=\=\=\=\=\=\=\=\=\=\=\=\=\=\=\=\=\=\=\=\=\=\=\=\=\=\=\=\=\=\=\=\=\=\=\=
    = \=\=\=\=\=\=\=\=\=\=\=\=\=\=\=\=\=\=\=\=\=\=\=\=\=\=\=\=\=\=\=\=\=\=\=\=\=\=\=\=\=\=\=\=\=\=\=\=\=\=\=\=\=\=\=\=\=\=\=\=\=\=\=\=\=\=\=\=\=\=\=\=
   NPAR = 4
   LWAVE = .FALSE.
   LCHARG = .FALSE.

 POTCAR:    PAW_PBE Cu 22Jun2005                  
 -----------------------------------------------------------------------------
|                                                                             |
|           W    W    AA    RRRRR   N    N  II  N    N   GGGG   !!!           |
|           W    W   A  A   R    R  NN   N  II  NN   N  G    G  !!!           |
|           W    W  A    A  R    R  N N  N  II  N N  N  G       !!!           |
|           W WW W  AAAAAA  RRRRR   N  N N  II  N  N N  G  GGG   !            |
|           WW  WW  A    A  R   R   N   NN  II  N   NN  G    G                |
|           W    W  A    A  R    R  N    N  II  N    N   GGGG   !!!           |
|                                                                             |
|     You use a magnetic or noncollinear calculation, but did not specify     |
|     the initial magnetic moment with the MAGMOM tag. Note that a            |
|     default of 1 will be used for all atoms. This ferromagnetic setup       |
|     may break the symmetry of the crystal, in particular it may rule        |
|     out finding an antiferromagnetic solution. Thence, we recommend         |
|     setting the initial magnetic moment manually or verifying carefully     |
|     that this magnetic setup is desired.                                    |
|                                                                             |
 -----------------------------------------------------------------------------

 POTCAR:    PAW_PBE Cu 22Jun2005                  
   SHA256 =  0e71e558f37a4e8407882b4609ceaae59938afaad9ced71dfe8490308a0ab630 Cu/POTCAR             
   COPYR  = (c) Copyright 22Jun2005 Georg Kresse                                                    
   COPYR  = This file is part of the software VASP. Any use, copying, and all other rights are regul
   COPYR  = If you do not have a valid VASP license, you may not use, copy or distribute this file. 
   VRHFIN =Cu: d10 p1                                                                               
   LEXCH  = PE                                                                                      
   EATOM  =  1390.9808 eV,  102.2342 Ry                                                             
                                                                                                    
   TITEL  = PAW_PBE Cu 22Jun2005                                                                    
   LULTRA =        F    use ultrasoft PP ?                                                          
   IUNSCR =        1    unscreen: 0-lin 1-nonlin 2-no                                               
   RPACOR =    2.000    partial core radius                                                         
   POMASS =   63.546; ZVAL   =   11.000    mass and valenz                                          
   RCORE  =    2.300    outmost cutoff radius                                                       
   RWIGS  =    2.200; RWIGS  =    1.164    wigner-seitz radius (au A)                               
   ENMAX  =  295.446; ENMIN  =  221.585 eV                                                          
   ICORE  =        3    local potential                                                             
   LCOR   =        T    correct aug charges                                                         
   LPAW   =        T    paw PP                                                                      
   EAUG   =  586.980                                                                                
   DEXC   =    0.000                                                                                
   RMAX   =    2.344    core radius for proj-oper                                                   
   RAUG   =    1.300    factor for augmentation sphere                                              
   RDEP   =    2.302    radius for radial grids                                                     
   RDEPT  =    1.771    core radius for aug-charge                                                  
                                                                                                    
   Atomic configuration                                                                             
    9 entries                                                                                       
     n  l   j            E        occ.                                                              
     1  0  0.50     -8850.2468   2.0000                                                             
     2  0  0.50     -1062.3498   2.0000                                                             
     2  1  1.50      -916.8226   6.0000                                                             
     3  0  0.50      -114.6929   2.0000                                                             
     3  1  1.50       -72.1325   6.0000                                                             
     3  2  2.50        -5.0394  10.0000                                                             
     4  0  0.50        -4.6097   1.0000                                                             
     4  1  0.50        -4.0817   0.0000                                                             
     4  3  2.50        -1.3606   0.0000                                                             
   Description                                                                                      
     l       E           TYP  RCUT    TYP  RCUT                                                     
     2     -5.0393973     23  2.200                                                                 
     2     10.8846608     23  2.200                                                                 
     0     -4.6097109     23  2.200                                                                 
     0      8.2520465     23  2.200                                                                 
     1     -2.7211652     23  2.200                                                                 
     1     21.7055443     23  2.200                                                                 
     3      2.7211652     23  2.300                                                                 
  local pseudopotential read in
  partial core-charges read in
  partial kinetic energy density read in
  atomic valenz-charges read in
  non local Contribution for L=           2  read in
    real space projection operators read in
  non local Contribution for L=           2  read in
    real space projection operators read in
  non local Contribution for L=           0  read in
    real space projection operators read in
  non local Contribution for L=           0  read in
    real space projection operators read in
  non local Contribution for L=           1  read in
    real space projection operators read in
  non local Contribution for L=           1  read in
    real space projection operators read in
    PAW grid and wavefunctions read in
 
   number of l-projection  operators is LMAX  =           6
   number of lm-projection operators is LMMAX =          18
 
 -----------------------------------------------------------------------------
|                                                                             |
|               ----> ADVICE to this user running VASP <----                  |
|                                                                             |
|     You have a (more or less) 'large supercell' and for larger cells it     |
|     might be more efficient to use real-space projection operators.         |
|     Therefore, try LREAL= Auto in the INCAR file.                           |
|     Mind: For very accurate calculation, you might also keep the            |
|     reciprocal projection scheme (i.e. LREAL=.FALSE.).                      |
|                                                                             |
 -----------------------------------------------------------------------------

  PAW_PBE Cu 22Jun2005                  :
 energy of atom  1       EATOM=-1390.9808
 kinetic energy error for atom=    0.0232 (will be added to EATOM!!)
 
 
 POSCAR: FCC Cu
  positions in cartesian coordinates
  velocities in cartesian coordinates
  No initial velocities read in
 exchange correlation table for  LEXCH =        8
   RHO(1)=    0.500       N(1)  =     2000
   RHO(2)=  100.500       N(2)  =     4000

 VTST: version 4.2, (08/11/21)

 CHAIN: initializing optimizer
 
 OPT: Using VASP Conjugate-Gradient optimizer
 CHAIN: Read ICHAIN            0
 
 POSCAR: FCC Cu
  positions in cartesian coordinates
  velocities in cartesian coordinates
  No initial velocities read in
 


--------------------------------------------------------------------------------------------------------


 ion  position               nearest neighbor table
   1  0.000  0.000  0.000-   9 2.57   6 2.57   5 2.57   8 2.57   7 2.57   2 2.57   2 2.57
   2  0.000  0.500  0.000-  10 2.57   5 2.57   6 2.57   7 2.57   8 2.57   1 2.57   1 2.57
   3  0.500  0.000  0.000-  11 2.57   8 2.57   6 2.57   7 2.57   5 2.57   4 2.57   4 2.57
   4  0.500  0.500  0.000-  12 2.57   7 2.57   5 2.57   8 2.57   6 2.57   3 2.57   3 2.57
   5  0.250  0.250  0.057-  13 2.57  10 2.57  12 2.57   9 2.57  11 2.57   2 2.57   4 2.57   1 2.57
                             3 2.57   6 2.57   6 2.57
   6  0.250  0.750  0.057-  14 2.57   9 2.57  11 2.57  10 2.57  12 2.57   1 2.57   3 2.57   2 2.57
                             4 2.57   5 2.57   5 2.57
   7  0.750  0.250  0.057-  15 2.57  12 2.57  11 2.57  10 2.57   4 2.57   9 2.57   3 2.57   2 2.57
                             1 2.57   8 2.57   8 2.57
   8  0.750  0.750  0.057-  16 2.57  11 2.57  12 2.57   9 2.57  10 2.57   3 2.57   4 2.57   1 2.57
                             2 2.57   7 2.57   7 2.57
   9  0.000  0.000  0.113-   1 2.57  17 2.57   6 2.57   5 2.57   8 2.57   7 2.57  14 2.57  13 2.57
                            16 2.57  15 2.57  10 2.57  10 2.57
  10  0.000  0.500  0.113-   2 2.57  18 2.57   5 2.57   6 2.57   7 2.57  13 2.57   8 2.57  14 2.57
                            15 2.57  16 2.57   9 2.57   9 2.57
  11  0.500  0.000  0.113-   3 2.57  19 2.57   8 2.57   6 2.57   7 2.57   5 2.57  16 2.57  14 2.57
                            15 2.57  13 2.57  12 2.57  12 2.57
  12  0.500  0.500  0.113-   4 2.57  20 2.57   7 2.57   5 2.57   8 2.57   6 2.57  15 2.57  13 2.57
                            16 2.57  14 2.57  11 2.57  11 2.57
  13  0.250  0.250  0.170-   5 2.57  21 2.57  18 2.57  20 2.57  17 2.57  10 2.57  19 2.57  12 2.57
                             9 2.57  11 2.57  14 2.57  14 2.57
  14  0.250  0.750  0.170-   6 2.57  22 2.57  17 2.57  19 2.57  18 2.57  20 2.57   9 2.57  11 2.57
                            10 2.57  12 2.57  13 2.57  13 2.57
  15  0.750  0.250  0.170-   7 2.57  23 2.57  20 2.57  19 2.57  12 2.57  18 2.57  11 2.57  17 2.57
                            10 2.57   9 2.57  16 2.57  16 2.57
  16  0.750  0.750  0.170-   8 2.57  24 2.57  19 2.57  20 2.57  11 2.57  17 2.57  12 2.57  18 2.57
                             9 2.57  10 2.57  15 2.57  15 2.57
  17  0.000  0.000  0.226-  25 2.57   9 2.57  14 2.57  22 2.57  13 2.57  21 2.57  16 2.57  24 2.57
                            15 2.57  23 2.57  18 2.57  18 2.57
  18  0.000  0.500  0.226-  26 2.57  10 2.57  13 2.57  21 2.57  14 2.57  22 2.57  15 2.57  23 2.57
                            16 2.57  24 2.57  17 2.57  17 2.57
  19  0.500  0.000  0.226-  27 2.57  11 2.57  16 2.57  14 2.57  24 2.57  22 2.57  15 2.57  13 2.57
                            23 2.57  21 2.57  20 2.57  20 2.57
  20  0.500  0.500  0.226-  28 2.57  12 2.57  15 2.57  13 2.57  23 2.57  21 2.57  16 2.57  14 2.57
                            24 2.57  22 2.57  19 2.57  19 2.57
  21  0.250  0.250  0.283-  13 2.57  26 2.57  28 2.57  18 2.57  20 2.57  25 2.57  27 2.57  17 2.57
                            19 2.57  22 2.57  22 2.57
  22  0.250  0.750  0.283-  14 2.57  25 2.57  27 2.57  17 2.57  19 2.57  26 2.57  28 2.57  18 2.57
                            20 2.57  21 2.57  21 2.57
  23  0.750  0.250  0.283-  15 2.57  28 2.57  20 2.57  27 2.57  19 2.57  26 2.57  18 2.57  25 2.57
                            17 2.57  24 2.57  24 2.57
  24  0.750  0.750  0.283-  16 2.57  27 2.57  19 2.57  28 2.57  20 2.57  25 2.57  17 2.57  26 2.57
                            18 2.57  23 2.57  23 2.57
  25  0.000  0.000  0.339-  17 2.57  22 2.57  21 2.57  24 2.57  23 2.57  26 2.57  26 2.57
  26  0.000  0.500  0.339-  18 2.57  21 2.57  22 2.57  23 2.57  24 2.57  25 2.57  25 2.57
  27  0.500  0.000  0.339-  19 2.57  24 2.57  22 2.57  23 2.57  21 2.57  28 2.57  28 2.57
  28  0.500  0.500  0.339-  20 2.57  23 2.57  21 2.57  24 2.57  22 2.57  27 2.57  27 2.57
 
  LATTYP: Found a simple orthorhombic cell.
 ALAT       =     5.1335954666
 B/A-ratio  =     1.4142135422
 C/A-ratio  =     4.4219286751
  
  Lattice vectors:
  
 A1 = (   0.0000000000,  -5.1335954666,   0.0000000000)
 A2 = (   7.2600002289,   0.0000000000,   0.0000000000)
 A3 = (   0.0000000000,   0.0000000000,  22.7003930000)


Analysis of symmetry for initial positions (statically):
=====================================================================
 Subroutine PRICEL returns following result:
 
  LATTYP: Found a simple orthorhombic cell.
 ALAT       =     2.5667977330
 B/A-ratio  =     1.4142135422
 C/A-ratio  =     8.8438573512
  
  Lattice vectors:
  
 A1 = (   0.0000000000,  -2.5667977330,   0.0000000000)
 A2 = (   3.6300001140,   0.0000000000,   0.0000000000)
 A3 = (   0.0000000000,   0.0000000000,  22.7003930000)
 
   4 primitive cells build up your supercell.
 

 Routine SETGRP: Setting up the symmetry group for a 
 simple orthorhombic supercell.


 Subroutine GETGRP returns: Found  8 space group operations
 (whereof  4 operations were pure point group operations)
 out of a pool of  8 trial point group operations.


The static configuration has the point symmetry C_2v.
 The point group associated with its full space group is D_2h.


Analysis of symmetry for dynamics (positions and initial velocities):
=====================================================================
 Subroutine PRICEL returns following result:
 
  LATTYP: Found a simple orthorhombic cell.
 ALAT       =     2.5667977330
 B/A-ratio  =     1.4142135422
 C/A-ratio  =     8.8438573512
  
  Lattice vectors:
  
 A1 = (   0.0000000000,  -2.5667977330,   0.0000000000)
 A2 = (   3.6300001140,   0.0000000000,   0.0000000000)
 A3 = (   0.0000000000,   0.0000000000,  22.7003930000)
 
   4 primitive cells build up your supercell.
 

 Routine SETGRP: Setting up the symmetry group for a 
 simple orthorhombic supercell.


 Subroutine GETGRP returns: Found  8 space group operations
 (whereof  4 operations were pure point group operations)
 out of a pool of  8 trial point group operations.


The dynamic configuration has the point symmetry C_2v.
 The point group associated with its full space group is D_2h.


Analysis of constrained symmetry for selective dynamics:
=====================================================================
 Subroutine PRICEL returns following result:
 
  LATTYP: Found a simple orthorhombic cell.
 ALAT       =     2.5667977330
 B/A-ratio  =     1.4142135422
 C/A-ratio  =     8.8438573512
  
  Lattice vectors:
  
 A1 = (   0.0000000000,  -2.5667977330,   0.0000000000)
 A2 = (   3.6300001140,   0.0000000000,   0.0000000000)
 A3 = (   0.0000000000,   0.0000000000,  22.7003930000)
 
   4 primitive cells build up your supercell.
 

 Routine SETGRP: Setting up the symmetry group for a 
 simple orthorhombic supercell.


 Subroutine GETGRP returns: Found  4 space group operations
 (whereof  4 operations were pure point group operations)
 out of a pool of  8 trial point group operations.


The constrained configuration has the point symmetry C_2v.


Analysis of structural, dynamic, and magnetic symmetry:
=====================================================================
 Subroutine PRICEL returns following result:
 
  LATTYP: Found a simple orthorhombic cell.
 ALAT       =     2.5667977330
 B/A-ratio  =     1.4142135422
 C/A-ratio  =     8.8438573512
  
  Lattice vectors:
  
 A1 = (   0.0000000000,  -2.5667977330,   0.0000000000)
 A2 = (   3.6300001140,   0.0000000000,   0.0000000000)
 A3 = (   0.0000000000,   0.0000000000,  22.7003930000)
 
   4 primitive cells build up your supercell.
 

 Routine SETGRP: Setting up the symmetry group for a 
 simple orthorhombic supercell.


 Subroutine GETGRP returns: Found  4 space group operations
 (whereof  4 operations were pure point group operations)
 out of a pool of  8 trial point group operations.


The overall configuration has the point symmetry C_2v.


 Subroutine INISYM returns: Found  4 space group operations
 (whereof  4 operations are pure point group operations),
 and found     4 'primitive' translations


----------------------------------------------------------------------------------------

                                     Primitive cell                                     

  volume of cell :     211.5104

  direct lattice vectors                    reciprocal lattice vectors
     0.000000000 -2.566797733  0.000000000     0.000000000 -0.389590495  0.000000000
     3.630000114  0.000000000  0.000000000     0.275482085  0.000000000  0.000000000
     0.000000000  0.000000000 22.700393000     0.000000000  0.000000000  0.044052101

  length of vectors
     2.566797733  3.630000114 22.700393000     0.389590495  0.275482085  0.044052101

  position of ions in fractional coordinates (direct lattice)
     0.000000000  0.000000000  0.000000000
     0.500000000  0.500000000  0.056536415
     0.000000000  0.000000000  0.113072829
     0.500000000  0.500000000  0.169609244
     0.000000000  0.000000000  0.226145658
     0.500000000  0.500000000  0.282682073
     0.000000000  0.000000000  0.339218487

  ion indices of the primitive-cell ions
   primitive index   ion index
                 1           1
                 2           6
                 3           9
                 4          14
                 5          17
                 6          22
                 7          25

----------------------------------------------------------------------------------------

 
 
 KPOINTS: Auto-mesh                               

Automatic generation of k-mesh.
 Grid dimensions read from file:
 generate k-points for:    3    3    1

 Generating k-lattice:

  Cartesian coordinates                     Fractional coordinates (reciprocal lattice)
     0.045913681  0.000000000  0.000000000     0.333333333  0.000000000  0.000000000
     0.000000000  0.064931749  0.000000000     0.000000000  0.333333333  0.000000000
     0.000000000  0.000000000  0.044052101     0.000000000  0.000000000  1.000000000

  Length of vectors
     0.045913681  0.064931749  0.044052101

  Shift w.r.t. Gamma in fractional coordinates (k-lattice)
     0.000000000  0.000000000  0.000000000

 
 Subroutine IBZKPT returns following result:
 ===========================================
 
 Found      4 irreducible k-points:
 
 Following reciprocal coordinates:
            Coordinates               Weight
  0.000000  0.000000  0.000000      1.000000
  0.333333  0.000000  0.000000      2.000000
  0.000000  0.333333  0.000000      2.000000
  0.333333  0.333333  0.000000      4.000000
 
 Following cartesian coordinates:
            Coordinates               Weight
  0.000000  0.000000  0.000000      1.000000
  0.045914  0.000000  0.000000      2.000000
  0.000000  0.064932  0.000000      2.000000
  0.045914  0.064932  0.000000      4.000000
 


--------------------------------------------------------------------------------------------------------




 Dimension of arrays:
   k-points           NKPTS =      4   k-points in BZ     NKDIM =      4   number of bands    NBANDS=    200
   number of dos      NEDOS =    301   number of ions     NIONS =     28
   non local maximal  LDIM  =      6   non local SUM 2l+1 LMDIM =     18
   total plane-waves  NPLWV = 112896
   max r-space proj   IRMAX =      1   max aug-charges    IRDMAX=   4064
   dimension x,y,z NGX =    36 NGY =   28 NGZ =  112
   dimension x,y,z NGXF=    72 NGYF=   56 NGZF=  224
   support grid    NGXF=    72 NGYF=   56 NGZF=  224
   ions per type =              28
   NGX,Y,Z   is equivalent  to a cutoff of   8.24,  9.07,  8.20 a.u.
   NGXF,Y,Z  is equivalent  to a cutoff of  16.49, 18.13, 16.40 a.u.

 SYSTEM =  unknown system                          
 POSCAR =  FCC Cu                                  

 Startparameter for this run:
   NWRITE =      2    write-flag & timer
   PREC   = normal    normal or accurate (medium, high low for compatibility)
   ISTART =      0    job   : 0-new  1-cont  2-samecut
   ICHARG =      2    charge: 1-file 2-atom 10-const
   ISPIN  =      2    spin polarized calculation?
   LNONCOLLINEAR =      F non collinear calculations
   LSORBIT =      F    spin-orbit coupling
   INIWAV =      1    electr: 0-lowe 1-rand  2-diag
   LASPH  =      F    aspherical Exc in radial PAW
 Electronic Relaxation 1
   ENCUT  =  400.0 eV  29.40 Ry    5.42 a.u.  11.84  8.37 37.02*2*pi/ulx,y,z
   ENINI  =  400.0     initial cutoff
   ENAUG  =  587.0 eV  augmentation charge cutoff
   NELM   =     60;   NELMIN=  2; NELMDL= -5     # of ELM steps 
   EDIFF  = 0.2E-03   stopping-criterion for ELM
   LREAL  =      F    real-space projection
   NLSPLINE    = F    spline interpolate recip. space projectors
   LCOMPAT=      F    compatible to vasp.4.4
   GGA_COMPAT  = T    GGA compatible to vasp.4.4-vasp.4.6
   LMAXPAW     = -100 max onsite density
   LMAXMIX     =    2 max onsite mixed and CHGCAR
   VOSKOWN=      0    Vosko Wilk Nusair interpolation
   ROPT   =    0.00000
 Ionic relaxation
   EDIFFG = -.3E-01   stopping-criterion for IOM
   NSW    =    800    number of steps for IOM
   NBLOCK =      1;   KBLOCK =    800    inner block; outer block 
   IBRION =      2    ionic relax: 0-MD 1-quasi-New 2-CG
   NFREE  =      1    steps in history (QN), initial steepest desc. (CG)
   ISIF   =      2    stress and relaxation
   IWAVPR =     11    prediction:  0-non 1-charg 2-wave 3-comb
   ISYM   =      1    0-nonsym 1-usesym 2-fastsym
   LCORR  =      T    Harris-Foulkes like correction to forces

   POTIM  = 0.5000    time-step for ionic-motion
   TEIN   =    0.0    initial temperature
   TEBEG  =    0.0;   TEEND  =   0.0 temperature during run
   SMASS  =  -3.00    Nose mass-parameter (am)
   estimated Nose-frequenzy (Omega)   =  0.10E-29 period in steps = 0.13E+47 mass=  -0.120E-26a.u.
   SCALEE = 1.0000    scale energy and forces
   NPACO  =    256;   APACO  = 10.0  distance and # of slots for P.C.
   PSTRESS=    0.0 pullay stress

  Mass of Ions in am
   POMASS =  63.55
  Ionic Valenz
   ZVAL   =  11.00
  Atomic Wigner-Seitz radii
   RWIGS  =  -1.00
  virtual crystal weights 
   VCA    =   1.00
   NELECT =     308.0000    total number of electrons
   NUPDOWN=      -1.0000    fix difference up-down

 DOS related values:
   EMIN   =  10.00;   EMAX   =-10.00  energy-range for DOS
   EFERMI =   0.00
   ISMEAR =     1;   SIGMA  =   0.20  broadening in eV -4-tet -1-fermi 0-gaus

 Electronic relaxation 2 (details)
   IALGO  =     38    algorithm
   LDIAG  =      T    sub-space diagonalisation (order eigenvalues)
   LSUBROT=      F    optimize rotation matrix (better conditioning)
   TURBO    =      0    0=normal 1=particle mesh
   IRESTART =      0    0=no restart 2=restart with 2 vectors
   NREBOOT  =      0    no. of reboots
   NMIN     =      0    reboot dimension
   EREF     =   0.00    reference energy to select bands
   IMIX   =      4    mixing-type and parameters
     AMIX     =   0.40;   BMIX     =  1.00
     AMIX_MAG =   1.60;   BMIX_MAG =  1.00
     AMIN     =   0.10
     WC   =   100.;   INIMIX=   1;  MIXPRE=   1;  MAXMIX= -45

 Intra band minimization:
   WEIMIN = 0.0010     energy-eigenvalue tresh-hold
   EBREAK =  0.25E-06  absolut break condition
   DEPER  =   0.30     relativ break condition  

   TIME   =   0.40     timestep for ELM

  volume/ion in A,a.u.               =      30.22       203.91
  Fermi-wavevector in a.u.,A,eV,Ry     =   1.168946  2.208988 18.591479  1.366435
  Thomas-Fermi vector in A             =   2.305426
 
 Write flags
   LWAVE        =      F    write WAVECAR
   LDOWNSAMPLE  =      F    k-point downsampling of WAVECAR
   LCHARG       =      F    write CHGCAR
   LVTOT        =      F    write LOCPOT, total local potential
   LVHAR        =      F    write LOCPOT, Hartree potential only
   LELF         =      F    write electronic localiz. function (ELF)
   LORBIT       =      0    0 simple, 1 ext, 2 COOP (PROOUT), +10 PAW based schemes


 Dipole corrections
   LMONO  =      F    monopole corrections only (constant potential shift)
   LDIPOL =      F    correct potential (dipole corrections)
   IDIPOL =      3    1-x, 2-y, 3-z, 4-all directions 
   EPSILON=  1.0000000 bulk dielectric constant

 Exchange correlation treatment:
   GGA     =    PE    GGA type
   LEXCH   =     8    internal setting for exchange type
   LIBXC   =     F    Libxc                    
   VOSKOWN =     0    Vosko Wilk Nusair interpolation
   LHFCALC =     F    Hartree Fock is set to
   LHFONE  =     F    Hartree Fock one center treatment
   AEXX    =    0.0000 exact exchange contribution

 Linear response parameters
   LEPSILON=     F    determine dielectric tensor
   LRPA    =     F    only Hartree local field effects (RPA)
   LNABLA  =     F    use nabla operator in PAW spheres
   LVEL    =     F    velocity operator in full k-point grid
   CSHIFT  =0.1000    complex shift for real part using Kramers Kronig
   OMEGAMAX=  -1.0    maximum frequency
   DEG_THRESHOLD= 0.2000000E-02 threshold for treating states as degnerate
   RTIME   =   -0.100 relaxation time in fs
  (WPLASMAI=    0.000 imaginary part of plasma frequency in eV, 0.658/RTIME)
   DFIELD  = 0.0000000 0.0000000 0.0000000 field for delta impulse in time
 
  Optional k-point grid parameters
   LKPOINTS_OPT  =     F    use optional k-point grid
   KPOINTS_OPT_MODE=     1    mode for optional k-point grid
 
 Orbital magnetization related:
   ORBITALMAG=     F  switch on orbital magnetization
   LCHIMAG   =     F  perturbation theory with respect to B field
   DQ        =  0.001000  dq finite difference perturbation B field
   LLRAUG    =     F  two centre corrections for induced B field



--------------------------------------------------------------------------------------------------------


 conjugate gradient relaxation of ions
   using selective dynamics as specified on POSCAR
   WARNING: If single coordinates had been selected the selection of coordinates
            is made according to the corresponding   d i r e c t   coordinates!
            Don't support selection of single cartesian coordinates -- sorry ...
  !
 charge density and potential will be updated during run
 spin polarized calculation
 Variant of blocked Davidson
 Davidson routine will perform the subspace rotation
 perform sub-space diagonalisation
    after iterative eigenvector-optimisation
 modified Broyden-mixing scheme, WC =      100.0
 initial mixing is a Kerker type mixing with AMIX =  0.4000 and BMIX =      1.0000
 Hartree-type preconditioning will be used
 using additional bands           46
 reciprocal scheme for non local part
 use partial core corrections
 calculate Harris-corrections to forces 
   (improved forces if not selfconsistent)
 use gradient corrections 
 use of overlap-Matrix (Vanderbilt PP)
 Methfessel and Paxton  Order N= 1 SIGMA  =   0.20


--------------------------------------------------------------------------------------------------------


  energy-cutoff  :      400.00
  volume of cell :      846.04
      direct lattice vectors                 reciprocal lattice vectors
     7.260000229  0.000000000  0.000000000     0.137741042  0.000000000  0.000000000
     0.000000000  5.133595467  0.000000000     0.000000000  0.194795248  0.000000000
     0.000000000  0.000000000 22.700393000     0.000000000  0.000000000  0.044052101

  length of vectors
     7.260000229  5.133595467 22.700393000     0.137741042  0.194795248  0.044052101


 
 k-points in units of 2pi/SCALE and weight: Auto-mesh                               
   0.00000000  0.00000000  0.00000000       0.111
   0.04591368  0.00000000  0.00000000       0.222
   0.00000000  0.06493175  0.00000000       0.222
   0.04591368  0.06493175  0.00000000       0.444
 
 k-points in reciprocal lattice and weights: Auto-mesh                               
   0.00000000  0.00000000  0.00000000       0.111
   0.33333333  0.00000000  0.00000000       0.222
   0.00000000  0.33333333  0.00000000       0.222
   0.33333333  0.33333333  0.00000000       0.444
 
 position of ions in fractional coordinates (direct lattice) 
   0.00000000  0.00000000  0.00000000
   0.00000000  0.50000000  0.00000000
   0.50000000  0.00000000  0.00000000
   0.50000000  0.50000000  0.00000000
   0.25000000  0.25000000  0.05653641
   0.25000000  0.75000000  0.05653641
   0.75000000  0.25000000  0.05653641
   0.75000000  0.75000000  0.05653641
   0.00000000  0.00000000  0.11307283
   0.00000000  0.50000000  0.11307283
   0.50000000  0.00000000  0.11307283
   0.50000000  0.50000000  0.11307283
   0.25000000  0.25000000  0.16960924
   0.25000000  0.75000000  0.16960924
   0.75000000  0.25000000  0.16960924
   0.75000000  0.75000000  0.16960924
   0.00000000  0.00000000  0.22614566
   0.00000000  0.50000000  0.22614566
   0.50000000  0.00000000  0.22614566
   0.50000000  0.50000000  0.22614566
   0.25000000  0.25000000  0.28268207
   0.25000000  0.75000000  0.28268207
   0.75000000  0.25000000  0.28268207
   0.75000000  0.75000000  0.28268207
   0.00000000  0.00000000  0.33921849
   0.00000000  0.50000000  0.33921849
   0.50000000  0.00000000  0.33921849
   0.50000000  0.50000000  0.33921849
 
 position of ions in cartesian coordinates  (Angst):
   0.00000000  0.00000000  0.00000000
   0.00000000  2.56679773  0.00000000
   3.63000011  0.00000000  0.00000000
   3.63000011  2.56679773  0.00000000
   1.81500006  1.28339887  1.28339883
   1.81500006  3.85019660  1.28339883
   5.44500017  1.28339887  1.28339883
   5.44500017  3.85019660  1.28339883
   0.00000000  0.00000000  2.56679766
   0.00000000  2.56679773  2.56679766
   3.63000011  0.00000000  2.56679766
   3.63000011  2.56679773  2.56679766
   1.81500006  1.28339887  3.85019648
   1.81500006  3.85019660  3.85019648
   5.44500017  1.28339887  3.85019648
   5.44500017  3.85019660  3.85019648
   0.00000000  0.00000000  5.13359531
   0.00000000  2.56679773  5.13359531
   3.63000011  0.00000000  5.13359531
   3.63000011  2.56679773  5.13359531
   1.81500006  1.28339887  6.41699414
   1.81500006  3.85019660  6.41699414
   5.44500017  1.28339887  6.41699414
   5.44500017  3.85019660  6.41699414
   0.00000000  0.00000000  7.70039297
   0.00000000  2.56679773  7.70039297
   3.63000011  0.00000000  7.70039297
   3.63000011  2.56679773  7.70039297
 


--------------------------------------------------------------------------------------------------------


 k-point   1 :   0.0000 0.0000 0.0000  plane waves:   15405
 k-point   2 :   0.3333 0.0000 0.0000  plane waves:   15374
 k-point   3 :   0.0000 0.3333 0.0000  plane waves:   15341
 k-point   4 :   0.3333 0.3333 0.0000  plane waves:   15359

 maximum and minimum number of plane-waves per node :      3115     3054

 maximum number of plane-waves:     15405
 maximum index in each direction: 
   IXMAX=   11   IYMAX=    8   IZMAX=   37
   IXMIN=  -12   IYMIN=   -8   IZMIN=  -37


 parallel 3D FFT for wavefunctions:
    minimum data exchange during FFTs selected (reduces bandwidth)
 parallel 3D FFT for charge:
    minimum data exchange during FFTs selected (reduces bandwidth)


 total amount of memory used by VASP MPI-rank0    61722. kBytes
=======================================================================

   base      :      30000. kBytes
   nonl-proj :       3141. kBytes
   fftplans  :       2418. kBytes
   grid      :       5651. kBytes
   one-center:        186. kBytes
   wavefun   :      20326. kBytes
 
     INWAV:  cpu time      0.0000: real time      0.0005
 Broyden mixing: mesh for mixing (old mesh)
   NGX = 23   NGY = 17   NGZ = 75
  (NGX  = 72   NGY  = 56   NGZ  =224)
  gives a total of  29325 points

 initial charge density was supplied:
 charge density of overlapping atoms calculated
 number of electron     308.0000000 magnetization      28.0000000
 keeping initial charge density in first step


--------------------------------------------------------------------------------------------------------


 Maximum index for augmentation-charges          303 (set IRDMAX)


--------------------------------------------------------------------------------------------------------


 First call to EWALD:  gamma=   0.187
 Maximum number of real-space cells 3x 5x 1
 Maximum number of reciprocal cells 2x 2x 6

    FEWALD:  cpu time      0.0023: real time      0.0023


--------------------------------------- Iteration      1(   1)  ---------------------------------------


    POTLOK:  cpu time      0.0652: real time      0.1011
    SETDIJ:  cpu time      0.0123: real time      0.0124
     EDDAV:  cpu time      5.5764: real time      5.6218
       DOS:  cpu time      0.0022: real time      0.0022
    --------------------------------------------
      LOOP:  cpu time      5.6561: real time      5.7375

 eigenvalue-minimisations  :  3200
 total energy-change (2. order) : 0.2775215E+04  (-0.1108664E+05)
 number of electron     308.0000000 magnetization      28.0000000
 augmentation part      308.0000000 magnetization      28.0000000

 Free energy of the ion-electron system (eV)
  ---------------------------------------------------
  alpha Z        PSCENC =       677.69866932
  Ewald energy   TEWEN  =    130853.55301802
  -Hartree energ DENC   =   -168409.60082203
  -exchange      EXHF   =         0.00000000
  -V(xc)+E(xc)   XCENC  =      1276.80469611
  PAW double counting   =     34386.72988937   -37349.78608270
  entropy T*S    EENTRO =         0.00942357
  eigenvalues    EBANDS =      2392.99199076
  atomic energy  EATOM  =     38946.81392559
  Solvation  Ediel_sol  =         0.00000000
  ---------------------------------------------------
  free energy    TOTEN  =      2775.21470801 eV

  energy without entropy =     2775.20528445  energy(sigma->0) =     2775.21156682


--------------------------------------------------------------------------------------------------------




--------------------------------------- Iteration      1(   2)  ---------------------------------------


     EDDAV:  cpu time      5.5083: real time      5.5535
       DOS:  cpu time      0.0023: real time      0.0023
    --------------------------------------------
      LOOP:  cpu time      5.5107: real time      5.5558

 eigenvalue-minimisations  :  3200
 total energy-change (2. order) :-0.2483764E+04  (-0.2380304E+04)
 number of electron     308.0000000 magnetization      28.0000000
 augmentation part      308.0000000 magnetization      28.0000000

 Free energy of the ion-electron system (eV)
  ---------------------------------------------------
  alpha Z        PSCENC =       677.69866932
  Ewald energy   TEWEN  =    130853.55301802
  -Hartree energ DENC   =   -168409.60082203
  -exchange      EXHF   =         0.00000000
  -V(xc)+E(xc)   XCENC  =      1276.80469611
  PAW double counting   =     34386.72988937   -37349.78608270
  entropy T*S    EENTRO =        -0.00462877
  eigenvalues    EBANDS =       -90.75834562
  atomic energy  EATOM  =     38946.81392559
  Solvation  Ediel_sol  =         0.00000000
  ---------------------------------------------------
  free energy    TOTEN  =       291.45031930 eV

  energy without entropy =      291.45494807  energy(sigma->0) =      291.45186222


--------------------------------------------------------------------------------------------------------




--------------------------------------- Iteration      1(   3)  ---------------------------------------


     EDDAV:  cpu time      5.4790: real time      5.5228
       DOS:  cpu time      0.0025: real time      0.0025
    --------------------------------------------
      LOOP:  cpu time      5.4816: real time      5.5254

 eigenvalue-minimisations  :  3200
 total energy-change (2. order) :-0.3821437E+03  (-0.3438984E+03)
 number of electron     308.0000000 magnetization      28.0000000
 augmentation part      308.0000000 magnetization      28.0000000

 Free energy of the ion-electron system (eV)
  ---------------------------------------------------
  alpha Z        PSCENC =       677.69866932
  Ewald energy   TEWEN  =    130853.55301802
  -Hartree energ DENC   =   -168409.60082203
  -exchange      EXHF   =         0.00000000
  -V(xc)+E(xc)   XCENC  =      1276.80469611
  PAW double counting   =     34386.72988937   -37349.78608270
  entropy T*S    EENTRO =         0.05992961
  eigenvalues    EBANDS =      -472.96655565
  atomic energy  EATOM  =     38946.81392559
  Solvation  Ediel_sol  =         0.00000000
  ---------------------------------------------------
  free energy    TOTEN  =       -90.69333236 eV

  energy without entropy =      -90.75326196  energy(sigma->0) =      -90.71330889


--------------------------------------------------------------------------------------------------------




--------------------------------------- Iteration      1(   4)  ---------------------------------------


     EDDAV:  cpu time      6.0550: real time      6.1026
       DOS:  cpu time      0.0027: real time      0.0027
    --------------------------------------------
      LOOP:  cpu time      6.0577: real time      6.1053

 eigenvalue-minimisations  :  3624
 total energy-change (2. order) :-0.2357626E+02  (-0.2298517E+02)
 number of electron     308.0000000 magnetization      28.0000000
 augmentation part      308.0000000 magnetization      28.0000000

 Free energy of the ion-electron system (eV)
  ---------------------------------------------------
  alpha Z        PSCENC =       677.69866932
  Ewald energy   TEWEN  =    130853.55301802
  -Hartree energ DENC   =   -168409.60082203
  -exchange      EXHF   =         0.00000000
  -V(xc)+E(xc)   XCENC  =      1276.80469611
  PAW double counting   =     34386.72988937   -37349.78608270
  entropy T*S    EENTRO =         0.07815074
  eigenvalues    EBANDS =      -496.56103472
  atomic energy  EATOM  =     38946.81392559
  Solvation  Ediel_sol  =         0.00000000
  ---------------------------------------------------
  free energy    TOTEN  =      -114.26959029 eV

  energy without entropy =     -114.34774103  energy(sigma->0) =     -114.29564054


--------------------------------------------------------------------------------------------------------




--------------------------------------- Iteration      1(   5)  ---------------------------------------


     EDDAV:  cpu time      5.9868: real time      6.0331
       DOS:  cpu time      0.0025: real time      0.0066
    CHARGE:  cpu time      0.4190: real time      0.4211
    MIXING:  cpu time      0.0124: real time      0.0125
    --------------------------------------------
      LOOP:  cpu time      6.4207: real time      6.4732

 eigenvalue-minimisations  :  3592
 total energy-change (2. order) :-0.5290695E+00  (-0.5276994E+00)
 number of electron     308.0002802 magnetization      25.3413868
 augmentation part      182.8036849 magnetization      24.9827849

 Broyden mixing:
  rms(total) = 0.48142E+01    rms(broyden)= 0.48139E+01
  rms(prec ) = 0.49903E+01
  weight for this iteration     100.00

 Free energy of the ion-electron system (eV)
  ---------------------------------------------------
  alpha Z        PSCENC =       677.69866932
  Ewald energy   TEWEN  =    130853.55301802
  -Hartree energ DENC   =   -168409.60082203
  -exchange      EXHF   =         0.00000000
  -V(xc)+E(xc)   XCENC  =      1276.80469611
  PAW double counting   =     34386.72988937   -37349.78608270
  entropy T*S    EENTRO =         0.07882170
  eigenvalues    EBANDS =      -497.09077519
  atomic energy  EATOM  =     38946.81392559
  Solvation  Ediel_sol  =         0.00000000
  ---------------------------------------------------
  free energy    TOTEN  =      -114.79865980 eV

  energy without entropy =     -114.87748150  energy(sigma->0) =     -114.82493370


--------------------------------------------------------------------------------------------------------




--------------------------------------- Iteration      1(   6)  ---------------------------------------


    POTLOK:  cpu time      0.0625: real time      0.0641
    SETDIJ:  cpu time      0.0121: real time      0.0122
     EDDAV:  cpu time      5.7937: real time      5.8390
       DOS:  cpu time      0.0024: real time      0.0024
    CHARGE:  cpu time      0.4147: real time      0.4165
    MIXING:  cpu time      0.0071: real time      0.0071
    --------------------------------------------
      LOOP:  cpu time      6.2925: real time      6.3413

 eigenvalue-minimisations  :  3424
 total energy-change (2. order) : 0.2224853E+02  (-0.2788762E+02)
 number of electron     308.0003137 magnetization      23.7032713
 augmentation part      205.7447622 magnetization      17.2188656

 Broyden mixing:
  rms(total) = 0.24739E+01    rms(broyden)= 0.24735E+01
  rms(prec ) = 0.25992E+01
  weight for this iteration     100.00

 eigenvalues of (default mixing * dielectric matrix)
  average eigenvalue GAMMA=   0.7895
  0.7895

 Free energy of the ion-electron system (eV)
  ---------------------------------------------------
  alpha Z        PSCENC =       677.69866932
  Ewald energy   TEWEN  =    130853.55301802
  -Hartree energ DENC   =   -167688.26241662
  -exchange      EXHF   =         0.00000000
  -V(xc)+E(xc)   XCENC  =      1245.89948157
  PAW double counting   =     34731.89423559   -37546.26695383
  entropy T*S    EENTRO =        -0.00218280
  eigenvalues    EBANDS =     -1313.87790657
  atomic energy  EATOM  =     38946.81392559
  Solvation  Ediel_sol  =         0.00000000
  ---------------------------------------------------
  free energy    TOTEN  =       -92.55012972 eV

  energy without entropy =      -92.54794692  energy(sigma->0) =      -92.54940212


--------------------------------------------------------------------------------------------------------




--------------------------------------- Iteration      1(   7)  ---------------------------------------


    POTLOK:  cpu time      0.0611: real time      0.0616
    SETDIJ:  cpu time      0.0118: real time      0.0118
     EDDAV:  cpu time      5.8820: real time      5.9274
       DOS:  cpu time      0.0024: real time      0.0024
    CHARGE:  cpu time      0.4076: real time      0.4096
    MIXING:  cpu time      0.0073: real time      0.0073
    --------------------------------------------
      LOOP:  cpu time      6.3722: real time      6.4201

 eigenvalue-minimisations  :  3512
 total energy-change (2. order) : 0.1260731E+02  (-0.7066032E+01)
 number of electron     308.0003033 magnetization      21.9581688
 augmentation part      197.5946571 magnetization      14.8578802

 Broyden mixing:
  rms(total) = 0.11764E+01    rms(broyden)= 0.11762E+01
  rms(prec ) = 0.12007E+01
  weight for this iteration     100.00

 eigenvalues of (default mixing * dielectric matrix)
  average eigenvalue GAMMA=   0.7926
  0.9550  0.6302

 Free energy of the ion-electron system (eV)
  ---------------------------------------------------
  alpha Z        PSCENC =       677.69866932
  Ewald energy   TEWEN  =    130853.55301802
  -Hartree energ DENC   =   -168092.88789522
  -exchange      EXHF   =         0.00000000
  -V(xc)+E(xc)   XCENC  =      1261.11529895
  PAW double counting   =     35465.07093864   -38419.84558917
  entropy T*S    EENTRO =        -0.03531804
  eigenvalues    EBANDS =      -771.42586532
  atomic energy  EATOM  =     38946.81392559
  Solvation  Ediel_sol  =         0.00000000
  ---------------------------------------------------
  free energy    TOTEN  =       -79.94281722 eV

  energy without entropy =      -79.90749918  energy(sigma->0) =      -79.93104454


--------------------------------------------------------------------------------------------------------




--------------------------------------- Iteration      1(   8)  ---------------------------------------


    POTLOK:  cpu time      0.0617: real time      0.0634
    SETDIJ:  cpu time      0.0124: real time      0.0125
     EDDAV:  cpu time      6.0360: real time      6.0825
       DOS:  cpu time      0.0025: real time      0.0025
    CHARGE:  cpu time      0.4117: real time      0.4134
    MIXING:  cpu time      0.0073: real time      0.0073
    --------------------------------------------
      LOOP:  cpu time      6.5316: real time      6.5816

 eigenvalue-minimisations  :  3640
 total energy-change (2. order) : 0.1509493E+01  (-0.1937483E+01)
 number of electron     308.0002987 magnetization      20.0750229
 augmentation part      196.5725262 magnetization      12.7709831

 Broyden mixing:
  rms(total) = 0.11543E+01    rms(broyden)= 0.11543E+01
  rms(prec ) = 0.12109E+01
  weight for this iteration     100.00

 eigenvalues of (default mixing * dielectric matrix)
  average eigenvalue GAMMA=   0.7143
  1.1005  0.6487  0.3939

 Free energy of the ion-electron system (eV)
  ---------------------------------------------------
  alpha Z        PSCENC =       677.69866932
  Ewald energy   TEWEN  =    130853.55301802
  -Hartree energ DENC   =   -168120.34148098
  -exchange      EXHF   =         0.00000000
  -V(xc)+E(xc)   XCENC  =      1262.82216122
  PAW double counting   =     35868.12970745   -38855.10029658
  entropy T*S    EENTRO =         0.00850103
  eigenvalues    EBANDS =      -712.01752893
  atomic energy  EATOM  =     38946.81392559
  Solvation  Ediel_sol  =         0.00000000
  ---------------------------------------------------
  free energy    TOTEN  =       -78.43332385 eV

  energy without entropy =      -78.44182489  energy(sigma->0) =      -78.43615753


--------------------------------------------------------------------------------------------------------




--------------------------------------- Iteration      1(   9)  ---------------------------------------


    POTLOK:  cpu time      0.0590: real time      0.0595
    SETDIJ:  cpu time      0.0116: real time      0.0117
     EDDAV:  cpu time      7.0219: real time      7.0764
       DOS:  cpu time      0.0024: real time      0.0024
    CHARGE:  cpu time      0.4071: real time      0.4092
    MIXING:  cpu time      0.0074: real time      0.0074
    --------------------------------------------
      LOOP:  cpu time      7.5095: real time      7.5666

 eigenvalue-minimisations  :  4408
 total energy-change (2. order) : 0.2279494E+01  (-0.5289474E+00)
 number of electron     308.0002998 magnetization      15.1316388
 augmentation part      196.1398861 magnetization       7.5434539

 Broyden mixing:
  rms(total) = 0.83222E+00    rms(broyden)= 0.83218E+00
  rms(prec ) = 0.83924E+00
  weight for this iteration     100.00

 eigenvalues of (default mixing * dielectric matrix)
  average eigenvalue GAMMA=   1.0037
  1.6446  1.2679  0.7378  0.3647

 Free energy of the ion-electron system (eV)
  ---------------------------------------------------
  alpha Z        PSCENC =       677.69866932
  Ewald energy   TEWEN  =    130853.55301802
  -Hartree energ DENC   =   -168178.04820195
  -exchange      EXHF   =         0.00000000
  -V(xc)+E(xc)   XCENC  =      1262.89642315
  PAW double counting   =     36198.41725621   -39206.59380306
  entropy T*S    EENTRO =        -0.01256492
  eigenvalues    EBANDS =      -630.87855204
  atomic energy  EATOM  =     38946.81392559
  Solvation  Ediel_sol  =         0.00000000
  ---------------------------------------------------
  free energy    TOTEN  =       -76.15382967 eV

  energy without entropy =      -76.14126475  energy(sigma->0) =      -76.14964136


--------------------------------------------------------------------------------------------------------




--------------------------------------- Iteration      1(  10)  ---------------------------------------


    POTLOK:  cpu time      0.0601: real time      0.0632
    SETDIJ:  cpu time      0.0116: real time      0.0116
     EDDAV:  cpu time      7.4978: real time      7.5558
       DOS:  cpu time      0.0026: real time      0.0026
    CHARGE:  cpu time      0.4142: real time      0.4163
    MIXING:  cpu time      0.0076: real time      0.0077
    --------------------------------------------
      LOOP:  cpu time      7.9939: real time      8.0572

 eigenvalue-minimisations  :  4768
 total energy-change (2. order) : 0.1058829E+00  (-0.5629910E+00)
 number of electron     308.0003022 magnetization      10.9782340
 augmentation part      197.7255306 magnetization       4.6108324

 Broyden mixing:
  rms(total) = 0.75812E+00    rms(broyden)= 0.75806E+00
  rms(prec ) = 0.80083E+00
  weight for this iteration     100.00

 eigenvalues of (default mixing * dielectric matrix)
  average eigenvalue GAMMA=   1.1511
  3.1316  1.0790  0.6942  0.4908  0.3598

 Free energy of the ion-electron system (eV)
  ---------------------------------------------------
  alpha Z        PSCENC =       677.69866932
  Ewald energy   TEWEN  =    130853.55301802
  -Hartree energ DENC   =   -168122.36045817
  -exchange      EXHF   =         0.00000000
  -V(xc)+E(xc)   XCENC  =      1258.61280635
  PAW double counting   =     36607.77181283   -39621.53021246
  entropy T*S    EENTRO =         0.01237273
  eigenvalues    EBANDS =      -676.61988103
  atomic energy  EATOM  =     38946.81392559
  Solvation  Ediel_sol  =         0.00000000
  ---------------------------------------------------
  free energy    TOTEN  =       -76.04794681 eV

  energy without entropy =      -76.06031953  energy(sigma->0) =      -76.05207105


--------------------------------------------------------------------------------------------------------




--------------------------------------- Iteration      1(  11)  ---------------------------------------


    POTLOK:  cpu time      0.0593: real time      0.0598
    SETDIJ:  cpu time      0.0116: real time      0.0117
     EDDAV:  cpu time      6.2305: real time      6.2789
       DOS:  cpu time      0.0025: real time      0.0025
    CHARGE:  cpu time      0.4139: real time      0.4158
    MIXING:  cpu time      0.0077: real time      0.0078
    --------------------------------------------
      LOOP:  cpu time      6.7255: real time      6.7764

 eigenvalue-minimisations  :  3776
 total energy-change (2. order) : 0.7874449E-01  (-0.3734806E+00)
 number of electron     308.0003033 magnetization       7.3349635
 augmentation part      198.1304357 magnetization       1.3398608

 Broyden mixing:
  rms(total) = 0.57459E+00    rms(broyden)= 0.57455E+00
  rms(prec ) = 0.59287E+00
  weight for this iteration     100.00

 eigenvalues of (default mixing * dielectric matrix)
  average eigenvalue GAMMA=   1.3518
  4.7643  1.0125  0.7859  0.7859  0.3592  0.4029

 Free energy of the ion-electron system (eV)
  ---------------------------------------------------
  alpha Z        PSCENC =       677.69866932
  Ewald energy   TEWEN  =    130853.55301802
  -Hartree energ DENC   =   -168176.33219586
  -exchange      EXHF   =         0.00000000
  -V(xc)+E(xc)   XCENC  =      1257.43536074
  PAW double counting   =     36910.60591806   -39938.12184346
  entropy T*S    EENTRO =         0.00233208
  eigenvalues    EBANDS =      -607.62438681
  atomic energy  EATOM  =     38946.81392559
  Solvation  Ediel_sol  =         0.00000000
  ---------------------------------------------------
  free energy    TOTEN  =       -75.96920232 eV

  energy without entropy =      -75.97153440  energy(sigma->0) =      -75.96997968


--------------------------------------------------------------------------------------------------------




--------------------------------------- Iteration      1(  12)  ---------------------------------------


    POTLOK:  cpu time      0.0607: real time      0.0614
    SETDIJ:  cpu time      0.0118: real time      0.0119
     EDDAV:  cpu time      6.4694: real time      6.5193
       DOS:  cpu time      0.0024: real time      0.0024
    CHARGE:  cpu time      0.4097: real time      0.4117
    MIXING:  cpu time      0.0077: real time      0.0077
    --------------------------------------------
      LOOP:  cpu time      6.9617: real time      7.0144

 eigenvalue-minimisations  :  3984
 total energy-change (2. order) :-0.3022577E+01  (-0.2161677E+00)
 number of electron     308.0003018 magnetization       5.1670530
 augmentation part      197.1323648 magnetization      -0.0018750

 Broyden mixing:
  rms(total) = 0.30497E+00    rms(broyden)= 0.30495E+00
  rms(prec ) = 0.32384E+00
  weight for this iteration     100.00

 eigenvalues of (default mixing * dielectric matrix)
  average eigenvalue GAMMA=   1.5816
  6.5118  1.4362  0.8398  0.8398  0.6867  0.3586  0.3983

 Free energy of the ion-electron system (eV)
  ---------------------------------------------------
  alpha Z        PSCENC =       677.69866932
  Ewald energy   TEWEN  =    130853.55301802
  -Hartree energ DENC   =   -168266.89373781
  -exchange      EXHF   =         0.00000000
  -V(xc)+E(xc)   XCENC  =      1256.98628377
  PAW double counting   =     37008.45604389   -40050.79257002
  entropy T*S    EENTRO =         0.00828677
  eigenvalues    EBANDS =      -504.82169887
  atomic energy  EATOM  =     38946.81392559
  Solvation  Ediel_sol  =         0.00000000
  ---------------------------------------------------
  free energy    TOTEN  =       -78.99177934 eV

  energy without entropy =      -79.00006611  energy(sigma->0) =      -78.99454159


--------------------------------------------------------------------------------------------------------




--------------------------------------- Iteration      1(  13)  ---------------------------------------


    POTLOK:  cpu time      0.0594: real time      0.0610
    SETDIJ:  cpu time      0.0116: real time      0.0117
     EDDAV:  cpu time      7.0208: real time      7.0751
       DOS:  cpu time      0.0026: real time      0.0026
    CHARGE:  cpu time      0.4039: real time      0.4057
    MIXING:  cpu time      0.0080: real time      0.0081
    --------------------------------------------
      LOOP:  cpu time      7.5063: real time      7.5642

 eigenvalue-minimisations  :  4416
 total energy-change (2. order) :-0.5886719E+01  (-0.3013120E+00)
 number of electron     308.0003005 magnetization       4.1161666
 augmentation part      196.6981415 magnetization       0.2694654

 Broyden mixing:
  rms(total) = 0.21958E+00    rms(broyden)= 0.21952E+00
  rms(prec ) = 0.23352E+00
  weight for this iteration     100.00

 eigenvalues of (default mixing * dielectric matrix)
  average eigenvalue GAMMA=   1.6309
  7.4852  1.8460  0.8559  0.7609  0.7609  0.5848  0.3627  0.3910

 Free energy of the ion-electron system (eV)
  ---------------------------------------------------
  alpha Z        PSCENC =       677.69866932
  Ewald energy   TEWEN  =    130853.55301802
  -Hartree energ DENC   =   -168266.42940966
  -exchange      EXHF   =         0.00000000
  -V(xc)+E(xc)   XCENC  =      1254.02766070
  PAW double counting   =     36730.43743741   -39759.13859295
  entropy T*S    EENTRO =         0.00812242
  eigenvalues    EBANDS =      -521.84932946
  atomic energy  EATOM  =     38946.81392559
  Solvation  Ediel_sol  =         0.00000000
  ---------------------------------------------------
  free energy    TOTEN  =       -84.87849860 eV

  energy without entropy =      -84.88662101  energy(sigma->0) =      -84.88120607


--------------------------------------------------------------------------------------------------------




--------------------------------------- Iteration      1(  14)  ---------------------------------------


    POTLOK:  cpu time      0.0591: real time      0.0596
    SETDIJ:  cpu time      0.0119: real time      0.0119
     EDDAV:  cpu time      6.9276: real time      6.9819
       DOS:  cpu time      0.0026: real time      0.0026
    CHARGE:  cpu time      0.4074: real time      0.4096
    MIXING:  cpu time      0.0101: real time      0.0102
    --------------------------------------------
      LOOP:  cpu time      7.4188: real time      7.4759

 eigenvalue-minimisations  :  4312
 total energy-change (2. order) :-0.3794936E+01  (-0.2223570E+00)
 number of electron     308.0003008 magnetization       2.8046433
 augmentation part      196.4739091 magnetization      -0.1260437

 Broyden mixing:
  rms(total) = 0.18576E+00    rms(broyden)= 0.18571E+00
  rms(prec ) = 0.19997E+00
  weight for this iteration     100.00

 eigenvalues of (default mixing * dielectric matrix)
  average eigenvalue GAMMA=   1.7454
  8.6499  2.5665  1.0821  0.7959  0.7959  0.6643  0.3545  0.3922  0.4071

 Free energy of the ion-electron system (eV)
  ---------------------------------------------------
  alpha Z        PSCENC =       677.69866932
  Ewald energy   TEWEN  =    130853.55301802
  -Hartree energ DENC   =   -168254.83484812
  -exchange      EXHF   =         0.00000000
  -V(xc)+E(xc)   XCENC  =      1252.03255492
  PAW double counting   =     36551.80648164   -39571.41038116
  entropy T*S    EENTRO =        -0.01892982
  eigenvalues    EBANDS =      -544.31392450
  atomic energy  EATOM  =     38946.81392559
  Solvation  Ediel_sol  =         0.00000000
  ---------------------------------------------------
  free energy    TOTEN  =       -88.67343410 eV

  energy without entropy =      -88.65450428  energy(sigma->0) =      -88.66712416


--------------------------------------------------------------------------------------------------------




--------------------------------------- Iteration      1(  15)  ---------------------------------------


    POTLOK:  cpu time      0.0605: real time      0.0619
    SETDIJ:  cpu time      0.0118: real time      0.0118
     EDDAV:  cpu time      6.5107: real time      6.5611
       DOS:  cpu time      0.0024: real time      0.0024
    CHARGE:  cpu time      0.4011: real time      0.4031
    MIXING:  cpu time      0.0085: real time      0.0085
    --------------------------------------------
      LOOP:  cpu time      6.9950: real time      7.0489

 eigenvalue-minimisations  :  4032
 total energy-change (2. order) :-0.3925034E+01  (-0.3537185E+00)
 number of electron     308.0003011 magnetization       2.3375303
 augmentation part      196.5509509 magnetization       0.6225897

 Broyden mixing:
  rms(total) = 0.14219E+00    rms(broyden)= 0.14213E+00
  rms(prec ) = 0.16487E+00
  weight for this iteration     100.00

 eigenvalues of (default mixing * dielectric matrix)
  average eigenvalue GAMMA=   1.7214
  9.2103  2.8481  1.0744  0.8348  0.8348  0.6488  0.6488  0.3621  0.3758  0.3758

 Free energy of the ion-electron system (eV)
  ---------------------------------------------------
  alpha Z        PSCENC =       677.69866932
  Ewald energy   TEWEN  =    130853.55301802
  -Hartree energ DENC   =   -168214.65188227
  -exchange      EXHF   =         0.00000000
  -V(xc)+E(xc)   XCENC  =      1249.56776003
  PAW double counting   =     36351.88507789   -39359.70178536
  entropy T*S    EENTRO =        -0.03365174
  eigenvalues    EBANDS =      -597.72960003
  atomic energy  EATOM  =     38946.81392559
  Solvation  Ediel_sol  =         0.00000000
  ---------------------------------------------------
  free energy    TOTEN  =       -92.59846854 eV

  energy without entropy =      -92.56481680  energy(sigma->0) =      -92.58725129


--------------------------------------------------------------------------------------------------------




--------------------------------------- Iteration      1(  16)  ---------------------------------------


    POTLOK:  cpu time      0.0587: real time      0.0591
    SETDIJ:  cpu time      0.0119: real time      0.0119
     EDDAV:  cpu time      6.4430: real time      6.4927
       DOS:  cpu time      0.0023: real time      0.0023
    CHARGE:  cpu time      0.3998: real time      0.4018
    MIXING:  cpu time      0.0086: real time      0.0086
    --------------------------------------------
      LOOP:  cpu time      6.9242: real time      6.9765

 eigenvalue-minimisations  :  3976
 total energy-change (2. order) :-0.1287020E+01  (-0.1000437E+00)
 number of electron     308.0003014 magnetization       1.8059057
 augmentation part      196.6548190 magnetization       0.5761581

 Broyden mixing:
  rms(total) = 0.11411E+00    rms(broyden)= 0.11408E+00
  rms(prec ) = 0.13676E+00
  weight for this iteration     100.00

 eigenvalues of (default mixing * dielectric matrix)
  average eigenvalue GAMMA=   1.7292
  9.9025  3.2022  1.0515  1.0515  0.8576  0.8576  0.6911  0.3570  0.3968  0.3968
  0.2568

 Free energy of the ion-electron system (eV)
  ---------------------------------------------------
  alpha Z        PSCENC =       677.69866932
  Ewald energy   TEWEN  =    130853.55301802
  -Hartree energ DENC   =   -168196.49429173
  -exchange      EXHF   =         0.00000000
  -V(xc)+E(xc)   XCENC  =      1248.61255983
  PAW double counting   =     36312.15831249   -39316.95453414
  entropy T*S    EENTRO =        -0.03953171
  eigenvalues    EBANDS =      -619.23361620
  atomic energy  EATOM  =     38946.81392559
  Solvation  Ediel_sol  =         0.00000000
  ---------------------------------------------------
  free energy    TOTEN  =       -93.88548852 eV

  energy without entropy =      -93.84595681  energy(sigma->0) =      -93.87231129


--------------------------------------------------------------------------------------------------------




--------------------------------------- Iteration      1(  17)  ---------------------------------------


    POTLOK:  cpu time      0.0595: real time      0.0607
    SETDIJ:  cpu time      0.0119: real time      0.0120
     EDDAV:  cpu time      6.3839: real time      6.4329
       DOS:  cpu time      0.0025: real time      0.0025
    CHARGE:  cpu time      0.4130: real time      0.4150
    MIXING:  cpu time      0.0088: real time      0.0088
    --------------------------------------------
      LOOP:  cpu time      6.8795: real time      6.9318

 eigenvalue-minimisations  :  3928
 total energy-change (2. order) :-0.8451950E+00  (-0.8148839E-01)
 number of electron     308.0003019 magnetization       1.2745434
 augmentation part      196.8505043 magnetization       0.5455483

 Broyden mixing:
  rms(total) = 0.83701E-01    rms(broyden)= 0.83676E-01
  rms(prec ) = 0.88410E-01
  weight for this iteration     100.00

 eigenvalues of (default mixing * dielectric matrix)
  average eigenvalue GAMMA=   1.8178
 11.1071  3.5950  1.5451  1.1398  0.8498  0.8498  0.6862  0.6862  0.3610  0.3839
  0.3839  0.2261

 Free energy of the ion-electron system (eV)
  ---------------------------------------------------
  alpha Z        PSCENC =       677.69866932
  Ewald energy   TEWEN  =    130853.55301802
  -Hartree energ DENC   =   -168173.07668134
  -exchange      EXHF   =         0.00000000
  -V(xc)+E(xc)   XCENC  =      1247.78026845
  PAW double counting   =     36294.92540348   -39298.18060312
  entropy T*S    EENTRO =        -0.04415974
  eigenvalues    EBANDS =      -644.20052423
  atomic energy  EATOM  =     38946.81392559
  Solvation  Ediel_sol  =         0.00000000
  ---------------------------------------------------
  free energy    TOTEN  =       -94.73068356 eV

  energy without entropy =      -94.68652382  energy(sigma->0) =      -94.71596364


--------------------------------------------------------------------------------------------------------




--------------------------------------- Iteration      1(  18)  ---------------------------------------


    POTLOK:  cpu time      0.0584: real time      0.0591
    SETDIJ:  cpu time      0.0116: real time      0.0116
     EDDAV:  cpu time      5.8029: real time      5.8475
       DOS:  cpu time      0.0026: real time      0.0026
    CHARGE:  cpu time      0.4015: real time      0.4036
    MIXING:  cpu time      0.0091: real time      0.0092
    --------------------------------------------
      LOOP:  cpu time      6.2860: real time      6.3336

 eigenvalue-minimisations  :  3472
 total energy-change (2. order) :-0.7524987E+00  (-0.4501556E-01)
 number of electron     308.0003017 magnetization       1.0427537
 augmentation part      196.7957761 magnetization       0.6737602

 Broyden mixing:
  rms(total) = 0.56194E-01    rms(broyden)= 0.56173E-01
  rms(prec ) = 0.60559E-01
  weight for this iteration     100.00

 eigenvalues of (default mixing * dielectric matrix)
  average eigenvalue GAMMA=   1.8214
 11.5388  3.4285  2.0440  1.1515  1.1515  0.8305  0.8305  0.7340  0.6198  0.3592
  0.3827  0.3827  0.2245

 Free energy of the ion-electron system (eV)
  ---------------------------------------------------
  alpha Z        PSCENC =       677.69866932
  Ewald energy   TEWEN  =    130853.55301802
  -Hartree energ DENC   =   -168157.11824372
  -exchange      EXHF   =         0.00000000
  -V(xc)+E(xc)   XCENC  =      1247.29141159
  PAW double counting   =     36312.79671240   -39319.40346720
  entropy T*S    EENTRO =        -0.04844793
  eigenvalues    EBANDS =      -657.06676038
  atomic energy  EATOM  =     38946.81392559
  Solvation  Ediel_sol  =         0.00000000
  ---------------------------------------------------
  free energy    TOTEN  =       -95.48318231 eV

  energy without entropy =      -95.43473438  energy(sigma->0) =      -95.46703300


--------------------------------------------------------------------------------------------------------




--------------------------------------- Iteration      1(  19)  ---------------------------------------


    POTLOK:  cpu time      0.0589: real time      0.0623
    SETDIJ:  cpu time      0.0121: real time      0.0121
     EDDAV:  cpu time      6.0594: real time      6.1063
       DOS:  cpu time      0.0025: real time      0.0025
    CHARGE:  cpu time      0.4094: real time      0.4112
    MIXING:  cpu time      0.0091: real time      0.0092
    --------------------------------------------
      LOOP:  cpu time      6.5515: real time      6.6036

 eigenvalue-minimisations  :  3672
 total energy-change (2. order) :-0.3840481E+00  (-0.9838060E-02)
 number of electron     308.0003015 magnetization       0.8029865
 augmentation part      196.6856818 magnetization       0.5483732

 Broyden mixing:
  rms(total) = 0.46179E-01    rms(broyden)= 0.46169E-01
  rms(prec ) = 0.55163E-01
  weight for this iteration     100.00

 eigenvalues of (default mixing * dielectric matrix)
  average eigenvalue GAMMA=   1.8014
 11.7569  3.4812  2.5327  1.3545  1.1619  0.8344  0.8344  0.6417  0.6417  0.6297
  0.3591  0.3830  0.3830  0.2260

 Free energy of the ion-electron system (eV)
  ---------------------------------------------------
  alpha Z        PSCENC =       677.69866932
  Ewald energy   TEWEN  =    130853.55301802
  -Hartree energ DENC   =   -168145.14633447
  -exchange      EXHF   =         0.00000000
  -V(xc)+E(xc)   XCENC  =      1247.01678500
  PAW double counting   =     36345.06645737   -39355.39188252
  entropy T*S    EENTRO =        -0.05014916
  eigenvalues    EBANDS =      -665.42771960
  atomic energy  EATOM  =     38946.81392559
  Solvation  Ediel_sol  =         0.00000000
  ---------------------------------------------------
  free energy    TOTEN  =       -95.86723044 eV

  energy without entropy =      -95.81708128  energy(sigma->0) =      -95.85051405


--------------------------------------------------------------------------------------------------------




--------------------------------------- Iteration      1(  20)  ---------------------------------------


    POTLOK:  cpu time      0.0586: real time      0.0591
    SETDIJ:  cpu time      0.0117: real time      0.0117
     EDDAV:  cpu time      6.6674: real time      6.7190
       DOS:  cpu time      0.0026: real time      0.0026
    CHARGE:  cpu time      0.4241: real time      0.4262
    MIXING:  cpu time      0.0095: real time      0.0096
    --------------------------------------------
      LOOP:  cpu time      7.1739: real time      7.2282

 eigenvalue-minimisations  :  4136
 total energy-change (2. order) :-0.1988890E+00  (-0.4131876E-02)
 number of electron     308.0003016 magnetization       0.6102049
 augmentation part      196.6902812 magnetization       0.4506675

 Broyden mixing:
  rms(total) = 0.38666E-01    rms(broyden)= 0.38659E-01
  rms(prec ) = 0.42546E-01
  weight for this iteration     100.00

 eigenvalues of (default mixing * dielectric matrix)
  average eigenvalue GAMMA=   1.7936
 11.9538  3.6038  3.0900  1.5668  1.0965  0.8681  0.8681  0.7521  0.7521  0.6271
  0.3851  0.3851  0.3620  0.3676  0.2263

 Free energy of the ion-electron system (eV)
  ---------------------------------------------------
  alpha Z        PSCENC =       677.69866932
  Ewald energy   TEWEN  =    130853.55301802
  -Hartree energ DENC   =   -168127.64603805
  -exchange      EXHF   =         0.00000000
  -V(xc)+E(xc)   XCENC  =      1246.74073414
  PAW double counting   =     36359.06546594   -39370.95373536
  entropy T*S    EENTRO =        -0.04960481
  eigenvalues    EBANDS =      -681.28855428
  atomic energy  EATOM  =     38946.81392559
  Solvation  Ediel_sol  =         0.00000000
  ---------------------------------------------------
  free energy    TOTEN  =       -96.06611947 eV

  energy without entropy =      -96.01651467  energy(sigma->0) =      -96.04958454


--------------------------------------------------------------------------------------------------------




--------------------------------------- Iteration      1(  21)  ---------------------------------------


    POTLOK:  cpu time      0.0607: real time      0.0612
    SETDIJ:  cpu time      0.0125: real time      0.0126
     EDDAV:  cpu time      6.6896: real time      6.7410
       DOS:  cpu time      0.0025: real time      0.0025
    CHARGE:  cpu time      0.4188: real time      0.4209
    MIXING:  cpu time      0.0095: real time      0.0095
    --------------------------------------------
      LOOP:  cpu time      7.1937: real time      7.2477

 eigenvalue-minimisations  :  4168
 total energy-change (2. order) :-0.1404722E+00  (-0.2406916E-02)
 number of electron     308.0003016 magnetization       0.4556954
 augmentation part      196.7447924 magnetization       0.3560336

 Broyden mixing:
  rms(total) = 0.26733E-01    rms(broyden)= 0.26729E-01
  rms(prec ) = 0.30018E-01
  weight for this iteration     100.00

 eigenvalues of (default mixing * dielectric matrix)
  average eigenvalue GAMMA=   1.7852
 11.9561  3.5567  3.5567  1.7816  1.1035  1.1035  0.8511  0.8511  0.7226  0.7226
  0.6270  0.3595  0.3839  0.3839  0.3771  0.2260

 Free energy of the ion-electron system (eV)
  ---------------------------------------------------
  alpha Z        PSCENC =       677.69866932
  Ewald energy   TEWEN  =    130853.55301802
  -Hartree energ DENC   =   -168111.52224227
  -exchange      EXHF   =         0.00000000
  -V(xc)+E(xc)   XCENC  =      1246.46168382
  PAW double counting   =     36364.65466526   -39376.76720642
  entropy T*S    EENTRO =        -0.04866346
  eigenvalues    EBANDS =      -697.05044150
  atomic energy  EATOM  =     38946.81392559
  Solvation  Ediel_sol  =         0.00000000
  ---------------------------------------------------
  free energy    TOTEN  =       -96.20659164 eV

  energy without entropy =      -96.15792818  energy(sigma->0) =      -96.19037049


--------------------------------------------------------------------------------------------------------




--------------------------------------- Iteration      1(  22)  ---------------------------------------


    POTLOK:  cpu time      0.0587: real time      0.0601
    SETDIJ:  cpu time      0.0116: real time      0.0116
     EDDAV:  cpu time      6.5044: real time      6.5549
       DOS:  cpu time      0.0024: real time      0.0024
    CHARGE:  cpu time      0.4099: real time      0.4117
    MIXING:  cpu time      0.0100: real time      0.0100
    --------------------------------------------
      LOOP:  cpu time      6.9970: real time      7.0507

 eigenvalue-minimisations  :  4024
 total energy-change (2. order) :-0.2153581E+00  (-0.2333481E-02)
 number of electron     308.0003018 magnetization       0.2224843
 augmentation part      196.8239687 magnetization       0.1335771

 Broyden mixing:
  rms(total) = 0.26472E-01    rms(broyden)= 0.26470E-01
  rms(prec ) = 0.28029E-01
  weight for this iteration     100.00

 eigenvalues of (default mixing * dielectric matrix)
  average eigenvalue GAMMA=   1.7882
 12.0589  3.9388  3.9388  1.9109  1.1915  1.1915  0.8851  0.8851  0.7418  0.7418
  0.6338  0.5445  0.3593  0.3826  0.3826  0.3866  0.2260

 Free energy of the ion-electron system (eV)
  ---------------------------------------------------
  alpha Z        PSCENC =       677.69866932
  Ewald energy   TEWEN  =    130853.55301802
  -Hartree energ DENC   =   -168096.58469513
  -exchange      EXHF   =         0.00000000
  -V(xc)+E(xc)   XCENC  =      1246.10101731
  PAW double counting   =     36366.69562081   -39377.93517007
  entropy T*S    EENTRO =        -0.04821833
  eigenvalues    EBANDS =      -712.71611725
  atomic energy  EATOM  =     38946.81392559
  Solvation  Ediel_sol  =         0.00000000
  ---------------------------------------------------
  free energy    TOTEN  =       -96.42194971 eV

  energy without entropy =      -96.37373139  energy(sigma->0) =      -96.40587694


--------------------------------------------------------------------------------------------------------




--------------------------------------- Iteration      1(  23)  ---------------------------------------


    POTLOK:  cpu time      0.0585: real time      0.0590
    SETDIJ:  cpu time      0.0116: real time      0.0117
     EDDAV:  cpu time      6.5481: real time      6.5993
       DOS:  cpu time      0.0035: real time      0.0035
    CHARGE:  cpu time      0.4080: real time      0.4097
    MIXING:  cpu time      0.0097: real time      0.0098
    --------------------------------------------
      LOOP:  cpu time      7.0394: real time      7.0930

 eigenvalue-minimisations  :  4056
 total energy-change (2. order) :-0.1318834E+00  (-0.1001110E-02)
 number of electron     308.0003017 magnetization       0.1249273
 augmentation part      196.7990795 magnetization       0.1084952

 Broyden mixing:
  rms(total) = 0.15166E-01    rms(broyden)= 0.15163E-01
  rms(prec ) = 0.16742E-01
  weight for this iteration     100.00

 eigenvalues of (default mixing * dielectric matrix)
  average eigenvalue GAMMA=   1.8530
 12.1226  5.0357  4.1266  2.2674  1.6306  0.9857  0.9857  0.8554  0.8554  0.8043
  0.6754  0.6754  0.6028  0.3594  0.3833  0.3833  0.3784  0.2260

 Free energy of the ion-electron system (eV)
  ---------------------------------------------------
  alpha Z        PSCENC =       677.69866932
  Ewald energy   TEWEN  =    130853.55301802
  -Hartree energ DENC   =   -168084.90111127
  -exchange      EXHF   =         0.00000000
  -V(xc)+E(xc)   XCENC  =      1246.03790195
  PAW double counting   =     36363.82541662   -39375.42352189
  entropy T*S    EENTRO =        -0.04765044
  eigenvalues    EBANDS =      -724.11048106
  atomic energy  EATOM  =     38946.81392559
  Solvation  Ediel_sol  =         0.00000000
  ---------------------------------------------------
  free energy    TOTEN  =       -96.55383315 eV

  energy without entropy =      -96.50618271  energy(sigma->0) =      -96.53794967


--------------------------------------------------------------------------------------------------------




--------------------------------------- Iteration      1(  24)  ---------------------------------------


    POTLOK:  cpu time      0.0595: real time      0.0609
    SETDIJ:  cpu time      0.0116: real time      0.0117
     EDDAV:  cpu time      5.9598: real time      6.0058
       DOS:  cpu time      0.0030: real time      0.0030
    CHARGE:  cpu time      0.4035: real time      0.4055
    MIXING:  cpu time      0.0096: real time      0.0096
    --------------------------------------------
      LOOP:  cpu time      6.4470: real time      6.4965

 eigenvalue-minimisations  :  3600
 total energy-change (2. order) :-0.1388476E+00  (-0.5593384E-03)
 number of electron     308.0003016 magnetization       0.0695771
[...]
 -7.792  -0.000   0.000   0.000  -0.000  -1.037   0.000  -0.000
 -0.000  -7.772  -0.000  -0.000   0.000   0.000  -1.053   0.000
  0.000  -0.000  -7.758  -0.000  -0.026  -0.000   0.000  -1.065
  0.000  -0.000  -0.000  -7.746  -0.000  -0.000   0.000   0.000
 -0.000   0.000  -0.026  -0.000  -7.791   0.000  -0.000   0.020
 -1.037   0.000  -0.000  -0.000   0.000   7.723  -0.000   0.000
  0.000  -1.053   0.000   0.000  -0.000  -0.000   7.738  -0.000
 -0.000   0.000  -1.065   0.000   0.020   0.000  -0.000   7.746
 -0.000   0.000   0.000  -1.074   0.000  -0.000  -0.000  -0.000
  0.000  -0.000   0.020   0.000  -1.037  -0.000   0.000  -0.015
  0.000   0.000  -0.007   0.000  -0.006   0.000   0.000   0.004
  0.000   0.000  -0.012   0.000  -0.010   0.000   0.000   0.008
  0.000  -0.018  -0.000   0.000  -0.000  -0.000   0.014   0.000
  0.000   0.000  -0.019   0.000   0.001   0.000  -0.000   0.013
  0.000   0.000  -0.000  -0.016   0.000  -0.000   0.000   0.000
  0.000  -0.020  -0.000  -0.000  -0.000   0.000   0.015  -0.000
 -0.000   0.000  -0.021   0.000   0.001   0.000   0.000   0.014
  0.000  -0.000  -0.000  -0.017   0.000   0.000   0.000  -0.000
 pseudopotential strength for first ion, spin component:           2
 -7.792  -0.000   0.000   0.000  -0.000  -1.037   0.000  -0.000
 -0.000  -7.772  -0.000  -0.000   0.000   0.000  -1.053   0.000
  0.000  -0.000  -7.758  -0.000  -0.026  -0.000   0.000  -1.065
  0.000  -0.000  -0.000  -7.746  -0.000  -0.000   0.000   0.000
 -0.000   0.000  -0.026  -0.000  -7.791   0.000  -0.000   0.020
 -1.037   0.000  -0.000  -0.000   0.000   7.723  -0.000   0.000
  0.000  -1.053   0.000   0.000  -0.000  -0.000   7.738  -0.000
 -0.000   0.000  -1.065   0.000   0.020   0.000  -0.000   7.746
 -0.000   0.000   0.000  -1.074   0.000  -0.000  -0.000  -0.000
  0.000  -0.000   0.020   0.000  -1.037  -0.000   0.000  -0.015
  0.000   0.000  -0.007   0.000  -0.006   0.000   0.000   0.004
  0.000   0.000  -0.012   0.000  -0.010   0.000   0.000   0.008
  0.000  -0.018  -0.000   0.000  -0.000  -0.000   0.014   0.000
  0.000   0.000  -0.019   0.000   0.001   0.000  -0.000   0.013
  0.000   0.000  -0.000  -0.016   0.000  -0.000   0.000   0.000
  0.000  -0.020  -0.000  -0.000  -0.000   0.000   0.015  -0.000
 -0.000   0.000  -0.021   0.000   0.001   0.000   0.000   0.014
  0.000  -0.000  -0.000  -0.017   0.000   0.000   0.000  -0.000
 total augmentation occupancy for first ion, spin component:           1
  1.916  -0.000   0.000   0.000  -0.000  -0.017   0.000   0.000  -0.000   0.000  -0.000  -0.000   0.000  -0.000   0.000   0.000
 -0.000   1.944   0.000   0.000  -0.000   0.000  -0.029   0.000   0.000   0.000   0.000   0.000   0.018   0.000   0.000  -0.021
  0.000   0.000   1.936  -0.000  -0.013   0.000   0.000  -0.021   0.000   0.010   0.005   0.009  -0.000   0.055  -0.000   0.000
  0.000   0.000   0.000   1.938  -0.000   0.000  -0.000   0.000  -0.027   0.000   0.000   0.000   0.000  -0.000   0.063  -0.000
 -0.000  -0.000  -0.013   0.000   1.917  -0.000  -0.000   0.010   0.000  -0.018  -0.007   0.005   0.000   0.027  -0.000   0.000
 -0.017   0.000   0.000   0.000  -0.000   0.008   0.000  -0.000   0.000  -0.000  -0.000  -0.000   0.000   0.000   0.000   0.000
  0.000  -0.029   0.000  -0.000  -0.000   0.000   0.009   0.000   0.000   0.000   0.000   0.000   0.021   0.000  -0.000  -0.001
  0.000   0.000  -0.021   0.000   0.010   0.000   0.000   0.010   0.000   0.002  -0.018  -0.000   0.000   0.019   0.000   0.000
 -0.000   0.000  -0.000  -0.027   0.000   0.000   0.000   0.000   0.010   0.000   0.000   0.000  -0.000   0.000   0.026   0.000
 -0.000   0.000   0.010  -0.000  -0.018   0.000   0.000   0.002  -0.000   0.010  -0.024   0.001   0.000   0.002   0.000   0.000
 -0.000   0.000   0.005   0.000  -0.007   0.000   0.000  -0.018   0.000  -0.024   1.600  -0.115   0.000   0.194   0.000   0.000
  0.000   0.000   0.009   0.000   0.005  -0.000   0.000  -0.000   0.000   0.001  -0.115   0.014   0.000  -0.026  -0.000   0.000
 -0.000   0.018   0.000  -0.000  -0.000   0.000   0.021   0.000  -0.000   0.000   0.000   0.000   0.175   0.000  -0.000  -0.010
 -0.000   0.000   0.055   0.000   0.027  -0.000   0.000   0.019   0.000   0.002   0.194  -0.026   0.000   0.103   0.000   0.000
  0.000   0.000  -0.000   0.063   0.000   0.000   0.000   0.000   0.026  -0.000  -0.000  -0.000   0.000  -0.000   0.134   0.000
  0.000  -0.021   0.000  -0.000   0.000   0.000  -0.001   0.000   0.000   0.000   0.000   0.000  -0.010   0.000   0.000   0.001
  0.000  -0.000  -0.026   0.000  -0.001  -0.000  -0.000  -0.001  -0.000  -0.000  -0.026   0.003  -0.000  -0.009  -0.000   0.000
  0.000  -0.000  -0.000  -0.024  -0.000   0.000   0.000   0.000  -0.001   0.000   0.000   0.000   0.000  -0.000  -0.008   0.000
 total augmentation occupancy for first ion, spin component:           2
  0.000   0.000  -0.000  -0.000  -0.000   0.000   0.000   0.000  -0.000   0.000   0.000   0.000  -0.000  -0.000   0.000  -0.000
  0.000   0.000   0.000   0.000   0.000   0.000   0.000   0.000   0.000  -0.000   0.000   0.000   0.000   0.000   0.000  -0.000
 -0.000   0.000   0.000   0.000  -0.000  -0.000   0.000   0.000  -0.000   0.000   0.000  -0.000   0.000   0.000   0.000   0.000
 -0.000   0.000   0.000  -0.000   0.000   0.000  -0.000   0.000  -0.000  -0.000   0.000   0.000   0.000  -0.000   0.000  -0.000
 -0.000   0.000  -0.000   0.000  -0.000   0.000   0.000  -0.000   0.000  -0.000   0.000  -0.000   0.000   0.000   0.000   0.000
  0.000  -0.000  -0.000   0.000   0.000   0.000   0.000   0.000   0.000   0.000   0.000   0.000  -0.000   0.000   0.000   0.000
  0.000   0.000   0.000  -0.000   0.000   0.000   0.000   0.000   0.000   0.000   0.000   0.000   0.000   0.000   0.000  -0.000
  0.000   0.000   0.000   0.000  -0.000   0.000   0.000   0.000   0.000   0.000   0.000  -0.000  -0.000   0.000   0.000   0.000
 -0.000   0.000  -0.000  -0.000  -0.000   0.000   0.000   0.000  -0.000  -0.000   0.000   0.000  -0.000   0.000  -0.000   0.000
  0.000  -0.000   0.000  -0.000  -0.000   0.000   0.000   0.000  -0.000  -0.000   0.000  -0.000   0.000   0.000   0.000   0.000
  0.000   0.000   0.000   0.000   0.000   0.000   0.000   0.000   0.000   0.000  -0.000   0.000   0.000  -0.000   0.000   0.000
  0.000   0.000  -0.000   0.000  -0.000   0.000   0.000  -0.000   0.000  -0.000   0.000  -0.000   0.000   0.000   0.000   0.000
 -0.000   0.000   0.000   0.000   0.000   0.000   0.000   0.000  -0.000   0.000   0.000   0.000   0.000   0.000  -0.000  -0.000
 -0.000   0.000   0.000  -0.000   0.000   0.000   0.000   0.000   0.000   0.000  -0.000   0.000   0.000   0.000   0.000   0.000
  0.000   0.000   0.000   0.000   0.000   0.000   0.000   0.000  -0.000   0.000  -0.000   0.000  -0.000   0.000  -0.000   0.000
  0.000  -0.000   0.000  -0.000   0.000   0.000  -0.000   0.000   0.000   0.000   0.000   0.000  -0.000  -0.000   0.000   0.000
  0.000   0.000  -0.000   0.000   0.000   0.000   0.000  -0.000  -0.000  -0.000  -0.000   0.000  -0.000  -0.000   0.000   0.000
  0.000  -0.000   0.000  -0.000   0.000   0.000  -0.000   0.000   0.000  -0.000   0.000   0.000   0.000  -0.000   0.000  -0.000


------------------------ aborting loop because EDIFF is reached ----------------------------------------



 DIPCOR: dipole corrections for dipol
 direction  3 min pos   155,
 dipolmoment           0.000000      0.000000      0.016846 electrons x Angstroem
 Tr[quadrupol]     -2389.136947

 energy correction for charged system         0.000000 eV
 dipol+quadrupol energy correction            0.000030 eV
 added-field ion interaction          0.000000 eV  (added to PSCEN)

 
  *************** adding dipol energy to TOTEN NOW **************** 
    CHARGE:  cpu time      0.4064: real time      0.4084
    FORLOC:  cpu time      0.0101: real time      0.0102
    FORNL :  cpu time      5.2083: real time      5.2292
    STRESS:  cpu time      4.0836: real time      4.1103
    FORCOR:  cpu time      0.0651: real time      0.0655
    FORHAR:  cpu time      0.0124: real time      0.0125
    MIXING:  cpu time      0.0018: real time      0.0018
    OFIELD:  cpu time      0.0000: real time      0.0000

 ---------------------------------------------------------------------------------------------

         DFTD3 V3.0 Rev 1        
 Edisp (eV)  -10.17180

 E6    (eV) :    -4.0083
 E8    (eV) :    -6.1635
 % E8        : 60.59
    FORVDW:  cpu time      0.1120: real time      0.1125

  FORCE on cell =-STRESS in cart. coord.  units (eV):
  Direction    XX          YY          ZZ          XY          YZ          ZX
  --------------------------------------------------------------------------------------
  Alpha Z   677.69867   677.69867   677.69867
  Ewald  157291.56141157929.65003************    -0.00000     0.00000    -0.00000
  Hartree167804.54525168248.11543************    -0.00000    -0.00000    -0.00000
  E(xc)   -1799.34088 -1798.61341 -1801.35068    -0.00000     0.00000     0.00000
  Local  ************************335627.66855     0.00000    -0.00000     0.00000
  n-local  -608.40737  -603.57930  -610.87690     2.75021     0.00000    -0.00000
  augment  2649.81258  2647.22694  2651.82409     0.00000     0.00000    -0.00000
  Kinetic  2514.21999  2511.38102  2518.95029     1.33820    -0.00000     0.00000
  Fock        0.00000     0.00000     0.00000     0.00000     0.00000     0.00000
  vdW       -12.46815   -12.49833    -8.06460    -0.00000     0.00000    -0.00000
  -------------------------------------------------------------------------------------
  Total     -14.51419   -13.50964    -3.53893     0.00000     0.00000     0.00000
  in kB     -27.48600   -25.58366    -6.70179     0.00000     0.00000     0.00000
  external pressure =      -19.92 kB  Pullay stress =        0.00 kB


 VOLUME and BASIS-vectors are now :
 -----------------------------------------------------------------------------
  energy-cutoff  :      400.00
  volume of cell :      846.04
      direct lattice vectors                 reciprocal lattice vectors
     7.260000229  0.000000000  0.000000000     0.137741042  0.000000000  0.000000000
     0.000000000  5.133595467  0.000000000     0.000000000  0.194795248  0.000000000
     0.000000000  0.000000000 22.700393000     0.000000000  0.000000000  0.044052101

  length of vectors
     7.260000229  5.133595467 22.700393000     0.137741042  0.194795248  0.044052101


 FORCES acting on ions
    electron-ion (+dipol)            ewald-force                    non-local-force                 convergence-correction
 -----------------------------------------------------------------------------------------------
   -.851E-13 -.663E-12 0.412E+04   -.304E-06 -.144E-06 -.412E+04   0.000E+00 0.132E-22 -.541E+01   0.323E-09 0.155E-09 -.118E-01
   -.820E-13 0.116E-05 0.412E+04   -.304E-06 0.196E-06 -.412E+04   -.662E-23 0.662E-23 -.541E+01   0.324E-09 -.273E-09 -.118E-01
   0.183E-05 -.134E-11 0.412E+04   0.164E-06 -.144E-06 -.412E+04   -.199E-22 0.000E+00 -.541E+01   -.633E-09 0.156E-09 -.118E-01
   0.183E-05 0.116E-05 0.412E+04   0.164E-06 0.196E-06 -.412E+04   0.000E+00 0.132E-22 -.541E+01   -.634E-09 -.273E-09 -.118E-01
   0.837E-06 -.132E-05 0.293E+04   -.164E-06 -.236E-06 -.293E+04   -.265E-22 0.000E+00 -.312E+00   0.373E-09 0.205E-09 0.841E-01
   0.837E-06 -.188E-06 0.293E+04   -.164E-06 0.129E-06 -.293E+04   0.000E+00 0.000E+00 -.312E+00   0.373E-09 0.430E-10 0.841E-01
   0.251E-05 -.132E-05 0.293E+04   0.451E-06 -.236E-06 -.293E+04   0.331E-22 0.000E+00 -.312E+00   0.622E-11 0.203E-09 0.841E-01
   0.251E-05 -.188E-06 0.293E+04   0.451E-06 0.129E-06 -.293E+04   0.662E-23 0.000E+00 -.312E+00   0.604E-11 0.464E-10 0.841E-01
   -.825E-13 0.603E-12 0.146E+04   -.500E-06 -.149E-06 -.146E+04   0.000E+00 0.000E+00 -.575E+00   0.455E-09 0.222E-09 -.218E+00
   -.735E-13 0.113E-05 0.146E+04   -.500E-06 0.259E-06 -.146E+04   0.000E+00 -.662E-23 -.575E+00   0.456E-09 -.363E-09 -.218E+00
   0.169E-05 -.548E-12 0.146E+04   0.207E-06 -.149E-06 -.146E+04   0.000E+00 -.662E-23 -.575E+00   -.797E-09 0.222E-09 -.218E+00
   0.169E-05 0.113E-05 0.146E+04   0.207E-06 0.259E-06 -.146E+04   0.000E+00 0.662E-23 -.575E+00   -.798E-09 -.363E-09 -.218E+00
   0.842E-06 -.132E-05 -.723E+01   -.200E-06 -.259E-06 0.703E+01   -.132E-22 -.132E-22 -.908E-01   0.126E-09 0.448E-10 0.272E+00
   0.842E-06 -.188E-06 -.723E+01   -.200E-06 0.147E-06 0.703E+01   -.132E-22 -.207E-22 -.908E-01   0.125E-09 0.107E-10 0.272E+00
   0.253E-05 -.132E-05 -.723E+01   0.499E-06 -.259E-06 0.703E+01   0.265E-22 -.132E-22 -.908E-01   0.445E-10 0.434E-10 0.272E+00
   0.253E-05 -.188E-06 -.723E+01   0.499E-06 0.147E-06 0.703E+01   -.132E-22 -.194E-22 -.908E-01   0.450E-10 0.110E-10 0.272E+00
   -.756E-13 -.325E-12 -.142E+04   -.495E-06 -.151E-06 0.142E+04   0.265E-22 0.000E+00 0.120E+01   -.102E-09 -.175E-10 -.240E+00
   -.829E-13 0.113E-05 -.142E+04   -.495E-06 0.258E-06 0.142E+04   0.265E-22 -.662E-23 0.120E+01   -.102E-09 -.126E-10 -.240E+00
   0.170E-05 -.154E-11 -.142E+04   0.209E-06 -.151E-06 0.142E+04   0.265E-22 -.662E-23 0.120E+01   -.439E-10 -.167E-10 -.240E+00
   0.170E-05 0.113E-05 -.142E+04   0.209E-06 0.258E-06 0.142E+04   0.265E-22 0.662E-23 0.120E+01   -.439E-10 -.138E-10 -.240E+00
   0.830E-06 -.131E-05 -.296E+04   -.163E-06 -.240E-06 0.297E+04   -.397E-22 0.000E+00 -.532E+00   -.204E-09 -.979E-10 0.138E+00
   0.830E-06 -.188E-06 -.296E+04   -.163E-06 0.127E-06 0.297E+04   0.000E+00 -.331E-23 -.532E+00   -.204E-09 0.455E-11 0.138E+00
   0.249E-05 -.131E-05 -.296E+04   0.462E-06 -.240E-06 0.297E+04   0.430E-22 -.662E-23 -.532E+00   0.531E-10 -.971E-10 0.138E+00
   0.249E-05 -.188E-06 -.296E+04   0.462E-06 0.127E-06 0.297E+04   0.298E-22 -.662E-23 -.532E+00   0.530E-10 0.429E-11 0.138E+00
   -.711E-13 -.100E-11 -.412E+04   -.332E-06 -.143E-06 0.412E+04   -.132E-22 0.000E+00 0.550E+01   -.417E-09 -.229E-09 -.300E+00
   -.784E-13 0.115E-05 -.412E+04   -.332E-06 0.206E-06 0.412E+04   -.132E-22 -.662E-23 0.550E+01   -.418E-09 0.296E-09 -.300E+00
   0.180E-05 0.496E-12 -.412E+04   0.166E-06 -.143E-06 0.412E+04   0.199E-22 0.000E+00 0.550E+01   0.756E-09 -.229E-09 -.300E+00
   0.180E-05 0.115E-05 -.412E+04   0.166E-06 0.206E-06 0.412E+04   0.132E-22 -.132E-22 0.550E+01   0.757E-09 0.297E-09 -.300E+00
 -----------------------------------------------------------------------------------------------
   0.341E-04 0.136E-06 0.187E+01   -.936E-13 0.107E-12 -.909E-12   0.119E-21 -.831E-22 -.859E+00   -.121E-09 -.205E-10 -.110E+01
 
 
 POSITION                                       TOTAL-FORCE (eV/Angst)
 -----------------------------------------------------------------------------------
      0.00000      0.00000      0.00000         0.000000     -0.000000      0.462012
      0.00000      2.56680      0.00000        -0.000000      0.000000      0.462012
      3.63000      0.00000      0.00000         0.000000     -0.000000      0.462012
      3.63000      2.56680      0.00000         0.000000      0.000000      0.462012
      1.81500      1.28340      1.28340        -0.000000     -0.000000     -0.447559
      1.81500      3.85020      1.28340         0.000000     -0.000000     -0.447559
      5.44500      1.28340      1.28340         0.000000     -0.000000     -0.447559
      5.44500      3.85020      1.28340        -0.000000     -0.000000     -0.447559
      0.00000      0.00000      2.51669         0.000000     -0.000000     -0.001217
     -0.00000      2.56680      2.51669         0.000000      0.000000     -0.001217
      3.63000     -0.00000      2.51669         0.000000     -0.000000     -0.001217
      3.63000      2.56680      2.51669         0.000000     -0.000000     -0.001217
      1.81500      1.28340      3.76382        -0.000000      0.000000     -0.000578
      1.81500      3.85020      3.76382        -0.000000     -0.000000     -0.000578
      5.44500      1.28340      3.76382         0.000000      0.000000     -0.000578
      5.44500      3.85020      3.76382         0.000000     -0.000000     -0.000578
      0.00000     -0.00000      4.97730        -0.000000      0.000000      0.003907
      0.00000      2.56680      4.97730        -0.000000      0.000000      0.003907
      3.63000     -0.00000      4.97730        -0.000000     -0.000000      0.003907
      3.63000      2.56680      4.97730        -0.000000     -0.000000      0.003907
      1.81500      1.28340      6.28119        -0.000000      0.000000      0.004955
      1.81500      3.85020      6.28119         0.000000      0.000000      0.004955
      5.44500      1.28340      6.28119        -0.000000      0.000000      0.004955
      5.44500      3.85020      6.28119        -0.000000      0.000000      0.004955
     -0.00000     -0.00000      7.42640        -0.000000     -0.000000     -0.021520
     -0.00000      2.56680      7.42640         0.000000     -0.000000     -0.021520
      3.63000     -0.00000      7.42640        -0.000000      0.000000     -0.021520
      3.63000      2.56680      7.42640        -0.000000      0.000000     -0.021520
 -----------------------------------------------------------------------------------
    total drift:                                0.000034      0.000000     -0.091751


--------------------------------------------------------------------------------------------------------



  FREE ENERGIE OF THE ION-ELECTRON SYSTEM (eV)
  ---------------------------------------------------
  free  energy   TOTEN  =      -106.99954410 eV

  energy  without entropy=     -106.99422693  energy(sigma->0) =     -106.99777171
 
 d Force = 0.2041139E-02[ 0.412E-03, 0.367E-02]  d Energy = 0.2059204E-02-0.181E-04
 d Force =-0.5160292E+02[-0.515E+02,-0.517E+02]  d Ewald  =-0.5160291E+02-0.130E-04


--------------------------------------------------------------------------------------------------------


    POTLOK:  cpu time      0.0736: real time      0.0740


--------------------------------------------------------------------------------------------------------


 stress matrix after NEB project (eV)
    -14.51419      0.00000      0.00000
      0.00000    -13.50964      0.00000
      0.00000      0.00000     -3.53893
  FORCES: max atom, RMS     0.021520    0.008492
  FORCE total and by dimension    0.044933    0.021520
  Stress total and by dimension   20.141895   14.514185
 Conjugate gradient step on ions:
 trial-energy change:   -0.002059  1 .order   -0.002041   -0.003670   -0.000412
  (g-gl).g = 0.124E-02      g.g   = 0.165E-02  gl.gl    = 0.112E-01
 g(Force)  = 0.165E-02   g(Stress)= 0.000E+00 ortho     =-0.205E-04
 gamma     =   0.11105
 trial     =   2.22464
 opt step  =   2.50598  (harmonic =   2.50598) maximal distance =0.00332547
 next E    =  -106.999552   (d E  =  -0.00207)


--------------------------------------------------------------------------------------------------------


  
 reached required accuracy - stopping structural energy minimisation
     LOOP+:  cpu time     35.9427: real time     36.2535
    4ORBIT:  cpu time      0.0000: real time      0.0000

 total amount of memory used by VASP MPI-rank0    61722. kBytes
=======================================================================

   base      :      30000. kBytes
   nonl-proj :       3141. kBytes
   fftplans  :       2418. kBytes
   grid      :       5651. kBytes
   one-center:        186. kBytes
   wavefun   :      20326. kBytes
 
  
  
 General timing and accounting informations for this job:
 ========================================================
  
                  Total CPU time used (sec):      917.144
                            User time (sec):      886.039
                          System time (sec):       31.104
                         Elapsed time (sec):      925.211
  
                   Maximum memory used (kb):      285460.
                   Average memory used (kb):          N/A
  
                          Minor page faults:       516727
                          Major page faults:         6722
                 Voluntary context switches:        10806
