<?xml version="1.0" encoding="ISO-8859-1"?>
<modeling>
 <generator>
  <i name="program" type="string">vasp </i>
  <i name="version" type="string">6.3.2  </i>
  <i name="subversion" type="string">27Jun22 (build Aug 17 2022 15:43:34) complex                          parallel </i>
  <i name="platform" type="string">tv2STDVTST </i>
  <i name="date" type="string">2025 01 21 </i>
  <i name="time" type="string">16:23:08 </i>
 </generator>
 <incar>
  <i type="int" name="ISTART">     0</i>
  <i type="string" name="PREC">Normal</i>
  <i type="int" name="ISPIN">     2</i>
  <i type="int" name="ICHARG">     2</i>
  <i type="int" name="IBRION">     2</i>
  <i name="EDIFF">      0.00020000</i>
  <i name="EDIFFG">     -0.03000000</i>
  <i type="int" name="NSW">   800</i>
  <i type="int" name="ISIF">     2</i>
  <i type="int" name="ISYM">     1</i>
  <i name="ENCUT">    400.00000000</i>
  <i name="POTIM">      0.50000000</i>
  <i type="logical" name="LREAL"> F  </i>
  <i type="int" name="ISMEAR">     1</i>
  <i name="SIGMA">      0.20000000</i>
  <i type="logical" name="LWAVE"> F  </i>
  <i type="logical" name="LCHARG"> F  </i>
  <i type="string" name="GGA">PE</i>
  <i type="int" name="IDIPOL">     3</i>
  <i type="int" name="IVDW">    11</i>
 </incar>
 <primitive_cell>
  <structure name="primitive_cell" >
   <crystal>
    <varray name="basis" >
     <v>       0.00000000      -2.56679773       0.00000000 </v>
     <v>       3.63000011       0.00000000       0.00000000 </v>
     <v>       0.00000000       0.00000000      22.70039300 </v>
    </varray>
    <i name="volume">    211.51036841 </i>
    <varray name="rec_basis" >
     <v>       0.00000000      -0.38959050       0.00000000 </v>
     <v>       0.27548209       0.00000000       0.00000000 </v>
     <v>       0.00000000       0.00000000       0.04405210 </v>
    </varray>
   </crystal>
   <varray name="positions" >
    <v>       0.00000000       0.00000000       0.00000000 </v>
    <v>       0.50000000       0.50000000       0.05653641 </v>
    <v>       0.00000000       0.00000000       0.11307283 </v>
    <v>       0.50000000       0.50000000       0.16960924 </v>
    <v>       0.00000000       0.00000000       0.22614566 </v>
    <v>       0.50000000       0.50000000       0.28268207 </v>
    <v>       0.00000000       0.00000000       0.33921849 </v>
   </varray>
  </structure>
  <varray name="primitive_index" >
   <v type="int" >        1 </v>
   <v type="int" >        6 </v>
   <v type="int" >        9 </v>
   <v type="int" >       14 </v>
   <v type="int" >       17 </v>
   <v type="int" >       22 </v>
   <v type="int" >       25 </v>
  </varray>
 </primitive_cell>
 <kpoints>
  <generation param="Monkhorst-Pack">
   <v type="int" name="divisions">       3        3        1 </v>
   <v name="usershift">      0.00000000       0.00000000       0.00000000 </v>
   <v name="genvec1">      0.33333333       0.00000000       0.00000000 </v>
   <v name="genvec2">      0.00000000       0.33333333       0.00000000 </v>
   <v name="genvec3">      0.00000000       0.00000000       1.00000000 </v>
   <v name="shift">      0.00000000       0.00000000       0.00000000 </v>
  </generation>
  <varray name="kpointlist" >
   <v>       0.00000000       0.00000000       0.00000000 </v>
   <v>       0.33333333       0.00000000       0.00000000 </v>
   <v>       0.00000000       0.33333333       0.00000000 </v>
   <v>       0.33333333       0.33333333       0.00000000 </v>
  </varray>
  <varray name="weights" >
   <v>       0.11111111 </v>
   <v>       0.22222222 </v>
   <v>       0.22222222 </v>
   <v>       0.44444444 </v>
  </varray>
 </kpoints>
 <parameters>
  <separator name="general" >
   <i type="string" name="SYSTEM">unknown system</i>
   <i type="logical" name="LCOMPAT"> F  </i>
  </separator>
  <separator name="electronic" >
   <i type="string" name="PREC">normal</i>
   <i name="ENMAX">    400.00000000</i>
   <i name="ENAUG">    586.98000000</i>
   <i name="EDIFF">      0.00020000</i>
   <i type="int" name="IALGO">    38</i>
   <i type="int" name="IWAVPR">    11</i>
   <i type="int" name="NBANDS">   200</i>
   <i type="int" name="NBANDSLOW">    -1</i>
   <i type="int" name="NBANDSHIGH">    -1</i>
   <i name="NELECT">    308.00000000</i>
   <i type="int" name="TURBO">     0</i>
   <i type="int" name="IRESTART">     0</i>
   <i type="int" name="NREBOOT">     0</i>
   <i type="int" name="NMIN">     0</i>
   <i name="EREF">      0.00000000</i>
   <separator name="electronic smearing" >
    <i type="int" name="ISMEAR">     1</i>
    <i name="SIGMA">      0.20000000</i>
    <i name="KSPACING">      0.50000000</i>
    <i type="logical" name="KGAMMA"> T  </i>
    <i type="logical" name="KBLOWUP"> T  </i>
   </separator>
   <separator name="electronic projectors" >
    <i type="logical" name="LREAL"> F  </i>
    <v name="ROPT">      0.00000000</v>
    <i type="int" name="LMAXPAW">  -100</i>
    <i type="int" name="LMAXMIX">     2</i>
    <i type="logical" name="NLSPLINE"> F  </i>
   </separator>
   <separator name="electronic startup" >
    <i type="int" name="ISTART">     0</i>
    <i type="int" name="ICHARG">     2</i>
    <i type="int" name="INIWAV">     1</i>
   </separator>
   <separator name="electronic spin" >
    <i type="int" name="ISPIN">     2</i>
    <i type="logical" name="LNONCOLLINEAR"> F  </i>
    <v name="MAGMOM">      1.00000000      1.00000000      1.00000000      1.00000000      1.00000000      1.00000000      1.00000000      1.00000000      1.00000000      1.00000000      1.00000000      1.00000000      1.00000000      1.00000000      1.00000000      1.00000000      1.00000000      1.00000000      1.00000000      1.00000000
      1.00000000      1.00000000      1.00000000      1.00000000      1.00000000      1.00000000      1.00000000      1.00000000</v>
    <i name="NUPDOWN">     -1.00000000</i>
    <i type="logical" name="LSORBIT"> F  </i>
    <v name="SAXIS">      0.00000000      0.00000000      1.00000000</v>
    <i type="logical" name="LSPIRAL"> F  </i>
    <v name="QSPIRAL">      0.00000000      0.00000000      0.00000000</v>
    <i type="logical" name="LZEROZ"> F  </i>
   </separator>
   <separator name="electronic exchange-correlation" >
    <i type="logical" name="LASPH"> F  </i>
    <i type="logical" name="LMETAGGA"> F  </i>
   </separator>
   <separator name="electronic convergence" >
    <i type="int" name="NELM">    60</i>
    <i type="int" name="NELMDL">    -5</i>
    <i type="int" name="NELMIN">     2</i>
    <i name="ENINI">    400.00000000</i>
    <separator name="electronic convergence detail" >
     <i type="logical" name="LDIAG"> T  </i>
     <i type="logical" name="LSUBROT"> F  </i>
     <i name="WEIMIN">      0.00100000</i>
     <i name="EBREAK">      0.00000025</i>
     <i name="DEPER">      0.30000000</i>
     <i type="int" name="NRMM">     4</i>
     <i name="TIME">      0.40000000</i>
    </separator>
   </separator>
   <separator name="electronic mixer" >
    <i name="AMIX">      0.40000000</i>
    <i name="BMIX">      1.00000000</i>
    <i name="AMIN">      0.10000000</i>
    <i name="AMIX_MAG">      1.60000000</i>
    <i name="BMIX_MAG">      1.00000000</i>
    <separator name="electronic mixer details" >
     <i type="int" name="IMIX">     4</i>
     <i type="logical" name="MIXFIRST"> F  </i>
     <i type="int" name="MAXMIX">   -45</i>
     <i name="WC">    100.00000000</i>
     <i type="int" name="INIMIX">     1</i>
     <i type="int" name="MIXPRE">     1</i>
     <i type="int" name="MREMOVE">     5</i>
    </separator>
   </separator>
   <separator name="electronic dipolcorrection" >
    <i type="logical" name="LDIPOL"> F  </i>
    <i type="logical" name="LMONO"> F  </i>
    <i type="int" name="IDIPOL">     3</i>
    <i name="EPSILON">      1.00000000</i>
    <v name="DIPOL">   -100.00000000   -100.00000000   -100.00000000</v>
    <i name="EFIELD">      0.00000000</i>
   </separator>
  </separator>
  <separator name="grids" >
   <i type="int" name="NGX">    36</i>
   <i type="int" name="NGY">    28</i>
   <i type="int" name="NGZ">   112</i>
   <i type="int" name="NGXF">    72</i>
   <i type="int" name="NGYF">    56</i>
   <i type="int" name="NGZF">   224</i>
   <i type="logical" name="ADDGRID"> F  </i>
  </separator>
  <separator name="ionic" >
   <i type="int" name="NSW">   800</i>
   <i type="int" name="IBRION">     2</i>
   <i type="int" name="MDALGO">     0</i>
   <i type="int" name="ISIF">     2</i>
   <i name="PSTRESS">      0.00000000</i>
   <i name="EDIFFG">     -0.03000000</i>
   <i type="int" name="NFREE">     1</i>
   <i name="POTIM">      0.50000000</i>
   <i name="SMASS">     -3.00000000</i>
   <i name="SCALEE">      1.00000000</i>
  </separator>
  <separator name="ionic md" >
   <i name="TEBEG">      0.00010000</i>
   <i name="TEEND">      0.00010000</i>
   <i type="int" name="NBLOCK">     1</i>
   <i type="int" name="KBLOCK">   800</i>
   <i type="int" name="NPACO">   256</i>
   <i name="APACO">     10.00000000</i>
  </separator>
  <separator name="symmetry" >
   <i type="int" name="ISYM">     1</i>
   <i name="SYMPREC">      0.00001000</i>
  </separator>
  <separator name="dos" >
   <i type="int" name="LORBIT">     0</i>
   <v name="RWIGS">     -1.00000000</v>
   <i type="int" name="NEDOS">   301</i>
   <i name="EMIN">     10.00000000</i>
   <i name="EMAX">    -10.00000000</i>
   <i name="EFERMI">      0.00000000</i>
  </separator>
  <separator name="writing" >
   <i type="int" name="NWRITE">     2</i>
   <i type="logical" name="LWAVE"> F  </i>
   <i type="logical" name="LDOWNSAMPLE"> F  </i>
   <i type="logical" name="LCHARG"> F  </i>
   <i type="logical" name="LPARD"> F  </i>
   <i type="logical" name="LVTOT"> F  </i>
   <i type="logical" name="LVHAR"> F  </i>
   <i type="logical" name="LELF"> F  </i>
   <i type="logical" name="LOPTICS"> F  </i>
   <v name="STM">      0.00000000      0.00000000      0.00000000      0.00000000      0.00000000      0.00000000      0.00000000</v>
  </separator>
  <separator name="performance" >
   <i type="int" name="NPAR">     4</i>
   <i type="int" name="NSIM">     4</i>
   <i type="int" name="NBLK">    -1</i>
   <i type="logical" name="LPLANE"> T  </i>
   <i type="logical" name="LSCALAPACK"> T  </i>
   <i type="logical" name="LSCAAWARE"> F  </i>
   <i type="logical" name="LSCALU"> F  </i>
   <i type="logical" name="LASYNC"> F  </i>
   <i type="logical" name="LORBITALREAL"> F  </i>
  </separator>
  <separator name="miscellaneous" >
   <i type="int" name="IDIOT">     3</i>
   <i type="int" name="PHON_NSTRUCT">    -1</i>
   <i type="logical" name="LMUSIC"> F  </i>
   <v name="POMASS">     63.54600000</v>
   <v name="DARWINR">      0.00000000</v>
   <v name="DARWINV">      1.00000000</v>
   <i type="logical" name="LCORR"> T  </i>
  </separator>
  <i type="logical" name="GGA_COMPAT"> T  </i>
  <i type="logical" name="LBERRY"> F  </i>
  <i type="int" name="ICORELEVEL">     0</i>
  <i type="logical" name="LDAU"> F  </i>
  <i type="int" name="I_CONSTRAINED_M">     0</i>
  <separator name="electronic exchange-correlation" >
   <i type="string" name="GGA">PE</i>
   <i type="int" name="VOSKOWN">     0</i>
   <i type="logical" name="LHFCALC"> F  </i>
   <i type="string" name="PRECFOCK"></i>
   <i type="logical" name="LSYMGRAD"> F  </i>
   <i type="logical" name="LHFONE"> F  </i>
   <i type="logical" name="LRHFCALC"> F  </i>
   <i type="logical" name="LTHOMAS"> F  </i>
   <i type="logical" name="LMODELHF"> F  </i>
   <i type="logical" name="LFOCKACE"> F  </i>
   <i name="ENCUT4O">     -1.00000000</i>
   <i type="int" name="EXXOEP">     0</i>
   <i type="int" name="FOURORBIT">     0</i>
   <i name="AEXX">      0.00000000</i>
   <i name="HFALPHA">      0.00000000</i>
   <i name="MCALPHA">      0.00000000</i>
   <i name="ALDAX">      1.00000000</i>
   <i name="AGGAX">      1.00000000</i>
   <i name="ALDAC">      1.00000000</i>
   <i name="AGGAC">      1.00000000</i>
   <i type="int" name="NKREDX">     1</i>
   <i type="int" name="NKREDY">     1</i>
   <i type="int" name="NKREDZ">     1</i>
   <i type="logical" name="SHIFTRED"> F  </i>
   <i type="logical" name="ODDONLY"> F  </i>
   <i type="logical" name="EVENONLY"> F  </i>
   <i type="int" name="LMAXFOCK">     0</i>
   <i type="int" name="NMAXFOCKAE">     0</i>
   <i type="logical" name="LFOCKAEDFT"> F  </i>
   <i name="HFSCREEN">      0.00000000</i>
   <i name="HFSCREENC">      0.00000000</i>
   <i type="int" name="NBANDSGWLOW">     0</i>
  </separator>
  <separator name="vdW DFT" >
   <i type="logical" name="LUSE_VDW"> F  </i>
   <i name="Zab_VDW">     -0.84910000</i>
   <i name="PARAM1">      0.12340000</i>
   <i name="PARAM2">      1.00000000</i>
   <i name="PARAM3">      0.00000000</i>
  </separator>
  <separator name="model GW" >
   <i type="int" name="MODEL_GW">     0</i>
   <i name="MODEL_EPS0">     18.12946015</i>
   <i name="MODEL_ALPHA">      1.00000000</i>
  </separator>
  <separator name="linear response parameters" >
   <i type="logical" name="LEPSILON"> F  </i>
   <i type="logical" name="LRPA"> F  </i>
   <i type="logical" name="LNABLA"> F  </i>
   <i type="logical" name="LVEL"> F  </i>
   <i name="CSHIFT">      0.10000000</i>
   <i name="OMEGAMAX">     -1.00000000</i>
   <i name="DEG_THRESHOLD">      0.00200000</i>
   <i name="RTIME">     -0.10000000</i>
   <i name="WPLASMAI">      0.00000000</i>
   <v name="DFIELD">      0.00000000      0.00000000      0.00000000</v>
   <v name="WPLASMA">      0.00000000      0.00000000      0.00000000      0.00000000      0.00000000      0.00000000      0.00000000      0.00000000      0.00000000</v>
  </separator>
  <separator name="orbital magnetization" >
   <i type="logical" name="NUCIND"> F  </i>
   <v name="MAGPOS">      0.00000000      0.00000000      0.00000000</v>
   <i type="logical" name="LNICSALL"> T  </i>
   <i type="logical" name="ORBITALMAG"> F  </i>
   <i type="logical" name="LMAGBLOCH"> F  </i>
   <i type="logical" name="LCHIMAG"> F  </i>
   <i type="logical" name="LGAUGE"> T  </i>
   <i type="int" name="MAGATOM">     0</i>
   <v name="MAGDIPOL">      0.00000000      0.00000000      0.00000000</v>
   <v name="AVECCONST">      0.00000000      0.00000000      0.00000000</v>
  </separator>
  <separator name="response functions" >
   <i type="logical" name="LFINITE_TEMPERATURE"> F  </i>
   <i type="logical" name="LADDER"> F  </i>
   <i type="logical" name="LRPAFORCE"> F  </i>
   <i type="logical" name="LFXC"> F  </i>
   <i type="logical" name="LHARTREE"> T  </i>
   <i type="int" name="IBSE">     0</i>
   <v type="int" name="KPOINT">    -1     0     0     0</v>
   <i type="logical" name="LTCTC"> F  </i>
   <i type="logical" name="LTCTE"> F  </i>
   <i type="logical" name="LTETE"> F  </i>
   <i type="logical" name="LTRIPLET"> F  </i>
   <i type="logical" name="LFXCEPS"> F  </i>
   <i type="logical" name="LFXHEG"> F  </i>
   <i type="int" name="NATURALO">     2</i>
   <i type="logical" name="LHOLEGF"> F  </i>
   <i type="logical" name="L2ORDER"> F  </i>
   <i type="logical" name="LDMP1"> F  </i>
   <i type="logical" name="LMP2LT"> F  </i>
   <i type="logical" name="LSMP2LT"> F  </i>
   <i type="logical" name="LGWLF"> F  </i>
   <i name="ENCUTGW">     -2.00000000</i>
   <i name="ENCUTGWSOFT">     -2.00000000</i>
   <i name="ENCUTLF">     -1.00000000</i>
   <i type="logical" name="LESF_SPLINES"> F  </i>
   <i type="int" name="LMAXMP2">    -1</i>
   <i name="SCISSOR">      0.00000000</i>
   <i type="int" name="NOMEGA">     0</i>
   <i type="int" name="NOMEGAR">     0</i>
   <i type="int" name="NBANDSGW">    -1</i>
   <i type="int" name="NBANDSO">    -1</i>
   <i type="int" name="NBANDSV">    -1</i>
   <i type="int" name="NELMGW">     1</i>
   <i type="int" name="NELMHF">     1</i>
   <i type="int" name="DIM">     3</i>
   <i type="int" name="IESPILON">     4</i>
   <i type="int" name="ANTIRES">     0</i>
   <i name="OMEGAMAX">    -30.00000000</i>
   <i name="OMEGAMIN">    -30.00000000</i>
   <i name="OMEGATL">   -200.00000000</i>
   <i type="int" name="OMEGAGRID">     0</i>
   <i name="CSHIFT">     -0.10000000</i>
   <i type="logical" name="LSELFENERGY"> F  </i>
   <i type="logical" name="LSPECTRAL"> F  </i>
   <i type="logical" name="LSPECTRALGW"> F  </i>
   <i type="logical" name="LSINGLES"> F  </i>
   <i type="logical" name="LFERMIGW"> F  </i>
   <i type="logical" name="ODDONLYGW"> F  </i>
   <i type="logical" name="EVENONLYGW"> F  </i>
   <i type="int" name="NKREDLFX">     1</i>
   <i type="int" name="NKREDLFY">     1</i>
   <i type="int" name="NKREDLFZ">     1</i>
   <i type="int" name="MAXMEM">  2800</i>
   <i type="int" name="TELESCOPE">     0</i>
   <i type="int" name="NTAUPAR">    -1</i>
   <i type="int" name="NOMEGAPAR">    -1</i>
   <i name="DAMP_NEWTON">      0.80000001</i>
   <i name="LAMBDA">      1.00000000</i>
  </separator>
  <separator name="External order field" >
   <i name="OFIELD_KAPPA">      0.00000000</i>
   <v name="OFIELD_K">      0.00000000      0.00000000      0.00000000</v>
   <i name="OFIELD_Q6_NEAR">      0.00000000</i>
   <i name="OFIELD_Q6_FAR">      0.00000000</i>
   <i name="OFIELD_A">      0.00000000</i>
  </separator>
  <separator name="optional k-points parameters" >
   <i type="int" name="KPOINTS_OPT_MODE">     1</i>
   <i type="logical" name="LKPOINTS_OPT"> F  </i>
  </separator>
 </parameters>
 <atominfo>
  <atoms>      28 </atoms>
  <types>       1 </types>
  <array name="atoms" >
   <dimension dim="1">ion</dimension>
   <field type="string">element</field>
   <field type="int">atomtype</field>
   <set>
    <rc><c>Cu</c><c>   1</c></rc>
    <rc><c>Cu</c><c>   1</c></rc>
    <rc><c>Cu</c><c>   1</c></rc>
    <rc><c>Cu</c><c>   1</c></rc>
    <rc><c>Cu</c><c>   1</c></rc>
    <rc><c>Cu</c><c>   1</c></rc>
    <rc><c>Cu</c><c>   1</c></rc>
    <rc><c>Cu</c><c>   1</c></rc>
    <rc><c>Cu</c><c>   1</c></rc>
    <rc><c>Cu</c><c>   1</c></rc>
    <rc><c>Cu</c><c>   1</c></rc>
    <rc><c>Cu</c><c>   1</c></rc>
    <rc><c>Cu</c><c>   1</c></rc>
    <rc><c>Cu</c><c>   1</c></rc>
    <rc><c>Cu</c><c>   1</c></rc>
    <rc><c>Cu</c><c>   1</c></rc>
    <rc><c>Cu</c><c>   1</c></rc>
    <rc><c>Cu</c><c>   1</c></rc>
    <rc><c>Cu</c><c>   1</c></rc>
    <rc><c>Cu</c><c>   1</c></rc>
    <rc><c>Cu</c><c>   1</c></rc>
    <rc><c>Cu</c><c>   1</c></rc>
    <rc><c>Cu</c><c>   1</c></rc>
    <rc><c>Cu</c><c>   1</c></rc>
    <rc><c>Cu</c><c>   1</c></rc>
    <rc><c>Cu</c><c>   1</c></rc>
    <rc><c>Cu</c><c>   1</c></rc>
    <rc><c>Cu</c><c>   1</c></rc>
   </set>
  </array>
  <array name="atomtypes" >
   <dimension dim="1">type</dimension>
   <field type="int">atomspertype</field>
   <field type="string">element</field>
   <field>mass</field>
   <field>valence</field>
   <field type="string">pseudopotential</field>
   <set>
    <rc><c>  28</c><c>Cu</c><c>     63.54600000</c><c>     11.00000000</c><c>  PAW_PBE Cu 22Jun2005                  </c></rc>
   </set>
  </array>
 </atominfo>
 <structure name="initialpos" >
  <crystal>
   <varray name="basis" >
    <v>       7.26000023       0.00000000       0.00000000 </v>
    <v>       0.00000000       5.13359547       0.00000000 </v>
    <v>       0.00000000       0.00000000      22.70039300 </v>
   </varray>
   <i name="volume">    846.04147383 </i>
   <varray name="rec_basis" >
    <v>       0.13774104       0.00000000       0.00000000 </v>
    <v>       0.00000000       0.19479525       0.00000000 </v>
    <v>       0.00000000       0.00000000       0.04405210 </v>
   </varray>
  </crystal>
  <varray name="positions" >
   <v>       0.00000000       0.00000000       0.00000000 </v>
   <v>       0.00000000       0.50000000       0.00000000 </v>
   <v>       0.50000000       0.00000000       0.00000000 </v>
   <v>       0.50000000       0.50000000       0.00000000 </v>
   <v>       0.25000000       0.25000000       0.05653641 </v>
   <v>       0.25000000       0.75000000       0.05653641 </v>
   <v>       0.75000000       0.25000000       0.05653641 </v>
   <v>       0.75000000       0.75000000       0.05653641 </v>
   <v>       0.00000000       0.00000000       0.11307283 </v>
   <v>       0.00000000       0.50000000       0.11307283 </v>
   <v>       0.50000000       0.00000000       0.11307283 </v>
   <v>       0.50000000       0.50000000       0.11307283 </v>
   <v>       0.25000000       0.25000000       0.16960924 </v>
   <v>       0.25000000       0.75000000       0.16960924 </v>
   <v>       0.75000000       0.25000000       0.16960924 </v>
   <v>       0.75000000       0.75000000       0.16960924 </v>
   <v>       0.00000000       0.00000000       0.22614566 </v>
   <v>       0.00000000       0.50000000       0.22614566 </v>
   <v>       0.50000000       0.00000000       0.22614566 </v>
   <v>       0.50000000       0.50000000       0.22614566 </v>
   <v>       0.25000000       0.25000000       0.28268207 </v>
   <v>       0.25000000       0.75000000       0.28268207 </v>
   <v>       0.75000000       0.25000000       0.28268207 </v>
   <v>       0.75000000       0.75000000       0.28268207 </v>
   <v>       0.00000000       0.00000000       0.33921849 </v>
   <v>       0.00000000       0.50000000       0.33921849 </v>
   <v>       0.50000000       0.00000000       0.33921849 </v>
   <v>       0.50000000       0.50000000       0.33921849 </v>
  </varray>
  <varray name="selective"  type="logical" >
   <v type="logical" >  F  F  F </v>
   <v type="logical" >  F  F  F </v>
   <v type="logical" >  F  F  F </v>
   <v type="logical" >  F  F  F </v>
   <v type="logical" >  F  F  F </v>
   <v type="logical" >  F  F  F </v>
   <v type="logical" >  F  F  F </v>
   <v type="logical" >  F  F  F </v>
   <v type="logical" >  T  T  T </v>
   <v type="logical" >  T  T  T </v>
   <v type="logical" >  T  T  T </v>
   <v type="logical" >  T  T  T </v>
   <v type="logical" >  T  T  T </v>
   <v type="logical" >  T  T  T </v>
   <v type="logical" >  T  T  T </v>
   <v type="logical" >  T  T  T </v>
   <v type="logical" >  T  T  T </v>
   <v type="logical" >  T  T  T </v>
   <v type="logical" >  T  T  T </v>
   <v type="logical" >  T  T  T </v>
   <v type="logical" >  T  T  T </v>
   <v type="logical" >  T  T  T </v>
   <v type="logical" >  T  T  T </v>
   <v type="logical" >  T  T  T </v>
   <v type="logical" >  T  T  T </v>
   <v type="logical" >  T  T  T </v>
   <v type="logical" >  T  T  T </v>
   <v type="logical" >  T  T  T </v>
  </varray>
  <nose>
   <v>      -3.00000000       0.00000000       0.00010000       0.00010000 </v>
  </nose>
 </structure>
 <calculation>
  <scstep>
   <time name="dav">    5.58    5.62</time>
   <time name="total">    5.66    5.74</time>
   <energy>
    <i name="alphaZ">    677.69866932 </i>
    <i name="ewald"> 130853.55301802 </i>
    <i name="hartreedc">-168409.60082203 </i>
    <i name="XCdc">   1276.80469611 </i>
    <i name="pawpsdc">  34386.72988937 </i>
    <i name="pawaedc"> -37349.78608270 </i>
    <i name="eentropy">      0.00942357 </i>
    <i name="bandstr">   2392.99199076 </i>
    <i name="atom">  38946.81392559 </i>
    <i name="e_fr_energy">   2775.21470801 </i>
    <i name="e_wo_entrp">   2775.20528445 </i>
    <i name="e_0_energy">   2775.21156682 </i>
   </energy>
  </scstep>
  <scstep>
   <time name="dav">    5.51    5.55</time>
   <time name="total">    5.51    5.56</time>
   <energy>
    <i name="e_fr_energy">    291.45031930 </i>
    <i name="e_wo_entrp">    291.45494807 </i>
    <i name="e_0_energy">    291.45186222 </i>
   </energy>
  </scstep>
  <scstep>
   <time name="dav">    5.48    5.52</time>
   <time name="total">    5.48    5.53</time>
   <energy>
    <i name="e_fr_energy">    -90.69333236 </i>
    <i name="e_wo_entrp">    -90.75326196 </i>
    <i name="e_0_energy">    -90.71330889 </i>
   </energy>
  </scstep>
  <scstep>
   <time name="dav">    6.05    6.10</time>
   <time name="total">    6.06    6.11</time>
   <energy>
    <i name="e_fr_energy">   -114.26959029 </i>
    <i name="e_wo_entrp">   -114.34774103 </i>
    <i name="e_0_energy">   -114.29564054 </i>
   </energy>
  </scstep>
  <scstep>
   <time name="dav">    5.99    6.03</time>
   <time name="total">    6.42    6.47</time>
   <energy>
    <i name="e_fr_energy">   -114.79865980 </i>
    <i name="e_wo_entrp">   -114.87748150 </i>
    <i name="e_0_energy">   -114.82493370 </i>
   </energy>
  </scstep>
  <scstep>
   <time name="dav">    5.79    5.84</time>
   <time name="total">    6.29    6.34</time>
   <energy>
    <i name="e_fr_energy">    -92.55012972 </i>
    <i name="e_wo_entrp">    -92.54794692 </i>
    <i name="e_0_energy">    -92.54940212 </i>
   </energy>
  </scstep>
  <scstep>
   <time name="dav">    5.88    5.93</time>
   <time name="total">    6.37    6.42</time>
   <energy>
    <i name="e_fr_energy">    -79.94281722 </i>
    <i name="e_wo_entrp">    -79.90749918 </i>
    <i name="e_0_energy">    -79.93104454 </i>
   </energy>
  </scstep>
  <scstep>
   <time name="dav">    6.04    6.08</time>
   <time name="total">    6.53    6.58</time>
   <energy>
    <i name="e_fr_energy">    -78.43332385 </i>
    <i name="e_wo_entrp">    -78.44182489 </i>
    <i name="e_0_energy">    -78.43615753 </i>
   </energy>
  </scstep>
  <scstep>
   <time name="dav">    7.02    7.08</time>
   <time name="total">    7.51    7.57</time>
   <energy>
    <i name="e_fr_energy">    -76.15382967 </i>
    <i name="e_wo_entrp">    -76.14126475 </i>
    <i name="e_0_energy">    -76.14964136 </i>
   </energy>
  </scstep>
  <scstep>
   <time name="dav">    7.50    7.56</time>
   <time name="total">    7.99    8.06</time>
   <energy>
    <i name="e_fr_energy">    -76.04794681 </i>
    <i name="e_wo_entrp">    -76.06031953 </i>
    <i name="e_0_energy">    -76.05207105 </i>
   </energy>
  </scstep>
  <scstep>
   <time name="dav">    6.23    6.28</time>
   <time name="total">    6.73    6.78</time>
   <energy>
    <i name="e_fr_energy">    -75.96920232 </i>
    <i name="e_wo_entrp">    -75.97153440 </i>
    <i name="e_0_energy">    -75.96997968 </i>
   </energy>
  </scstep>
  <scstep>
   <time name="dav">    6.47    6.52</time>
   <time name="total">    6.96    7.01</time>
   <energy>
    <i name="e_fr_energy">    -78.99177934 </i>
    <i name="e_wo_entrp">    -79.00006611 </i>
    <i name="e_0_energy">    -78.99454159 </i>
   </energy>
  </scstep>
  <scstep>
   <time name="dav">    7.02    7.08</time>
   <time name="total">    7.51    7.56</time>
   <energy>
    <i name="e_fr_energy">    -84.87849860 </i>
    <i name="e_wo_entrp">    -84.88662101 </i>
    <i name="e_0_energy">    -84.88120607 </i>
   </energy>
  </scstep>
  <scstep>
   <time name="dav">    6.93    6.98</time>
   <time name="total">    7.42    7.48</time>
   <energy>
    <i name="e_fr_energy">    -88.67343410 </i>
    <i name="e_wo_entrp">    -88.65450428 </i>
    <i name="e_0_energy">    -88.66712416 </i>
   </energy>
  </scstep>
  <scstep>
   <time name="dav">    6.51    6.56</time>
   <time name="total">    7.00    7.05</time>
   <energy>
    <i name="e_fr_energy">    -92.59846854 </i>
    <i name="e_wo_entrp">    -92.56481680 </i>
    <i name="e_0_energy">    -92.58725129 </i>
   </energy>
  </scstep>
  <scstep>
   <time name="dav">    6.44    6.49</time>
   <time name="total">    6.92    6.98</time>
   <energy>
    <i name="e_fr_energy">    -93.88548852 </i>
    <i name="e_wo_entrp">    -93.84595681 </i>
    <i name="e_0_energy">    -93.87231129 </i>
   </energy>
  </scstep>
  <scstep>
   <time name="dav">    6.38    6.43</time>
   <time name="total">    6.88    6.93</time>
   <energy>
    <i name="e_fr_energy">    -94.73068356 </i>
    <i name="e_wo_entrp">    -94.68652382 </i>
    <i name="e_0_energy">    -94.71596364 </i>
   </energy>
  </scstep>
  <scstep>
   <time name="dav">    5.80    5.85</time>
   <time name="total">    6.29    6.33</time>
   <energy>
    <i name="e_fr_energy">    -95.48318231 </i>
    <i name="e_wo_entrp">    -95.43473438 </i>
    <i name="e_0_energy">    -95.46703300 </i>
   </energy>
  </scstep>
  <scstep>
   <time name="dav">    6.06    6.11</time>
   <time name="total">    6.55    6.60</time>
   <energy>
    <i name="e_fr_energy">    -95.86723044 </i>
    <i name="e_wo_entrp">    -95.81708128 </i>
    <i name="e_0_energy">    -95.85051405 </i>
   </energy>
  </scstep>
  <scstep>
   <time name="dav">    6.67    6.72</time>
   <time name="total">    7.17    7.23</time>
   <energy>
    <i name="e_fr_energy">    -96.06611947 </i>
    <i name="e_wo_entrp">    -96.01651467 </i>
    <i name="e_0_energy">    -96.04958454 </i>
   </energy>
  </scstep>
  <scstep>
   <time name="dav">    6.69    6.74</time>
   <time name="total">    7.19    7.25</time>
   <energy>
    <i name="e_fr_energy">    -96.20659164 </i>
    <i name="e_wo_entrp">    -96.15792818 </i>
    <i name="e_0_energy">    -96.19037049 </i>
   </energy>
  </scstep>
  <scstep>
   <time name="dav">    6.50    6.55</time>
   <time name="total">    7.00    7.05</time>
   <energy>
    <i name="e_fr_energy">    -96.42194971 </i>
    <i name="e_wo_entrp">    -96.37373139 </i>
    <i name="e_0_energy">    -96.40587694 </i>
   </energy>
  </scstep>
  <scstep>
   <time name="dav">    6.55    6.60</time>
   <time name="total">    7.04    7.09</time>
   <energy>
    <i name="e_fr_energy">    -96.55383315 </i>
    <i name="e_wo_entrp">    -96.50618271 </i>
    <i name="e_0_energy">    -96.53794967 </i>
   </energy>
  </scstep>
  <scstep>
   <time name="dav">    5.96    6.01</time>
   <time name="total">    6.45    6.50</time>
   <energy>
    <i name="e_fr_energy">    -96.69268075 </i>
    <i name="e_wo_entrp">    -96.64426683 </i>
    <i name="e_0_energy">    -96.67654277 </i>
   </energy>
  </scstep>
  <scstep>
   <time name="dav">    5.87    5.92</time>
   <time name="total">    6.37    6.42</time>
   <energy>
    <i name="e_fr_energy">    -96.75222802 </i>
    <i name="e_wo_entrp">    -96.70390707 </i>
    <i name="e_0_energy">    -96.73612103 </i>
   </energy>
  </scstep>
  <scstep>
   <time name="dav">    6.09    6.13</time>
   <time name="total">    6.58    6.63</time>
   <energy>
    <i name="e_fr_energy">    -96.77574685 </i>
    <i name="e_wo_entrp">    -96.72801535 </i>
    <i name="e_0_energy">    -96.75983635 </i>
   </energy>
  </scstep>
  <scstep>
   <time name="dav">    5.30    5.34</time>
   <time name="total">    5.80    5.84</time>
   <energy>
    <i name="e_fr_energy">    -96.78524872 </i>
    <i name="e_wo_entrp">    -96.73747335 </i>
    <i name="e_0_energy">    -96.76932360 </i>
   </energy>
  </scstep>
  <scstep>
   <time name="dav">    4.41    4.45</time>
   <time name="total">    4.91    4.95</time>
   <energy>
    <i name="e_fr_energy">    -96.79087005 </i>
    <i name="e_wo_entrp">    -96.74302205 </i>
    <i name="e_0_energy">    -96.77492071 </i>
   </energy>
  </scstep>
  <scstep>
   <time name="dav">    4.13    4.16</time>
   <time name="total">    4.20    4.24</time>
   <energy>
    <i name="alphaZ">    677.69866932 </i>
    <i name="ewald"> 130853.55301802 </i>
    <i name="hartreedc">-168077.63132133 </i>
    <i name="XCdc">   1245.86301267 </i>
    <i name="pawpsdc">  36357.80072992 </i>
    <i name="pawaedc"> -39368.88810038 </i>
    <i name="eentropy">     -0.04781573 </i>
    <i name="bandstr">   -731.95318644 </i>
    <i name="atom">  38946.81392559 </i>
    <i name="e_fr_energy">    -96.79106835 </i>
    <i name="e_wo_entrp">    -96.74325262 </i>
    <i name="e_0_energy">    -96.77512977 </i>
   </energy>
  </scstep>
  <dipole>
   <v name="dipole">      0.00000000       0.00000000       0.02003287 </v>
   <i name="Tr[quadrupol]">  -2389.32489678 </i>
   <i name="Echarged">      0.00000000 </i>
   <i name="Edipol_quadrupol">      0.00000000 </i>
   <i name="Eion">      0.00000000 </i>
  </dipole>
  <structure>
   <crystal>
    <varray name="basis" >
     <v>       7.26000023       0.00000000       0.00000000 </v>
     <v>       0.00000000       5.13359547       0.00000000 </v>
     <v>       0.00000000       0.00000000      22.70039300 </v>
    </varray>
    <i name="volume">    846.04147383 </i>
    <varray name="rec_basis" >
     <v>       0.13774104       0.00000000       0.00000000 </v>
     <v>       0.00000000       0.19479525       0.00000000 </v>
     <v>       0.00000000       0.00000000       0.04405210 </v>
    </varray>
   </crystal>
   <varray name="positions" >
    <v>       0.00000000       0.00000000       0.00000000 </v>
    <v>       0.00000000       0.50000000       0.00000000 </v>
    <v>       0.50000000       0.00000000       0.00000000 </v>
    <v>       0.50000000       0.50000000       0.00000000 </v>
    <v>       0.25000000       0.25000000       0.05653641 </v>
    <v>       0.25000000       0.75000000       0.05653641 </v>
    <v>       0.75000000       0.25000000       0.05653641 </v>
    <v>       0.75000000       0.75000000       0.05653641 </v>
    <v>       0.00000000       0.00000000       0.11307283 </v>
    <v>       0.00000000       0.50000000       0.11307283 </v>
    <v>       0.50000000       0.00000000       0.11307283 </v>
    <v>       0.50000000       0.50000000       0.11307283 </v>
    <v>       0.25000000       0.25000000       0.16960924 </v>
    <v>       0.25000000       0.75000000       0.16960924 </v>
    <v>       0.75000000       0.25000000       0.16960924 </v>
    <v>       0.75000000       0.75000000       0.16960924 </v>
    <v>       0.00000000       0.00000000       0.22614566 </v>
    <v>       0.00000000       0.50000000       0.22614566 </v>
    <v>       0.50000000       0.00000000       0.22614566 </v>
    <v>       0.50000000       0.50000000       0.22614566 </v>
    <v>       0.25000000       0.25000000       0.28268207 </v>
    <v>       0.25000000       0.75000000       0.28268207 </v>
    <v>       0.75000000       0.25000000       0.28268207 </v>
    <v>       0.75000000       0.75000000       0.28268207 </v>
    <v>       0.00000000       0.00000000       0.33921849 </v>
    <v>       0.00000000       0.50000000       0.33921849 </v>
    <v>       0.50000000       0.00000000       0.33921849 </v>
    <v>       0.50000000       0.50000000       0.33921849 </v>
   </varray>
  </structure>
  <varray name="forces" >
   <v>      -0.00000000      -0.00000000       0.55459816 </v>
   <v>      -0.00000000       0.00000000       0.55459816 </v>
   <v>      -0.00000000      -0.00000000       0.55459816 </v>
   <v>      -0.00000000       0.00000000       0.55459816 </v>
   <v>       0.00000000       0.00000000      -0.16386730 </v>
   <v>      -0.00000000       0.00000000      -0.16386730 </v>
   <v>      -0.00000000       0.00000000      -0.16386730 </v>
   <v>      -0.00000000       0.00000000      -0.16386730 </v>
   <v>       0.00000000      -0.00000000       0.09405898 </v>
   <v>      -0.00000000       0.00000000       0.09405898 </v>
   <v>       0.00000000      -0.00000000       0.09405898 </v>
   <v>      -0.00000000       0.00000000       0.09405898 </v>
   <v>       0.00000000      -0.00000000       0.00035778 </v>
   <v>      -0.00000000       0.00000000       0.00035778 </v>
   <v>       0.00000000      -0.00000000       0.00035778 </v>
   <v>      -0.00000000       0.00000000       0.00035778 </v>
   <v>       0.00000000       0.00000000      -0.09473698 </v>
   <v>       0.00000000      -0.00000000      -0.09473698 </v>
   <v>       0.00000000      -0.00000000      -0.09473698 </v>
   <v>       0.00000000      -0.00000000      -0.09473698 </v>
   <v>      -0.00000000       0.00000000       0.16347847 </v>
   <v>      -0.00000000      -0.00000000       0.16347847 </v>
   <v>      -0.00000000      -0.00000000       0.16347847 </v>
   <v>      -0.00000000      -0.00000000       0.16347847 </v>
   <v>       0.00000000      -0.00000000      -0.55388912 </v>
   <v>      -0.00000000       0.00000000      -0.55388912 </v>
   <v>       0.00000000      -0.00000000      -0.55388912 </v>
   <v>       0.00000000      -0.00000000      -0.55388912 </v>
  </varray>
  <varray name="stress" >
   <v>     -40.16795249       0.00000000       0.00000000 </v>
   <v>       0.00000000     -38.44652556       0.00000000 </v>
   <v>       0.00000000       0.00000000     -31.95541683 </v>
  </varray>
  <energy>
   <i name="e_fr_energy">   -106.69505914 </i>
   <i name="e_wo_entrp">   -106.64724340 </i>
   <i name="e_0_energy">   -106.67912056 </i>
  </energy>
  <time name="totalsc">  199.44  201.03</time>
 </calculation>
 <calculation>
  <scstep>
   <time name="dav">    5.80    5.85</time>
   <time name="total">    6.30    6.35</time>
   <energy>
    <i name="alphaZ">    677.69866932 </i>
    <i name="ewald"> 131246.80202364 </i>
    <i name="hartreedc">-168470.07618539 </i>
    <i name="XCdc">   1246.04436259 </i>
    <i name="pawpsdc">  36357.84168314 </i>
    <i name="pawaedc"> -39368.95512239 </i>
    <i name="eentropy">     -0.04723243 </i>
    <i name="bandstr">   -732.92772691 </i>
    <i name="atom">  38946.81392559 </i>
    <i name="e_fr_energy">    -96.80560284 </i>
    <i name="e_wo_entrp">    -96.75837041 </i>
    <i name="e_0_energy">    -96.78985869 </i>
   </energy>
  </scstep>
  <scstep>
   <time name="dav">    7.53    7.59</time>
   <time name="total">    8.02    8.08</time>
   <energy>
    <i name="e_fr_energy">    -96.84223813 </i>
    <i name="e_wo_entrp">    -96.79414000 </i>
    <i name="e_0_energy">    -96.82620542 </i>
   </energy>
  </scstep>
  <scstep>
   <time name="dav">    6.02    6.07</time>
   <time name="total">    6.52    6.57</time>
   <energy>
    <i name="e_fr_energy">    -96.83787402 </i>
    <i name="e_wo_entrp">    -96.79094274 </i>
    <i name="e_0_energy">    -96.82223026 </i>
   </energy>
  </scstep>
  <scstep>
   <time name="dav">    6.40    6.45</time>
   <time name="total">    6.90    6.95</time>
   <energy>
    <i name="e_fr_energy">    -96.83784524 </i>
    <i name="e_wo_entrp">    -96.79056953 </i>
    <i name="e_0_energy">    -96.82208667 </i>
   </energy>
  </scstep>
  <scstep>
   <time name="dav">    5.57    5.62</time>
   <time name="total">    6.06    6.11</time>
   <energy>
    <i name="e_fr_energy">    -96.83776729 </i>
    <i name="e_wo_entrp">    -96.79028098 </i>
    <i name="e_0_energy">    -96.82193852 </i>
   </energy>
  </scstep>
  <scstep>
   <time name="dav">    6.01    6.05</time>
   <time name="total">    6.50    6.55</time>
   <energy>
    <i name="e_fr_energy">    -96.83723599 </i>
    <i name="e_wo_entrp">    -96.78980743 </i>
    <i name="e_0_energy">    -96.82142647 </i>
   </energy>
  </scstep>
  <scstep>
   <time name="dav">    5.55    5.59</time>
   <time name="total">    5.62    5.67</time>
   <energy>
    <i name="alphaZ">    677.69866932 </i>
    <i name="ewald"> 131246.80202364 </i>
    <i name="hartreedc">-168467.81923136 </i>
    <i name="XCdc">   1245.96631318 </i>
    <i name="pawpsdc">  36375.53647494 </i>
    <i name="pawaedc"> -39387.01261104 </i>
    <i name="eentropy">     -0.04799654 </i>
    <i name="bandstr">   -734.77483965 </i>
    <i name="atom">  38946.81392559 </i>
    <i name="e_fr_energy">    -96.83727191 </i>
    <i name="e_wo_entrp">    -96.78927537 </i>
    <i name="e_0_energy">    -96.82127306 </i>
   </energy>
  </scstep>
  <dipole>
   <v name="dipole">      0.00000000       0.00000000       0.00376739 </v>
   <i name="Tr[quadrupol]">  -2389.27828209 </i>
   <i name="Echarged">      0.00000000 </i>
   <i name="Edipol_quadrupol">      0.00000000 </i>
   <i name="Eion">      0.00000000 </i>
  </dipole>
  <structure>
   <crystal>
    <varray name="basis" >
     <v>       7.26000023       0.00000000       0.00000000 </v>
     <v>       0.00000000       5.13359547       0.00000000 </v>
     <v>       0.00000000       0.00000000      22.70039300 </v>
    </varray>
    <i name="volume">    846.04147383 </i>
    <varray name="rec_basis" >
     <v>       0.13774104       0.00000000       0.00000000 </v>
     <v>       0.00000000       0.19479525       0.00000000 </v>
     <v>       0.00000000       0.00000000       0.04405210 </v>
    </varray>
   </crystal>
   <varray name="positions" >
    <v>       0.00000000       0.00000000       0.00000000 </v>
    <v>       0.00000000       0.50000000       0.00000000 </v>
    <v>       0.50000000       0.00000000       0.00000000 </v>
    <v>       0.50000000       0.50000000       0.00000000 </v>
    <v>       0.25000000       0.25000000       0.05653641 </v>
    <v>       0.25000000       0.75000000       0.05653641 </v>
    <v>       0.75000000       0.25000000       0.05653641 </v>
    <v>       0.75000000       0.75000000       0.05653641 </v>
    <v>       0.00000000      -0.00000000       0.11327272 </v>
    <v>      -0.00000000       0.50000000       0.11327272 </v>
    <v>       0.50000000      -0.00000000       0.11327272 </v>
    <v>       0.50000000       0.50000000       0.11327272 </v>
    <v>       0.25000000       0.25000000       0.16961000 </v>
    <v>       0.25000000       0.75000000       0.16961000 </v>
    <v>       0.75000000       0.25000000       0.16961000 </v>
    <v>       0.75000000       0.75000000       0.16961000 </v>
    <v>       0.00000000       0.00000000       0.22594432 </v>
    <v>       0.00000000       0.50000000       0.22594432 </v>
    <v>       0.50000000      -0.00000000       0.22594432 </v>
    <v>       0.50000000       0.50000000       0.22594432 </v>
    <v>       0.25000000       0.25000000       0.28302950 </v>
    <v>       0.25000000       0.75000000       0.28302950 </v>
    <v>       0.75000000       0.25000000       0.28302950 </v>
    <v>       0.75000000       0.75000000       0.28302950 </v>
    <v>       0.00000000      -0.00000000       0.33804137 </v>
    <v>      -0.00000000       0.50000000       0.33804137 </v>
    <v>       0.50000000      -0.00000000       0.33804137 </v>
    <v>       0.50000000       0.50000000       0.33804137 </v>
   </varray>
  </structure>
  <varray name="forces" >
   <v>      -0.00000000      -0.00000000       0.56205137 </v>
   <v>      -0.00000000       0.00000000       0.56205137 </v>
   <v>       0.00000000      -0.00000000       0.56205137 </v>
   <v>       0.00000000       0.00000000       0.56205137 </v>
   <v>      -0.00000000       0.00000000      -0.15948121 </v>
   <v>      -0.00000000       0.00000000      -0.15948121 </v>
   <v>       0.00000000       0.00000000      -0.15948121 </v>
   <v>       0.00000000      -0.00000000      -0.15948121 </v>
   <v>       0.00000000       0.00000000       0.06281019 </v>
   <v>       0.00000000      -0.00000000       0.06281019 </v>
   <v>       0.00000000       0.00000000       0.06281019 </v>
   <v>       0.00000000       0.00000000       0.06281019 </v>
   <v>       0.00000000       0.00000000       0.00648308 </v>
   <v>       0.00000000      -0.00000000       0.00648308 </v>
   <v>      -0.00000000       0.00000000       0.00648308 </v>
   <v>      -0.00000000      -0.00000000       0.00648308 </v>
   <v>      -0.00000000      -0.00000000      -0.09818404 </v>
   <v>       0.00000000      -0.00000000      -0.09818404 </v>
   <v>      -0.00000000       0.00000000      -0.09818404 </v>
   <v>      -0.00000000      -0.00000000      -0.09818404 </v>
   <v>      -0.00000000      -0.00000000       0.07381748 </v>
   <v>       0.00000000      -0.00000000       0.07381748 </v>
   <v>       0.00000000       0.00000000       0.07381748 </v>
   <v>       0.00000000       0.00000000       0.07381748 </v>
   <v>      -0.00000000       0.00000000      -0.44749687 </v>
   <v>      -0.00000000      -0.00000000      -0.44749687 </v>
   <v>      -0.00000000       0.00000000      -0.44749687 </v>
   <v>       0.00000000       0.00000000      -0.44749687 </v>
  </varray>
  <varray name="stress" >
   <v>     -38.99095432       0.00000000       0.00000000 </v>
   <v>       0.00000000     -37.41694072       0.00000000 </v>
   <v>       0.00000000       0.00000000     -30.64287342 </v>
  </varray>
  <energy>
   <i name="e_fr_energy">   -106.75545413 </i>
   <i name="e_wo_entrp">   -106.70745760 </i>
   <i name="e_0_energy">   -106.73945529 </i>
  </energy>
  <time name="totalsc">   56.53   56.98</time>
 </calculation>
 <calculation>
  <scstep>
   <time name="dav">    5.85    5.90</time>
   <time name="total">    6.35    6.40</time>
   <energy>
    <i name="alphaZ">    677.69866932 </i>
    <i name="ewald"> 132427.24770960 </i>
    <i name="hartreedc">-169645.48561843 </i>
    <i name="XCdc">   1246.56619998 </i>
    <i name="pawpsdc">  36375.97948611 </i>
    <i name="pawaedc"> -39387.45080841 </i>
    <i name="eentropy">     -0.04389877 </i>
    <i name="bandstr">   -737.86371142 </i>
    <i name="atom">  38946.81392559 </i>
    <i name="e_fr_energy">    -96.53804642 </i>
    <i name="e_wo_entrp">    -96.49414765 </i>
    <i name="e_0_energy">    -96.52341350 </i>
   </energy>
  </scstep>
  <scstep>
   <time name="dav">    7.91    7.98</time>
   <time name="total">    8.41    8.47</time>
   <energy>
    <i name="e_fr_energy">    -96.94831751 </i>
    <i name="e_wo_entrp">    -96.90109361 </i>
    <i name="e_0_energy">    -96.93257621 </i>
   </energy>
  </scstep>
  <scstep>
   <time name="dav">    6.10    6.14</time>
   <time name="total">    6.59    6.64</time>
   <energy>
    <i name="e_fr_energy">    -96.89332608 </i>
    <i name="e_wo_entrp">    -96.84955614 </i>
    <i name="e_0_energy">    -96.87873610 </i>
   </energy>
  </scstep>
  <scstep>
   <time name="dav">    6.05    6.09</time>
   <time name="total">    6.54    6.59</time>
   <energy>
    <i name="e_fr_energy">    -96.89481125 </i>
    <i name="e_wo_entrp">    -96.85084365 </i>
    <i name="e_0_energy">    -96.88015539 </i>
   </energy>
  </scstep>
  <scstep>
   <time name="dav">    5.68    5.73</time>
   <time name="total">    6.18    6.22</time>
   <energy>
    <i name="e_fr_energy">    -96.89452812 </i>
    <i name="e_wo_entrp">    -96.84985496 </i>
    <i name="e_0_energy">    -96.87963707 </i>
   </energy>
  </scstep>
  <scstep>
   <time name="dav">    7.04    7.09</time>
   <time name="total">    7.54    7.60</time>
   <energy>
    <i name="e_fr_energy">    -96.89019410 </i>
    <i name="e_wo_entrp">    -96.84607483 </i>
    <i name="e_0_energy">    -96.87548767 </i>
   </energy>
  </scstep>
  <scstep>
   <time name="dav">    7.33    7.39</time>
   <time name="total">    7.83    7.89</time>
   <energy>
    <i name="e_fr_energy">    -96.88958662 </i>
    <i name="e_wo_entrp">    -96.84367550 </i>
    <i name="e_0_energy">    -96.87428291 </i>
   </energy>
  </scstep>
  <scstep>
   <time name="dav">    6.16    6.21</time>
   <time name="total">    6.66    6.71</time>
   <energy>
    <i name="e_fr_energy">    -96.88890251 </i>
    <i name="e_wo_entrp">    -96.84422145 </i>
    <i name="e_0_energy">    -96.87400882 </i>
   </energy>
  </scstep>
  <scstep>
   <time name="dav">    5.45    5.49</time>
   <time name="total">    5.53    5.57</time>
   <energy>
    <i name="alphaZ">    677.69866932 </i>
    <i name="ewald"> 132427.24770960 </i>
    <i name="hartreedc">-169639.38647421 </i>
    <i name="XCdc">   1246.32381608 </i>
    <i name="pawpsdc">  36441.68093581 </i>
    <i name="pawaedc"> -39454.42521555 </i>
    <i name="eentropy">     -0.04478819 </i>
    <i name="bandstr">   -742.79744601 </i>
    <i name="atom">  38946.81392559 </i>
    <i name="e_fr_energy">    -96.88886757 </i>
    <i name="e_wo_entrp">    -96.84407938 </i>
    <i name="e_0_energy">    -96.87393817 </i>
   </energy>
  </scstep>
  <dipole>
   <v name="dipole">      0.00000000       0.00000000       0.00861296 </v>
   <i name="Tr[quadrupol]">  -2389.22631096 </i>
   <i name="Echarged">      0.00000000 </i>
   <i name="Edipol_quadrupol">      0.00000000 </i>
   <i name="Eion">      0.00000000 </i>
  </dipole>
  <structure>
   <crystal>
    <varray name="basis" >
     <v>       7.26000023       0.00000000       0.00000000 </v>
     <v>       0.00000000       5.13359547       0.00000000 </v>
     <v>       0.00000000       0.00000000      22.70039300 </v>
    </varray>
    <i name="volume">    846.04147383 </i>
    <varray name="rec_basis" >
     <v>       0.13774104       0.00000000       0.00000000 </v>
     <v>       0.00000000       0.19479525       0.00000000 </v>
     <v>       0.00000000       0.00000000       0.04405210 </v>
    </varray>
   </crystal>
   <varray name="positions" >
    <v>       0.00000000       0.00000000       0.00000000 </v>
    <v>       0.00000000       0.50000000       0.00000000 </v>
    <v>       0.50000000       0.00000000       0.00000000 </v>
    <v>       0.50000000       0.50000000       0.00000000 </v>
    <v>       0.25000000       0.25000000       0.05653641 </v>
    <v>       0.25000000       0.75000000       0.05653641 </v>
    <v>       0.75000000       0.25000000       0.05653641 </v>
    <v>       0.75000000       0.75000000       0.05653641 </v>
    <v>       0.00000000      -0.00000000       0.11387240 </v>
    <v>      -0.00000000       0.50000000       0.11387240 </v>
    <v>       0.50000000      -0.00000000       0.11387240 </v>
    <v>       0.50000000       0.50000000       0.11387240 </v>
    <v>       0.25000000       0.25000000       0.16961228 </v>
    <v>       0.25000000       0.75000000       0.16961228 </v>
    <v>       0.75000000       0.25000000       0.16961228 </v>
    <v>       0.75000000       0.75000000       0.16961228 </v>
    <v>       0.00000000       0.00000000       0.22534032 </v>
    <v>       0.00000000       0.50000000       0.22534032 </v>
    <v>       0.50000000      -0.00000000       0.22534032 </v>
    <v>       0.50000000       0.50000000       0.22534032 </v>
    <v>       0.25000000       0.25000000       0.28407176 </v>
    <v>       0.25000000       0.75000000       0.28407176 </v>
    <v>       0.75000000       0.25000000       0.28407176 </v>
    <v>       0.75000000       0.75000000       0.28407176 </v>
    <v>       0.00000000      -0.00000000       0.33451001 </v>
    <v>      -0.00000000       0.50000000       0.33451001 </v>
    <v>       0.50000000      -0.00000000       0.33451001 </v>
    <v>       0.50000000       0.50000000       0.33451001 </v>
   </varray>
  </structure>
  <varray name="forces" >
   <v>       0.00000000      -0.00000000       0.59009329 </v>
   <v>      -0.00000000       0.00000000       0.59009329 </v>
   <v>       0.00000000      -0.00000000       0.59009329 </v>
   <v>       0.00000000       0.00000000       0.59009329 </v>
   <v>       0.00000000      -0.00000000      -0.15280270 </v>
   <v>      -0.00000000       0.00000000      -0.15280270 </v>
   <v>      -0.00000000       0.00000000      -0.15280270 </v>
   <v>       0.00000000       0.00000000      -0.15280270 </v>
   <v>       0.00000000      -0.00000000      -0.03476980 </v>
   <v>       0.00000000      -0.00000000      -0.03476980 </v>
   <v>       0.00000000      -0.00000000      -0.03476980 </v>
   <v>      -0.00000000      -0.00000000      -0.03476980 </v>
   <v>       0.00000000      -0.00000000       0.02617173 </v>
   <v>       0.00000000      -0.00000000       0.02617173 </v>
   <v>       0.00000000      -0.00000000       0.02617173 </v>
   <v>       0.00000000      -0.00000000       0.02617173 </v>
   <v>       0.00000000      -0.00000000      -0.13562025 </v>
   <v>       0.00000000       0.00000000      -0.13562025 </v>
   <v>       0.00000000      -0.00000000      -0.13562025 </v>
   <v>       0.00000000       0.00000000      -0.13562025 </v>
   <v>      -0.00000000       0.00000000      -0.18480239 </v>
   <v>       0.00000000      -0.00000000      -0.18480239 </v>
   <v>      -0.00000000      -0.00000000      -0.18480239 </v>
   <v>       0.00000000      -0.00000000      -0.18480239 </v>
   <v>      -0.00000000      -0.00000000      -0.10826988 </v>
   <v>       0.00000000       0.00000000      -0.10826988 </v>
   <v>      -0.00000000      -0.00000000      -0.10826988 </v>
   <v>      -0.00000000       0.00000000      -0.10826988 </v>
  </varray>
  <varray name="stress" >
   <v>     -36.82972279       0.00000000       0.00000000 </v>
   <v>       0.00000000     -35.64649947       0.00000000 </v>
   <v>       0.00000000       0.00000000     -27.32260900 </v>
  </varray>
  <energy>
   <i name="e_fr_energy">   -106.85070198 </i>
   <i name="e_wo_entrp">   -106.80591379 </i>
   <i name="e_0_energy">   -106.83577258 </i>
  </energy>
  <time name="totalsc">   72.25   72.84</time>
 </calculation>
 <calculation>
  <scstep>
   <time name="dav">    5.76    5.81</time>
   <time name="total">    6.26    6.31</time>
   <energy>
    <i name="alphaZ">    677.69866932 </i>
    <i name="ewald"> 132624.21869967 </i>
    <i name="hartreedc">-169835.56682154 </i>
    <i name="XCdc">   1246.41526243 </i>
    <i name="pawpsdc">  36441.41567266 </i>
    <i name="pawaedc"> -39454.12724199 </i>
    <i name="eentropy">     -0.04384100 </i>
    <i name="bandstr">   -743.70000558 </i>
    <i name="atom">  38946.81392559 </i>
    <i name="e_fr_energy">    -96.87568044 </i>
    <i name="e_wo_entrp">    -96.83183944 </i>
    <i name="e_0_energy">    -96.86106677 </i>
   </energy>
  </scstep>
  <scstep>
   <time name="dav">    7.61    7.67</time>
   <time name="total">    8.11    8.17</time>
   <energy>
    <i name="e_fr_energy">    -96.88360729 </i>
    <i name="e_wo_entrp">    -96.83941385 </i>
    <i name="e_0_energy">    -96.86887614 </i>
   </energy>
  </scstep>
  <scstep>
   <time name="dav">    5.84    5.89</time>
   <time name="total">    6.34    6.39</time>
   <energy>
    <i name="e_fr_energy">    -96.88293874 </i>
    <i name="e_wo_entrp">    -96.83910787 </i>
    <i name="e_0_energy">    -96.86832845 </i>
   </energy>
  </scstep>
  <scstep>
   <time name="dav">    5.62    5.66</time>
   <time name="total">    6.12    6.17</time>
   <energy>
    <i name="e_fr_energy">    -96.88300728 </i>
    <i name="e_wo_entrp">    -96.83912836 </i>
    <i name="e_0_energy">    -96.86838098 </i>
   </energy>
  </scstep>
  <scstep>
   <time name="dav">    5.20    5.24</time>
   <time name="total">    5.28    5.32</time>
   <energy>
    <i name="alphaZ">    677.69866932 </i>
    <i name="ewald"> 132624.21869967 </i>
    <i name="hartreedc">-169834.55568202 </i>
    <i name="XCdc">   1246.37191952 </i>
    <i name="pawpsdc">  36448.54973278 </i>
    <i name="pawaedc"> -39461.21147551 </i>
    <i name="eentropy">     -0.04399795 </i>
    <i name="bandstr">   -744.72483422 </i>
    <i name="atom">  38946.81392559 </i>
    <i name="e_fr_energy">    -96.88304282 </i>
    <i name="e_wo_entrp">    -96.83904487 </i>
    <i name="e_0_energy">    -96.86837683 </i>
   </energy>
  </scstep>
  <dipole>
   <v name="dipole">      0.00000000       0.00000000       0.01270562 </v>
   <i name="Tr[quadrupol]">  -2389.22503046 </i>
   <i name="Echarged">      0.00000000 </i>
   <i name="Edipol_quadrupol">      0.00000000 </i>
   <i name="Eion">      0.00000000 </i>
  </dipole>
  <structure>
   <crystal>
    <varray name="basis" >
     <v>       7.26000023       0.00000000       0.00000000 </v>
     <v>       0.00000000       5.13359547       0.00000000 </v>
     <v>       0.00000000       0.00000000      22.70039300 </v>
    </varray>
    <i name="volume">    846.04147383 </i>
    <varray name="rec_basis" >
     <v>       0.13774104       0.00000000       0.00000000 </v>
     <v>       0.00000000       0.19479525       0.00000000 </v>
     <v>       0.00000000       0.00000000       0.04405210 </v>
    </varray>
   </crystal>
   <varray name="positions" >
    <v>       0.00000000       0.00000000       0.00000000 </v>
    <v>       0.00000000       0.50000000       0.00000000 </v>
    <v>       0.50000000       0.00000000       0.00000000 </v>
    <v>       0.50000000       0.50000000       0.00000000 </v>
    <v>       0.25000000       0.25000000       0.05653641 </v>
    <v>       0.25000000       0.75000000       0.05653641 </v>
    <v>       0.75000000       0.25000000       0.05653641 </v>
    <v>       0.75000000       0.75000000       0.05653641 </v>
    <v>       0.00000000      -0.00000000       0.11397247 </v>
    <v>      -0.00000000       0.50000000       0.11397247 </v>
    <v>       0.50000000      -0.00000000       0.11397247 </v>
    <v>       0.50000000       0.50000000       0.11397247 </v>
    <v>       0.25000000       0.25000000       0.16961267 </v>
    <v>       0.25000000       0.75000000       0.16961267 </v>
    <v>       0.75000000       0.25000000       0.16961267 </v>
    <v>       0.75000000       0.75000000       0.16961267 </v>
    <v>       0.00000000       0.00000000       0.22523954 </v>
    <v>       0.00000000       0.50000000       0.22523954 </v>
    <v>       0.50000000      -0.00000000       0.22523954 </v>
    <v>       0.50000000       0.50000000       0.22523954 </v>
    <v>       0.25000000       0.25000000       0.28424568 </v>
    <v>       0.25000000       0.75000000       0.28424568 </v>
    <v>       0.75000000       0.25000000       0.28424568 </v>
    <v>       0.75000000       0.75000000       0.28424568 </v>
    <v>       0.00000000      -0.00000000       0.33392076 </v>
    <v>      -0.00000000       0.50000000       0.33392076 </v>
    <v>       0.50000000      -0.00000000       0.33392076 </v>
    <v>       0.50000000       0.50000000       0.33392076 </v>
   </varray>
  </structure>
  <varray name="forces" >
   <v>      -0.00000000       0.00000000       0.59148939 </v>
   <v>      -0.00000000       0.00000000       0.59148939 </v>
   <v>      -0.00000000      -0.00000000       0.59148939 </v>
   <v>      -0.00000000      -0.00000000       0.59148939 </v>
   <v>       0.00000000      -0.00000000      -0.15256680 </v>
   <v>      -0.00000000      -0.00000000      -0.15256680 </v>
   <v>      -0.00000000      -0.00000000      -0.15256680 </v>
   <v>       0.00000000      -0.00000000      -0.15256680 </v>
   <v>      -0.00000000       0.00000000      -0.05346059 </v>
   <v>      -0.00000000       0.00000000      -0.05346059 </v>
   <v>       0.00000000      -0.00000000      -0.05346059 </v>
   <v>       0.00000000       0.00000000      -0.05346059 </v>
   <v>      -0.00000000       0.00000000       0.02999385 </v>
   <v>      -0.00000000       0.00000000       0.02999385 </v>
   <v>      -0.00000000       0.00000000       0.02999385 </v>
   <v>      -0.00000000       0.00000000       0.02999385 </v>
   <v>      -0.00000000      -0.00000000      -0.14652726 </v>
   <v>      -0.00000000       0.00000000      -0.14652726 </v>
   <v>      -0.00000000      -0.00000000      -0.14652726 </v>
   <v>      -0.00000000      -0.00000000      -0.14652726 </v>
   <v>       0.00000000      -0.00000000      -0.24044190 </v>
   <v>      -0.00000000       0.00000000      -0.24044190 </v>
   <v>       0.00000000      -0.00000000      -0.24044190 </v>
   <v>       0.00000000       0.00000000      -0.24044190 </v>
   <v>      -0.00000000      -0.00000000      -0.02848668 </v>
   <v>      -0.00000000      -0.00000000      -0.02848668 </v>
   <v>       0.00000000      -0.00000000      -0.02848668 </v>
   <v>       0.00000000       0.00000000      -0.02848668 </v>
  </varray>
  <varray name="stress" >
   <v>     -32.97154478       0.00000000       0.00000000 </v>
   <v>       0.00000000     -32.03317545       0.00000000 </v>
   <v>       0.00000000       0.00000000     -23.51816941 </v>
  </varray>
  <energy>
   <i name="e_fr_energy">   -106.85233012 </i>
   <i name="e_wo_entrp">   -106.80833217 </i>
   <i name="e_0_energy">   -106.83766414 </i>
  </energy>
  <time name="totalsc">   42.74   43.08</time>
 </calculation>
 <calculation>
  <scstep>
   <time name="dav">    5.82    5.87</time>
   <time name="total">    6.32    6.37</time>
   <energy>
    <i name="alphaZ">    677.69866932 </i>
    <i name="ewald"> 133122.35120280 </i>
    <i name="hartreedc">-170331.50087821 </i>
    <i name="XCdc">   1246.51397844 </i>
    <i name="pawpsdc">  36451.57153717 </i>
    <i name="pawaedc"> -39464.38424393 </i>
    <i name="eentropy">     -0.04046417 </i>
    <i name="bandstr">   -745.88270278 </i>
    <i name="atom">  38946.81392559 </i>
    <i name="e_fr_energy">    -96.85897577 </i>
    <i name="e_wo_entrp">    -96.81851160 </i>
    <i name="e_0_energy">    -96.84548771 </i>
   </energy>
  </scstep>
  <scstep>
   <time name="dav">    7.42    7.48</time>
   <time name="total">    7.92    7.98</time>
   <energy>
    <i name="e_fr_energy">    -96.88729690 </i>
    <i name="e_wo_entrp">    -96.84515979 </i>
    <i name="e_0_energy">    -96.87325119 </i>
   </energy>
  </scstep>
  <scstep>
   <time name="dav">    5.85    5.90</time>
   <time name="total">    6.34    6.39</time>
   <energy>
    <i name="e_fr_energy">    -96.88620631 </i>
    <i name="e_wo_entrp">    -96.84464735 </i>
    <i name="e_0_energy">    -96.87235332 </i>
   </energy>
  </scstep>
  <scstep>
   <time name="dav">    5.83    5.87</time>
   <time name="total">    6.32    6.37</time>
   <energy>
    <i name="e_fr_energy">    -96.88604038 </i>
    <i name="e_wo_entrp">    -96.84476702 </i>
    <i name="e_0_energy">    -96.87228259 </i>
   </energy>
  </scstep>
  <scstep>
   <time name="dav">    5.67    5.72</time>
   <time name="total">    6.17    6.22</time>
   <energy>
    <i name="e_fr_energy">    -96.88579629 </i>
    <i name="e_wo_entrp">    -96.84391758 </i>
    <i name="e_0_energy">    -96.87183672 </i>
   </energy>
  </scstep>
  <scstep>
   <time name="dav">    7.44    7.50</time>
   <time name="total">    7.94    8.01</time>
   <energy>
    <i name="e_fr_energy">    -96.88530987 </i>
    <i name="e_wo_entrp">    -96.84405037 </i>
    <i name="e_0_energy">    -96.87155670 </i>
   </energy>
  </scstep>
  <scstep>
   <time name="dav">    4.02    4.05</time>
   <time name="total">    4.09    4.13</time>
   <energy>
    <i name="alphaZ">    677.69866932 </i>
    <i name="ewald"> 133122.35120280 </i>
    <i name="hartreedc">-170330.69626036 </i>
    <i name="XCdc">   1246.46205424 </i>
    <i name="pawpsdc">  36468.54866155 </i>
    <i name="pawaedc"> -39481.71726016 </i>
    <i name="eentropy">     -0.04117966 </i>
    <i name="bandstr">   -746.30504214 </i>
    <i name="atom">  38946.81392559 </i>
    <i name="e_fr_energy">    -96.88522882 </i>
    <i name="e_wo_entrp">    -96.84404916 </i>
    <i name="e_0_energy">    -96.87150227 </i>
   </energy>
  </scstep>
  <dipole>
   <v name="dipole">      0.00000000       0.00000000       0.01421580 </v>
   <i name="Tr[quadrupol]">  -2389.21724172 </i>
   <i name="Echarged">      0.00000000 </i>
   <i name="Edipol_quadrupol">      0.00000000 </i>
   <i name="Eion">      0.00000000 </i>
  </dipole>
  <structure>
   <crystal>
    <varray name="basis" >
     <v>       7.26000023       0.00000000       0.00000000 </v>
     <v>       0.00000000       5.13359547       0.00000000 </v>
     <v>       0.00000000       0.00000000      22.70039300 </v>
    </varray>
    <i name="volume">    846.04147383 </i>
    <varray name="rec_basis" >
     <v>       0.13774104       0.00000000       0.00000000 </v>
     <v>       0.00000000       0.19479525       0.00000000 </v>
     <v>       0.00000000       0.00000000       0.04405210 </v>
    </varray>
   </crystal>
   <varray name="positions" >
    <v>       0.00000000       0.00000000       0.00000000 </v>
    <v>       0.00000000       0.50000000       0.00000000 </v>
    <v>       0.50000000       0.00000000       0.00000000 </v>
    <v>       0.50000000       0.50000000       0.00000000 </v>
    <v>       0.25000000       0.25000000       0.05653641 </v>
    <v>       0.25000000       0.75000000       0.05653641 </v>
    <v>       0.75000000       0.25000000       0.05653641 </v>
    <v>       0.75000000       0.75000000       0.05653641 </v>
    <v>       0.00000000      -0.00000000       0.11387460 </v>
    <v>      -0.00000000       0.50000000       0.11387460 </v>
    <v>       0.50000000      -0.00000000       0.11387460 </v>
    <v>       0.50000000       0.50000000       0.11387460 </v>
    <v>       0.25000000       0.25000000       0.16972140 </v>
    <v>       0.25000000       0.75000000       0.16972140 </v>
    <v>       0.75000000       0.25000000       0.16972140 </v>
    <v>       0.75000000       0.75000000       0.16972140 </v>
    <v>       0.00000000       0.00000000       0.22461414 </v>
    <v>       0.00000000       0.50000000       0.22461414 </v>
    <v>       0.50000000      -0.00000000       0.22461414 </v>
    <v>       0.50000000       0.50000000       0.22461414 </v>
    <v>       0.25000000       0.25000000       0.28354257 </v>
    <v>       0.25000000       0.75000000       0.28354257 </v>
    <v>       0.75000000       0.25000000       0.28354257 </v>
    <v>       0.75000000       0.75000000       0.28354257 </v>
    <v>       0.00000000      -0.00000000       0.33325669 </v>
    <v>      -0.00000000       0.50000000       0.33325669 </v>
    <v>       0.50000000      -0.00000000       0.33325669 </v>
    <v>       0.50000000       0.50000000       0.33325669 </v>
   </varray>
  </structure>
  <varray name="forces" >
   <v>       0.00000000       0.00000000       0.59424927 </v>
   <v>       0.00000000       0.00000000       0.59424927 </v>
   <v>       0.00000000      -0.00000000       0.59424927 </v>
   <v>       0.00000000      -0.00000000       0.59424927 </v>
   <v>       0.00000000      -0.00000000      -0.14758715 </v>
   <v>       0.00000000      -0.00000000      -0.14758715 </v>
   <v>      -0.00000000      -0.00000000      -0.14758715 </v>
   <v>       0.00000000      -0.00000000      -0.14758715 </v>
   <v>      -0.00000000       0.00000000      -0.05945771 </v>
   <v>      -0.00000000       0.00000000      -0.05945771 </v>
   <v>      -0.00000000       0.00000000      -0.05945771 </v>
   <v>      -0.00000000       0.00000000      -0.05945771 </v>
   <v>      -0.00000000       0.00000000      -0.03820124 </v>
   <v>      -0.00000000      -0.00000000      -0.03820124 </v>
   <v>       0.00000000       0.00000000      -0.03820124 </v>
   <v>       0.00000000       0.00000000      -0.03820124 </v>
   <v>      -0.00000000      -0.00000000      -0.09803160 </v>
   <v>      -0.00000000       0.00000000      -0.09803160 </v>
   <v>       0.00000000      -0.00000000      -0.09803160 </v>
   <v>       0.00000000       0.00000000      -0.09803160 </v>
   <v>       0.00000000       0.00000000      -0.20675153 </v>
   <v>      -0.00000000      -0.00000000      -0.20675153 </v>
   <v>       0.00000000       0.00000000      -0.20675153 </v>
   <v>       0.00000000       0.00000000      -0.20675153 </v>
   <v>       0.00000000       0.00000000      -0.04422005 </v>
   <v>       0.00000000       0.00000000      -0.04422005 </v>
   <v>      -0.00000000      -0.00000000      -0.04422005 </v>
   <v>      -0.00000000      -0.00000000      -0.04422005 </v>
  </varray>
  <varray name="stress" >
   <v>     -35.22511134       0.00000000       0.00000000 </v>
   <v>       0.00000000     -34.04577823       0.00000000 </v>
   <v>       0.00000000       0.00000000     -24.79725178 </v>
  </varray>
  <energy>
   <i name="e_fr_energy">   -106.87615033 </i>
   <i name="e_wo_entrp">   -106.83497067 </i>
   <i name="e_0_energy">   -106.86242378 </i>
  </energy>
  <time name="totalsc">   55.75   56.23</time>
 </calculation>
 <calculation>
  <scstep>
   <time name="dav">    5.81    5.86</time>
   <time name="total">    6.31    6.36</time>
   <energy>
    <i name="alphaZ">    677.69866932 </i>
    <i name="ewald"> 134621.55046934 </i>
    <i name="hartreedc">-171827.63026792 </i>
    <i name="XCdc">   1246.94809834 </i>
    <i name="pawpsdc">  36468.59146699 </i>
    <i name="pawaedc"> -39481.71267688 </i>
    <i name="eentropy">     -0.02974401 </i>
    <i name="bandstr">   -748.82503459 </i>
    <i name="atom">  38946.81392559 </i>
    <i name="e_fr_energy">    -96.59509381 </i>
    <i name="e_wo_entrp">    -96.56534980 </i>
    <i name="e_0_energy">    -96.58517914 </i>
   </energy>
  </scstep>
  <scstep>
   <time name="dav">    7.59    7.65</time>
   <time name="total">    8.09    8.15</time>
   <energy>
    <i name="e_fr_energy">    -96.89187515 </i>
    <i name="e_wo_entrp">    -96.85698180 </i>
    <i name="e_0_energy">    -96.88024404 </i>
   </energy>
  </scstep>
  <scstep>
   <time name="dav">    6.42    6.47</time>
   <time name="total">    6.93    6.98</time>
   <energy>
    <i name="e_fr_energy">    -96.86877901 </i>
    <i name="e_wo_entrp">    -96.83580102 </i>
    <i name="e_0_energy">    -96.85778635 </i>
   </energy>
  </scstep>
  <scstep>
   <time name="dav">    5.99    6.04</time>
   <time name="total">    6.49    6.54</time>
   <energy>
    <i name="e_fr_energy">    -96.86655440 </i>
    <i name="e_wo_entrp">    -96.83442867 </i>
    <i name="e_0_energy">    -96.85584582 </i>
   </energy>
  </scstep>
  <scstep>
   <time name="dav">    5.76    5.80</time>
   <time name="total">    6.26    6.31</time>
   <energy>
    <i name="e_fr_energy">    -96.86469466 </i>
    <i name="e_wo_entrp">    -96.83123612 </i>
    <i name="e_0_energy">    -96.85354181 </i>
   </energy>
  </scstep>
  <scstep>
   <time name="dav">    7.18    7.24</time>
   <time name="total">    7.68    7.74</time>
   <energy>
    <i name="e_fr_energy">    -96.85833587 </i>
    <i name="e_wo_entrp">    -96.82608341 </i>
    <i name="e_0_energy">    -96.84758505 </i>
   </energy>
  </scstep>
  <scstep>
   <time name="dav">    6.69    6.74</time>
   <time name="total">    7.19    7.25</time>
   <energy>
    <i name="e_fr_energy">    -96.85825519 </i>
    <i name="e_wo_entrp">    -96.82611784 </i>
    <i name="e_0_energy">    -96.84754274 </i>
   </energy>
  </scstep>
  <scstep>
   <time name="dav">    5.64    5.68</time>
   <time name="total">    6.13    6.18</time>
   <energy>
    <i name="e_fr_energy">    -96.85799912 </i>
    <i name="e_wo_entrp">    -96.82618822 </i>
    <i name="e_0_energy">    -96.84739549 </i>
   </energy>
  </scstep>
  <scstep>
   <time name="dav">    4.61    4.64</time>
   <time name="total">    4.68    4.72</time>
   <energy>
    <i name="alphaZ">    677.69866932 </i>
    <i name="ewald"> 134621.55046934 </i>
    <i name="hartreedc">-171824.95963885 </i>
    <i name="XCdc">   1246.76846822 </i>
    <i name="pawpsdc">  36519.57392994 </i>
    <i name="pawaedc"> -39533.65274064 </i>
    <i name="eentropy">     -0.03195605 </i>
    <i name="bandstr">   -750.61914868 </i>
    <i name="atom">  38946.81392559 </i>
    <i name="e_fr_energy">    -96.85802181 </i>
    <i name="e_wo_entrp">    -96.82606576 </i>
    <i name="e_0_energy">    -96.84736979 </i>
   </energy>
  </scstep>
  <dipole>
   <v name="dipole">      0.00000000       0.00000000       0.01509253 </v>
   <i name="Tr[quadrupol]">  -2389.22143243 </i>
   <i name="Echarged">      0.00000000 </i>
   <i name="Edipol_quadrupol">      0.00000000 </i>
   <i name="Eion">      0.00000000 </i>
  </dipole>
  <structure>
   <crystal>
    <varray name="basis" >
     <v>       7.26000023       0.00000000       0.00000000 </v>
     <v>       0.00000000       5.13359547       0.00000000 </v>
     <v>       0.00000000       0.00000000      22.70039300 </v>
    </varray>
    <i name="volume">    846.04147383 </i>
    <varray name="rec_basis" >
     <v>       0.13774104       0.00000000       0.00000000 </v>
     <v>       0.00000000       0.19479525       0.00000000 </v>
     <v>       0.00000000       0.00000000       0.04405210 </v>
    </varray>
   </crystal>
   <varray name="positions" >
    <v>       0.00000000       0.00000000       0.00000000 </v>
    <v>       0.00000000       0.50000000       0.00000000 </v>
    <v>       0.50000000       0.00000000       0.00000000 </v>
    <v>       0.50000000       0.50000000       0.00000000 </v>
    <v>       0.25000000       0.25000000       0.05653641 </v>
    <v>       0.25000000       0.75000000       0.05653641 </v>
    <v>       0.75000000       0.25000000       0.05653641 </v>
    <v>       0.75000000       0.75000000       0.05653641 </v>
    <v>       0.00000000       0.00000000       0.11358101 </v>
    <v>      -0.00000000       0.50000000       0.11358101 </v>
    <v>       0.50000000      -0.00000000       0.11358101 </v>
    <v>       0.50000000       0.50000000       0.11358101 </v>
    <v>       0.25000000       0.25000000       0.17004760 </v>
    <v>       0.25000000       0.75000000       0.17004760 </v>
    <v>       0.75000000       0.25000000       0.17004760 </v>
    <v>       0.75000000       0.75000000       0.17004760 </v>
    <v>       0.00000000       0.00000000       0.22273797 </v>
    <v>       0.00000000       0.50000000       0.22273797 </v>
    <v>       0.50000000      -0.00000000       0.22273797 </v>
    <v>       0.50000000       0.50000000       0.22273797 </v>
    <v>       0.25000000       0.25000000       0.28143323 </v>
    <v>       0.25000000       0.75000000       0.28143323 </v>
    <v>       0.75000000       0.25000000       0.28143323 </v>
    <v>       0.75000000       0.75000000       0.28143323 </v>
    <v>      -0.00000000      -0.00000000       0.33126446 </v>
    <v>      -0.00000000       0.50000000       0.33126446 </v>
    <v>       0.50000000      -0.00000000       0.33126446 </v>
    <v>       0.50000000       0.50000000       0.33126446 </v>
   </varray>
  </structure>
  <varray name="forces" >
   <v>      -0.00000000       0.00000000       0.59383734 </v>
   <v>      -0.00000000      -0.00000000       0.59383734 </v>
   <v>      -0.00000000       0.00000000       0.59383734 </v>
   <v>      -0.00000000       0.00000000       0.59383734 </v>
   <v>       0.00000000      -0.00000000      -0.14467417 </v>
   <v>      -0.00000000       0.00000000      -0.14467417 </v>
   <v>      -0.00000000      -0.00000000      -0.14467417 </v>
   <v>       0.00000000       0.00000000      -0.14467417 </v>
   <v>       0.00000000       0.00000000      -0.11397487 </v>
   <v>       0.00000000       0.00000000      -0.11397487 </v>
   <v>       0.00000000       0.00000000      -0.11397487 </v>
   <v>       0.00000000       0.00000000      -0.11397487 </v>
   <v>       0.00000000       0.00000000      -0.27467442 </v>
   <v>       0.00000000       0.00000000      -0.27467442 </v>
   <v>       0.00000000       0.00000000      -0.27467442 </v>
   <v>      -0.00000000       0.00000000      -0.27467442 </v>
   <v>       0.00000000      -0.00000000       0.07951379 </v>
   <v>       0.00000000       0.00000000       0.07951379 </v>
   <v>      -0.00000000      -0.00000000       0.07951379 </v>
   <v>      -0.00000000       0.00000000       0.07951379 </v>
   <v>      -0.00000000       0.00000000      -0.09358797 </v>
   <v>      -0.00000000      -0.00000000      -0.09358797 </v>
   <v>       0.00000000       0.00000000      -0.09358797 </v>
   <v>       0.00000000       0.00000000      -0.09358797 </v>
   <v>       0.00000000       0.00000000      -0.04643970 </v>
   <v>       0.00000000      -0.00000000      -0.04643970 </v>
   <v>       0.00000000      -0.00000000      -0.04643970 </v>
   <v>       0.00000000       0.00000000      -0.04643970 </v>
  </varray>
  <varray name="stress" >
   <v>     -33.24279634       0.00000000       0.00000000 </v>
   <v>       0.00000000     -31.62694810       0.00000000 </v>
   <v>       0.00000000       0.00000000     -19.69345958 </v>
  </varray>
  <energy>
   <i name="e_fr_energy">   -106.91444276 </i>
   <i name="e_wo_entrp">   -106.88248671 </i>
   <i name="e_0_energy">   -106.90379075 </i>
  </energy>
  <time name="totalsc">   70.39   70.96</time>
 </calculation>
 <calculation>
  <scstep>
   <time name="dav">    5.85    5.90</time>
   <time name="total">    6.35    6.40</time>
   <energy>
    <i name="alphaZ">    677.69866932 </i>
    <i name="ewald"> 135027.57840118 </i>
    <i name="hartreedc">-172230.22192981 </i>
    <i name="XCdc">   1246.90109208 </i>
    <i name="pawpsdc">  36519.86076044 </i>
    <i name="pawaedc"> -39533.90556571 </i>
    <i name="eentropy">     -0.02732404 </i>
    <i name="bandstr">   -751.53621503 </i>
    <i name="atom">  38946.81392559 </i>
    <i name="e_fr_energy">    -96.83818597 </i>
    <i name="e_wo_entrp">    -96.81086193 </i>
    <i name="e_0_energy">    -96.82907795 </i>
   </energy>
  </scstep>
  <scstep>
   <time name="dav">    7.76    7.83</time>
   <time name="total">    8.26    8.32</time>
   <energy>
    <i name="e_fr_energy">    -96.86684124 </i>
    <i name="e_wo_entrp">    -96.83879964 </i>
    <i name="e_0_energy">    -96.85749404 </i>
   </energy>
  </scstep>
  <scstep>
   <time name="dav">    5.88    5.92</time>
   <time name="total">    6.37    6.42</time>
   <energy>
    <i name="e_fr_energy">    -96.86529277 </i>
    <i name="e_wo_entrp">    -96.83704433 </i>
    <i name="e_0_energy">    -96.85587662 </i>
   </energy>
  </scstep>
  <scstep>
   <time name="dav">    5.73    5.78</time>
   <time name="total">    6.22    6.27</time>
   <energy>
    <i name="e_fr_energy">    -96.86516650 </i>
    <i name="e_wo_entrp">    -96.83721165 </i>
    <i name="e_0_energy">    -96.85584822 </i>
   </energy>
  </scstep>
  <scstep>
   <time name="dav">    5.85    5.90</time>
   <time name="total">    6.35    6.40</time>
   <energy>
    <i name="e_fr_energy">    -96.86492718 </i>
    <i name="e_wo_entrp">    -96.83678848 </i>
    <i name="e_0_energy">    -96.85554762 </i>
   </energy>
  </scstep>
  <scstep>
   <time name="dav">    6.91    6.96</time>
   <time name="total">    7.41    7.46</time>
   <energy>
    <i name="e_fr_energy">    -96.86450777 </i>
    <i name="e_wo_entrp">    -96.83684171 </i>
    <i name="e_0_energy">    -96.85528575 </i>
   </energy>
  </scstep>
  <scstep>
   <time name="dav">    4.20    4.23</time>
   <time name="total">    4.28    4.31</time>
   <energy>
    <i name="alphaZ">    677.69866932 </i>
    <i name="ewald"> 135027.57840118 </i>
    <i name="hartreedc">-172229.40495428 </i>
    <i name="XCdc">   1246.86485882 </i>
    <i name="pawpsdc">  36534.20373481 </i>
    <i name="pawaedc"> -39548.62212065 </i>
    <i name="eentropy">     -0.02785947 </i>
    <i name="bandstr">   -751.96911467 </i>
    <i name="atom">  38946.81392559 </i>
    <i name="e_fr_energy">    -96.86445936 </i>
    <i name="e_wo_entrp">    -96.83659988 </i>
    <i name="e_0_energy">    -96.85517287 </i>
   </energy>
  </scstep>
  <dipole>
   <v name="dipole">      0.00000000       0.00000000       0.01636351 </v>
   <i name="Tr[quadrupol]">  -2389.20704810 </i>
   <i name="Echarged">      0.00000000 </i>
   <i name="Edipol_quadrupol">      0.00000000 </i>
   <i name="Eion">      0.00000000 </i>
  </dipole>
  <structure>
   <crystal>
    <varray name="basis" >
     <v>       7.26000023       0.00000000       0.00000000 </v>
     <v>       0.00000000       5.13359547       0.00000000 </v>
     <v>       0.00000000       0.00000000      22.70039300 </v>
    </varray>
    <i name="volume">    846.04147383 </i>
    <varray name="rec_basis" >
     <v>       0.13774104       0.00000000       0.00000000 </v>
     <v>       0.00000000       0.19479525       0.00000000 </v>
     <v>       0.00000000       0.00000000       0.04405210 </v>
    </varray>
   </crystal>
   <varray name="positions" >
    <v>       0.00000000       0.00000000       0.00000000 </v>
    <v>       0.00000000       0.50000000       0.00000000 </v>
    <v>       0.50000000       0.00000000       0.00000000 </v>
    <v>       0.50000000       0.50000000       0.00000000 </v>
    <v>       0.25000000       0.25000000       0.05653641 </v>
    <v>       0.25000000       0.75000000       0.05653641 </v>
    <v>       0.75000000       0.25000000       0.05653641 </v>
    <v>       0.75000000       0.75000000       0.05653641 </v>
    <v>       0.00000000       0.00000000       0.11324561 </v>
    <v>      -0.00000000       0.50000000       0.11324561 </v>
    <v>       0.50000000      -0.00000000       0.11324561 </v>
    <v>       0.50000000       0.50000000       0.11324561 </v>
    <v>       0.25000000       0.25000000       0.16949116 </v>
    <v>       0.25000000       0.75000000       0.16949116 </v>
    <v>       0.75000000       0.25000000       0.16949116 </v>
[...]
       <r>     8.7562     3.8486   199.2853 </r>
       <r>     8.8279     3.4366   199.5318 </r>
       <r>     8.8997     3.0608   199.7513 </r>
       <r>     8.9714     2.2647   199.9137 </r>
       <r>     9.0431     1.1976   199.9996 </r>
       <r>     9.1148     0.3321   200.0234 </r>
       <r>     9.1865    -0.0756   200.0179 </r>
       <r>     9.2582    -0.1361   200.0082 </r>
       <r>     9.3299    -0.0778   200.0026 </r>
       <r>     9.4016    -0.0279   200.0006 </r>
       <r>     9.4733    -0.0070   200.0001 </r>
       <r>     9.5451    -0.0013   200.0000 </r>
       <r>     9.6168    -0.0002   200.0000 </r>
       <r>     9.6885    -0.0000   200.0000 </r>
       <r>     9.7602    -0.0000   200.0000 </r>
       <r>     9.8319    -0.0000   200.0000 </r>
       <r>     9.9036    -0.0000   200.0000 </r>
       <r>     9.9753    -0.0000   200.0000 </r>
       <r>    10.0470    -0.0000   200.0000 </r>
       <r>    10.1187    -0.0000   200.0000 </r>
       <r>    10.1905    -0.0000   200.0000 </r>
       <r>    10.2622     0.0000   200.0000 </r>
       <r>    10.3339     0.0000   200.0000 </r>
       <r>    10.4056     0.0000   200.0000 </r>
       <r>    10.4773     0.0000   200.0000 </r>
       <r>    10.5490     0.0000   200.0000 </r>
       <r>    10.6207     0.0000   200.0000 </r>
       <r>    10.6924     0.0000   200.0000 </r>
       <r>    10.7641     0.0000   200.0000 </r>
       <r>    10.8359     0.0000   200.0000 </r>
       <r>    10.9076     0.0000   200.0000 </r>
      </set>
      <set comment="spin 2">
       <r>   -10.6058     0.0000     0.0000 </r>
       <r>   -10.5340     0.0000     0.0000 </r>
       <r>   -10.4623     0.0000     0.0000 </r>
       <r>   -10.3906     0.0000     0.0000 </r>
       <r>   -10.3189     0.0000     0.0000 </r>
       <r>   -10.2472    -0.0000    -0.0000 </r>
       <r>   -10.1755    -0.0000    -0.0000 </r>
       <r>   -10.1038    -0.0000    -0.0000 </r>
       <r>   -10.0321    -0.0000    -0.0000 </r>
       <r>    -9.9604    -0.0000    -0.0000 </r>
       <r>    -9.8886    -0.0000    -0.0000 </r>
       <r>    -9.8169    -0.0000    -0.0000 </r>
       <r>    -9.7452    -0.0000    -0.0000 </r>
       <r>    -9.6735    -0.0000    -0.0000 </r>
       <r>    -9.6018    -0.0000    -0.0000 </r>
       <r>    -9.5301    -0.0000    -0.0000 </r>
       <r>    -9.4584    -0.0000    -0.0000 </r>
       <r>    -9.3867    -0.0000    -0.0000 </r>
       <r>    -9.3150    -0.0000    -0.0000 </r>
       <r>    -9.2432    -0.0000    -0.0000 </r>
       <r>    -9.1715    -0.0003    -0.0000 </r>
       <r>    -9.0998    -0.0017    -0.0001 </r>
       <r>    -9.0281    -0.0064    -0.0006 </r>
       <r>    -8.9564    -0.0168    -0.0018 </r>
       <r>    -8.8847    -0.0245    -0.0036 </r>
       <r>    -8.8130     0.0041    -0.0033 </r>
       <r>    -8.7413     0.1126     0.0048 </r>
       <r>    -8.6696     0.2839     0.0252 </r>
       <r>    -8.5978     0.4041     0.0541 </r>
       <r>    -8.5261     0.3884     0.0820 </r>
       <r>    -8.4544     0.3430     0.1066 </r>
       <r>    -8.3827     0.4620     0.1397 </r>
       <r>    -8.3110     0.7208     0.1914 </r>
       <r>    -8.2393     0.8500     0.2524 </r>
       <r>    -8.1676     0.7182     0.3039 </r>
       <r>    -8.0959     0.5527     0.3435 </r>
       <r>    -8.0242     0.6000     0.3865 </r>
       <r>    -7.9524     0.7498     0.4403 </r>
       <r>    -7.8807     0.7620     0.4949 </r>
       <r>    -7.8090     0.7427     0.5482 </r>
       <r>    -7.7373     1.0167     0.6211 </r>
       <r>    -7.6656     1.5137     0.7296 </r>
       <r>    -7.5939     1.7298     0.8537 </r>
       <r>    -7.5222     1.4673     0.9589 </r>
       <r>    -7.4505     1.1503     1.0414 </r>
       <r>    -7.3788     1.1460     1.1236 </r>
       <r>    -7.3070     1.2449     1.2129 </r>
       <r>    -7.2353     1.1291     1.2938 </r>
       <r>    -7.1636     0.8988     1.3583 </r>
       <r>    -7.0919     0.7789     1.4141 </r>
       <r>    -7.0202     0.7204     1.4658 </r>
       <r>    -6.9485     0.6963     1.5157 </r>
       <r>    -6.8768     1.0125     1.5883 </r>
       <r>    -6.8051     1.8111     1.7182 </r>
       <r>    -6.7334     2.5379     1.9002 </r>
       <r>    -6.6616     2.5367     2.0821 </r>
       <r>    -6.5899     2.0021     2.2257 </r>
       <r>    -6.5182     1.6548     2.3444 </r>
       <r>    -6.4465     1.6751     2.4645 </r>
       <r>    -6.3748     1.7078     2.5870 </r>
       <r>    -6.3031     1.6529     2.7055 </r>
       <r>    -6.2314     1.6853     2.8263 </r>
       <r>    -6.1597     1.7977     2.9552 </r>
       <r>    -6.0880     1.9546     3.0954 </r>
       <r>    -6.0162     2.2655     3.2579 </r>
       <r>    -5.9445     2.5607     3.4415 </r>
       <r>    -5.8728     2.4228     3.6152 </r>
       <r>    -5.8011     1.9478     3.7549 </r>
       <r>    -5.7294     1.7526     3.8806 </r>
       <r>    -5.6577     2.0705     4.0291 </r>
       <r>    -5.5860     2.5842     4.2144 </r>
       <r>    -5.5143     3.1338     4.4391 </r>
       <r>    -5.4426     3.7770     4.7100 </r>
       <r>    -5.3708     4.2362     5.0138 </r>
       <r>    -5.2991     4.1102     5.3085 </r>
       <r>    -5.2274     3.6369     5.5693 </r>
       <r>    -5.1557     3.6028     5.8277 </r>
       <r>    -5.0840     4.3266     6.1379 </r>
       <r>    -5.0123     5.0619     6.5009 </r>
       <r>    -4.9406     4.7604     6.8423 </r>
       <r>    -4.8689     3.4635     7.0907 </r>
       <r>    -4.7972     2.4833     7.2688 </r>
       <r>    -4.7254     2.9611     7.4811 </r>
       <r>    -4.6537     4.7793     7.8238 </r>
       <r>    -4.5820     7.1601     8.3373 </r>
       <r>    -4.5103     9.6551     9.0297 </r>
       <r>    -4.4386    12.0600     9.8945 </r>
       <r>    -4.3669    13.7688    10.8819 </r>
       <r>    -4.2952    13.9716    11.8838 </r>
       <r>    -4.2235    12.9494    12.8124 </r>
       <r>    -4.1518    12.5203    13.7103 </r>
       <r>    -4.0801    14.1730    14.7266 </r>
       <r>    -4.0083    17.3345    15.9697 </r>
       <r>    -3.9366    20.4893    17.4390 </r>
       <r>    -3.8649    23.2561    19.1067 </r>
       <r>    -3.7932    26.2375    20.9882 </r>
       <r>    -3.7215    29.1017    23.0752 </r>
       <r>    -3.6498    30.1495    25.2372 </r>
       <r>    -3.5781    28.5826    27.2869 </r>
       <r>    -3.5064    26.0013    29.1515 </r>
       <r>    -3.4347    24.3961    30.9009 </r>
       <r>    -3.3629    23.8360    32.6103 </r>
       <r>    -3.2912    23.5476    34.2989 </r>
       <r>    -3.2195    24.3939    36.0482 </r>
       <r>    -3.1478    28.4633    38.0893 </r>
       <r>    -3.0761    35.6558    40.6462 </r>
       <r>    -3.0044    42.0069    43.6586 </r>
       <r>    -2.9327    43.2459    46.7598 </r>
       <r>    -2.8610    40.0541    49.6321 </r>
       <r>    -2.7893    37.8724    52.3480 </r>
       <r>    -2.7175    40.8825    55.2797 </r>
       <r>    -2.6458    47.9727    58.7199 </r>
       <r>    -2.5741    54.8381    62.6524 </r>
       <r>    -2.5024    57.8609    66.8017 </r>
       <r>    -2.4307    55.9540    70.8142 </r>
       <r>    -2.3590    50.6799    74.4485 </r>
       <r>    -2.2873    44.9324    77.6707 </r>
       <r>    -2.2156    41.0502    80.6144 </r>
       <r>    -2.1439    39.9250    83.4775 </r>
       <r>    -2.0721    41.0436    86.4208 </r>
       <r>    -2.0004    43.5109    89.5410 </r>
       <r>    -1.9287    47.1787    92.9242 </r>
       <r>    -1.8570    51.3821    96.6089 </r>
       <r>    -1.7853    53.6561   100.4566 </r>
       <r>    -1.7136    52.5603   104.2258 </r>
       <r>    -1.6419    50.4110   107.8408 </r>
       <r>    -1.5702    50.8999   111.4909 </r>
       <r>    -1.4985    55.5684   115.4758 </r>
       <r>    -1.4267    63.3184   120.0164 </r>
       <r>    -1.3550    71.5383   125.1465 </r>
       <r>    -1.2833    77.2040   130.6829 </r>
       <r>    -1.2116    77.2134   136.2199 </r>
       <r>    -1.1399    68.6010   141.1394 </r>
       <r>    -1.0682    51.0750   144.8020 </r>
       <r>    -0.9965    29.7351   146.9344 </r>
       <r>    -0.9248    12.3765   147.8219 </r>
       <r>    -0.8531     3.3164   148.0597 </r>
       <r>    -0.7813     1.3765   148.1584 </r>
       <r>    -0.7096     3.0814   148.3794 </r>
       <r>    -0.6379     5.6787   148.7866 </r>
       <r>    -0.5662     7.5088   149.3251 </r>
       <r>    -0.4945     7.6806   149.8759 </r>
       <r>    -0.4228     6.2696   150.3255 </r>
       <r>    -0.3511     4.2207   150.6282 </r>
       <r>    -0.2794     2.6575   150.8187 </r>
       <r>    -0.2077     2.2190   150.9778 </r>
       <r>    -0.1359     2.7369   151.1741 </r>
       <r>    -0.0642     3.4807   151.4237 </r>
       <r>     0.0075     4.0142   151.7116 </r>
       <r>     0.0792     4.6379   152.0442 </r>
       <r>     0.1509     5.6427   152.4488 </r>
       <r>     0.2226     6.5713   152.9201 </r>
       <r>     0.2943     6.7689   153.4055 </r>
       <r>     0.3660     6.2698   153.8551 </r>
       <r>     0.4377     5.5963   154.2564 </r>
       <r>     0.5095     5.0160   154.6161 </r>
       <r>     0.5812     4.4581   154.9358 </r>
       <r>     0.6529     3.8799   155.2140 </r>
       <r>     0.7246     3.4586   155.4620 </r>
       <r>     0.7963     3.5717   155.7182 </r>
       <r>     0.8680     4.3934   156.0332 </r>
       <r>     0.9397     5.3743   156.4186 </r>
       <r>     1.0114     5.6452   156.8234 </r>
       <r>     1.0831     5.0812   157.1878 </r>
       <r>     1.1549     4.3637   157.5007 </r>
       <r>     1.2266     3.9409   157.7834 </r>
       <r>     1.2983     3.6356   158.0441 </r>
       <r>     1.3700     3.3688   158.2856 </r>
       <r>     1.4417     3.5458   158.5399 </r>
       <r>     1.5134     4.4205   158.8569 </r>
       <r>     1.5851     5.4051   159.2445 </r>
       <r>     1.6568     5.3836   159.6306 </r>
       <r>     1.7285     3.9965   159.9172 </r>
       <r>     1.8003     2.4269   160.0912 </r>
       <r>     1.8720     2.3946   160.2629 </r>
       <r>     1.9437     4.3694   160.5763 </r>
       <r>     2.0154     7.0301   161.0804 </r>
       <r>     2.0871     8.3986   161.6827 </r>
       <r>     2.1588     7.5179   162.2218 </r>
       <r>     2.2305     5.2220   162.5963 </r>
       <r>     2.3022     3.2488   162.8293 </r>
       <r>     2.3739     2.6071   163.0162 </r>
       <r>     2.4457     2.9688   163.2291 </r>
       <r>     2.5174     3.4819   163.4788 </r>
       <r>     2.5891     3.7134   163.7451 </r>
       <r>     2.6608     3.6916   164.0098 </r>
       <r>     2.7325     3.4941   164.2604 </r>
       <r>     2.8042     3.2001   164.4899 </r>
       <r>     2.8759     2.9903   164.7043 </r>
       <r>     2.9476     3.0212   164.9210 </r>
       <r>     3.0193     3.4500   165.1684 </r>
       <r>     3.0911     4.4210   165.4854 </r>
       <r>     3.1628     5.4971   165.8796 </r>
       <r>     3.2345     5.5891   166.2804 </r>
       <r>     3.3062     4.2963   166.5885 </r>
       <r>     3.3779     2.8404   166.7922 </r>
       <r>     3.4496     2.7125   166.9867 </r>
       <r>     3.5213     3.7628   167.2565 </r>
       <r>     3.5930     4.6278   167.5884 </r>
       <r>     3.6647     4.7216   167.9270 </r>
       <r>     3.7365     4.6200   168.2583 </r>
       <r>     3.8082     4.7020   168.5955 </r>
       <r>     3.8799     4.6330   168.9277 </r>
       <r>     3.9516     4.1245   169.2235 </r>
       <r>     4.0233     3.3970   169.4671 </r>
       <r>     4.0950     2.8931   169.6746 </r>
       <r>     4.1667     2.8390   169.8781 </r>
       <r>     4.2384     3.1723   170.1056 </r>
       <r>     4.3101     3.8259   170.3800 </r>
       <r>     4.3819     4.7499   170.7206 </r>
       <r>     4.4536     5.5461   171.1183 </r>
       <r>     4.5253     5.5128   171.5137 </r>
       <r>     4.5970     4.4121   171.8301 </r>
       <r>     4.6687     2.9829   172.0440 </r>
       <r>     4.7404     2.3408   172.2118 </r>
       <r>     4.8121     2.8740   172.4179 </r>
       <r>     4.8838     3.8638   172.6950 </r>
       <r>     4.9555     4.2701   173.0012 </r>
       <r>     5.0273     3.9325   173.2832 </r>
       <r>     5.0990     3.8321   173.5580 </r>
       <r>     5.1707     4.9732   173.9147 </r>
       <r>     5.2424     7.1051   174.4242 </r>
       <r>     5.3141     8.8288   175.0573 </r>
       <r>     5.3858     9.1041   175.7102 </r>
       <r>     5.4575     8.3855   176.3115 </r>
       <r>     5.5292     7.8934   176.8775 </r>
       <r>     5.6009     8.0052   177.4516 </r>
       <r>     5.6727     7.9764   178.0236 </r>
       <r>     5.7444     7.1622   178.5372 </r>
       <r>     5.8161     5.9056   178.9607 </r>
       <r>     5.8878     5.1024   179.3266 </r>
       <r>     5.9595     5.2641   179.7041 </r>
       <r>     6.0312     6.1968   180.1485 </r>
       <r>     6.1029     7.2629   180.6693 </r>
       <r>     6.1746     7.6639   181.2189 </r>
       <r>     6.2463     6.8906   181.7130 </r>
       <r>     6.3181     5.3074   182.0936 </r>
       <r>     6.3898     4.0421   182.3835 </r>
       <r>     6.4615     4.0835   182.6763 </r>
       <r>     6.5332     5.4664   183.0683 </r>
       <r>     6.6049     7.1233   183.5791 </r>
       <r>     6.6766     7.5930   184.1236 </r>
       <r>     6.7483     6.3712   184.5805 </r>
       <r>     6.8200     4.5825   184.9091 </r>
       <r>     6.8917     3.9174   185.1901 </r>
       <r>     6.9635     5.1127   185.5567 </r>
       <r>     7.0352     7.6065   186.1022 </r>
       <r>     7.1069     9.9853   186.8182 </r>
       <r>     7.1786    10.7127   187.5864 </r>
       <r>     7.2503     9.3918   188.2599 </r>
       <r>     7.3220     7.4590   188.7948 </r>
       <r>     7.3937     6.8538   189.2863 </r>
       <r>     7.4654     7.9515   189.8565 </r>
       <r>     7.5371     9.4020   190.5308 </r>
       <r>     7.6089     9.8779   191.2391 </r>
       <r>     7.6806     9.3636   191.9106 </r>
       <r>     7.7523     8.7066   192.5350 </r>
       <r>     7.8240     8.3157   193.1313 </r>
       <r>     7.8957     7.7104   193.6842 </r>
       <r>     7.9674     6.5571   194.1544 </r>
       <r>     8.0391     5.6135   194.5570 </r>
       <r>     8.1108     5.8580   194.9771 </r>
       <r>     8.1825     6.9870   195.4781 </r>
       <r>     8.2543     7.7454   196.0335 </r>
       <r>     8.3260     7.6698   196.5835 </r>
       <r>     8.3977     7.4841   197.1202 </r>
       <r>     8.4694     7.6284   197.6673 </r>
       <r>     8.5411     7.4582   198.2021 </r>
       <r>     8.6128     6.3770   198.6594 </r>
       <r>     8.6845     4.8772   199.0092 </r>
       <r>     8.7562     3.8494   199.2852 </r>
       <r>     8.8279     3.4369   199.5317 </r>
       <r>     8.8997     3.0612   199.7512 </r>
       <r>     8.9714     2.2652   199.9136 </r>
       <r>     9.0431     1.1980   199.9995 </r>
       <r>     9.1148     0.3323   200.0234 </r>
       <r>     9.1865    -0.0755   200.0180 </r>
       <r>     9.2582    -0.1361   200.0082 </r>
       <r>     9.3299    -0.0778   200.0026 </r>
       <r>     9.4016    -0.0279   200.0006 </r>
       <r>     9.4733    -0.0070   200.0001 </r>
       <r>     9.5451    -0.0013   200.0000 </r>
       <r>     9.6168    -0.0002   200.0000 </r>
       <r>     9.6885    -0.0000   200.0000 </r>
       <r>     9.7602    -0.0000   200.0000 </r>
       <r>     9.8319    -0.0000   200.0000 </r>
       <r>     9.9036    -0.0000   200.0000 </r>
       <r>     9.9753    -0.0000   200.0000 </r>
       <r>    10.0470    -0.0000   200.0000 </r>
       <r>    10.1187    -0.0000   200.0000 </r>
       <r>    10.1905    -0.0000   200.0000 </r>
       <r>    10.2622     0.0000   200.0000 </r>
       <r>    10.3339     0.0000   200.0000 </r>
       <r>    10.4056     0.0000   200.0000 </r>
       <r>    10.4773     0.0000   200.0000 </r>
       <r>    10.5490     0.0000   200.0000 </r>
       <r>    10.6207     0.0000   200.0000 </r>
       <r>    10.6924     0.0000   200.0000 </r>
       <r>    10.7641     0.0000   200.0000 </r>
       <r>    10.8359     0.0000   200.0000 </r>
       <r>    10.9076     0.0000   200.0000 </r>
      </set>
     </set>
    </array>
   </total>
  </dos>
 </calculation>
 <structure name="finalpos" >
  <crystal>
   <varray name="basis" >
    <v>       7.26000023       0.00000000       0.00000000 </v>
    <v>       0.00000000       5.13359547       0.00000000 </v>
    <v>       0.00000000       0.00000000      22.70039300 </v>
   </varray>
   <i name="volume">    846.04147383 </i>
   <varray name="rec_basis" >
    <v>       0.13774104       0.00000000       0.00000000 </v>
    <v>       0.00000000       0.19479525       0.00000000 </v>
    <v>       0.00000000       0.00000000       0.04405210 </v>
   </varray>
  </crystal>
  <varray name="positions" >
   <v>       0.00000000       0.00000000       0.00000000 </v>
   <v>       0.00000000       0.50000000       0.00000000 </v>
   <v>       0.50000000       0.00000000       0.00000000 </v>
   <v>       0.50000000       0.50000000       0.00000000 </v>
   <v>       0.25000000       0.25000000       0.05653641 </v>
   <v>       0.25000000       0.75000000       0.05653641 </v>
   <v>       0.75000000       0.25000000       0.05653641 </v>
   <v>       0.75000000       0.75000000       0.05653641 </v>
   <v>       0.00000000       0.00000000       0.11086569 </v>
   <v>      -0.00000000       0.50000000       0.11086569 </v>
   <v>       0.50000000      -0.00000000       0.11086569 </v>
   <v>       0.50000000       0.50000000       0.11086569 </v>
   <v>       0.25000000       0.25000000       0.16580411 </v>
   <v>       0.25000000       0.75000000       0.16580411 </v>
   <v>       0.75000000       0.25000000       0.16580411 </v>
   <v>       0.75000000       0.75000000       0.16580411 </v>
   <v>       0.00000000      -0.00000000       0.21926056 </v>
   <v>       0.00000000       0.50000000       0.21926056 </v>
   <v>       0.50000000      -0.00000000       0.21926056 </v>
   <v>       0.50000000       0.50000000       0.21926056 </v>
   <v>       0.25000000       0.25000000       0.27669983 </v>
   <v>       0.25000000       0.75000000       0.27669983 </v>
   <v>       0.75000000       0.25000000       0.27669983 </v>
   <v>       0.75000000       0.75000000       0.27669983 </v>
   <v>      -0.00000000      -0.00000000       0.32714835 </v>
   <v>      -0.00000000       0.50000000       0.32714835 </v>
   <v>       0.50000000      -0.00000000       0.32714835 </v>
   <v>       0.50000000       0.50000000       0.32714835 </v>
  </varray>
  <varray name="selective"  type="logical" >
   <v type="logical" >  F  F  F </v>
   <v type="logical" >  F  F  F </v>
   <v type="logical" >  F  F  F </v>
   <v type="logical" >  F  F  F </v>
   <v type="logical" >  F  F  F </v>
   <v type="logical" >  F  F  F </v>
   <v type="logical" >  F  F  F </v>
   <v type="logical" >  F  F  F </v>
   <v type="logical" >  T  T  T </v>
   <v type="logical" >  T  T  T </v>
   <v type="logical" >  T  T  T </v>
   <v type="logical" >  T  T  T </v>
   <v type="logical" >  T  T  T </v>
   <v type="logical" >  T  T  T </v>
   <v type="logical" >  T  T  T </v>
   <v type="logical" >  T  T  T </v>
   <v type="logical" >  T  T  T </v>
   <v type="logical" >  T  T  T </v>
   <v type="logical" >  T  T  T </v>
   <v type="logical" >  T  T  T </v>
   <v type="logical" >  T  T  T </v>
   <v type="logical" >  T  T  T </v>
   <v type="logical" >  T  T  T </v>
   <v type="logical" >  T  T  T </v>
   <v type="logical" >  T  T  T </v>
   <v type="logical" >  T  T  T </v>
   <v type="logical" >  T  T  T </v>
   <v type="logical" >  T  T  T </v>
  </varray>
  <nose>
   <v>      -3.00000000       0.00000000       0.00010000       0.00010000 </v>
  </nose>
 </structure>
</modeling>
