unknown system                          
           1
     7.260000    0.000000    0.000000
     0.000000    5.133595    0.000000
     0.000000    0.000000   22.700393
   Cu
    28
Direct configuration=     1
   0.00000000  0.00000000  0.00000000
   0.00000000  0.50000000  0.00000000
   0.50000000  0.00000000  0.00000000
   0.50000000  0.50000000  0.00000000
   0.25000000  0.25000000  0.05653641
   0.25000000  0.75000000  0.05653641
   0.75000000  0.25000000  0.05653641
   0.75000000  0.75000000  0.05653641
   0.00000000  0.00000000  0.11307283
   0.00000000  0.50000000  0.11307283
   0.50000000  0.00000000  0.11307283
   0.50000000  0.50000000  0.11307283
   0.25000000  0.25000000  0.16960924
   0.25000000  0.75000000  0.16960924
   0.75000000  0.25000000  0.16960924
   0.75000000  0.75000000  0.16960924
   0.00000000  0.00000000  0.22614566
   0.00000000  0.50000000  0.22614566
   0.50000000  0.00000000  0.22614566
   0.50000000  0.50000000  0.22614566
   0.25000000  0.25000000  0.28268207
   0.25000000  0.75000000  0.28268207
   0.75000000  0.25000000  0.28268207
   0.75000000  0.75000000  0.28268207
   0.00000000  0.00000000  0.33921849
   0.00000000  0.50000000  0.33921849
   0.50000000  0.00000000  0.33921849
   0.50000000  0.50000000  0.33921849
Direct configuration=     2
   0.00000000  0.00000000  0.00000000
   0.00000000  0.50000000  0.00000000
   0.50000000  0.00000000  0.00000000
   0.50000000  0.50000000  0.00000000
   0.25000000  0.25000000  0.05653641
   0.25000000  0.75000000  0.05653641
   0.75000000  0.25000000  0.05653641
   0.75000000  0.75000000  0.05653641
   0.00000000 -0.00000000  0.11327272
  -0.00000000  0.50000000  0.11327272
   0.50000000 -0.00000000  0.11327272
   0.50000000  0.50000000  0.11327272
   0.25000000  0.25000000  0.16961000
   0.25000000  0.75000000  0.16961000
   0.75000000  0.25000000  0.16961000
   0.75000000  0.75000000  0.16961000
   0.00000000  0.00000000  0.22594432
   0.00000000  0.50000000  0.22594432
   0.50000000 -0.00000000  0.22594432
   0.50000000  0.50000000  0.22594432
   0.25000000  0.25000000  0.28302950
   0.25000000  0.75000000  0.28302950
   0.75000000  0.25000000  0.28302950
   0.75000000  0.75000000  0.28302950
   0.00000000 -0.00000000  0.33804137
  -0.00000000  0.50000000  0.33804137
   0.50000000 -0.00000000  0.33804137
   0.50000000  0.50000000  0.33804137
Direct configuration=     3
   0.00000000  0.00000000  0.00000000
   0.00000000  0.50000000  0.00000000
   0.50000000  0.00000000  0.00000000
   0.50000000  0.50000000  0.00000000
   0.25000000  0.25000000  0.05653641
   0.25000000  0.75000000  0.05653641
   0.75000000  0.25000000  0.05653641
   0.75000000  0.75000000  0.05653641
   0.00000000 -0.00000000  0.11387240
  -0.00000000  0.50000000  0.11387240
   0.50000000 -0.00000000  0.11387240
   0.50000000  0.50000000  0.11387240
   0.25000000  0.25000000  0.16961228
   0.25000000  0.75000000  0.16961228
   0.75000000  0.25000000  0.16961228
   0.75000000  0.75000000  0.16961228
   0.00000000  0.00000000  0.22534032
   0.00000000  0.50000000  0.22534032
   0.50000000 -0.00000000  0.22534032
   0.50000000  0.50000000  0.22534032
   0.25000000  0.25000000  0.28407176
   0.25000000  0.75000000  0.28407176
   0.75000000  0.25000000  0.28407176
   0.75000000  0.75000000  0.28407176
   0.00000000 -0.00000000  0.33451001
  -0.00000000  0.50000000  0.33451001
   0.50000000 -0.00000000  0.33451001
   0.50000000  0.50000000  0.33451001
Direct configuration=     4
   0.00000000  0.00000000  0.00000000
   0.00000000  0.50000000  0.00000000
   0.50000000  0.00000000  0.00000000
   0.50000000  0.50000000  0.00000000
   0.25000000  0.25000000  0.05653641
   0.25000000  0.75000000  0.05653641
   0.75000000  0.25000000  0.05653641
   0.75000000  0.75000000  0.05653641
   0.00000000 -0.00000000  0.11397247
  -0.00000000  0.50000000  0.11397247
   0.50000000 -0.00000000  0.11397247
   0.50000000  0.50000000  0.11397247
   0.25000000  0.25000000  0.16961267
   0.25000000  0.75000000  0.16961267
   0.75000000  0.25000000  0.16961267
   0.75000000  0.75000000  0.16961267
   0.00000000  0.00000000  0.22523954
   0.00000000  0.50000000  0.22523954
   0.50000000 -0.00000000  0.22523954
   0.50000000  0.50000000  0.22523954
   0.25000000  0.25000000  0.28424568
   0.25000000  0.75000000  0.28424568
   0.75000000  0.25000000  0.28424568
   0.75000000  0.75000000  0.28424568
   0.00000000 -0.00000000  0.33392076
  -0.00000000  0.50000000  0.33392076
   0.50000000 -0.00000000  0.33392076
   0.50000000  0.50000000  0.33392076
Direct configuration=     5
   0.00000000  0.00000000  0.00000000
   0.00000000  0.50000000  0.00000000
   0.50000000  0.00000000  0.00000000
   0.50000000  0.50000000  0.00000000
   0.25000000  0.25000000  0.05653641
   0.25000000  0.75000000  0.05653641
   0.75000000  0.25000000  0.05653641
   0.75000000  0.75000000  0.05653641
   0.00000000 -0.00000000  0.11387460
  -0.00000000  0.50000000  0.11387460
   0.50000000 -0.00000000  0.11387460
   0.50000000  0.50000000  0.11387460
   0.25000000  0.25000000  0.16972140
   0.25000000  0.75000000  0.16972140
   0.75000000  0.25000000  0.16972140
   0.75000000  0.75000000  0.16972140
   0.00000000  0.00000000  0.22461414
   0.00000000  0.50000000  0.22461414
   0.50000000 -0.00000000  0.22461414
   0.50000000  0.50000000  0.22461414
   0.25000000  0.25000000  0.28354257
   0.25000000  0.75000000  0.28354257
   0.75000000  0.25000000  0.28354257
   0.75000000  0.75000000  0.28354257
   0.00000000 -0.00000000  0.33325669
  -0.00000000  0.50000000  0.33325669
   0.50000000 -0.00000000  0.33325669
   0.50000000  0.50000000  0.33325669
Direct configuration=     6
   0.00000000  0.00000000  0.00000000
   0.00000000  0.50000000  0.00000000
   0.50000000  0.00000000  0.00000000
   0.50000000  0.50000000  0.00000000
   0.25000000  0.25000000  0.05653641
   0.25000000  0.75000000  0.05653641
   0.75000000  0.25000000  0.05653641
   0.75000000  0.75000000  0.05653641
   0.00000000  0.00000000  0.11358101
  -0.00000000  0.50000000  0.11358101
   0.50000000 -0.00000000  0.11358101
   0.50000000  0.50000000  0.11358101
   0.25000000  0.25000000  0.17004760
   0.25000000  0.75000000  0.17004760
   0.75000000  0.25000000  0.17004760
   0.75000000  0.75000000  0.17004760
   0.00000000  0.00000000  0.22273797
   0.00000000  0.50000000  0.22273797
   0.50000000 -0.00000000  0.22273797
   0.50000000  0.50000000  0.22273797
   0.25000000  0.25000000  0.28143323
   0.25000000  0.75000000  0.28143323
   0.75000000  0.25000000  0.28143323
   0.75000000  0.75000000  0.28143323
  -0.00000000 -0.00000000  0.33126446
  -0.00000000  0.50000000  0.33126446
   0.50000000 -0.00000000  0.33126446
   0.50000000  0.50000000  0.33126446
Direct configuration=     7
   0.00000000  0.00000000  0.00000000
   0.00000000  0.50000000  0.00000000
   0.50000000  0.00000000  0.00000000
   0.50000000  0.50000000  0.00000000
   0.25000000  0.25000000  0.05653641
   0.25000000  0.75000000  0.05653641
   0.75000000  0.25000000  0.05653641
   0.75000000  0.75000000  0.05653641
   0.00000000  0.00000000  0.11324561
  -0.00000000  0.50000000  0.11324561
   0.50000000 -0.00000000  0.11324561
   0.50000000  0.50000000  0.11324561
   0.25000000  0.25000000  0.16949116
   0.25000000  0.75000000  0.16949116
   0.75000000  0.25000000  0.16949116
   0.75000000  0.75000000  0.16949116
   0.00000000  0.00000000  0.22246496
   0.00000000  0.50000000  0.22246496
   0.50000000 -0.00000000  0.22246496
   0.50000000  0.50000000  0.22246496
   0.25000000  0.25000000  0.28070266
   0.25000000  0.75000000  0.28070266
   0.75000000  0.25000000  0.28070266
   0.75000000  0.75000000  0.28070266
  -0.00000000 -0.00000000  0.33067158
  -0.00000000  0.50000000  0.33067158
   0.50000000 -0.00000000  0.33067158
   0.50000000  0.50000000  0.33067158
Direct configuration=     8
   0.00000000  0.00000000  0.00000000
   0.00000000  0.50000000  0.00000000
   0.50000000  0.00000000  0.00000000
   0.50000000  0.50000000  0.00000000
   0.25000000  0.25000000  0.05653641
   0.25000000  0.75000000  0.05653641
   0.75000000  0.25000000  0.05653641
   0.75000000  0.75000000  0.05653641
   0.00000000  0.00000000  0.11223942
  -0.00000000  0.50000000  0.11223942
   0.50000000 -0.00000000  0.11223942
   0.50000000  0.50000000  0.11223942
   0.25000000  0.25000000  0.16782183
   0.25000000  0.75000000  0.16782183
   0.75000000  0.25000000  0.16782183
   0.75000000  0.75000000  0.16782183
   0.00000000 -0.00000000  0.22164594
   0.00000000  0.50000000  0.22164594
   0.50000000 -0.00000000  0.22164594
   0.50000000  0.50000000  0.22164594
   0.25000000  0.25000000  0.27851096
   0.25000000  0.75000000  0.27851096
   0.75000000  0.25000000  0.27851096
   0.75000000  0.75000000  0.27851096
  -0.00000000 -0.00000000  0.32889293
  -0.00000000  0.50000000  0.32889293
   0.50000000 -0.00000000  0.32889293
   0.50000000  0.50000000  0.32889293
Direct configuration=     9
   0.00000000  0.00000000  0.00000000
   0.00000000  0.50000000  0.00000000
   0.50000000  0.00000000  0.00000000
   0.50000000  0.50000000  0.00000000
   0.25000000  0.25000000  0.05653641
   0.25000000  0.75000000  0.05653641
   0.75000000  0.25000000  0.05653641
   0.75000000  0.75000000  0.05653641
   0.00000000  0.00000000  0.11022704
  -0.00000000  0.50000000  0.11022704
   0.50000000 -0.00000000  0.11022704
   0.50000000  0.50000000  0.11022704
   0.25000000  0.25000000  0.16448319
   0.25000000  0.75000000  0.16448319
   0.75000000  0.25000000  0.16448319
   0.75000000  0.75000000  0.16448319
   0.00000000 -0.00000000  0.22000789
   0.00000000  0.50000000  0.22000789
   0.50000000 -0.00000000  0.22000789
   0.50000000  0.50000000  0.22000789
   0.25000000  0.25000000  0.27412755
   0.25000000  0.75000000  0.27412755
   0.75000000  0.25000000  0.27412755
   0.75000000  0.75000000  0.27412755
  -0.00000000 -0.00000000  0.32533564
  -0.00000000  0.50000000  0.32533564
   0.50000000 -0.00000000  0.32533564
   0.50000000  0.50000000  0.32533564
Direct configuration=    10
   0.00000000  0.00000000  0.00000000
   0.00000000  0.50000000  0.00000000
   0.50000000  0.00000000  0.00000000
   0.50000000  0.50000000  0.00000000
   0.25000000  0.25000000  0.05653641
   0.25000000  0.75000000  0.05653641
   0.75000000  0.25000000  0.05653641
   0.75000000  0.75000000  0.05653641
   0.00000000  0.00000000  0.11171009
  -0.00000000  0.50000000  0.11171009
   0.50000000 -0.00000000  0.11171009
   0.50000000  0.50000000  0.11171009
   0.25000000  0.25000000  0.16694365
   0.25000000  0.75000000  0.16694365
   0.75000000  0.25000000  0.16694365
   0.75000000  0.75000000  0.16694365
   0.00000000 -0.00000000  0.22121507
   0.00000000  0.50000000  0.22121507
   0.50000000 -0.00000000  0.22121507
   0.50000000  0.50000000  0.22121507
   0.25000000  0.25000000  0.27735796
   0.25000000  0.75000000  0.27735796
   0.75000000  0.25000000  0.27735796
   0.75000000  0.75000000  0.27735796
  -0.00000000 -0.00000000  0.32795724
  -0.00000000  0.50000000  0.32795724
   0.50000000 -0.00000000  0.32795724
   0.50000000  0.50000000  0.32795724
Direct configuration=    11
   0.00000000  0.00000000  0.00000000
   0.00000000  0.50000000  0.00000000
   0.50000000  0.00000000  0.00000000
   0.50000000  0.50000000  0.00000000
   0.25000000  0.25000000  0.05653641
   0.25000000  0.75000000  0.05653641
   0.75000000  0.25000000  0.05653641
   0.75000000  0.75000000  0.05653641
   0.00000000  0.00000000  0.11129993
  -0.00000000  0.50000000  0.11129993
   0.50000000 -0.00000000  0.11129993
   0.50000000  0.50000000  0.11129993
   0.25000000  0.25000000  0.16598914
   0.25000000  0.75000000  0.16598914
   0.75000000  0.25000000  0.16598914
   0.75000000  0.75000000  0.16598914
   0.00000000 -0.00000000  0.21994490
   0.00000000  0.50000000  0.21994490
   0.50000000 -0.00000000  0.21994490
   0.50000000  0.50000000  0.21994490
   0.25000000  0.25000000  0.27678957
   0.25000000  0.75000000  0.27678957
   0.75000000  0.25000000  0.27678957
   0.75000000  0.75000000  0.27678957
  -0.00000000 -0.00000000  0.32751678
  -0.00000000  0.50000000  0.32751678
   0.50000000 -0.00000000  0.32751678
   0.50000000  0.50000000  0.32751678
Direct configuration=    12
   0.00000000  0.00000000  0.00000000
   0.00000000  0.50000000  0.00000000
   0.50000000  0.00000000  0.00000000
   0.50000000  0.50000000  0.00000000
   0.25000000  0.25000000  0.05653641
   0.25000000  0.75000000  0.05653641
   0.75000000  0.25000000  0.05653641
   0.75000000  0.75000000  0.05653641
   0.00000000  0.00000000  0.11116454
  -0.00000000  0.50000000  0.11116454
   0.50000000 -0.00000000  0.11116454
   0.50000000  0.50000000  0.11116454
   0.25000000  0.25000000  0.16567406
   0.25000000  0.75000000  0.16567406
   0.75000000  0.25000000  0.16567406
   0.75000000  0.75000000  0.16567406
   0.00000000 -0.00000000  0.21952563
   0.00000000  0.50000000  0.21952563
   0.50000000 -0.00000000  0.21952563
   0.50000000  0.50000000  0.21952563
   0.25000000  0.25000000  0.27660195
   0.25000000  0.75000000  0.27660195
   0.75000000  0.25000000  0.27660195
   0.75000000  0.75000000  0.27660195
  -0.00000000 -0.00000000  0.32737139
  -0.00000000  0.50000000  0.32737139
   0.50000000 -0.00000000  0.32737139
   0.50000000  0.50000000  0.32737139
Direct configuration=    13
   0.00000000  0.00000000  0.00000000
   0.00000000  0.50000000  0.00000000
   0.50000000  0.00000000  0.00000000
   0.50000000  0.50000000  0.00000000
   0.25000000  0.25000000  0.05653641
   0.25000000  0.75000000  0.05653641
   0.75000000  0.25000000  0.05653641
   0.75000000  0.75000000  0.05653641
   0.00000000  0.00000000  0.11086569
  -0.00000000  0.50000000  0.11086569
   0.50000000 -0.00000000  0.11086569
   0.50000000  0.50000000  0.11086569
   0.25000000  0.25000000  0.16580411
   0.25000000  0.75000000  0.16580411
   0.75000000  0.25000000  0.16580411
   0.75000000  0.75000000  0.16580411
   0.00000000 -0.00000000  0.21926056
   0.00000000  0.50000000  0.21926056
   0.50000000 -0.00000000  0.21926056
   0.50000000  0.50000000  0.21926056
   0.25000000  0.25000000  0.27669983
   0.25000000  0.75000000  0.27669983
   0.75000000  0.25000000  0.27669983
   0.75000000  0.75000000  0.27669983
  -0.00000000 -0.00000000  0.32714835
  -0.00000000  0.50000000  0.32714835
   0.50000000 -0.00000000  0.32714835
   0.50000000  0.50000000  0.32714835
