  40  40   0   0
  0.2933178E+02  0.7260000E-09  0.7260000E-09  0.2226000E-08  0.5000000E-15
  1.000000000000000E-004
  CAR 
 unknown system                          
     10.99155021    -10.59789447  301      0.33823110      1.00000000
    -10.598  0.0000E+00  0.0000E+00  0.0000E+00  0.0000E+00
    -10.526  0.0000E+00  0.0000E+00  0.0000E+00  0.0000E+00
    -10.454  0.0000E+00  0.0000E+00  0.0000E+00  0.0000E+00
    -10.382  0.0000E+00  0.0000E+00  0.0000E+00  0.0000E+00
    -10.310  0.0000E+00  0.0000E+00  0.0000E+00  0.0000E+00
    -10.238 -0.2764E-31 -0.2764E-31 -0.1989E-32 -0.1989E-32
    -10.166 -0.8463E-29 -0.8463E-29 -0.6111E-30 -0.6110E-30
    -10.094 -0.2000E-26 -0.2000E-26 -0.1446E-27 -0.1446E-27
    -10.022 -0.3640E-24 -0.3640E-24 -0.2634E-25 -0.2634E-25
     -9.950 -0.5098E-22 -0.5097E-22 -0.3695E-23 -0.3695E-23
     -9.878 -0.5492E-20 -0.5492E-20 -0.3989E-21 -0.3989E-21
     -9.806 -0.4549E-18 -0.4549E-18 -0.3314E-19 -0.3314E-19
     -9.734 -0.2810E-16 -0.2810E-16 -0.2056E-17 -0.2055E-17
     -9.662 -0.1366E-14 -0.1366E-14 -0.1004E-15 -0.1004E-15
     -9.590 -0.5097E-13 -0.5097E-13 -0.3768E-14 -0.3768E-14
     -9.518 -0.1455E-11 -0.1455E-11 -0.1085E-12 -0.1085E-12
     -9.446 -0.3172E-10 -0.3172E-10 -0.2391E-11 -0.2391E-11
     -9.374 -0.5267E-09 -0.5267E-09 -0.4029E-10 -0.4029E-10
     -9.303 -0.6635E-08 -0.6635E-08 -0.5178E-09 -0.5177E-09
     -9.231 -0.6305E-07 -0.6305E-07 -0.5055E-08 -0.5055E-08
     -9.159 -0.4480E-06 -0.4480E-06 -0.3730E-07 -0.3730E-07
     -9.087 -0.2346E-05 -0.2346E-05 -0.2061E-06 -0.2061E-06
     -9.015 -0.8800E-05 -0.8800E-05 -0.8394E-06 -0.8394E-06
     -8.943 -0.2221E-04 -0.2221E-04 -0.2438E-05 -0.2438E-05
     -8.871 -0.3050E-04 -0.3050E-04 -0.4633E-05 -0.4633E-05
     -8.799  0.1048E-04  0.1048E-04 -0.3879E-05 -0.3879E-05
     -8.727  0.1496E-03  0.1496E-03  0.6887E-05  0.6887E-05
     -8.655  0.3468E-03  0.3468E-03  0.3184E-04  0.3184E-04
     -8.583  0.4545E-03  0.4545E-03  0.6455E-04  0.6455E-04
     -8.511  0.4339E-03  0.4339E-03  0.9578E-04  0.9578E-04
     -8.439  0.5573E-03  0.5573E-03  0.1359E-03  0.1359E-03
     -8.367  0.1120E-02  0.1120E-02  0.2165E-03  0.2165E-03
     -8.295  0.1875E-02  0.1875E-02  0.3515E-03  0.3515E-03
     -8.223  0.2149E-02  0.2149E-02  0.5061E-03  0.5061E-03
     -8.151  0.1775E-02  0.1775E-02  0.6339E-03  0.6339E-03
     -8.079  0.1439E-02  0.1439E-02  0.7374E-03  0.7374E-03
     -8.007  0.1704E-02  0.1704E-02  0.8600E-03  0.8600E-03
     -7.935  0.2148E-02  0.2148E-02  0.1015E-02  0.1015E-02
     -7.863  0.1987E-02  0.1987E-02  0.1158E-02  0.1158E-02
     -7.791  0.1165E-02  0.1165E-02  0.1241E-02  0.1241E-02
     -7.719  0.2879E-03  0.2879E-03  0.1262E-02  0.1262E-02
     -7.647 -0.1897E-03 -0.1897E-03  0.1248E-02  0.1248E-02
     -7.575 -0.2101E-03 -0.2101E-03  0.1233E-02  0.1233E-02
     -7.503  0.2365E-03  0.2365E-03  0.1250E-02  0.1250E-02
     -7.431  0.1129E-02  0.1129E-02  0.1332E-02  0.1332E-02
     -7.359  0.2075E-02  0.2075E-02  0.1481E-02  0.1481E-02
     -7.288  0.2567E-02  0.2567E-02  0.1666E-02  0.1666E-02
     -7.216  0.2893E-02  0.2893E-02  0.1874E-02  0.1874E-02
     -7.144  0.3981E-02  0.3981E-02  0.2160E-02  0.2160E-02
     -7.072  0.5744E-02  0.5744E-02  0.2574E-02  0.2574E-02
     -7.000  0.6622E-02  0.6622E-02  0.3050E-02  0.3050E-02
     -6.928  0.5666E-02  0.5666E-02  0.3458E-02  0.3458E-02
     -6.856  0.3890E-02  0.3890E-02  0.3738E-02  0.3738E-02
     -6.784  0.2642E-02  0.2642E-02  0.3928E-02  0.3928E-02
     -6.712  0.1932E-02  0.1932E-02  0.4067E-02  0.4067E-02
     -6.640  0.1164E-02  0.1164E-02  0.4151E-02  0.4151E-02
     -6.568  0.3121E-03  0.3121E-03  0.4173E-02  0.4173E-02
     -6.496 -0.2632E-03 -0.2632E-03  0.4155E-02  0.4155E-02
     -6.424 -0.2789E-03 -0.2789E-03  0.4134E-02  0.4134E-02
     -6.352  0.5123E-03  0.5123E-03  0.4171E-02  0.4171E-02
     -6.280  0.2107E-02  0.2107E-02  0.4323E-02  0.4323E-02
     -6.208  0.3791E-02  0.3791E-02  0.4596E-02  0.4596E-02
     -6.136  0.4744E-02  0.4744E-02  0.4937E-02  0.4937E-02
     -6.064  0.5231E-02  0.5231E-02  0.5314E-02  0.5314E-02
     -5.992  0.6007E-02  0.6007E-02  0.5746E-02  0.5746E-02
     -5.920  0.6691E-02  0.6691E-02  0.6227E-02  0.6227E-02
     -5.848  0.6420E-02  0.6420E-02  0.6689E-02  0.6689E-02
     -5.776  0.5622E-02  0.5622E-02  0.7094E-02  0.7094E-02
     -5.704  0.5197E-02  0.5197E-02  0.7468E-02  0.7468E-02
     -5.632  0.4833E-02  0.4833E-02  0.7816E-02  0.7816E-02
     -5.560  0.3986E-02  0.3986E-02  0.8103E-02  0.8103E-02
     -5.488  0.3286E-02  0.3286E-02  0.8339E-02  0.8339E-02
     -5.416  0.3462E-02  0.3462E-02  0.8588E-02  0.8588E-02
     -5.344  0.4107E-02  0.4107E-02  0.8884E-02  0.8884E-02
     -5.272  0.4615E-02  0.4615E-02  0.9216E-02  0.9216E-02
     -5.201  0.5182E-02  0.5182E-02  0.9589E-02  0.9589E-02
     -5.129  0.6042E-02  0.6042E-02  0.1002E-01  0.1002E-01
     -5.057  0.6727E-02  0.6727E-02  0.1051E-01  0.1051E-01
     -4.985  0.6827E-02  0.6827E-02  0.1100E-01  0.1100E-01
     -4.913  0.6842E-02  0.6842E-02  0.1149E-01  0.1149E-01
     -4.841  0.7872E-02  0.7872E-02  0.1206E-01  0.1206E-01
     -4.769  0.1066E-01  0.1066E-01  0.1283E-01  0.1283E-01
     -4.697  0.1451E-01  0.1451E-01  0.1387E-01  0.1387E-01
     -4.625  0.1714E-01  0.1714E-01  0.1510E-01  0.1510E-01
     -4.553  0.1692E-01  0.1692E-01  0.1632E-01  0.1632E-01
     -4.481  0.1508E-01  0.1508E-01  0.1741E-01  0.1741E-01
     -4.409  0.1461E-01  0.1461E-01  0.1846E-01  0.1846E-01
     -4.337  0.1707E-01  0.1707E-01  0.1969E-01  0.1969E-01
     -4.265  0.2113E-01  0.2113E-01  0.2121E-01  0.2121E-01
     -4.193  0.2422E-01  0.2422E-01  0.2295E-01  0.2295E-01
     -4.121  0.2527E-01  0.2527E-01  0.2477E-01  0.2477E-01
     -4.049  0.2590E-01  0.2590E-01  0.2663E-01  0.2663E-01
     -3.977  0.2938E-01  0.2938E-01  0.2875E-01  0.2875E-01
     -3.905  0.3760E-01  0.3760E-01  0.3145E-01  0.3145E-01
     -3.833  0.4809E-01  0.4809E-01  0.3491E-01  0.3491E-01
     -3.761  0.5572E-01  0.5572E-01  0.3892E-01  0.3892E-01
     -3.689  0.5821E-01  0.5821E-01  0.4311E-01  0.4311E-01
     -3.617  0.5733E-01  0.5733E-01  0.4724E-01  0.4724E-01
     -3.545  0.5452E-01  0.5452E-01  0.5116E-01  0.5116E-01
     -3.473  0.4961E-01  0.4961E-01  0.5473E-01  0.5473E-01
     -3.401  0.4415E-01  0.4415E-01  0.5791E-01  0.5791E-01
     -3.329  0.4171E-01  0.4171E-01  0.6091E-01  0.6091E-01
     -3.257  0.4362E-01  0.4362E-01  0.6405E-01  0.6405E-01
     -3.186  0.4717E-01  0.4717E-01  0.6744E-01  0.6744E-01
     -3.114  0.4934E-01  0.4934E-01  0.7099E-01  0.7099E-01
     -3.042  0.5108E-01  0.5108E-01  0.7467E-01  0.7467E-01
     -2.970  0.5579E-01  0.5579E-01  0.7869E-01  0.7869E-01
     -2.898  0.6374E-01  0.6374E-01  0.8327E-01  0.8327E-01
     -2.826  0.7122E-01  0.7122E-01  0.8840E-01  0.8840E-01
     -2.754  0.7603E-01  0.7603E-01  0.9387E-01  0.9387E-01
     -2.682  0.8017E-01  0.8017E-01  0.9964E-01  0.9964E-01
     -2.610  0.8531E-01  0.8531E-01  0.1058E+00  0.1058E+00
     -2.538  0.8899E-01  0.8899E-01  0.1122E+00  0.1122E+00
     -2.466  0.8738E-01  0.8738E-01  0.1185E+00  0.1185E+00
     -2.394  0.8092E-01  0.8092E-01  0.1243E+00  0.1243E+00
     -2.322  0.7517E-01  0.7517E-01  0.1297E+00  0.1297E+00
     -2.250  0.7506E-01  0.7506E-01  0.1351E+00  0.1351E+00
     -2.178  0.7985E-01  0.7985E-01  0.1409E+00  0.1409E+00
     -2.106  0.8531E-01  0.8531E-01  0.1470E+00  0.1470E+00
     -2.034  0.8897E-01  0.8897E-01  0.1534E+00  0.1534E+00
     -1.962  0.9141E-01  0.9141E-01  0.1600E+00  0.1600E+00
     -1.890  0.9398E-01  0.9398E-01  0.1667E+00  0.1667E+00
     -1.818  0.9675E-01  0.9675E-01  0.1737E+00  0.1737E+00
     -1.746  0.9842E-01  0.9842E-01  0.1808E+00  0.1808E+00
     -1.674  0.9830E-01  0.9830E-01  0.1879E+00  0.1879E+00
     -1.602  0.9827E-01  0.9827E-01  0.1949E+00  0.1949E+00
     -1.530  0.1021E+00  0.1021E+00  0.2023E+00  0.2023E+00
     -1.458  0.1115E+00  0.1115E+00  0.2103E+00  0.2103E+00
     -1.386  0.1236E+00  0.1236E+00  0.2192E+00  0.2192E+00
     -1.314  0.1321E+00  0.1321E+00  0.2287E+00  0.2287E+00
     -1.242  0.1311E+00  0.1311E+00  0.2381E+00  0.2381E+00
     -1.171  0.1177E+00  0.1177E+00  0.2466E+00  0.2466E+00
     -1.099  0.9410E-01  0.9410E-01  0.2534E+00  0.2534E+00
     -1.027  0.6751E-01  0.6751E-01  0.2582E+00  0.2582E+00
     -0.955  0.4528E-01  0.4528E-01  0.2615E+00  0.2615E+00
     -0.883  0.3004E-01  0.3004E-01  0.2636E+00  0.2636E+00
     -0.811  0.2048E-01  0.2048E-01  0.2651E+00  0.2651E+00
     -0.739  0.1431E-01  0.1431E-01  0.2662E+00  0.2662E+00
     -0.667  0.9940E-02  0.9940E-02  0.2669E+00  0.2669E+00
     -0.595  0.7134E-02  0.7134E-02  0.2674E+00  0.2674E+00
     -0.523  0.6162E-02  0.6162E-02  0.2678E+00  0.2678E+00
     -0.451  0.5958E-02  0.5958E-02  0.2683E+00  0.2683E+00
     -0.379  0.4824E-02  0.4824E-02  0.2686E+00  0.2686E+00
     -0.307  0.2992E-02  0.2992E-02  0.2688E+00  0.2688E+00
     -0.235  0.2706E-02  0.2706E-02  0.2690E+00  0.2690E+00
     -0.163  0.5431E-02  0.5431E-02  0.2694E+00  0.2694E+00
     -0.091  0.9846E-02  0.9846E-02  0.2701E+00  0.2701E+00
     -0.019  0.1287E-01  0.1287E-01  0.2710E+00  0.2710E+00
      0.053  0.1267E-01  0.1267E-01  0.2719E+00  0.2719E+00
      0.125  0.1038E-01  0.1038E-01  0.2727E+00  0.2727E+00
      0.197  0.8930E-02  0.8930E-02  0.2733E+00  0.2733E+00
      0.269  0.1026E-01  0.1026E-01  0.2741E+00  0.2741E+00
      0.341  0.1334E-01  0.1334E-01  0.2750E+00  0.2750E+00
      0.413  0.1483E-01  0.1483E-01  0.2761E+00  0.2761E+00
      0.485  0.1234E-01  0.1234E-01  0.2770E+00  0.2770E+00
      0.557  0.7024E-02  0.7024E-02  0.2775E+00  0.2775E+00
      0.629  0.2260E-02  0.2260E-02  0.2777E+00  0.2777E+00
      0.701  0.5903E-03  0.5903E-03  0.2777E+00  0.2777E+00
      0.773  0.2347E-02  0.2347E-02  0.2779E+00  0.2779E+00
      0.845  0.5822E-02  0.5822E-02  0.2783E+00  0.2783E+00
      0.916  0.8223E-02  0.8223E-02  0.2789E+00  0.2789E+00
      0.988  0.7734E-02  0.7734E-02  0.2794E+00  0.2794E+00
      1.060  0.5168E-02  0.5168E-02  0.2798E+00  0.2798E+00
      1.132  0.2783E-02  0.2783E-02  0.2800E+00  0.2800E+00
      1.204  0.1818E-02  0.1818E-02  0.2801E+00  0.2801E+00
      1.276  0.2276E-02  0.2276E-02  0.2803E+00  0.2803E+00
      1.348  0.4417E-02  0.4417E-02  0.2806E+00  0.2806E+00
      1.420  0.8663E-02  0.8663E-02  0.2812E+00  0.2812E+00
      1.492  0.1401E-01  0.1401E-01  0.2823E+00  0.2823E+00
      1.564  0.1818E-01  0.1818E-01  0.2836E+00  0.2836E+00
      1.636  0.1967E-01  0.1967E-01  0.2850E+00  0.2850E+00
      1.708  0.1852E-01  0.1852E-01  0.2863E+00  0.2863E+00
      1.780  0.1499E-01  0.1499E-01  0.2874E+00  0.2874E+00
      1.852  0.9594E-02  0.9594E-02  0.2881E+00  0.2881E+00
      1.924  0.4156E-02  0.4156E-02  0.2884E+00  0.2884E+00
      1.996  0.8980E-03  0.8980E-03  0.2884E+00  0.2884E+00
      2.068  0.3222E-03  0.3222E-03  0.2885E+00  0.2885E+00
      2.140  0.1241E-02  0.1241E-02  0.2886E+00  0.2886E+00
      2.212  0.2720E-02  0.2720E-02  0.2888E+00  0.2888E+00
      2.284  0.4916E-02  0.4916E-02  0.2891E+00  0.2891E+00
      2.356  0.7612E-02  0.7612E-02  0.2897E+00  0.2897E+00
      2.428  0.9127E-02  0.9127E-02  0.2903E+00  0.2903E+00
      2.500  0.8117E-02  0.8116E-02  0.2909E+00  0.2909E+00
      2.572  0.5817E-02  0.5817E-02  0.2913E+00  0.2913E+00
      2.644  0.4897E-02  0.4897E-02  0.2917E+00  0.2917E+00
      2.716  0.6316E-02  0.6316E-02  0.2921E+00  0.2921E+00
      2.788  0.8512E-02  0.8512E-02  0.2927E+00  0.2927E+00
      2.860  0.9419E-02  0.9419E-02  0.2934E+00  0.2934E+00
      2.931  0.8295E-02  0.8295E-02  0.2940E+00  0.2940E+00
      3.003  0.5871E-02  0.5871E-02  0.2944E+00  0.2944E+00
      3.075  0.3710E-02  0.3710E-02  0.2947E+00  0.2947E+00
      3.147  0.3215E-02  0.3215E-02  0.2949E+00  0.2949E+00
      3.219  0.4393E-02  0.4393E-02  0.2952E+00  0.2952E+00
      3.291  0.5693E-02  0.5693E-02  0.2957E+00  0.2957E+00
      3.363  0.5625E-02  0.5625E-02  0.2961E+00  0.2961E+00
      3.435  0.4321E-02  0.4321E-02  0.2964E+00  0.2964E+00
      3.507  0.3137E-02  0.3137E-02  0.2966E+00  0.2966E+00
      3.579  0.3475E-02  0.3475E-02  0.2968E+00  0.2968E+00
      3.651  0.6396E-02  0.6396E-02  0.2973E+00  0.2973E+00
      3.723  0.1157E-01  0.1157E-01  0.2981E+00  0.2981E+00
      3.795  0.1578E-01  0.1578E-01  0.2993E+00  0.2993E+00
      3.867  0.1511E-01  0.1511E-01  0.3004E+00  0.3004E+00
      3.939  0.9907E-02  0.9907E-02  0.3011E+00  0.3011E+00
      4.011  0.5126E-02  0.5126E-02  0.3014E+00  0.3014E+00
      4.083  0.5010E-02  0.5010E-02  0.3018E+00  0.3018E+00
      4.155  0.8978E-02  0.8978E-02  0.3025E+00  0.3025E+00
      4.227  0.1308E-01  0.1308E-01  0.3034E+00  0.3034E+00
      4.299  0.1433E-01  0.1433E-01  0.3044E+00  0.3044E+00
      4.371  0.1287E-01  0.1287E-01  0.3054E+00  0.3054E+00
      4.443  0.1044E-01  0.1044E-01  0.3061E+00  0.3061E+00
      4.515  0.8044E-02  0.8044E-02  0.3067E+00  0.3067E+00
      4.587  0.6274E-02  0.6274E-02  0.3071E+00  0.3071E+00
      4.659  0.6257E-02  0.6256E-02  0.3076E+00  0.3076E+00
      4.731  0.8462E-02  0.8462E-02  0.3082E+00  0.3082E+00
      4.803  0.1127E-01  0.1127E-01  0.3090E+00  0.3090E+00
      4.875  0.1221E-01  0.1221E-01  0.3099E+00  0.3099E+00
      4.947  0.1030E-01  0.1029E-01  0.3106E+00  0.3106E+00
      5.018  0.6641E-02  0.6641E-02  0.3111E+00  0.3111E+00
      5.090  0.3247E-02  0.3247E-02  0.3113E+00  0.3113E+00
      5.162  0.1522E-02  0.1521E-02  0.3114E+00  0.3114E+00
      5.234  0.1720E-02  0.1719E-02  0.3116E+00  0.3116E+00
      5.306  0.3513E-02  0.3514E-02  0.3118E+00  0.3118E+00
      5.378  0.6575E-02  0.6576E-02  0.3123E+00  0.3123E+00
      5.450  0.1014E-01  0.1015E-01  0.3130E+00  0.3130E+00
      5.522  0.1291E-01  0.1291E-01  0.3140E+00  0.3140E+00
      5.594  0.1428E-01  0.1428E-01  0.3150E+00  0.3150E+00
      5.666  0.1486E-01  0.1486E-01  0.3160E+00  0.3160E+00
      5.738  0.1482E-01  0.1482E-01  0.3171E+00  0.3171E+00
      5.810  0.1334E-01  0.1334E-01  0.3181E+00  0.3181E+00
      5.882  0.1004E-01  0.1004E-01  0.3188E+00  0.3188E+00
      5.954  0.6108E-02  0.6108E-02  0.3192E+00  0.3192E+00
      6.026  0.3928E-02  0.3927E-02  0.3195E+00  0.3195E+00
      6.098  0.5722E-02  0.5719E-02  0.3199E+00  0.3199E+00
      6.170  0.1114E-01  0.1114E-01  0.3207E+00  0.3207E+00
      6.242  0.1639E-01  0.1639E-01  0.3219E+00  0.3219E+00
      6.314  0.1776E-01  0.1776E-01  0.3232E+00  0.3232E+00
      6.386  0.1608E-01  0.1608E-01  0.3243E+00  0.3243E+00
      6.458  0.1514E-01  0.1514E-01  0.3254E+00  0.3254E+00
      6.530  0.1596E-01  0.1596E-01  0.3266E+00  0.3266E+00
      6.602  0.1601E-01  0.1601E-01  0.3277E+00  0.3277E+00
      6.674  0.1383E-01  0.1383E-01  0.3287E+00  0.3287E+00
      6.746  0.1105E-01  0.1105E-01  0.3295E+00  0.3295E+00
      6.818  0.9630E-02  0.9631E-02  0.3302E+00  0.3302E+00
      6.890  0.9740E-02  0.9739E-02  0.3309E+00  0.3309E+00
      6.962  0.1037E-01  0.1037E-01  0.3317E+00  0.3317E+00
      7.033  0.1049E-01  0.1048E-01  0.3324E+00  0.3324E+00
      7.105  0.9294E-02  0.9291E-02  0.3331E+00  0.3331E+00
      7.177  0.6654E-02  0.6655E-02  0.3336E+00  0.3336E+00
      7.249  0.4068E-02  0.4069E-02  0.3339E+00  0.3339E+00
      7.321  0.4341E-02  0.4338E-02  0.3342E+00  0.3342E+00
      7.393  0.8700E-02  0.8694E-02  0.3348E+00  0.3348E+00
      7.465  0.1468E-01  0.1468E-01  0.3359E+00  0.3359E+00
      7.537  0.1852E-01  0.1852E-01  0.3372E+00  0.3372E+00
      7.609  0.1917E-01  0.1918E-01  0.3386E+00  0.3386E+00
      7.681  0.1820E-01  0.1820E-01  0.3399E+00  0.3399E+00
      7.753  0.1682E-01  0.1682E-01  0.3411E+00  0.3411E+00
      7.825  0.1507E-01  0.1507E-01  0.3422E+00  0.3422E+00
      7.897  0.1283E-01  0.1283E-01  0.3431E+00  0.3431E+00
      7.969  0.1044E-01  0.1044E-01  0.3439E+00  0.3439E+00
      8.041  0.8956E-02  0.8956E-02  0.3445E+00  0.3445E+00
      8.113  0.9392E-02  0.9385E-02  0.3452E+00  0.3452E+00
      8.185  0.1150E-01  0.1148E-01  0.3460E+00  0.3460E+00
      8.257  0.1378E-01  0.1374E-01  0.3470E+00  0.3470E+00
      8.329  0.1486E-01  0.1484E-01  0.3481E+00  0.3481E+00
      8.401  0.1465E-01  0.1477E-01  0.3491E+00  0.3491E+00
      8.473  0.1430E-01  0.1473E-01  0.3501E+00  0.3502E+00
      8.545  0.1470E-01  0.1540E-01  0.3512E+00  0.3513E+00
      8.617  0.1489E-01  0.1543E-01  0.3523E+00  0.3524E+00
      8.689  0.1312E-01  0.1306E-01  0.3532E+00  0.3533E+00
      8.761  0.9403E-02  0.8798E-02  0.3539E+00  0.3540E+00
      8.833  0.5662E-02  0.4991E-02  0.3543E+00  0.3543E+00
      8.905  0.3445E-02  0.3074E-02  0.3545E+00  0.3545E+00
      8.977  0.2612E-02  0.2531E-02  0.3547E+00  0.3547E+00
      9.049  0.2113E-02  0.2146E-02  0.3549E+00  0.3549E+00
      9.120  0.1339E-02  0.1373E-02  0.3550E+00  0.3550E+00
      9.192  0.4945E-03  0.5089E-03  0.3550E+00  0.3550E+00
      9.264 -0.1473E-04 -0.1091E-04  0.3550E+00  0.3550E+00
      9.336 -0.1407E-03 -0.1399E-03  0.3550E+00  0.3550E+00
      9.408 -0.9310E-04 -0.9292E-04  0.3550E+00  0.3550E+00
      9.480 -0.3590E-04 -0.3584E-04  0.3550E+00  0.3550E+00
      9.552 -0.9468E-05 -0.9450E-05  0.3550E+00  0.3550E+00
      9.624 -0.1800E-05 -0.1796E-05  0.3550E+00  0.3550E+00
      9.696 -0.2527E-06 -0.2521E-06  0.3550E+00  0.3550E+00
      9.768 -0.2657E-07 -0.2649E-07  0.3550E+00  0.3550E+00
      9.840 -0.2108E-08 -0.2101E-08  0.3550E+00  0.3550E+00
      9.912 -0.1269E-09 -0.1265E-09  0.3550E+00  0.3550E+00
      9.984 -0.5821E-11 -0.5798E-11  0.3550E+00  0.3550E+00
     10.056 -0.2039E-12 -0.2030E-12  0.3550E+00  0.3550E+00
     10.128 -0.5465E-14 -0.5441E-14  0.3550E+00  0.3550E+00
     10.200 -0.1131E-15 -0.1114E-15  0.3550E+00  0.3550E+00
     10.272 -0.1714E-17 -0.1714E-17  0.3550E+00  0.3550E+00
     10.344  0.0000E+00  0.0000E+00  0.3550E+00  0.3550E+00
     10.416  0.0000E+00  0.0000E+00  0.3550E+00  0.3550E+00
     10.488  0.0000E+00  0.0000E+00  0.3550E+00  0.3550E+00
     10.560  0.0000E+00  0.0000E+00  0.3550E+00  0.3550E+00
     10.632  0.0000E+00  0.0000E+00  0.3550E+00  0.3550E+00
     10.704  0.0000E+00  0.0000E+00  0.3550E+00  0.3550E+00
     10.776  0.0000E+00  0.0000E+00  0.3550E+00  0.3550E+00
     10.848  0.0000E+00  0.0000E+00  0.3550E+00  0.3550E+00
     10.920  0.0000E+00  0.0000E+00  0.3550E+00  0.3550E+00
     10.992  0.0000E+00  0.0000E+00  0.3550E+00  0.3550E+00
