 vasp.6.3.2 27Jun22 (build Aug 17 2022 15:43:34) complex                        
  
 executed on           tv2STDVTST date 2025.01.21  12:35:41
 running   20 mpi-ranks, with    1 threads/rank
 distrk:  each k-point on   20 cores,    1 groups
 distr:  one band on NCORE=   5 cores,    4 groups


--------------------------------------------------------------------------------------------------------


 -----------------------------------------------------------------------------
|                                                                             |
|           W    W    AA    RRRRR   N    N  II  N    N   GGGG   !!!           |
|           W    W   A  A   R    R  NN   N  II  NN   N  G    G  !!!           |
|           W    W  A    A  R    R  N N  N  II  N N  N  G       !!!           |
|           W WW W  AAAAAA  RRRRR   N  N N  II  N  N N  G  GGG   !            |
|           WW  WW  A    A  R   R   N   NN  II  N   NN  G    G                |
|           W    W  A    A  R    R  N    N  II  N    N   GGGG   !!!           |
|                                                                             |
|     Found issues when parsing the INCAR file                                |
|     In line 64: Tagname --- R W I G S contains invalid characters.          |
|     Please check if the interpretation in the OUTCAR file is correct.       |
|                                                                             |
 -----------------------------------------------------------------------------

 INCAR:
    = \=\=\=\=\=\=\=\=\=\=\=\=\=\=\=\=\=\=\=\=\=\=\=\=\=\=\=\=\=\=\=\=\=\=\=\=\=\=\=\=\=\=\=\=\=\=\=\=\=\=\=\=\=\=\=\=\=\=\=\=\=\=\=\=\=\=\=\=\=\=\=\=
    = \=\=\=\=\=\=\=\=\=\=\=\=\=\=\=\=\=\=\=\=\=\=\=\=\=\=\=\=\=\=\=\=\=\=\=\=\=\=\=\=\=\=\=\=\=\=\=\=\=\=\=\=\=\=\=\=\=\=\=\=\=\=\=\=\=\=\=\=\=\=\=\=
   ISTART = 0
   ICHARG = 2
   IPIPOL = 3
   IVDW = 11
   IDIPOL = 3
   IVDW = 11
    = \=\=\=\=\=\=\=\=\=\=\=\=\=\=\=\=\=\=\=\=\=\=\=\=\=\=\=\=\=\=\=\=\=\=\=\=\=\=\=\=\=\=\=\=\=\=\=\=\=\=\=\=\=\=\=\=\=\=\=\=\=\=\=\=\=\=\=\=\=\=\=\=
    = \=\=\=\=\=\=\=\=\=\=\=\=\=\=\=\=\=\=\=\=\=\=\=\=\=\=\=\=\=\=\=\=\=\=\=\=\=\=\=\=\=\=\=\=\=\=\=\=\=\=\=\=\=\=\=\=\=\=\=\=\=\=\=\=\=\=\=\=\=\=\=\=
   ISPIN = 2
    = \=\=\=\=\=\=\=\=\=\=\=\=\=\=\=\=\=\=\=\=\=\=\=\=\=\=\=\=\=\=\=\=\=\=\=\=\=\=\=\=\=\=\=\=\=\=\=\=\=\=\=\=\=\=\=\=\=\=\=\=\=\=\=\=\=\=\=\=\=\=\=\=
    = \=\=\=\=\=\=\=\=\=\=\=\=\=\=\=\=\=\=\=\=\=\=\=\=\=\=\=\=\=\=\=\=\=\=\=\=\=\=\=\=\=\=\=\=\=\=\=\=\=\=\=\=\=\=\=\=\=\=\=\=\=\=\=\=\=\=\=\=\=\=\=\=
   ENCUT = 400
   PREC = Normal
   EDIFF = 2E-04
   GGA = PE
   ISMEAR = 1
   SIGMA = 0.2
   LREAL = .FALSE.
    = \=\=\=\=\=\=\=\=\=\=\=\=\=\=\=\=\=\=\=\=\=\=\=\=\=\=\=\=\=\=\=\=\=\=\=\=\=\=\=\=\=\=\=\=\=\=\=\=\=\=\=\=\=\=\=\=\=\=\=\=\=\=\=\=\=\=\=\=\=\=\=\=
    = \=\=\=\=\=\=\=\=\=\=\=\=\=\=\=\=\=\=\=\=\=\=\=\=\=\=\=\=\=\=\=\=\=\=\=\=\=\=\=\=\=\=\=\=\=\=\=\=\=\=\=\=\=\=\=\=\=\=\=\=\=\=\=\=\=\=\=\=\=\=\=\=
   ISYM = 1
   NSW = 800
   IBRION = 2
   POTIM = 0.5
   ISIF = 2
   EDIFFG = -.03
    = \=\=\=\=\=\=\=\=\=\=\=\=\=\=\=\=\=\=\=\=\=\=\=\=\=\=\=\=\=\=\=\=\=\=\=\=\=\=\=\=\=\=\=\=\=\=\=\=\=\=\=\=\=\=\=\=\=\=\=\=\=\=\=\=\=\=\=\=\=\=\=\=
    = \=\=\=\=\=\=\=\=\=\=\=\=\=\=\=\=\=\=\=\=\=\=\=\=\=\=\=\=\=\=\=\=\=\=\=\=\=\=\=\=\=\=\=\=\=\=\=\=\=\=\=\=\=\=\=\=\=\=\=\=\=\=\=\=\=\=\=\=\=\=\=\=
   NPAR = 4
   LWAVE = .FALSE.
   LCHARG = .FALSE.

 POTCAR:    PAW_PBE Cu 22Jun2005                  
 -----------------------------------------------------------------------------
|                                                                             |
|           W    W    AA    RRRRR   N    N  II  N    N   GGGG   !!!           |
|           W    W   A  A   R    R  NN   N  II  NN   N  G    G  !!!           |
|           W    W  A    A  R    R  N N  N  II  N N  N  G       !!!           |
|           W WW W  AAAAAA  RRRRR   N  N N  II  N  N N  G  GGG   !            |
|           WW  WW  A    A  R   R   N   NN  II  N   NN  G    G                |
|           W    W  A    A  R    R  N    N  II  N    N   GGGG   !!!           |
|                                                                             |
|     You use a magnetic or noncollinear calculation, but did not specify     |
|     the initial magnetic moment with the MAGMOM tag. Note that a            |
|     default of 1 will be used for all atoms. This ferromagnetic setup       |
|     may break the symmetry of the crystal, in particular it may rule        |
|     out finding an antiferromagnetic solution. Thence, we recommend         |
|     setting the initial magnetic moment manually or verifying carefully     |
|     that this magnetic setup is desired.                                    |
|                                                                             |
 -----------------------------------------------------------------------------

 POTCAR:    PAW_PBE Cu 22Jun2005                  
   SHA256 =  0e71e558f37a4e8407882b4609ceaae59938afaad9ced71dfe8490308a0ab630 Cu/POTCAR             
   COPYR  = (c) Copyright 22Jun2005 Georg Kresse                                                    
   COPYR  = This file is part of the software VASP. Any use, copying, and all other rights are regul
   COPYR  = If you do not have a valid VASP license, you may not use, copy or distribute this file. 
   VRHFIN =Cu: d10 p1                                                                               
   LEXCH  = PE                                                                                      
   EATOM  =  1390.9808 eV,  102.2342 Ry                                                             
                                                                                                    
   TITEL  = PAW_PBE Cu 22Jun2005                                                                    
   LULTRA =        F    use ultrasoft PP ?                                                          
   IUNSCR =        1    unscreen: 0-lin 1-nonlin 2-no                                               
   RPACOR =    2.000    partial core radius                                                         
   POMASS =   63.546; ZVAL   =   11.000    mass and valenz                                          
   RCORE  =    2.300    outmost cutoff radius                                                       
   RWIGS  =    2.200; RWIGS  =    1.164    wigner-seitz radius (au A)                               
   ENMAX  =  295.446; ENMIN  =  221.585 eV                                                          
   ICORE  =        3    local potential                                                             
   LCOR   =        T    correct aug charges                                                         
   LPAW   =        T    paw PP                                                                      
   EAUG   =  586.980                                                                                
   DEXC   =    0.000                                                                                
   RMAX   =    2.344    core radius for proj-oper                                                   
   RAUG   =    1.300    factor for augmentation sphere                                              
   RDEP   =    2.302    radius for radial grids                                                     
   RDEPT  =    1.771    core radius for aug-charge                                                  
                                                                                                    
   Atomic configuration                                                                             
    9 entries                                                                                       
     n  l   j            E        occ.                                                              
     1  0  0.50     -8850.2468   2.0000                                                             
     2  0  0.50     -1062.3498   2.0000                                                             
     2  1  1.50      -916.8226   6.0000                                                             
     3  0  0.50      -114.6929   2.0000                                                             
     3  1  1.50       -72.1325   6.0000                                                             
     3  2  2.50        -5.0394  10.0000                                                             
     4  0  0.50        -4.6097   1.0000                                                             
     4  1  0.50        -4.0817   0.0000                                                             
     4  3  2.50        -1.3606   0.0000                                                             
   Description                                                                                      
     l       E           TYP  RCUT    TYP  RCUT                                                     
     2     -5.0393973     23  2.200                                                                 
     2     10.8846608     23  2.200                                                                 
     0     -4.6097109     23  2.200                                                                 
     0      8.2520465     23  2.200                                                                 
     1     -2.7211652     23  2.200                                                                 
     1     21.7055443     23  2.200                                                                 
     3      2.7211652     23  2.300                                                                 
  local pseudopotential read in
  partial core-charges read in
  partial kinetic energy density read in
  atomic valenz-charges read in
  non local Contribution for L=           2  read in
    real space projection operators read in
  non local Contribution for L=           2  read in
    real space projection operators read in
  non local Contribution for L=           0  read in
    real space projection operators read in
  non local Contribution for L=           0  read in
    real space projection operators read in
  non local Contribution for L=           1  read in
    real space projection operators read in
  non local Contribution for L=           1  read in
    real space projection operators read in
    PAW grid and wavefunctions read in
 
   number of l-projection  operators is LMAX  =           6
   number of lm-projection operators is LMMAX =          18
 
 -----------------------------------------------------------------------------
|                                                                             |
|               ----> ADVICE to this user running VASP <----                  |
|                                                                             |
|     You have a (more or less) 'large supercell' and for larger cells it     |
|     might be more efficient to use real-space projection operators.         |
|     Therefore, try LREAL= Auto in the INCAR file.                           |
|     Mind: For very accurate calculation, you might also keep the            |
|     reciprocal projection scheme (i.e. LREAL=.FALSE.).                      |
|                                                                             |
 -----------------------------------------------------------------------------

  PAW_PBE Cu 22Jun2005                  :
 energy of atom  1       EATOM=-1390.9808
 kinetic energy error for atom=    0.0232 (will be added to EATOM!!)
 
 
 POSCAR: FCC Cu
  positions in cartesian coordinates
  velocities in cartesian coordinates
  No initial velocities read in
 exchange correlation table for  LEXCH =        8
   RHO(1)=    0.500       N(1)  =     2000
   RHO(2)=  100.500       N(2)  =     4000

 VTST: version 4.2, (08/11/21)

 CHAIN: initializing optimizer
 
 OPT: Using VASP Conjugate-Gradient optimizer
 CHAIN: Read ICHAIN            0
 
 POSCAR: FCC Cu
  positions in cartesian coordinates
  velocities in cartesian coordinates
  No initial velocities read in
 


--------------------------------------------------------------------------------------------------------


 ion  position               nearest neighbor table
   1  0.000  0.000  0.000-   9 2.57  13 2.57  10 2.57  15 2.57   5 2.57   6 2.57   7 2.57   8 2.57

   2  0.000  0.500  0.000-  10 2.57  14 2.57   9 2.57  16 2.57   6 2.57   5 2.57   8 2.57   7 2.57

   3  0.500  0.000  0.000-  11 2.57  15 2.57  13 2.57  12 2.57   7 2.57   5 2.57   8 2.57   6 2.57

   4  0.500  0.500  0.000-  12 2.57  16 2.57  14 2.57  11 2.57   8 2.57   7 2.57   6 2.57   5 2.57

   5  0.250  0.250  0.000-   9 2.57  13 2.57  11 2.57  14 2.57   1 2.57   2 2.57   3 2.57   4 2.57

   6  0.250  0.750  0.000-  10 2.57  14 2.57  12 2.57  13 2.57   2 2.57   4 2.57   1 2.57   3 2.57

   7  0.750  0.250  0.000-  11 2.57  15 2.57  16 2.57   9 2.57   3 2.57   4 2.57   1 2.57   2 2.57

   8  0.750  0.750  0.000-  12 2.57  16 2.57  15 2.57  10 2.57   4 2.57   3 2.57   2 2.57   1 2.57

   9  0.000  0.250  0.082-  17 2.57  21 2.57  18 2.57  23 2.57   1 2.57   5 2.57   2 2.57   7 2.57
                            13 2.57  14 2.57  15 2.57  16 2.57
  10  0.000  0.750  0.082-  18 2.57  22 2.57  17 2.57  24 2.57   2 2.57   6 2.57   1 2.57   8 2.57
                            14 2.57  13 2.57  16 2.57  15 2.57
  11  0.500  0.250  0.082-  19 2.57  23 2.57  21 2.57  20 2.57   3 2.57   7 2.57   5 2.57   4 2.57
                            15 2.57  13 2.57  16 2.57  14 2.57
  12  0.500  0.750  0.082-  20 2.57  24 2.57  22 2.57  19 2.57   4 2.57   8 2.57   6 2.57   3 2.57
                            16 2.57  14 2.57  15 2.57  13 2.57
  13  0.250  0.000  0.082-  17 2.57  21 2.57  19 2.57  22 2.57   1 2.57   5 2.57   3 2.57   6 2.57
                             9 2.57  11 2.57  10 2.57  12 2.57
  14  0.250  0.500  0.082-  18 2.57  22 2.57  21 2.57  20 2.57   2 2.57   6 2.57   5 2.57   4 2.57
                            10 2.57   9 2.57  12 2.57  11 2.57
  15  0.750  0.000  0.082-  19 2.57  23 2.57  17 2.57  24 2.57   3 2.57   7 2.57   1 2.57   8 2.57
                            11 2.57   9 2.57  12 2.57  10 2.57
  16  0.750  0.500  0.082-  20 2.57  24 2.57  23 2.57  18 2.57   4 2.57   8 2.57   7 2.57   2 2.57
                            12 2.57  11 2.57  10 2.57   9 2.57
  17  0.000  0.000  0.163-   9 2.57  13 2.57  10 2.57  15 2.57  25 2.57  29 2.57  26 2.57  31 2.57
                            21 2.57  22 2.57  23 2.57  24 2.57
  18  0.000  0.500  0.163-  10 2.57  14 2.57   9 2.57  16 2.57  26 2.57  30 2.57  25 2.57  32 2.57
                            22 2.57  21 2.57  24 2.57  23 2.57
  19  0.500  0.000  0.163-  11 2.57  15 2.57  13 2.57  12 2.57  27 2.57  31 2.57  29 2.57  28 2.57
                            23 2.57  21 2.57  24 2.57  22 2.57
  20  0.500  0.500  0.163-  12 2.57  16 2.57  14 2.57  11 2.57  28 2.57  32 2.57  30 2.57  27 2.57
                            24 2.57  23 2.57  22 2.57  21 2.57
  21  0.250  0.250  0.163-   9 2.57  13 2.57  11 2.57  14 2.57  25 2.57  29 2.57  27 2.57  30 2.57
                            17 2.57  18 2.57  19 2.57  20 2.57
  22  0.250  0.750  0.163-  10 2.57  14 2.57  12 2.57  13 2.57  26 2.57  30 2.57  28 2.57  29 2.57
                            18 2.57  20 2.57  17 2.57  19 2.57
  23  0.750  0.250  0.163-  11 2.57  15 2.57  16 2.57   9 2.57  27 2.57  31 2.57  32 2.57  25 2.57
                            19 2.57  20 2.57  17 2.57  18 2.57
  24  0.750  0.750  0.163-  12 2.57  16 2.57  15 2.57  10 2.57  28 2.57  32 2.57  31 2.57  26 2.57
                            20 2.57  19 2.57  18 2.57  17 2.57
  25  0.000  0.250  0.245-  33 2.57  37 2.57  34 2.57  39 2.57  17 2.57  21 2.57  18 2.57  23 2.57
                            29 2.57  30 2.57  31 2.57  32 2.57
  26  0.000  0.750  0.245-  34 2.57  38 2.57  33 2.57  40 2.57  18 2.57  22 2.57  17 2.57  24 2.57
                            30 2.57  29 2.57  32 2.57  31 2.57
  27  0.500  0.250  0.245-  35 2.57  39 2.57  37 2.57  36 2.57  19 2.57  23 2.57  21 2.57  20 2.57
                            31 2.57  29 2.57  32 2.57  30 2.57
  28  0.500  0.750  0.245-  36 2.57  40 2.57  38 2.57  35 2.57  20 2.57  24 2.57  22 2.57  19 2.57
                            32 2.57  30 2.57  31 2.57  29 2.57
  29  0.250  0.000  0.245-  33 2.57  37 2.57  35 2.57  38 2.57  17 2.57  21 2.57  19 2.57  22 2.57
                            25 2.57  27 2.57  26 2.57  28 2.57
  30  0.250  0.500  0.245-  34 2.57  38 2.57  37 2.57  36 2.57  18 2.57  22 2.57  21 2.57  20 2.57
                            26 2.57  25 2.57  28 2.57  27 2.57
  31  0.750  0.000  0.245-  35 2.57  39 2.57  33 2.57  40 2.57  19 2.57  23 2.57  17 2.57  24 2.57
                            27 2.57  25 2.57  28 2.57  26 2.57
  32  0.750  0.500  0.245-  36 2.57  40 2.57  39 2.57  34 2.57  20 2.57  24 2.57  23 2.57  18 2.57
                            28 2.57  27 2.57  26 2.57  25 2.57
  33  0.000  0.000  0.326-  25 2.57  29 2.57  26 2.57  31 2.57  37 2.57  38 2.57  39 2.57  40 2.57

  34  0.000  0.500  0.326-  26 2.57  30 2.57  25 2.57  32 2.57  38 2.57  37 2.57  40 2.57  39 2.57

  35  0.500  0.000  0.326-  27 2.57  31 2.57  29 2.57  28 2.57  39 2.57  37 2.57  40 2.57  38 2.57

  36  0.500  0.500  0.326-  28 2.57  32 2.57  30 2.57  27 2.57  40 2.57  39 2.57  38 2.57  37 2.57

  37  0.250  0.250  0.326-  25 2.57  29 2.57  27 2.57  30 2.57  33 2.57  34 2.57  35 2.57  36 2.57

  38  0.250  0.750  0.326-  26 2.57  30 2.57  28 2.57  29 2.57  34 2.57  36 2.57  33 2.57  35 2.57

  39  0.750  0.250  0.326-  27 2.57  31 2.57  32 2.57  25 2.57  35 2.57  36 2.57  33 2.57  34 2.57

  40  0.750  0.750  0.326-  28 2.57  32 2.57  31 2.57  26 2.57  36 2.57  35 2.57  34 2.57  33 2.57

 
  LATTYP: Found a simple tetragonal cell.
 ALAT       =     7.2600002289
 C/A-ratio  =     3.0661156058
  
  Lattice vectors:
  
 A1 = (   7.2600002289,   0.0000000000,   0.0000000000)
 A2 = (   0.0000000000,   7.2600002289,   0.0000000000)
 A3 = (   0.0000000000,   0.0000000000,  22.2600000000)


Analysis of symmetry for initial positions (statically):
=====================================================================
 Subroutine PRICEL returns following result:
 
  LATTYP: Found a simple tetragonal cell.
 ALAT       =     2.5667976963
 C/A-ratio  =     8.6722845482
  
  Lattice vectors:
  
 A1 = (   1.8150000570,  -1.8150000570,   0.0000000000)
 A2 = (   1.8150000570,   1.8150000570,   0.0000000000)
 A3 = (   0.0000000000,   0.0000000000,  22.2600000000)
 
   8 primitive cells build up your supercell.
 

 Routine SETGRP: Setting up the symmetry group for a 
 simple tetragonal supercell.


 Subroutine GETGRP returns: Found 16 space group operations
 (whereof  8 operations were pure point group operations)
 out of a pool of 16 trial point group operations.


The static configuration has the point symmetry C_4v.
 The point group associated with its full space group is D_4h.


Analysis of symmetry for dynamics (positions and initial velocities):
=====================================================================
 Subroutine PRICEL returns following result:
 
  LATTYP: Found a simple tetragonal cell.
 ALAT       =     2.5667976963
 C/A-ratio  =     8.6722845482
  
  Lattice vectors:
  
 A1 = (   1.8150000570,  -1.8150000570,   0.0000000000)
 A2 = (   1.8150000570,   1.8150000570,   0.0000000000)
 A3 = (   0.0000000000,   0.0000000000,  22.2600000000)
 
   8 primitive cells build up your supercell.
 

 Routine SETGRP: Setting up the symmetry group for a 
 simple tetragonal supercell.


 Subroutine GETGRP returns: Found 16 space group operations
 (whereof  8 operations were pure point group operations)
 out of a pool of 16 trial point group operations.


The dynamic configuration has the point symmetry C_4v.
 The point group associated with its full space group is D_4h.


Analysis of constrained symmetry for selective dynamics:
=====================================================================
 Subroutine PRICEL returns following result:
 
  LATTYP: Found a simple tetragonal cell.
 ALAT       =     2.5667976963
 C/A-ratio  =     8.6722845482
  
  Lattice vectors:
  
 A1 = (   1.8150000570,  -1.8150000570,   0.0000000000)
 A2 = (   1.8150000570,   1.8150000570,   0.0000000000)
 A3 = (   0.0000000000,   0.0000000000,  22.2600000000)
 
   8 primitive cells build up your supercell.
 

 Routine SETGRP: Setting up the symmetry group for a 
 simple tetragonal supercell.


 Subroutine GETGRP returns: Found  8 space group operations
 (whereof  8 operations were pure point group operations)
 out of a pool of 16 trial point group operations.


The constrained configuration has the point symmetry C_4v.


Analysis of structural, dynamic, and magnetic symmetry:
=====================================================================
 Subroutine PRICEL returns following result:
 
  LATTYP: Found a simple tetragonal cell.
 ALAT       =     2.5667976963
 C/A-ratio  =     8.6722845482
  
  Lattice vectors:
  
 A1 = (   1.8150000570,  -1.8150000570,   0.0000000000)
 A2 = (   1.8150000570,   1.8150000570,   0.0000000000)
 A3 = (   0.0000000000,   0.0000000000,  22.2600000000)
 
   8 primitive cells build up your supercell.
 

 Routine SETGRP: Setting up the symmetry group for a 
 simple tetragonal supercell.


 Subroutine GETGRP returns: Found  8 space group operations
 (whereof  8 operations were pure point group operations)
 out of a pool of 16 trial point group operations.


The overall configuration has the point symmetry C_4v.


 Subroutine INISYM returns: Found  8 space group operations
 (whereof  8 operations are pure point group operations),
 and found     8 'primitive' translations


----------------------------------------------------------------------------------------

                                     Primitive cell                                     

  volume of cell :     146.6589

  direct lattice vectors                    reciprocal lattice vectors
     1.815000057 -1.815000057  0.000000000     0.275482085 -0.275482085  0.000000000
     1.815000057  1.815000057  0.000000000     0.275482085  0.275482085  0.000000000
     0.000000000  0.000000000 22.260000000     0.000000000  0.000000000  0.044923630

  length of vectors
     2.566797696  2.566797696 22.260000000     0.389590501  0.389590501  0.044923630

  position of ions in fractional coordinates (direct lattice)
     0.000000000  0.000000000  0.000000000
     0.500000000  0.500000000  0.081536389
     0.000000000  0.000000000  0.163072779
     0.500000000  0.500000000  0.244609168
     0.000000000  0.000000000  0.326145557

  ion indices of the primitive-cell ions
   primitive index   ion index
                 1           1
                 2           9
                 3          17
                 4          25
                 5          33

----------------------------------------------------------------------------------------

 
 
 KPOINTS: Auto-mesh                               

Automatic generation of k-mesh.
 Grid dimensions read from file:
 generate k-points for:    3    3    1

 Generating k-lattice:

  Cartesian coordinates                     Fractional coordinates (reciprocal lattice)
     0.045913681  0.000000000  0.000000000     0.333333333  0.000000000  0.000000000
     0.000000000  0.045913681  0.000000000     0.000000000  0.333333333  0.000000000
     0.000000000  0.000000000  0.044923630     0.000000000  0.000000000  1.000000000

  Length of vectors
     0.045913681  0.045913681  0.044923630

  Shift w.r.t. Gamma in fractional coordinates (k-lattice)
     0.000000000  0.000000000  0.000000000

 
 Subroutine IBZKPT returns following result:
 ===========================================
 
 Found      3 irreducible k-points:
 
 Following reciprocal coordinates:
            Coordinates               Weight
  0.000000  0.000000  0.000000      1.000000
  0.333333  0.000000  0.000000      4.000000
  0.333333  0.333333  0.000000      4.000000
 
 Following cartesian coordinates:
            Coordinates               Weight
  0.000000  0.000000  0.000000      1.000000
  0.045914  0.000000  0.000000      4.000000
  0.045914  0.045914  0.000000      4.000000
 


--------------------------------------------------------------------------------------------------------




 Dimension of arrays:
   k-points           NKPTS =      3   k-points in BZ     NKDIM =      3   number of bands    NBANDS=    284
   number of dos      NEDOS =    301   number of ions     NIONS =     40
   non local maximal  LDIM  =      6   non local SUM 2l+1 LMDIM =     18
   total plane-waves  NPLWV = 145152
   max r-space proj   IRMAX =      1   max aug-charges    IRDMAX=   3783
   dimension x,y,z NGX =    36 NGY =   36 NGZ =  112
   dimension x,y,z NGXF=    72 NGYF=   72 NGZF=  224
   support grid    NGXF=    72 NGYF=   72 NGZF=  224
   ions per type =              40
   NGX,Y,Z   is equivalent  to a cutoff of   8.24,  8.24,  8.36 a.u.
   NGXF,Y,Z  is equivalent  to a cutoff of  16.49, 16.49, 16.73 a.u.

 SYSTEM =  unknown system                          
 POSCAR =  FCC Cu                                  

 Startparameter for this run:
   NWRITE =      2    write-flag & timer
   PREC   = normal    normal or accurate (medium, high low for compatibility)
   ISTART =      0    job   : 0-new  1-cont  2-samecut
   ICHARG =      2    charge: 1-file 2-atom 10-const
   ISPIN  =      2    spin polarized calculation?
   LNONCOLLINEAR =      F non collinear calculations
   LSORBIT =      F    spin-orbit coupling
   INIWAV =      1    electr: 0-lowe 1-rand  2-diag
   LASPH  =      F    aspherical Exc in radial PAW
 Electronic Relaxation 1
   ENCUT  =  400.0 eV  29.40 Ry    5.42 a.u.  11.84 11.84 36.30*2*pi/ulx,y,z
   ENINI  =  400.0     initial cutoff
   ENAUG  =  587.0 eV  augmentation charge cutoff
   NELM   =     60;   NELMIN=  2; NELMDL= -5     # of ELM steps 
   EDIFF  = 0.2E-03   stopping-criterion for ELM
   LREAL  =      F    real-space projection
   NLSPLINE    = F    spline interpolate recip. space projectors
   LCOMPAT=      F    compatible to vasp.4.4
   GGA_COMPAT  = T    GGA compatible to vasp.4.4-vasp.4.6
   LMAXPAW     = -100 max onsite density
   LMAXMIX     =    2 max onsite mixed and CHGCAR
   VOSKOWN=      0    Vosko Wilk Nusair interpolation
   ROPT   =    0.00000
 Ionic relaxation
   EDIFFG = -.3E-01   stopping-criterion for IOM
   NSW    =    800    number of steps for IOM
   NBLOCK =      1;   KBLOCK =    800    inner block; outer block 
   IBRION =      2    ionic relax: 0-MD 1-quasi-New 2-CG
   NFREE  =      1    steps in history (QN), initial steepest desc. (CG)
   ISIF   =      2    stress and relaxation
   IWAVPR =     11    prediction:  0-non 1-charg 2-wave 3-comb
   ISYM   =      1    0-nonsym 1-usesym 2-fastsym
   LCORR  =      T    Harris-Foulkes like correction to forces

   POTIM  = 0.5000    time-step for ionic-motion
   TEIN   =    0.0    initial temperature
   TEBEG  =    0.0;   TEEND  =   0.0 temperature during run
   SMASS  =  -3.00    Nose mass-parameter (am)
   estimated Nose-frequenzy (Omega)   =  0.10E-29 period in steps = 0.13E+47 mass=  -0.120E-26a.u.
   SCALEE = 1.0000    scale energy and forces
   NPACO  =    256;   APACO  = 10.0  distance and # of slots for P.C.
   PSTRESS=    0.0 pullay stress

  Mass of Ions in am
   POMASS =  63.55
  Ionic Valenz
   ZVAL   =  11.00
  Atomic Wigner-Seitz radii
   RWIGS  =  -1.00
  virtual crystal weights 
   VCA    =   1.00
   NELECT =     440.0000    total number of electrons
   NUPDOWN=      -1.0000    fix difference up-down

 DOS related values:
   EMIN   =  10.00;   EMAX   =-10.00  energy-range for DOS
   EFERMI =   0.00
   ISMEAR =     1;   SIGMA  =   0.20  broadening in eV -4-tet -1-fermi 0-gaus

 Electronic relaxation 2 (details)
   IALGO  =     38    algorithm
   LDIAG  =      T    sub-space diagonalisation (order eigenvalues)
   LSUBROT=      F    optimize rotation matrix (better conditioning)
   TURBO    =      0    0=normal 1=particle mesh
   IRESTART =      0    0=no restart 2=restart with 2 vectors
   NREBOOT  =      0    no. of reboots
   NMIN     =      0    reboot dimension
   EREF     =   0.00    reference energy to select bands
   IMIX   =      4    mixing-type and parameters
     AMIX     =   0.40;   BMIX     =  1.00
     AMIX_MAG =   1.60;   BMIX_MAG =  1.00
     AMIN     =   0.10
     WC   =   100.;   INIMIX=   1;  MIXPRE=   1;  MAXMIX= -45

 Intra band minimization:
   WEIMIN = 0.0010     energy-eigenvalue tresh-hold
   EBREAK =  0.18E-06  absolut break condition
   DEPER  =   0.30     relativ break condition  

   TIME   =   0.40     timestep for ELM

  volume/ion in A,a.u.               =      29.33       197.94
  Fermi-wavevector in a.u.,A,eV,Ry     =   1.180573  2.230960 18.963161  1.393753
  Thomas-Fermi vector in A             =   2.316863
 
 Write flags
   LWAVE        =      F    write WAVECAR
   LDOWNSAMPLE  =      F    k-point downsampling of WAVECAR
   LCHARG       =      F    write CHGCAR
   LVTOT        =      F    write LOCPOT, total local potential
   LVHAR        =      F    write LOCPOT, Hartree potential only
   LELF         =      F    write electronic localiz. function (ELF)
   LORBIT       =      0    0 simple, 1 ext, 2 COOP (PROOUT), +10 PAW based schemes


 Dipole corrections
   LMONO  =      F    monopole corrections only (constant potential shift)
   LDIPOL =      F    correct potential (dipole corrections)
   IDIPOL =      3    1-x, 2-y, 3-z, 4-all directions 
   EPSILON=  1.0000000 bulk dielectric constant

 Exchange correlation treatment:
   GGA     =    PE    GGA type
   LEXCH   =     8    internal setting for exchange type
   LIBXC   =     F    Libxc                    
   VOSKOWN =     0    Vosko Wilk Nusair interpolation
   LHFCALC =     F    Hartree Fock is set to
   LHFONE  =     F    Hartree Fock one center treatment
   AEXX    =    0.0000 exact exchange contribution

 Linear response parameters
   LEPSILON=     F    determine dielectric tensor
   LRPA    =     F    only Hartree local field effects (RPA)
   LNABLA  =     F    use nabla operator in PAW spheres
   LVEL    =     F    velocity operator in full k-point grid
   CSHIFT  =0.1000    complex shift for real part using Kramers Kronig
   OMEGAMAX=  -1.0    maximum frequency
   DEG_THRESHOLD= 0.2000000E-02 threshold for treating states as degnerate
   RTIME   =   -0.100 relaxation time in fs
  (WPLASMAI=    0.000 imaginary part of plasma frequency in eV, 0.658/RTIME)
   DFIELD  = 0.0000000 0.0000000 0.0000000 field for delta impulse in time
 
  Optional k-point grid parameters
   LKPOINTS_OPT  =     F    use optional k-point grid
   KPOINTS_OPT_MODE=     1    mode for optional k-point grid
 
 Orbital magnetization related:
   ORBITALMAG=     F  switch on orbital magnetization
   LCHIMAG   =     F  perturbation theory with respect to B field
   DQ        =  0.001000  dq finite difference perturbation B field
   LLRAUG    =     F  two centre corrections for induced B field



--------------------------------------------------------------------------------------------------------


 conjugate gradient relaxation of ions
   using selective dynamics as specified on POSCAR
   WARNING: If single coordinates had been selected the selection of coordinates
            is made according to the corresponding   d i r e c t   coordinates!
            Don't support selection of single cartesian coordinates -- sorry ...
  !
 charge density and potential will be updated during run
 spin polarized calculation
 Variant of blocked Davidson
 Davidson routine will perform the subspace rotation
 perform sub-space diagonalisation
    after iterative eigenvector-optimisation
 modified Broyden-mixing scheme, WC =      100.0
 initial mixing is a Kerker type mixing with AMIX =  0.4000 and BMIX =      1.0000
 Hartree-type preconditioning will be used
 using additional bands           64
 reciprocal scheme for non local part
 use partial core corrections
 calculate Harris-corrections to forces 
   (improved forces if not selfconsistent)
 use gradient corrections 
 use of overlap-Matrix (Vanderbilt PP)
 Methfessel and Paxton  Order N= 1 SIGMA  =   0.20


--------------------------------------------------------------------------------------------------------


  energy-cutoff  :      400.00
  volume of cell :     1173.27
      direct lattice vectors                 reciprocal lattice vectors
     7.260000229  0.000000000  0.000000000     0.137741042  0.000000000  0.000000000
     0.000000000  7.260000229  0.000000000     0.000000000  0.137741042  0.000000000
     0.000000000  0.000000000 22.260000000     0.000000000  0.000000000  0.044923630

  length of vectors
     7.260000229  7.260000229 22.260000000     0.137741042  0.137741042  0.044923630


 
 k-points in units of 2pi/SCALE and weight: Auto-mesh                               
   0.00000000  0.00000000  0.00000000       0.111
   0.04591368  0.00000000  0.00000000       0.444
   0.04591368  0.04591368  0.00000000       0.444
 
 k-points in reciprocal lattice and weights: Auto-mesh                               
   0.00000000  0.00000000  0.00000000       0.111
   0.33333333  0.00000000  0.00000000       0.444
   0.33333333  0.33333333  0.00000000       0.444
 
 position of ions in fractional coordinates (direct lattice) 
   0.00000000  0.00000000  0.00000000
   0.00000000  0.50000000  0.00000000
   0.50000000  0.00000000  0.00000000
   0.50000000  0.50000000  0.00000000
   0.25000000  0.25000000  0.00000000
   0.25000000  0.75000000  0.00000000
   0.75000000  0.25000000  0.00000000
   0.75000000  0.75000000  0.00000000
   0.00000000  0.25000000  0.08153639
   0.00000000  0.75000000  0.08153639
   0.50000000  0.25000000  0.08153639
   0.50000000  0.75000000  0.08153639
   0.25000000  0.00000000  0.08153639
   0.25000000  0.50000000  0.08153639
   0.75000000  0.00000000  0.08153639
   0.75000000  0.50000000  0.08153639
   0.00000000  0.00000000  0.16307278
   0.00000000  0.50000000  0.16307278
   0.50000000  0.00000000  0.16307278
   0.50000000  0.50000000  0.16307278
   0.25000000  0.25000000  0.16307278
   0.25000000  0.75000000  0.16307278
   0.75000000  0.25000000  0.16307278
   0.75000000  0.75000000  0.16307278
   0.00000000  0.25000000  0.24460917
   0.00000000  0.75000000  0.24460917
   0.50000000  0.25000000  0.24460917
   0.50000000  0.75000000  0.24460917
   0.25000000  0.00000000  0.24460917
   0.25000000  0.50000000  0.24460917
   0.75000000  0.00000000  0.24460917
   0.75000000  0.50000000  0.24460917
   0.00000000  0.00000000  0.32614556
   0.00000000  0.50000000  0.32614556
   0.50000000  0.00000000  0.32614556
   0.50000000  0.50000000  0.32614556
   0.25000000  0.25000000  0.32614556
   0.25000000  0.75000000  0.32614556
   0.75000000  0.25000000  0.32614556
   0.75000000  0.75000000  0.32614556
 
 position of ions in cartesian coordinates  (Angst):
   0.00000000  0.00000000  0.00000000
   0.00000000  3.63000011  0.00000000
   3.63000011  0.00000000  0.00000000
   3.63000011  3.63000011  0.00000000
   1.81500006  1.81500006  0.00000000
   1.81500006  5.44500017  0.00000000
   5.44500017  1.81500006  0.00000000
   5.44500017  5.44500017  0.00000000
   0.00000000  1.81500006  1.81500003
   0.00000000  5.44500017  1.81500003
   3.63000011  1.81500006  1.81500003
   3.63000011  5.44500017  1.81500003
   1.81500006  0.00000000  1.81500003
   1.81500006  3.63000011  1.81500003
   5.44500017  0.00000000  1.81500003
   5.44500017  3.63000011  1.81500003
   0.00000000  0.00000000  3.63000005
   0.00000000  3.63000011  3.63000005
   3.63000011  0.00000000  3.63000005
   3.63000011  3.63000011  3.63000005
   1.81500006  1.81500006  3.63000005
   1.81500006  5.44500017  3.63000005
   5.44500017  1.81500006  3.63000005
   5.44500017  5.44500017  3.63000005
   0.00000000  1.81500006  5.44500008
   0.00000000  5.44500017  5.44500008
   3.63000011  1.81500006  5.44500008
   3.63000011  5.44500017  5.44500008
   1.81500006  0.00000000  5.44500008
   1.81500006  3.63000011  5.44500008
   5.44500017  0.00000000  5.44500008
   5.44500017  3.63000011  5.44500008
   0.00000000  0.00000000  7.26000010
   0.00000000  3.63000011  7.26000010
   3.63000011  0.00000000  7.26000010
   3.63000011  3.63000011  7.26000010
   1.81500006  1.81500006  7.26000010
   1.81500006  5.44500017  7.26000010
   5.44500017  1.81500006  7.26000010
   5.44500017  5.44500017  7.26000010
 


--------------------------------------------------------------------------------------------------------


 k-point   1 :   0.0000 0.0000 0.0000  plane waves:   21285
 k-point   2 :   0.3333 0.0000 0.0000  plane waves:   21310
 k-point   3 :   0.3333 0.3333 0.0000  plane waves:   21321

 maximum and minimum number of plane-waves per node :      4286     4242

 maximum number of plane-waves:     21321
 maximum index in each direction: 
   IXMAX=   11   IYMAX=   11   IZMAX=   36
   IXMIN=  -12   IYMIN=  -12   IZMIN=  -36


 parallel 3D FFT for wavefunctions:
    minimum data exchange during FFTs selected (reduces bandwidth)
 parallel 3D FFT for charge:
    minimum data exchange during FFTs selected (reduces bandwidth)


 total amount of memory used by VASP MPI-rank0    75269. kBytes
=======================================================================

   base      :      30000. kBytes
   nonl-proj :       4575. kBytes
   fftplans  :       3108. kBytes
   grid      :       7266. kBytes
   one-center:        248. kBytes
   wavefun   :      30072. kBytes
 
     INWAV:  cpu time      0.0000: real time      0.0006
 Broyden mixing: mesh for mixing (old mesh)
   NGX = 23   NGY = 23   NGZ = 73
  (NGX  = 72   NGY  = 72   NGZ  =224)
  gives a total of  38617 points

 initial charge density was supplied:
 charge density of overlapping atoms calculated
 number of electron     440.0000000 magnetization      40.0000000
 keeping initial charge density in first step


--------------------------------------------------------------------------------------------------------


 Maximum index for augmentation-charges          283 (set IRDMAX)


--------------------------------------------------------------------------------------------------------


 First call to EWALD:  gamma=   0.168
 Maximum number of real-space cells 4x 4x 2
 Maximum number of reciprocal cells 2x 2x 5

    FEWALD:  cpu time      0.0026: real time      0.0026


--------------------------------------- Iteration      1(   1)  ---------------------------------------


    POTLOK:  cpu time      0.0937: real time      0.0947
    SETDIJ:  cpu time      0.0139: real time      0.0140
     EDDAV:  cpu time     10.3825: real time     10.4655
       DOS:  cpu time      0.0019: real time      0.0019
    --------------------------------------------
      LOOP:  cpu time     10.4919: real time     10.5760

 eigenvalue-minimisations  :  3408
 total energy-change (2. order) : 0.4011623E+04  (-0.1581869E+05)
 number of electron     440.0000000 magnetization      40.0000000
 augmentation part      440.0000000 magnetization      40.0000000

 Free energy of the ion-electron system (eV)
  ---------------------------------------------------
  alpha Z        PSCENC =       997.31827505
  Ewald energy   TEWEN  =    178443.47286306
  -Hartree energ DENC   =   -232187.03381345
  -exchange      EXHF   =         0.00000000
  -V(xc)+E(xc)   XCENC  =      1824.76130905
  PAW double counting   =     49123.89984196   -53356.83726100
  entropy T*S    EENTRO =         0.02024442
  eigenvalues    EBANDS =      3527.71640888
  atomic energy  EATOM  =     55638.30560799
  Solvation  Ediel_sol  =         0.00000000
  ---------------------------------------------------
  free energy    TOTEN  =      4011.62347596 eV

  energy without entropy =     4011.60323154  energy(sigma->0) =     4011.61672782


--------------------------------------------------------------------------------------------------------




--------------------------------------- Iteration      1(   2)  ---------------------------------------


     EDDAV:  cpu time     10.2151: real time     10.2976
       DOS:  cpu time      0.0023: real time      0.0023
    --------------------------------------------
      LOOP:  cpu time     10.2174: real time     10.2999

 eigenvalue-minimisations  :  3408
 total energy-change (2. order) :-0.3565451E+04  (-0.3417589E+04)
 number of electron     440.0000000 magnetization      40.0000000
 augmentation part      440.0000000 magnetization      40.0000000

 Free energy of the ion-electron system (eV)
  ---------------------------------------------------
  alpha Z        PSCENC =       997.31827505
  Ewald energy   TEWEN  =    178443.47286306
  -Hartree energ DENC   =   -232187.03381345
  -exchange      EXHF   =         0.00000000
  -V(xc)+E(xc)   XCENC  =      1824.76130905
  PAW double counting   =     49123.89984196   -53356.83726100
  entropy T*S    EENTRO =         0.00703639
  eigenvalues    EBANDS =       -37.72167176
  atomic energy  EATOM  =     55638.30560799
  Solvation  Ediel_sol  =         0.00000000
  ---------------------------------------------------
  free energy    TOTEN  =       446.17218729 eV

  energy without entropy =      446.16515090  energy(sigma->0) =      446.16984182


--------------------------------------------------------------------------------------------------------




--------------------------------------- Iteration      1(   3)  ---------------------------------------


     EDDAV:  cpu time     10.1901: real time     10.2717
       DOS:  cpu time      0.0025: real time      0.0025
    --------------------------------------------
      LOOP:  cpu time     10.1927: real time     10.2742

 eigenvalue-minimisations  :  3408
 total energy-change (2. order) :-0.5725190E+03  (-0.5154634E+03)
 number of electron     440.0000000 magnetization      40.0000000
 augmentation part      440.0000000 magnetization      40.0000000

 Free energy of the ion-electron system (eV)
  ---------------------------------------------------
  alpha Z        PSCENC =       997.31827505
  Ewald energy   TEWEN  =    178443.47286306
  -Hartree energ DENC   =   -232187.03381345
  -exchange      EXHF   =         0.00000000
  -V(xc)+E(xc)   XCENC  =      1824.76130905
  PAW double counting   =     49123.89984196   -53356.83726100
  entropy T*S    EENTRO =         0.08163548
  eigenvalues    EBANDS =      -610.31528119
  atomic energy  EATOM  =     55638.30560799
  Solvation  Ediel_sol  =         0.00000000
  ---------------------------------------------------
  free energy    TOTEN  =      -126.34682305 eV

  energy without entropy =     -126.42845853  energy(sigma->0) =     -126.37403488


--------------------------------------------------------------------------------------------------------




--------------------------------------- Iteration      1(   4)  ---------------------------------------


     EDDAV:  cpu time     11.1672: real time     11.2553
       DOS:  cpu time      0.0027: real time      0.0027
    --------------------------------------------
      LOOP:  cpu time     11.1699: real time     11.2580

 eigenvalue-minimisations  :  3840
 total energy-change (2. order) :-0.3774426E+02  (-0.3658063E+02)
 number of electron     440.0000000 magnetization      40.0000000
 augmentation part      440.0000000 magnetization      40.0000000

 Free energy of the ion-electron system (eV)
  ---------------------------------------------------
  alpha Z        PSCENC =       997.31827505
  Ewald energy   TEWEN  =    178443.47286306
  -Hartree energ DENC   =   -232187.03381345
  -exchange      EXHF   =         0.00000000
  -V(xc)+E(xc)   XCENC  =      1824.76130905
  PAW double counting   =     49123.89984196   -53356.83726100
  entropy T*S    EENTRO =         0.11071161
  eigenvalues    EBANDS =      -648.08862157
  atomic energy  EATOM  =     55638.30560799
  Solvation  Ediel_sol  =         0.00000000
  ---------------------------------------------------
  free energy    TOTEN  =      -164.09108731 eV

  energy without entropy =     -164.20179892  energy(sigma->0) =     -164.12799118


--------------------------------------------------------------------------------------------------------




--------------------------------------- Iteration      1(   5)  ---------------------------------------


     EDDAV:  cpu time     11.1580: real time     11.2432
       DOS:  cpu time      0.0026: real time      0.0026
    CHARGE:  cpu time      0.6796: real time      0.6826
    MIXING:  cpu time      0.0058: real time      0.0058
    --------------------------------------------
      LOOP:  cpu time     11.8461: real time     11.9343

 eigenvalue-minimisations  :  3848
 total energy-change (2. order) :-0.8931563E+00  (-0.8903206E+00)
 number of electron     440.0006223 magnetization      36.1143434
 augmentation part      260.9754573 magnetization      35.3932438

 Broyden mixing:
  rms(total) = 0.57435E+01    rms(broyden)= 0.57429E+01
  rms(prec ) = 0.59628E+01
  weight for this iteration     100.00

 Free energy of the ion-electron system (eV)
  ---------------------------------------------------
  alpha Z        PSCENC =       997.31827505
  Ewald energy   TEWEN  =    178443.47286306
  -Hartree energ DENC   =   -232187.03381345
  -exchange      EXHF   =         0.00000000
  -V(xc)+E(xc)   XCENC  =      1824.76130905
  PAW double counting   =     49123.89984196   -53356.83726100
  entropy T*S    EENTRO =         0.11228480
  eigenvalues    EBANDS =      -648.98335111
  atomic energy  EATOM  =     55638.30560799
  Solvation  Ediel_sol  =         0.00000000
  ---------------------------------------------------
  free energy    TOTEN  =      -164.98424365 eV

  energy without entropy =     -165.09652845  energy(sigma->0) =     -165.02167191


--------------------------------------------------------------------------------------------------------




--------------------------------------- Iteration      1(   6)  ---------------------------------------


    POTLOK:  cpu time      0.0852: real time      0.0886
    SETDIJ:  cpu time      0.0128: real time      0.0129
     EDDAV:  cpu time     10.7591: real time     10.8413
       DOS:  cpu time      0.0023: real time      0.0023
    CHARGE:  cpu time      0.6684: real time      0.6716
    MIXING:  cpu time      0.0060: real time      0.0060
    --------------------------------------------
      LOOP:  cpu time     11.5338: real time     11.6226

 eigenvalue-minimisations  :  3652
 total energy-change (2. order) : 0.2981335E+02  (-0.3993766E+02)
 number of electron     440.0006892 magnetization      33.6494355
 augmentation part      294.0503311 magnetization      25.0602340

 Broyden mixing:
  rms(total) = 0.29758E+01    rms(broyden)= 0.29744E+01
  rms(prec ) = 0.31294E+01
  weight for this iteration     100.00

 eigenvalues of (default mixing * dielectric matrix)
  average eigenvalue GAMMA=   0.7909
  0.7909

 Free energy of the ion-electron system (eV)
  ---------------------------------------------------
  alpha Z        PSCENC =       997.31827505
  Ewald energy   TEWEN  =    178443.47286306
  -Hartree energ DENC   =   -231107.36573645
  -exchange      EXHF   =         0.00000000
  -V(xc)+E(xc)   XCENC  =      1779.82931416
  PAW double counting   =     49621.28423717   -53640.05777061
  entropy T*S    EENTRO =        -0.00622363
  eigenvalues    EBANDS =     -1867.95145627
  atomic energy  EATOM  =     55638.30560799
  Solvation  Ediel_sol  =         0.00000000
  ---------------------------------------------------
  free energy    TOTEN  =      -135.17088954 eV

  energy without entropy =     -135.16466591  energy(sigma->0) =     -135.16881499


--------------------------------------------------------------------------------------------------------




--------------------------------------- Iteration      1(   7)  ---------------------------------------


    POTLOK:  cpu time      0.0818: real time      0.0841
    SETDIJ:  cpu time      0.0188: real time      0.0189
     EDDAV:  cpu time     10.8922: real time     10.9751
       DOS:  cpu time      0.0023: real time      0.0023
    CHARGE:  cpu time      0.6695: real time      0.6729
    MIXING:  cpu time      0.0064: real time      0.0064
    --------------------------------------------
      LOOP:  cpu time     11.6711: real time     11.7598

 eigenvalue-minimisations  :  3736
 total energy-change (2. order) : 0.2088434E+02  (-0.9674363E+01)
 number of electron     440.0006679 magnetization      30.7441085
 augmentation part      282.1349304 magnetization      20.9732765

 Broyden mixing:
  rms(total) = 0.13790E+01    rms(broyden)= 0.13786E+01
  rms(prec ) = 0.14039E+01
  weight for this iteration     100.00

 eigenvalues of (default mixing * dielectric matrix)
  average eigenvalue GAMMA=   0.8222
  1.0012  0.6432

 Free energy of the ion-electron system (eV)
  ---------------------------------------------------
  alpha Z        PSCENC =       997.31827505
  Ewald energy   TEWEN  =    178443.47286306
  -Hartree energ DENC   =   -231680.27585669
  -exchange      EXHF   =         0.00000000
  -V(xc)+E(xc)   XCENC  =      1803.82683384
  PAW double counting   =     50658.47637297   -54878.98925353
  entropy T*S    EENTRO =        -0.03389463
  eigenvalues    EBANDS =     -1096.38749286
  atomic energy  EATOM  =     55638.30560799
  Solvation  Ediel_sol  =         0.00000000
  ---------------------------------------------------
  free energy    TOTEN  =      -114.28654479 eV

  energy without entropy =     -114.25265016  energy(sigma->0) =     -114.27524658


--------------------------------------------------------------------------------------------------------




--------------------------------------- Iteration      1(   8)  ---------------------------------------


    POTLOK:  cpu time      0.0788: real time      0.0794
    SETDIJ:  cpu time      0.0126: real time      0.0127
     EDDAV:  cpu time     11.3434: real time     11.4305
       DOS:  cpu time      0.0024: real time      0.0024
    CHARGE:  cpu time      0.6463: real time      0.6494
    MIXING:  cpu time      0.0065: real time      0.0066
    --------------------------------------------
      LOOP:  cpu time     12.0901: real time     12.1811

 eigenvalue-minimisations  :  3944
 total energy-change (2. order) : 0.1352851E+01  (-0.2504825E+01)
 number of electron     440.0006597 magnetization      28.0561783
 augmentation part      280.7610395 magnetization      18.0378309

 Broyden mixing:
  rms(total) = 0.13763E+01    rms(broyden)= 0.13761E+01
  rms(prec ) = 0.14450E+01
  weight for this iteration     100.00

 eigenvalues of (default mixing * dielectric matrix)
  average eigenvalue GAMMA=   0.7331
  1.1359  0.6401  0.4233

 Free energy of the ion-electron system (eV)
  ---------------------------------------------------
  alpha Z        PSCENC =       997.31827505
  Ewald energy   TEWEN  =    178443.47286306
  -Hartree energ DENC   =   -231722.52692680
  -exchange      EXHF   =         0.00000000
  -V(xc)+E(xc)   XCENC  =      1805.31759150
  PAW double counting   =     51291.96988433   -55561.40307114
  entropy T*S    EENTRO =         0.01089239
  eigenvalues    EBANDS =     -1005.39881026
  atomic energy  EATOM  =     55638.30560799
  Solvation  Ediel_sol  =         0.00000000
  ---------------------------------------------------
  free energy    TOTEN  =      -112.93369389 eV

  energy without entropy =     -112.94458628  energy(sigma->0) =     -112.93732469


--------------------------------------------------------------------------------------------------------




--------------------------------------- Iteration      1(   9)  ---------------------------------------


    POTLOK:  cpu time      0.0811: real time      0.0817
    SETDIJ:  cpu time      0.0156: real time      0.0157
     EDDAV:  cpu time     13.0884: real time     13.1881
       DOS:  cpu time      0.0024: real time      0.0024
    CHARGE:  cpu time      0.6608: real time      0.6642
    MIXING:  cpu time      0.0063: real time      0.0063
    --------------------------------------------
      LOOP:  cpu time     13.8547: real time     13.9584

 eigenvalue-minimisations  :  4712
 total energy-change (2. order) : 0.2523390E+01  (-0.6762901E+00)
 number of electron     440.0006613 magnetization      18.1728581
 augmentation part      280.1913635 magnetization       8.2437895

 Broyden mixing:
  rms(total) = 0.10243E+01    rms(broyden)= 0.10243E+01
  rms(prec ) = 0.10319E+01
  weight for this iteration     100.00

 eigenvalues of (default mixing * dielectric matrix)
  average eigenvalue GAMMA=   1.2243
  2.6177  1.1730  0.7249  0.3816

 Free energy of the ion-electron system (eV)
  ---------------------------------------------------
  alpha Z        PSCENC =       997.31827505
  Ewald energy   TEWEN  =    178443.47286306
  -Hartree energ DENC   =   -231797.42408555
  -exchange      EXHF   =         0.00000000
  -V(xc)+E(xc)   XCENC  =      1804.98591237
  PAW double counting   =     51733.62329795   -56030.61126386
  entropy T*S    EENTRO =        -0.02605398
  eigenvalues    EBANDS =      -900.05485726
  atomic energy  EATOM  =     55638.30560799
  Solvation  Ediel_sol  =         0.00000000
  ---------------------------------------------------
  free energy    TOTEN  =      -110.41030424 eV

  energy without entropy =     -110.38425026  energy(sigma->0) =     -110.40161958


--------------------------------------------------------------------------------------------------------




--------------------------------------- Iteration      1(  10)  ---------------------------------------


    POTLOK:  cpu time      0.0785: real time      0.0814
    SETDIJ:  cpu time      0.0126: real time      0.0127
     EDDAV:  cpu time     12.4030: real time     12.4983
       DOS:  cpu time      0.0024: real time      0.0024
    CHARGE:  cpu time      0.6744: real time      0.6773
    MIXING:  cpu time      0.0120: real time      0.0120
    --------------------------------------------
      LOOP:  cpu time     13.1829: real time     13.2841

 eigenvalue-minimisations  :  4404
 total energy-change (2. order) : 0.2134200E+00  (-0.1121713E+01)
 number of electron     440.0006675 magnetization      12.1057740
 augmentation part      283.3182520 magnetization       3.6404618

 Broyden mixing:
  rms(total) = 0.82617E+00    rms(broyden)= 0.82608E+00
  rms(prec ) = 0.85939E+00
  weight for this iteration     100.00

 eigenvalues of (default mixing * dielectric matrix)
  average eigenvalue GAMMA=   1.3331
  3.8302  1.1594  0.6496  0.6496  0.3769

 Free energy of the ion-electron system (eV)
  ---------------------------------------------------
  alpha Z        PSCENC =       997.31827505
  Ewald energy   TEWEN  =    178443.47286306
  -Hartree energ DENC   =   -231730.46195489
  -exchange      EXHF   =         0.00000000
  -V(xc)+E(xc)   XCENC  =      1797.38341739
  PAW double counting   =     52533.08164117   -56843.97053297
  entropy T*S    EENTRO =         0.01632077
  eigenvalues    EBANDS =      -945.34252180
  atomic energy  EATOM  =     55638.30560799
  Solvation  Ediel_sol  =         0.00000000
  ---------------------------------------------------
  free energy    TOTEN  =      -110.19688422 eV

  energy without entropy =     -110.21320499  energy(sigma->0) =     -110.20232448


--------------------------------------------------------------------------------------------------------




--------------------------------------- Iteration      1(  11)  ---------------------------------------


    POTLOK:  cpu time      0.0829: real time      0.0858
    SETDIJ:  cpu time      0.0144: real time      0.0145
     EDDAV:  cpu time     11.1417: real time     11.2271
       DOS:  cpu time      0.0025: real time      0.0025
    CHARGE:  cpu time      0.6730: real time      0.6762
    MIXING:  cpu time      0.0070: real time      0.0070
    --------------------------------------------
      LOOP:  cpu time     11.9216: real time     12.0131

 eigenvalue-minimisations  :  3856
 total energy-change (2. order) :-0.3726020E+01  (-0.4127628E+00)
 number of electron     440.0006678 magnetization       8.6460773
 augmentation part      282.8286643 magnetization       1.4742517

 Broyden mixing:
  rms(total) = 0.66703E+00    rms(broyden)= 0.66691E+00
  rms(prec ) = 0.70217E+00
  weight for this iteration     100.00

 eigenvalues of (default mixing * dielectric matrix)
  average eigenvalue GAMMA=   1.4566
  5.0869  1.0714  0.8951  0.8951  0.3730  0.4179

 Free energy of the ion-electron system (eV)
  ---------------------------------------------------
  alpha Z        PSCENC =       997.31827505
  Ewald energy   TEWEN  =    178443.47286306
  -Hartree energ DENC   =   -231834.67812711
  -exchange      EXHF   =         0.00000000
  -V(xc)+E(xc)   XCENC  =      1794.91420599
  PAW double counting   =     52851.20110787   -57185.01017777
  entropy T*S    EENTRO =         0.00769700
  eigenvalues    EBANDS =      -819.45435599
  atomic energy  EATOM  =     55638.30560799
  Solvation  Ediel_sol  =         0.00000000
  ---------------------------------------------------
  free energy    TOTEN  =      -113.92290390 eV

  energy without entropy =     -113.93060090  energy(sigma->0) =     -113.92546956


--------------------------------------------------------------------------------------------------------




--------------------------------------- Iteration      1(  12)  ---------------------------------------


    POTLOK:  cpu time      0.0772: real time      0.0786
    SETDIJ:  cpu time      0.0125: real time      0.0125
     EDDAV:  cpu time     11.6854: real time     11.7743
       DOS:  cpu time      0.0026: real time      0.0026
    CHARGE:  cpu time      0.6809: real time      0.6843
    MIXING:  cpu time      0.0087: real time      0.0087
    --------------------------------------------
      LOOP:  cpu time     12.4672: real time     12.5609

 eigenvalue-minimisations  :  4072
 total energy-change (2. order) :-0.4462652E+01  (-0.3763074E+00)
 number of electron     440.0006633 magnetization       5.4527782
 augmentation part      281.2565790 magnetization      -0.4883644

 Broyden mixing:
  rms(total) = 0.28453E+00    rms(broyden)= 0.28441E+00
  rms(prec ) = 0.30932E+00
  weight for this iteration     100.00

 eigenvalues of (default mixing * dielectric matrix)
  average eigenvalue GAMMA=   1.7163
  7.1316  1.6282  1.0333  0.7208  0.7208  0.3732  0.4058

 Free energy of the ion-electron system (eV)
  ---------------------------------------------------
  alpha Z        PSCENC =       997.31827505
  Ewald energy   TEWEN  =    178443.47286306
  -Hartree energ DENC   =   -231926.29079846
  -exchange      EXHF   =         0.00000000
  -V(xc)+E(xc)   XCENC  =      1794.43374602
  PAW double counting   =     52810.72835658   -57157.45090879
  entropy T*S    EENTRO =         0.00904226
  eigenvalues    EBANDS =      -718.91174011
  atomic energy  EATOM  =     55638.30560799
  Solvation  Ediel_sol  =         0.00000000
  ---------------------------------------------------
  free energy    TOTEN  =      -118.38555639 eV

  energy without entropy =     -118.39459865  energy(sigma->0) =     -118.38857048


--------------------------------------------------------------------------------------------------------




--------------------------------------- Iteration      1(  13)  ---------------------------------------


    POTLOK:  cpu time      0.0832: real time      0.0851
    SETDIJ:  cpu time      0.0126: real time      0.0127
     EDDAV:  cpu time     13.8275: real time     13.9329
       DOS:  cpu time      0.0025: real time      0.0025
    CHARGE:  cpu time      0.6581: real time      0.6612
    MIXING:  cpu time      0.0109: real time      0.0110
    --------------------------------------------
      LOOP:  cpu time     14.5948: real time     14.7053

 eigenvalue-minimisations  :  5072
 total energy-change (2. order) :-0.8905118E+01  (-0.6060061E+00)
 number of electron     440.0006607 magnetization       4.4042210
 augmentation part      280.3118256 magnetization       0.2445856

 Broyden mixing:
  rms(total) = 0.30883E+00    rms(broyden)= 0.30874E+00
  rms(prec ) = 0.33665E+00
  weight for this iteration     100.00

 eigenvalues of (default mixing * dielectric matrix)
  average eigenvalue GAMMA=   1.7619
  8.1239  2.0488  1.0021  0.7952  0.7952  0.5654  0.3824  0.3824

 Free energy of the ion-electron system (eV)
  ---------------------------------------------------
  alpha Z        PSCENC =       997.31827505
  Ewald energy   TEWEN  =    178443.47286306
  -Hartree energ DENC   =   -231926.18802324
  -exchange      EXHF   =         0.00000000
  -V(xc)+E(xc)   XCENC  =      1790.21368305
  PAW double counting   =     52355.65338181   -56683.79931124
  entropy T*S    EENTRO =         0.01715389
  eigenvalues    EBANDS =      -742.28430482
  atomic energy  EATOM  =     55638.30560799
  Solvation  Ediel_sol  =         0.00000000
  ---------------------------------------------------
  free energy    TOTEN  =      -127.29067446 eV

  energy without entropy =     -127.30782835  energy(sigma->0) =     -127.29639242


--------------------------------------------------------------------------------------------------------




--------------------------------------- Iteration      1(  14)  ---------------------------------------


    POTLOK:  cpu time      0.0771: real time      0.0777
    SETDIJ:  cpu time      0.0124: real time      0.0125
     EDDAV:  cpu time     13.0201: real time     13.1194
       DOS:  cpu time      0.0025: real time      0.0025
    CHARGE:  cpu time      0.6704: real time      0.6733
    MIXING:  cpu time      0.0087: real time      0.0087
    --------------------------------------------
      LOOP:  cpu time     13.7911: real time     13.8942

 eigenvalue-minimisations  :  4704
 total energy-change (2. order) :-0.4242151E+01  (-0.2917922E+00)
 number of electron     440.0006611 magnetization       3.4237288
 augmentation part      280.3767165 magnetization       0.1892470

 Broyden mixing:
  rms(total) = 0.24874E+00    rms(broyden)= 0.24868E+00
  rms(prec ) = 0.27382E+00
  weight for this iteration     100.00

 eigenvalues of (default mixing * dielectric matrix)
  average eigenvalue GAMMA=   1.7564
  8.7177  2.6018  0.9408  0.8892  0.8892  0.6409  0.3945  0.3945  0.3389

 Free energy of the ion-electron system (eV)
  ---------------------------------------------------
  alpha Z        PSCENC =       997.31827505
  Ewald energy   TEWEN  =    178443.47286306
  -Hartree energ DENC   =   -231892.15045888
  -exchange      EXHF   =         0.00000000
  -V(xc)+E(xc)   XCENC  =      1787.25745440
  PAW double counting   =     52150.50053812   -56464.45463660
  entropy T*S    EENTRO =         0.00238479
  eigenvalues    EBANDS =      -791.78485338
  atomic energy  EATOM  =     55638.30560799
  Solvation  Ediel_sol  =         0.00000000
  ---------------------------------------------------
  free energy    TOTEN  =      -131.53282544 eV

  energy without entropy =     -131.53521023  energy(sigma->0) =     -131.53362037


--------------------------------------------------------------------------------------------------------




--------------------------------------- Iteration      1(  15)  ---------------------------------------


    POTLOK:  cpu time      0.0819: real time      0.0836
    SETDIJ:  cpu time      0.0126: real time      0.0127
     EDDAV:  cpu time     11.6494: real time     11.7379
       DOS:  cpu time      0.0047: real time      0.0047
    CHARGE:  cpu time      0.6632: real time      0.6662
    MIXING:  cpu time      0.0141: real time      0.0142
    --------------------------------------------
      LOOP:  cpu time     12.4259: real time     12.5193

 eigenvalue-minimisations  :  4096
 total energy-change (2. order) :-0.4019536E+01  (-0.4133590E+00)
 number of electron     440.0006627 magnetization       2.7113465
 augmentation part      281.0487533 magnetization       0.7717172

 Broyden mixing:
  rms(total) = 0.11998E+00    rms(broyden)= 0.11976E+00
  rms(prec ) = 0.12854E+00
  weight for this iteration     100.00

 eigenvalues of (default mixing * dielectric matrix)
  average eigenvalue GAMMA=   1.7424
  9.0088  3.1418  1.0214  0.8835  0.8835  0.7002  0.7002  0.3822  0.3822  0.3206

 Free energy of the ion-electron system (eV)
  ---------------------------------------------------
  alpha Z        PSCENC =       997.31827505
  Ewald energy   TEWEN  =    178443.47286306
  -Hartree energ DENC   =   -231822.86254549
  -exchange      EXHF   =         0.00000000
  -V(xc)+E(xc)   XCENC  =      1783.75376422
  PAW double counting   =     51909.64293140   -56203.06020710
  entropy T*S    EENTRO =        -0.00704843
  eigenvalues    EBANDS =      -882.11600176
  atomic energy  EATOM  =     55638.30560799
  Solvation  Ediel_sol  =         0.00000000
  ---------------------------------------------------
  free energy    TOTEN  =      -135.55236106 eV

  energy without entropy =     -135.54531263  energy(sigma->0) =     -135.55001158


--------------------------------------------------------------------------------------------------------




--------------------------------------- Iteration      1(  16)  ---------------------------------------


    POTLOK:  cpu time      0.0791: real time      0.0826
    SETDIJ:  cpu time      0.0125: real time      0.0126
     EDDAV:  cpu time     10.9984: real time     11.0962
       DOS:  cpu time      0.0058: real time      0.0058
    CHARGE:  cpu time      0.6686: real time      0.6726
    MIXING:  cpu time      0.0072: real time      0.0072
    --------------------------------------------
      LOOP:  cpu time     11.7717: real time     11.8772

 eigenvalue-minimisations  :  3832
 total energy-change (2. order) :-0.1431262E+01  (-0.1553752E+00)
 number of electron     440.0006634 magnetization       1.9702437
 augmentation part      281.3002267 magnetization       0.8422532

 Broyden mixing:
  rms(total) = 0.12226E+00    rms(broyden)= 0.12217E+00
  rms(prec ) = 0.13005E+00
  weight for this iteration     100.00

 eigenvalues of (default mixing * dielectric matrix)
  average eigenvalue GAMMA=   1.8343
 10.0459  3.5401  1.4235  0.9484  0.9484  0.7919  0.7919  0.6148  0.3840  0.3840
  0.3044

 Free energy of the ion-electron system (eV)
  ---------------------------------------------------
  alpha Z        PSCENC =       997.31827505
  Ewald energy   TEWEN  =    178443.47286306
  -Hartree energ DENC   =   -231782.68089999
  -exchange      EXHF   =         0.00000000
  -V(xc)+E(xc)   XCENC  =      1782.84843651
  PAW double counting   =     51833.16700532   -56121.19730389
  entropy T*S    EENTRO =        -0.02141490
  eigenvalues    EBANDS =      -928.19619228
  atomic energy  EATOM  =     55638.30560799
  Solvation  Ediel_sol  =         0.00000000
  ---------------------------------------------------
  free energy    TOTEN  =      -136.98362313 eV

  energy without entropy =     -136.96220823  energy(sigma->0) =     -136.97648483


--------------------------------------------------------------------------------------------------------




--------------------------------------- Iteration      1(  17)  ---------------------------------------


    POTLOK:  cpu time      0.0813: real time      0.0829
    SETDIJ:  cpu time      0.0125: real time      0.0126
     EDDAV:  cpu time     11.5894: real time     11.6774
       DOS:  cpu time      0.0045: real time      0.0045
    CHARGE:  cpu time      0.6696: real time      0.6724
    MIXING:  cpu time      0.0123: real time      0.0123
    --------------------------------------------
      LOOP:  cpu time     12.3697: real time     12.4621

 eigenvalue-minimisations  :  4064
 total energy-change (2. order) :-0.5939553E+00  (-0.3828867E-01)
 number of electron     440.0006628 magnetization       1.5646649
 augmentation part      281.1015895 magnetization       0.8881649

 Broyden mixing:
  rms(total) = 0.65755E-01    rms(broyden)= 0.65709E-01
  rms(prec ) = 0.74743E-01
  weight for this iteration     100.00

 eigenvalues of (default mixing * dielectric matrix)
  average eigenvalue GAMMA=   1.8512
 10.6080  3.4494  2.0924  1.0340  0.9431  0.9431  0.7645  0.7009  0.6080  0.3837
  0.3837  0.3042

 Free energy of the ion-electron system (eV)
  ---------------------------------------------------
  alpha Z        PSCENC =       997.31827505
  Ewald energy   TEWEN  =    178443.47286306
  -Hartree energ DENC   =   -231759.71319879
  -exchange      EXHF   =         0.00000000
  -V(xc)+E(xc)   XCENC  =      1782.66796538
  PAW double counting   =     51870.13505360   -56163.92417360
  entropy T*S    EENTRO =        -0.02931354
  eigenvalues    EBANDS =      -945.81065754
  atomic energy  EATOM  =     55638.30560799
  Solvation  Ediel_sol  =         0.00000000
  ---------------------------------------------------
  free energy    TOTEN  =      -137.57757839 eV

  energy without entropy =     -137.54826485  energy(sigma->0) =     -137.56780721


--------------------------------------------------------------------------------------------------------




--------------------------------------- Iteration      1(  18)  ---------------------------------------


    POTLOK:  cpu time      0.0789: real time      0.0795
    SETDIJ:  cpu time      0.0126: real time      0.0127
     EDDAV:  cpu time     13.1100: real time     13.2103
       DOS:  cpu time      0.0025: real time      0.0025
    CHARGE:  cpu time      0.6623: real time      0.6650
    MIXING:  cpu time      0.0067: real time      0.0067
    --------------------------------------------
      LOOP:  cpu time     13.8729: real time     13.9766

 eigenvalue-minimisations  :  4768
 total energy-change (2. order) :-0.4319063E+00  (-0.7448655E-02)
 number of electron     440.0006626 magnetization       1.0781698
 augmentation part      281.0152736 magnetization       0.5977129

 Broyden mixing:
  rms(total) = 0.49865E-01    rms(broyden)= 0.49850E-01
  rms(prec ) = 0.61674E-01
  weight for this iteration     100.00

 eigenvalues of (default mixing * dielectric matrix)
  average eigenvalue GAMMA=   1.8837
 10.9592  3.9240  2.4548  1.2920  0.9014  0.9014  0.8551  0.7534  0.7534  0.6205
  0.3836  0.3836  0.3055

 Free energy of the ion-electron system (eV)
  ---------------------------------------------------
  alpha Z        PSCENC =       997.31827505
  Ewald energy   TEWEN  =    178443.47286306
  -Hartree energ DENC   =   -231734.89710866
  -exchange      EXHF   =         0.00000000
  -V(xc)+E(xc)   XCENC  =      1782.16950550
  PAW double counting   =     51945.03136606   -56245.10548791
  entropy T*S    EENTRO =        -0.03336153
  eigenvalues    EBANDS =      -964.27114425
  atomic energy  EATOM  =     55638.30560799
  Solvation  Ediel_sol  =         0.00000000
  ---------------------------------------------------
  free energy    TOTEN  =      -138.00948470 eV

  energy without entropy =     -137.97612317  energy(sigma->0) =     -137.99836419


--------------------------------------------------------------------------------------------------------




--------------------------------------- Iteration      1(  19)  ---------------------------------------


    POTLOK:  cpu time      0.0806: real time      0.0821
    SETDIJ:  cpu time      0.0125: real time      0.0125
     EDDAV:  cpu time     13.0978: real time     13.1974
       DOS:  cpu time      0.0025: real time      0.0025
    CHARGE:  cpu time      0.6736: real time      0.6764
    MIXING:  cpu time      0.0125: real time      0.0126
    --------------------------------------------
      LOOP:  cpu time     13.8794: real time     13.9834

 eigenvalue-minimisations  :  4752
 total energy-change (2. order) :-0.4420231E+00  (-0.7325846E-02)
 number of electron     440.0006627 magnetization       0.8435973
 augmentation part      281.0642250 magnetization       0.5968731

 Broyden mixing:
  rms(total) = 0.33625E-01    rms(broyden)= 0.33608E-01
  rms(prec ) = 0.41682E-01
  weight for this iteration     100.00

 eigenvalues of (default mixing * dielectric matrix)
  average eigenvalue GAMMA=   1.8301
 10.9631  3.3339  3.3339  1.4353  0.8463  0.8463  0.8904  0.8904  0.7539  0.6278
  0.6278  0.3836  0.3836  0.3060

 Free energy of the ion-electron system (eV)
  ---------------------------------------------------
  alpha Z        PSCENC =       997.31827505
  Ewald energy   TEWEN  =    178443.47286306
  -Hartree energ DENC   =   -231688.47740096
  -exchange      EXHF   =         0.00000000
  -V(xc)+E(xc)   XCENC  =      1781.43360984
  PAW double counting   =     51994.57012696   -56298.57280974
  entropy T*S    EENTRO =        -0.04226643
  eigenvalues    EBANDS =     -1006.45951361
  atomic energy  EATOM  =     55638.30560799
  Solvation  Ediel_sol  =         0.00000000
  ---------------------------------------------------
  free energy    TOTEN  =      -138.45150783 eV

  energy without entropy =     -138.40924140  energy(sigma->0) =     -138.43741902


--------------------------------------------------------------------------------------------------------




--------------------------------------- Iteration      1(  20)  ---------------------------------------


    POTLOK:  cpu time      0.0795: real time      0.0809
    SETDIJ:  cpu time      0.0126: real time      0.0127
     EDDAV:  cpu time     13.0341: real time     13.1333
       DOS:  cpu time      0.0025: real time      0.0025
    CHARGE:  cpu time      0.6738: real time      0.6765
    MIXING:  cpu time      0.0105: real time      0.0106
    --------------------------------------------
      LOOP:  cpu time     13.8130: real time     13.9165

 eigenvalue-minimisations  :  4736
 total energy-change (2. order) :-0.3166058E+00  (-0.2177959E-02)
 number of electron     440.0006627 magnetization       0.5776422
 augmentation part      281.0802743 magnetization       0.3572876

 Broyden mixing:
  rms(total) = 0.26656E-01    rms(broyden)= 0.26654E-01
  rms(prec ) = 0.29409E-01
  weight for this iteration     100.00

 eigenvalues of (default mixing * dielectric matrix)
  average eigenvalue GAMMA=   1.8325
 11.0666  3.6645  3.6645  1.6786  1.1134  0.9114  0.9114  0.8130  0.8130  0.6545
  0.6158  0.5081  0.3836  0.3836  0.3062

 Free energy of the ion-electron system (eV)
  ---------------------------------------------------
  alpha Z        PSCENC =       997.31827505
  Ewald energy   TEWEN  =    178443.47286306
  -Hartree energ DENC   =   -231674.47699050
  -exchange      EXHF   =         0.00000000
  -V(xc)+E(xc)   XCENC  =      1781.01324395
  PAW double counting   =     52009.46078778   -56314.04922933
  entropy T*S    EENTRO =        -0.04185035
  eigenvalues    EBANDS =     -1019.77082132
  atomic energy  EATOM  =     55638.30560799
  Solvation  Ediel_sol  =         0.00000000
  ---------------------------------------------------
  free energy    TOTEN  =      -138.76811368 eV

  energy without entropy =     -138.72626333  energy(sigma->0) =     -138.75416356


--------------------------------------------------------------------------------------------------------




--------------------------------------- Iteration      1(  21)  ---------------------------------------


    POTLOK:  cpu time      0.0773: real time      0.0809
    SETDIJ:  cpu time      0.0125: real time      0.0125
     EDDAV:  cpu time     11.7556: real time     11.8447
       DOS:  cpu time      0.0026: real time      0.0026
    CHARGE:  cpu time      0.6794: real time      0.6828
    MIXING:  cpu time      0.0150: real time      0.0151
    --------------------------------------------
      LOOP:  cpu time     12.5424: real time     12.6387

 eigenvalue-minimisations  :  4148
 total energy-change (2. order) :-0.2976183E+00  (-0.1458172E-02)
 number of electron     440.0006626 magnetization       0.2813716
 augmentation part      281.0529516 magnetization       0.1145198

 Broyden mixing:
  rms(total) = 0.24090E-01    rms(broyden)= 0.24086E-01
  rms(prec ) = 0.26750E-01
  weight for this iteration     100.00

 eigenvalues of (default mixing * dielectric matrix)
  average eigenvalue GAMMA=   1.8568
 11.2037  4.1386  4.1386  1.9918  1.1858  0.9649  0.9649  0.8584  0.8584  0.6411
  0.6370  0.6370  0.3062  0.3836  0.3836  0.4156

 Free energy of the ion-electron system (eV)
  ---------------------------------------------------
  alpha Z        PSCENC =       997.31827505
  Ewald energy   TEWEN  =    178443.47286306
  -Hartree energ DENC   =   -231661.16293625
  -exchange      EXHF   =         0.00000000
  -V(xc)+E(xc)   XCENC  =      1780.77955359
  PAW double counting   =     52001.31431200   -56305.37924842
  entropy T*S    EENTRO =        -0.04292677
  eigenvalues    EBANDS =     -1033.67123218
  atomic energy  EATOM  =     55638.30560799
  Solvation  Ediel_sol  =         0.00000000
  ---------------------------------------------------
  free energy    TOTEN  =      -139.06573193 eV

  energy without entropy =     -139.02280515  energy(sigma->0) =     -139.05142300


--------------------------------------------------------------------------------------------------------




--------------------------------------- Iteration      1(  22)  ---------------------------------------


    POTLOK:  cpu time      0.0801: real time      0.0816
    SETDIJ:  cpu time      0.0161: real time      0.0162
     EDDAV:  cpu time     12.2109: real time     12.3032
       DOS:  cpu time      0.0043: real time      0.0043
    CHARGE:  cpu time      0.6658: real time      0.6691
    MIXING:  cpu time      0.0073: real time      0.0073
    --------------------------------------------
      LOOP:  cpu time     12.9844: real time     13.0817

 eigenvalue-minimisations  :  4364
 total energy-change (2. order) :-0.2617097E+00  (-0.1674790E-02)
 number of electron     440.0006626 magnetization       0.1462419
 augmentation part      281.0443356 magnetization       0.0765762

 Broyden mixing:
  rms(total) = 0.19518E-01    rms(broyden)= 0.19512E-01
  rms(prec ) = 0.20774E-01
  weight for this iteration     100.00

 eigenvalues of (default mixing * dielectric matrix)
  average eigenvalue GAMMA=   1.9458
 11.3582  6.0057  4.0994  2.4464  1.4159  1.0928  0.9014  0.9014  0.7952  0.7952
  0.6592  0.5805  0.5805  0.3062  0.3836  0.3836  0.3735

 Free energy of the ion-electron system (eV)
  ---------------------------------------------------
  alpha Z        PSCENC =       997.31827505
  Ewald energy   TEWEN  =    178443.47286306
  -Hartree energ DENC   =   -231642.33427629
  -exchange      EXHF   =         0.00000000
  -V(xc)+E(xc)   XCENC  =      1780.55971320
  PAW double counting   =     51988.39722885   -56291.56898716
  entropy T*S    EENTRO =        -0.04567205
  eigenvalues    EBANDS =     -1053.43219424
  atomic energy  EATOM  =     55638.30560799
  Solvation  Ediel_sol  =         0.00000000
  ---------------------------------------------------
  free energy    TOTEN  =      -139.32744159 eV

  energy without entropy =     -139.28176954  energy(sigma->0) =     -139.31221757


--------------------------------------------------------------------------------------------------------




--------------------------------------- Iteration      1(  23)  ---------------------------------------


    POTLOK:  cpu time      0.0770: real time      0.0776
    SETDIJ:  cpu time      0.0124: real time      0.0125
     EDDAV:  cpu time     11.5519: real time     11.6447
       DOS:  cpu time      0.0025: real time      0.0025
    CHARGE:  cpu time      0.6629: real time      0.6657
    MIXING:  cpu time      0.0117: real time      0.0118
    --------------------------------------------
      LOOP:  cpu time     12.3184: real time     12.4148

 eigenvalue-minimisations  :  4064
 total energy-change (2. order) :-0.1240562E+00  (-0.5645176E-03)
 number of electron     440.0006627 magnetization       0.1090940
 augmentation part      281.0811089 magnetization       0.0828734

 Broyden mixing:
[...]
  0.000   1.925  -0.000   0.000   0.000   0.000  -0.024  -0.000   0.000   0.000   0.000   0.000   0.032   0.000   0.000  -0.015
  0.000  -0.000   1.939   0.000  -0.000   0.000   0.000  -0.033  -0.000  -0.000   0.007   0.012   0.000   0.041  -0.000   0.000
 -0.000   0.000   0.000   1.925   0.000  -0.000  -0.000  -0.000  -0.024  -0.000   0.000   0.000  -0.000   0.000   0.032   0.000
  0.000   0.000  -0.000   0.000   1.930   0.000  -0.000  -0.000   0.000  -0.033   0.000  -0.000  -0.000   0.000   0.000  -0.000
 -0.004   0.000  -0.000  -0.000   0.000   0.012   0.000   0.000  -0.000   0.000   0.000  -0.000   0.000   0.000   0.000   0.000
  0.000  -0.024   0.000  -0.000  -0.000   0.000   0.009   0.000  -0.000   0.000   0.000   0.000   0.021   0.000   0.000  -0.001
  0.000  -0.000  -0.033  -0.000   0.000   0.000   0.000   0.010   0.000  -0.000  -0.032   0.001   0.000   0.018   0.000   0.000
 -0.000   0.000  -0.000  -0.024   0.000  -0.000  -0.000   0.000   0.009   0.000   0.000   0.000  -0.000   0.000   0.021  -0.000
  0.000   0.000   0.000  -0.000  -0.033   0.000   0.000   0.000   0.000   0.011  -0.000  -0.000   0.000   0.000  -0.000   0.000
  0.000   0.000   0.007   0.000   0.000  -0.000   0.000  -0.032   0.000  -0.000   1.636  -0.124  -0.000   0.159  -0.000   0.000
  0.000   0.000   0.012   0.000   0.000   0.000   0.000   0.001   0.000   0.000  -0.124   0.015  -0.000  -0.024  -0.000   0.000
  0.000   0.032   0.000  -0.000  -0.000   0.000   0.021   0.000   0.000   0.000  -0.000  -0.000   0.182   0.000   0.000  -0.011
  0.000   0.000   0.041   0.000   0.000  -0.000   0.000   0.018   0.000  -0.000   0.159  -0.024   0.000   0.107   0.000   0.000
  0.000  -0.000  -0.000   0.032   0.000   0.000  -0.000   0.000   0.021  -0.000  -0.000  -0.000  -0.000   0.000   0.182  -0.000
  0.000  -0.015   0.000   0.000  -0.000   0.000  -0.001   0.000  -0.000   0.000   0.000   0.000  -0.011   0.000   0.000   0.001
 -0.000  -0.000  -0.018   0.000  -0.000  -0.000  -0.000  -0.001   0.000   0.000  -0.022   0.003   0.000  -0.008   0.000  -0.000
  0.000   0.000  -0.000  -0.015   0.000   0.000   0.000   0.000  -0.001   0.000   0.000   0.000   0.000   0.000  -0.011   0.000
 total augmentation occupancy for first ion, spin component:           2
  0.000  -0.000  -0.000   0.000   0.000   0.000   0.000  -0.000  -0.000   0.000  -0.000   0.000  -0.000  -0.000   0.000  -0.000
 -0.000   0.000  -0.000   0.000  -0.000   0.000   0.000  -0.000   0.000   0.000   0.000   0.000  -0.000   0.000  -0.000   0.000
 -0.000  -0.000  -0.000   0.000   0.000   0.000  -0.000  -0.000   0.000  -0.000   0.000   0.000   0.000   0.000   0.000   0.000
  0.000   0.000   0.000   0.000   0.000   0.000   0.000  -0.000   0.000  -0.000   0.000   0.000  -0.000   0.000  -0.000   0.000
  0.000  -0.000   0.000   0.000   0.000  -0.000   0.000  -0.000   0.000   0.000   0.000  -0.000   0.000   0.000   0.000   0.000
  0.000   0.000   0.000   0.000  -0.000  -0.000   0.000   0.000   0.000  -0.000  -0.000   0.000   0.000  -0.000   0.000   0.000
  0.000   0.000  -0.000   0.000   0.000   0.000   0.000   0.000   0.000  -0.000   0.000   0.000  -0.000  -0.000  -0.000   0.000
 -0.000  -0.000  -0.000  -0.000  -0.000   0.000   0.000   0.000   0.000  -0.000   0.000  -0.000  -0.000  -0.000   0.000  -0.000
 -0.000   0.000   0.000   0.000   0.000   0.000   0.000   0.000   0.000   0.000   0.000   0.000   0.000  -0.000  -0.000   0.000
  0.000   0.000  -0.000  -0.000   0.000  -0.000  -0.000  -0.000   0.000   0.000  -0.000   0.000  -0.000  -0.000   0.000  -0.000
 -0.000   0.000   0.000   0.000   0.000  -0.000   0.000   0.000   0.000  -0.000   0.000  -0.000   0.000  -0.000  -0.000   0.000
  0.000   0.000   0.000   0.000  -0.000   0.000   0.000  -0.000   0.000   0.000  -0.000  -0.000   0.000   0.000   0.000  -0.000
 -0.000  -0.000   0.000  -0.000   0.000   0.000  -0.000  -0.000   0.000  -0.000   0.000   0.000   0.000  -0.000   0.000  -0.000
 -0.000   0.000   0.000   0.000   0.000  -0.000  -0.000  -0.000  -0.000  -0.000  -0.000   0.000  -0.000  -0.000   0.000   0.000
  0.000  -0.000   0.000  -0.000   0.000   0.000  -0.000   0.000  -0.000   0.000  -0.000   0.000   0.000   0.000   0.000  -0.000
 -0.000   0.000   0.000   0.000   0.000   0.000   0.000  -0.000   0.000  -0.000   0.000  -0.000  -0.000   0.000  -0.000  -0.000
  0.000   0.000  -0.000   0.000   0.000  -0.000  -0.000   0.000  -0.000   0.000   0.000  -0.000   0.000   0.000  -0.000   0.000
  0.000   0.000  -0.000   0.000   0.000  -0.000   0.000   0.000   0.000   0.000   0.000   0.000   0.000  -0.000  -0.000   0.000


------------------------ aborting loop because EDIFF is reached ----------------------------------------



 DIPCOR: dipole corrections for dipol
 direction  3 min pos   151,
 dipolmoment           0.000000      0.000000     -0.011368 electrons x Angstroem
 Tr[quadrupol]     -4343.297397

 energy correction for charged system         0.000000 eV
 dipol+quadrupol energy correction            0.000010 eV
 added-field ion interaction          0.000000 eV  (added to PSCEN)

 
  *************** adding dipol energy to TOTEN NOW **************** 
    CHARGE:  cpu time      0.6835: real time      0.6862
    FORLOC:  cpu time      0.0202: real time      0.0203
    FORNL :  cpu time     10.9231: real time     10.9710
    STRESS:  cpu time      8.6110: real time      8.6650
    FORCOR:  cpu time      0.0889: real time      0.0894
    FORHAR:  cpu time      0.0195: real time      0.0196
    MIXING:  cpu time      0.0029: real time      0.0029
    OFIELD:  cpu time      0.0000: real time      0.0000

 ---------------------------------------------------------------------------------------------

         DFTD3 V3.0 Rev 1        
 Edisp (eV)  -14.48080

 E6    (eV) :    -5.7213
 E8    (eV) :    -8.7595
 % E8        : 60.49
    FORVDW:  cpu time      0.1687: real time      0.1694

  FORCE on cell =-STRESS in cart. coord.  units (eV):
  Direction    XX          YY          ZZ          XY          YZ          ZX
  --------------------------------------------------------------------------------------
  Alpha Z   997.31828   997.31828   997.31828
  Ewald  212895.03335212895.03335************    -0.00000     0.00000     0.00000
  Hartree227756.11490227756.11490************    -0.00000    -0.00000    -0.00000
  E(xc)   -2569.36155 -2569.36155 -2573.31827     0.00000     0.00000     0.00000
  Local  ************************455268.66381    -0.00000    -0.00000    -0.00000
  n-local  -882.25228  -869.76559  -877.61809     6.85749    -0.00000     0.00001
  augment  3779.74147  3779.74147  3794.36988     0.00000    -0.00000     0.00000
  Kinetic  3577.53117  3588.03827  3605.88821     4.75996     0.00000    -0.00000
  Fock        0.00000     0.00000     0.00000     0.00000     0.00000     0.00000
  vdW       -17.42201   -17.42201   -11.61122    -0.00000     0.00000     0.00000
  -------------------------------------------------------------------------------------
  Total     -27.99081   -27.99081    -7.67190     0.00000    -0.00000     0.00000
  in kB     -38.22325   -38.22325   -10.47647     0.00000    -0.00000     0.00000
  external pressure =      -28.97 kB  Pullay stress =        0.00 kB


 VOLUME and BASIS-vectors are now :
 -----------------------------------------------------------------------------
  energy-cutoff  :      400.00
  volume of cell :     1173.27
      direct lattice vectors                 reciprocal lattice vectors
     7.260000229  0.000000000  0.000000000     0.137741042  0.000000000  0.000000000
     0.000000000  7.260000229  0.000000000     0.000000000  0.137741042  0.000000000
     0.000000000  0.000000000 22.260000000     0.000000000  0.000000000  0.044923630

  length of vectors
     7.260000229  7.260000229 22.260000000     0.137741042  0.137741042  0.044923630


 FORCES acting on ions
    electron-ion (+dipol)            ewald-force                    non-local-force                 convergence-correction
 -----------------------------------------------------------------------------------------------
   -.152E-12 -.935E-13 0.391E+04   -.355E-06 -.355E-06 -.391E+04   0.000E+00 0.132E-22 -.346E+01   0.714E-10 0.713E-10 0.446E-01
   -.150E-12 0.174E-05 0.391E+04   -.355E-06 0.148E-06 -.391E+04   0.000E+00 0.662E-22 -.346E+01   0.716E-10 -.121E-09 0.446E-01
   0.174E-05 0.513E-12 0.391E+04   0.148E-06 -.355E-06 -.391E+04   -.165E-22 0.132E-22 -.346E+01   -.121E-09 0.712E-10 0.446E-01
   0.174E-05 0.174E-05 0.391E+04   0.148E-06 0.148E-06 -.391E+04   0.000E+00 -.265E-22 -.346E+01   -.121E-09 -.121E-09 0.446E-01
   0.871E-06 0.871E-06 0.391E+04   -.148E-06 -.148E-06 -.391E+04   -.132E-22 0.106E-21 -.346E+01   0.344E-10 0.350E-10 0.446E-01
   0.871E-06 0.261E-05 0.391E+04   -.148E-06 0.355E-06 -.391E+04   0.529E-22 -.993E-23 -.346E+01   0.345E-10 -.158E-09 0.446E-01
   0.261E-05 0.871E-06 0.391E+04   0.355E-06 -.148E-06 -.391E+04   0.000E+00 0.993E-23 -.346E+01   -.157E-09 0.346E-10 0.446E-01
   0.261E-05 0.261E-05 0.391E+04   0.355E-06 0.355E-06 -.391E+04   -.265E-22 -.265E-22 -.346E+01   -.157E-09 -.157E-09 0.446E-01
   -.131E-12 0.849E-06 0.200E+04   -.475E-06 -.193E-06 -.200E+04   0.265E-22 -.199E-22 -.820E+00   0.259E-09 0.126E-09 0.173E+00
   -.136E-12 0.255E-05 0.200E+04   -.475E-06 0.475E-06 -.200E+04   0.132E-22 0.000E+00 -.820E+00   0.259E-09 -.340E-09 0.173E+00
   0.170E-05 0.849E-06 0.200E+04   0.193E-06 -.193E-06 -.200E+04   0.265E-22 0.199E-22 -.820E+00   -.208E-09 0.126E-09 0.173E+00
   0.170E-05 0.255E-05 0.200E+04   0.193E-06 0.475E-06 -.200E+04   0.132E-22 -.199E-22 -.820E+00   -.208E-09 -.340E-09 0.173E+00
   0.849E-06 -.481E-12 0.200E+04   -.193E-06 -.475E-06 -.200E+04   0.199E-22 -.265E-22 -.820E+00   0.125E-09 0.258E-09 0.173E+00
   0.849E-06 0.170E-05 0.200E+04   -.193E-06 0.193E-06 -.200E+04   -.132E-22 0.662E-23 -.820E+00   0.126E-09 -.207E-09 0.173E+00
   0.255E-05 -.124E-11 0.200E+04   0.475E-06 -.475E-06 -.200E+04   0.662E-23 0.993E-23 -.820E+00   -.339E-09 0.258E-09 0.173E+00
   0.255E-05 0.170E-05 0.200E+04   0.475E-06 0.193E-06 -.200E+04   -.662E-23 -.529E-22 -.820E+00   -.339E-09 -.207E-09 0.173E+00
   -.977E-13 -.656E-13 0.103E+02   -.492E-06 -.492E-06 -.106E+02   0.000E+00 0.132E-22 0.128E-01   0.376E-09 0.374E-09 0.267E+00
   -.982E-13 0.169E-05 0.103E+02   -.492E-06 0.204E-06 -.106E+02   0.529E-22 0.265E-22 0.128E-01   0.375E-09 -.184E-10 0.267E+00
   0.169E-05 -.709E-13 0.103E+02   0.204E-06 -.492E-06 -.106E+02   -.265E-22 0.000E+00 0.128E-01   -.200E-10 0.373E-09 0.267E+00
   0.169E-05 0.169E-05 0.103E+02   0.204E-06 0.204E-06 -.106E+02   -.119E-21 0.265E-22 0.128E-01   -.197E-10 -.180E-10 0.267E+00
   0.847E-06 0.847E-06 0.103E+02   -.204E-06 -.204E-06 -.106E+02   -.106E-21 0.265E-22 0.128E-01   0.235E-09 0.236E-09 0.267E+00
   0.847E-06 0.254E-05 0.103E+02   -.204E-06 0.492E-06 -.106E+02   0.132E-22 -.662E-23 0.128E-01   0.236E-09 -.157E-09 0.267E+00
   0.254E-05 0.847E-06 0.103E+02   0.492E-06 -.204E-06 -.106E+02   0.794E-22 0.265E-22 0.128E-01   -.156E-09 0.237E-09 0.267E+00
   0.254E-05 0.254E-05 0.103E+02   0.492E-06 0.492E-06 -.106E+02   0.000E+00 -.132E-22 0.128E-01   -.157E-09 -.157E-09 0.267E+00
   -.118E-12 0.846E-06 -.199E+04   -.485E-06 -.194E-06 0.199E+04   0.000E+00 -.596E-22 0.321E+00   -.689E-10 0.392E-10 0.285E+00
   -.120E-12 0.254E-05 -.199E+04   -.485E-06 0.485E-06 0.199E+04   0.000E+00 0.728E-22 0.321E+00   -.691E-10 0.299E-09 0.285E+00
   0.169E-05 0.846E-06 -.199E+04   0.194E-06 -.194E-06 0.199E+04   -.529E-22 0.629E-22 0.321E+00   0.189E-09 0.388E-10 0.285E+00
   0.169E-05 0.254E-05 -.199E+04   0.194E-06 0.485E-06 0.199E+04   -.529E-22 -.397E-22 0.321E+00   0.189E-09 0.299E-09 0.285E+00
   0.846E-06 0.338E-12 -.199E+04   -.194E-06 -.485E-06 0.199E+04   -.106E-21 0.157E-22 0.321E+00   0.387E-10 -.702E-10 0.285E+00
   0.846E-06 0.169E-05 -.199E+04   -.194E-06 0.194E-06 0.199E+04   0.000E+00 0.132E-22 0.321E+00   0.384E-10 0.190E-09 0.285E+00
   0.254E-05 -.145E-11 -.199E+04   0.485E-06 -.485E-06 0.199E+04   0.000E+00 0.662E-22 0.321E+00   0.299E-09 -.706E-10 0.285E+00
   0.254E-05 0.169E-05 -.199E+04   0.485E-06 0.194E-06 0.199E+04   -.529E-22 0.132E-22 0.321E+00   0.299E-09 0.191E-09 0.285E+00
   -.143E-12 -.121E-11 -.393E+04   -.368E-06 -.368E-06 0.393E+04   -.265E-22 0.000E+00 0.357E+01   -.414E-09 -.414E-09 0.105E+00
   -.146E-12 0.173E-05 -.393E+04   -.368E-06 0.151E-06 0.393E+04   0.794E-22 -.265E-22 0.357E+01   -.414E-09 0.161E-09 0.105E+00
   0.173E-05 -.102E-11 -.393E+04   0.151E-06 -.368E-06 0.393E+04   -.529E-22 0.265E-22 0.357E+01   0.161E-09 -.414E-09 0.105E+00
   0.173E-05 0.173E-05 -.393E+04   0.151E-06 0.151E-06 0.393E+04   0.265E-22 -.199E-22 0.357E+01   0.161E-09 0.161E-09 0.105E+00
   0.867E-06 0.867E-06 -.393E+04   -.150E-06 -.150E-06 0.393E+04   0.265E-22 -.662E-23 0.357E+01   -.200E-09 -.200E-09 0.105E+00
   0.867E-06 0.260E-05 -.393E+04   -.150E-06 0.368E-06 0.393E+04   0.265E-22 -.132E-22 0.357E+01   -.200E-09 0.375E-09 0.105E+00
   0.260E-05 0.867E-06 -.393E+04   0.368E-06 -.150E-06 0.393E+04   0.794E-22 0.529E-22 0.357E+01   0.375E-09 -.200E-09 0.105E+00
   0.260E-05 0.260E-05 -.393E+04   0.368E-06 0.368E-06 0.393E+04   0.662E-22 -.529E-22 0.357E+01   0.375E-09 0.375E-09 0.105E+00
 -----------------------------------------------------------------------------------------------
   0.514E-04 0.514E-04 -.414E+01   0.267E-13 0.350E-13 0.500E-11   -.629E-22 0.267E-21 -.295E+01   0.960E-09 0.962E-09 0.700E+01
 
 
 POSITION                                       TOTAL-FORCE (eV/Angst)
 -----------------------------------------------------------------------------------
      0.00000      0.00000      0.00000         0.000000     -0.000000      0.276517
      0.00000      3.63000      0.00000        -0.000000     -0.000000      0.276517
      3.63000      0.00000      0.00000        -0.000000     -0.000000      0.276517
      3.63000      3.63000      0.00000        -0.000000     -0.000000      0.276517
      1.81500      1.81500      0.00000         0.000000     -0.000000      0.276517
      1.81500      5.44500      0.00000        -0.000000      0.000000      0.276517
      5.44500      1.81500      0.00000        -0.000000     -0.000000      0.276517
      5.44500      5.44500      0.00000         0.000000      0.000000      0.276517
      0.00000      1.81500      1.81500         0.000000     -0.000000     -0.288194
      0.00000      5.44500      1.81500        -0.000000      0.000000     -0.288194
      3.63000      1.81500      1.81500        -0.000000      0.000000     -0.288194
      3.63000      5.44500      1.81500         0.000000     -0.000000     -0.288194
      1.81500      0.00000      1.81500         0.000000      0.000000     -0.288194
      1.81500      3.63000      1.81500        -0.000000      0.000000     -0.288194
      5.44500      0.00000      1.81500        -0.000000     -0.000000     -0.288194
      5.44500      3.63000      1.81500        -0.000000     -0.000000     -0.288194
     -0.00000      0.00000      3.59349         0.000000     -0.000000     -0.008208
     -0.00000      3.63000      3.59349         0.000000      0.000000     -0.008208
      3.63000      0.00000      3.59349        -0.000000     -0.000000     -0.008208
      3.63000      3.63000      3.59349         0.000000     -0.000000     -0.008208
      1.81500      1.81500      3.59349         0.000000      0.000000     -0.008208
      1.81500      5.44500      3.59349         0.000000      0.000000     -0.008208
      5.44500      1.81500      3.59349        -0.000000      0.000000     -0.008208
      5.44500      5.44500      3.59349        -0.000000     -0.000000     -0.008208
     -0.00000      1.81500      5.37676         0.000000     -0.000000      0.008239
      0.00000      5.44500      5.37676         0.000000      0.000000      0.008239
      3.63000      1.81500      5.37676        -0.000000      0.000000      0.008239
      3.63000      5.44500      5.37676         0.000000     -0.000000      0.008239
      1.81500     -0.00000      5.37676         0.000000      0.000000      0.008239
      1.81500      3.63000      5.37676         0.000000      0.000000      0.008239
      5.44500      0.00000      5.37676         0.000000      0.000000      0.008239
      5.44500      3.63000      5.37676        -0.000000     -0.000000      0.008239
     -0.00000      0.00000      7.11783         0.000000     -0.000000      0.011646
      0.00000      3.63000      7.11783        -0.000000      0.000000      0.011646
      3.63000      0.00000      7.11783         0.000000     -0.000000      0.011646
      3.63000      3.63000      7.11783         0.000000      0.000000      0.011646
      1.81500      1.81500      7.11783        -0.000000     -0.000000      0.011646
      1.81500      5.44500      7.11783        -0.000000     -0.000000      0.011646
      5.44500      1.81500      7.11783         0.000000      0.000000      0.011646
      5.44500      5.44500      7.11783         0.000000     -0.000000      0.011646
 -----------------------------------------------------------------------------------
    total drift:                                0.000051      0.000051     -0.087144


--------------------------------------------------------------------------------------------------------



  FREE ENERGIE OF THE ION-ELECTRON SYSTEM (eV)
  ---------------------------------------------------
  free  energy   TOTEN  =      -153.88767947 eV

  energy  without entropy=     -153.80182968  energy(sigma->0) =     -153.85906287
 
 d Force = 0.6187594E-02[-0.140E-02, 0.138E-01]  d Energy = 0.7860376E-02-0.167E-02
 d Force =-0.5461613E+03[-0.547E+03,-0.546E+03]  d Ewald  =-0.5461611E+03-0.198E-03


--------------------------------------------------------------------------------------------------------


    POTLOK:  cpu time      0.0921: real time      0.0929


--------------------------------------------------------------------------------------------------------


 stress matrix after NEB project (eV)
    -27.99081      0.00000      0.00000
      0.00000    -27.99081     -0.00000
      0.00000     -0.00000     -7.67190
  FORCES: max atom, RMS     0.011646    0.007360
  FORCE total and by dimension    0.046552    0.011646
  Stress total and by dimension   40.321568   27.990809
 Conjugate gradient step on ions:
 trial-energy change:   -0.007860  1 .order   -0.006188   -0.013772    0.001397
  (g-gl).g = 0.566E-02      g.g   = 0.583E-02  gl.gl    = 0.559E-02
 g(Force)  = 0.583E-02   g(Stress)= 0.000E+00 ortho     = 0.140E-03
 gamma     =   1.01150
 trial     =   2.30421
 opt step  =   2.17359  (harmonic =   2.09206) maximal distance =0.00000000
 next E    =  -153.887719   (d E  =  -0.00790)


--------------------------------------------------------------------------------------------------------


  
 reached required accuracy - stopping structural energy minimisation
     LOOP+:  cpu time    106.2119: real time    107.0881
    4ORBIT:  cpu time      0.0000: real time      0.0000

 total amount of memory used by VASP MPI-rank0    75269. kBytes
=======================================================================

   base      :      30000. kBytes
   nonl-proj :       4575. kBytes
   fftplans  :       3108. kBytes
   grid      :       7266. kBytes
   one-center:        248. kBytes
   wavefun   :      30072. kBytes
 
  
  
 General timing and accounting informations for this job:
 ========================================================
  
                  Total CPU time used (sec):     1443.317
                            User time (sec):     1406.217
                          System time (sec):       37.100
                         Elapsed time (sec):     1455.181
  
                   Maximum memory used (kb):      326008.
                   Average memory used (kb):          N/A
  
                          Minor page faults:      1014724
                          Major page faults:         6834
                 Voluntary context switches:        15680
