<?xml version="1.0" encoding="ISO-8859-1"?>
<modeling>
 <generator>
  <i name="program" type="string">vasp </i>
  <i name="version" type="string">6.3.2  </i>
  <i name="subversion" type="string">27Jun22 (build Aug 17 2022 15:43:34) complex                          parallel </i>
  <i name="platform" type="string">tv2STDVTST </i>
  <i name="date" type="string">2025 01 21 </i>
  <i name="time" type="string">12:35:41 </i>
 </generator>
 <incar>
  <i type="int" name="ISTART">     0</i>
  <i type="string" name="PREC">Normal</i>
  <i type="int" name="ISPIN">     2</i>
  <i type="int" name="ICHARG">     2</i>
  <i type="int" name="IBRION">     2</i>
  <i name="EDIFF">      0.00020000</i>
  <i name="EDIFFG">     -0.03000000</i>
  <i type="int" name="NSW">   800</i>
  <i type="int" name="ISIF">     2</i>
  <i type="int" name="ISYM">     1</i>
  <i name="ENCUT">    400.00000000</i>
  <i name="POTIM">      0.50000000</i>
  <i type="logical" name="LREAL"> F  </i>
  <i type="int" name="ISMEAR">     1</i>
  <i name="SIGMA">      0.20000000</i>
  <i type="logical" name="LWAVE"> F  </i>
  <i type="logical" name="LCHARG"> F  </i>
  <i type="string" name="GGA">PE</i>
  <i type="int" name="IDIPOL">     3</i>
  <i type="int" name="IVDW">    11</i>
 </incar>
 <primitive_cell>
  <structure name="primitive_cell" >
   <crystal>
    <varray name="basis" >
     <v>       1.81500006      -1.81500006       0.00000000 </v>
     <v>       1.81500006       1.81500006       0.00000000 </v>
     <v>       0.00000000       0.00000000      22.26000000 </v>
    </varray>
    <i name="volume">    146.65890621 </i>
    <varray name="rec_basis" >
     <v>       0.27548209      -0.27548209       0.00000000 </v>
     <v>       0.27548209       0.27548209       0.00000000 </v>
     <v>       0.00000000       0.00000000       0.04492363 </v>
    </varray>
   </crystal>
   <varray name="positions" >
    <v>       0.00000000       0.00000000       0.00000000 </v>
    <v>       0.50000000       0.50000000       0.08153639 </v>
    <v>       0.00000000       0.00000000       0.16307278 </v>
    <v>       0.50000000       0.50000000       0.24460917 </v>
    <v>       0.00000000       0.00000000       0.32614556 </v>
   </varray>
  </structure>
  <varray name="primitive_index" >
   <v type="int" >        1 </v>
   <v type="int" >        9 </v>
   <v type="int" >       17 </v>
   <v type="int" >       25 </v>
   <v type="int" >       33 </v>
  </varray>
 </primitive_cell>
 <kpoints>
  <generation param="Monkhorst-Pack">
   <v type="int" name="divisions">       3        3        1 </v>
   <v name="usershift">      0.00000000       0.00000000       0.00000000 </v>
   <v name="genvec1">      0.33333333       0.00000000       0.00000000 </v>
   <v name="genvec2">      0.00000000       0.33333333       0.00000000 </v>
   <v name="genvec3">      0.00000000       0.00000000       1.00000000 </v>
   <v name="shift">      0.00000000       0.00000000       0.00000000 </v>
  </generation>
  <varray name="kpointlist" >
   <v>       0.00000000       0.00000000       0.00000000 </v>
   <v>       0.33333333       0.00000000       0.00000000 </v>
   <v>       0.33333333       0.33333333       0.00000000 </v>
  </varray>
  <varray name="weights" >
   <v>       0.11111111 </v>
   <v>       0.44444444 </v>
   <v>       0.44444444 </v>
  </varray>
 </kpoints>
 <parameters>
  <separator name="general" >
   <i type="string" name="SYSTEM">unknown system</i>
   <i type="logical" name="LCOMPAT"> F  </i>
  </separator>
  <separator name="electronic" >
   <i type="string" name="PREC">normal</i>
   <i name="ENMAX">    400.00000000</i>
   <i name="ENAUG">    586.98000000</i>
   <i name="EDIFF">      0.00020000</i>
   <i type="int" name="IALGO">    38</i>
   <i type="int" name="IWAVPR">    11</i>
   <i type="int" name="NBANDS">   284</i>
   <i type="int" name="NBANDSLOW">    -1</i>
   <i type="int" name="NBANDSHIGH">    -1</i>
   <i name="NELECT">    440.00000000</i>
   <i type="int" name="TURBO">     0</i>
   <i type="int" name="IRESTART">     0</i>
   <i type="int" name="NREBOOT">     0</i>
   <i type="int" name="NMIN">     0</i>
   <i name="EREF">      0.00000000</i>
   <separator name="electronic smearing" >
    <i type="int" name="ISMEAR">     1</i>
    <i name="SIGMA">      0.20000000</i>
    <i name="KSPACING">      0.50000000</i>
    <i type="logical" name="KGAMMA"> T  </i>
    <i type="logical" name="KBLOWUP"> T  </i>
   </separator>
   <separator name="electronic projectors" >
    <i type="logical" name="LREAL"> F  </i>
    <v name="ROPT">      0.00000000</v>
    <i type="int" name="LMAXPAW">  -100</i>
    <i type="int" name="LMAXMIX">     2</i>
    <i type="logical" name="NLSPLINE"> F  </i>
   </separator>
   <separator name="electronic startup" >
    <i type="int" name="ISTART">     0</i>
    <i type="int" name="ICHARG">     2</i>
    <i type="int" name="INIWAV">     1</i>
   </separator>
   <separator name="electronic spin" >
    <i type="int" name="ISPIN">     2</i>
    <i type="logical" name="LNONCOLLINEAR"> F  </i>
    <v name="MAGMOM">      1.00000000      1.00000000      1.00000000      1.00000000      1.00000000      1.00000000      1.00000000      1.00000000      1.00000000      1.00000000      1.00000000      1.00000000      1.00000000      1.00000000      1.00000000      1.00000000      1.00000000      1.00000000      1.00000000      1.00000000
      1.00000000      1.00000000      1.00000000      1.00000000      1.00000000      1.00000000      1.00000000      1.00000000      1.00000000      1.00000000      1.00000000      1.00000000      1.00000000      1.00000000      1.00000000      1.00000000      1.00000000      1.00000000      1.00000000      1.00000000
</v>
    <i name="NUPDOWN">     -1.00000000</i>
    <i type="logical" name="LSORBIT"> F  </i>
    <v name="SAXIS">      0.00000000      0.00000000      1.00000000</v>
    <i type="logical" name="LSPIRAL"> F  </i>
    <v name="QSPIRAL">      0.00000000      0.00000000      0.00000000</v>
    <i type="logical" name="LZEROZ"> F  </i>
   </separator>
   <separator name="electronic exchange-correlation" >
    <i type="logical" name="LASPH"> F  </i>
    <i type="logical" name="LMETAGGA"> F  </i>
   </separator>
   <separator name="electronic convergence" >
    <i type="int" name="NELM">    60</i>
    <i type="int" name="NELMDL">    -5</i>
    <i type="int" name="NELMIN">     2</i>
    <i name="ENINI">    400.00000000</i>
    <separator name="electronic convergence detail" >
     <i type="logical" name="LDIAG"> T  </i>
     <i type="logical" name="LSUBROT"> F  </i>
     <i name="WEIMIN">      0.00100000</i>
     <i name="EBREAK">      0.00000018</i>
     <i name="DEPER">      0.30000000</i>
     <i type="int" name="NRMM">     4</i>
     <i name="TIME">      0.40000000</i>
    </separator>
   </separator>
   <separator name="electronic mixer" >
    <i name="AMIX">      0.40000000</i>
    <i name="BMIX">      1.00000000</i>
    <i name="AMIN">      0.10000000</i>
    <i name="AMIX_MAG">      1.60000000</i>
    <i name="BMIX_MAG">      1.00000000</i>
    <separator name="electronic mixer details" >
     <i type="int" name="IMIX">     4</i>
     <i type="logical" name="MIXFIRST"> F  </i>
     <i type="int" name="MAXMIX">   -45</i>
     <i name="WC">    100.00000000</i>
     <i type="int" name="INIMIX">     1</i>
     <i type="int" name="MIXPRE">     1</i>
     <i type="int" name="MREMOVE">     5</i>
    </separator>
   </separator>
   <separator name="electronic dipolcorrection" >
    <i type="logical" name="LDIPOL"> F  </i>
    <i type="logical" name="LMONO"> F  </i>
    <i type="int" name="IDIPOL">     3</i>
    <i name="EPSILON">      1.00000000</i>
    <v name="DIPOL">   -100.00000000   -100.00000000   -100.00000000</v>
    <i name="EFIELD">      0.00000000</i>
   </separator>
  </separator>
  <separator name="grids" >
   <i type="int" name="NGX">    36</i>
   <i type="int" name="NGY">    36</i>
   <i type="int" name="NGZ">   112</i>
   <i type="int" name="NGXF">    72</i>
   <i type="int" name="NGYF">    72</i>
   <i type="int" name="NGZF">   224</i>
   <i type="logical" name="ADDGRID"> F  </i>
  </separator>
  <separator name="ionic" >
   <i type="int" name="NSW">   800</i>
   <i type="int" name="IBRION">     2</i>
   <i type="int" name="MDALGO">     0</i>
   <i type="int" name="ISIF">     2</i>
   <i name="PSTRESS">      0.00000000</i>
   <i name="EDIFFG">     -0.03000000</i>
   <i type="int" name="NFREE">     1</i>
   <i name="POTIM">      0.50000000</i>
   <i name="SMASS">     -3.00000000</i>
   <i name="SCALEE">      1.00000000</i>
  </separator>
  <separator name="ionic md" >
   <i name="TEBEG">      0.00010000</i>
   <i name="TEEND">      0.00010000</i>
   <i type="int" name="NBLOCK">     1</i>
   <i type="int" name="KBLOCK">   800</i>
   <i type="int" name="NPACO">   256</i>
   <i name="APACO">     10.00000000</i>
  </separator>
  <separator name="symmetry" >
   <i type="int" name="ISYM">     1</i>
   <i name="SYMPREC">      0.00001000</i>
  </separator>
  <separator name="dos" >
   <i type="int" name="LORBIT">     0</i>
   <v name="RWIGS">     -1.00000000</v>
   <i type="int" name="NEDOS">   301</i>
   <i name="EMIN">     10.00000000</i>
   <i name="EMAX">    -10.00000000</i>
   <i name="EFERMI">      0.00000000</i>
  </separator>
  <separator name="writing" >
   <i type="int" name="NWRITE">     2</i>
   <i type="logical" name="LWAVE"> F  </i>
   <i type="logical" name="LDOWNSAMPLE"> F  </i>
   <i type="logical" name="LCHARG"> F  </i>
   <i type="logical" name="LPARD"> F  </i>
   <i type="logical" name="LVTOT"> F  </i>
   <i type="logical" name="LVHAR"> F  </i>
   <i type="logical" name="LELF"> F  </i>
   <i type="logical" name="LOPTICS"> F  </i>
   <v name="STM">      0.00000000      0.00000000      0.00000000      0.00000000      0.00000000      0.00000000      0.00000000</v>
  </separator>
  <separator name="performance" >
   <i type="int" name="NPAR">     4</i>
   <i type="int" name="NSIM">     4</i>
   <i type="int" name="NBLK">    -1</i>
   <i type="logical" name="LPLANE"> T  </i>
   <i type="logical" name="LSCALAPACK"> T  </i>
   <i type="logical" name="LSCAAWARE"> F  </i>
   <i type="logical" name="LSCALU"> F  </i>
   <i type="logical" name="LASYNC"> F  </i>
   <i type="logical" name="LORBITALREAL"> F  </i>
  </separator>
  <separator name="miscellaneous" >
   <i type="int" name="IDIOT">     3</i>
   <i type="int" name="PHON_NSTRUCT">    -1</i>
   <i type="logical" name="LMUSIC"> F  </i>
   <v name="POMASS">     63.54600000</v>
   <v name="DARWINR">      0.00000000</v>
   <v name="DARWINV">      1.00000000</v>
   <i type="logical" name="LCORR"> T  </i>
  </separator>
  <i type="logical" name="GGA_COMPAT"> T  </i>
  <i type="logical" name="LBERRY"> F  </i>
  <i type="int" name="ICORELEVEL">     0</i>
  <i type="logical" name="LDAU"> F  </i>
  <i type="int" name="I_CONSTRAINED_M">     0</i>
  <separator name="electronic exchange-correlation" >
   <i type="string" name="GGA">PE</i>
   <i type="int" name="VOSKOWN">     0</i>
   <i type="logical" name="LHFCALC"> F  </i>
   <i type="string" name="PRECFOCK"></i>
   <i type="logical" name="LSYMGRAD"> F  </i>
   <i type="logical" name="LHFONE"> F  </i>
   <i type="logical" name="LRHFCALC"> F  </i>
   <i type="logical" name="LTHOMAS"> F  </i>
   <i type="logical" name="LMODELHF"> F  </i>
   <i type="logical" name="LFOCKACE"> F  </i>
   <i name="ENCUT4O">     -1.00000000</i>
   <i type="int" name="EXXOEP">     0</i>
   <i type="int" name="FOURORBIT">     0</i>
   <i name="AEXX">      0.00000000</i>
   <i name="HFALPHA">      0.00000000</i>
   <i name="MCALPHA">      0.00000000</i>
   <i name="ALDAX">      1.00000000</i>
   <i name="AGGAX">      1.00000000</i>
   <i name="ALDAC">      1.00000000</i>
   <i name="AGGAC">      1.00000000</i>
   <i type="int" name="NKREDX">     1</i>
   <i type="int" name="NKREDY">     1</i>
   <i type="int" name="NKREDZ">     1</i>
   <i type="logical" name="SHIFTRED"> F  </i>
   <i type="logical" name="ODDONLY"> F  </i>
   <i type="logical" name="EVENONLY"> F  </i>
   <i type="int" name="LMAXFOCK">     0</i>
   <i type="int" name="NMAXFOCKAE">     0</i>
   <i type="logical" name="LFOCKAEDFT"> F  </i>
   <i name="HFSCREEN">      0.00000000</i>
   <i name="HFSCREENC">      0.00000000</i>
   <i type="int" name="NBANDSGWLOW">     0</i>
  </separator>
  <separator name="vdW DFT" >
   <i type="logical" name="LUSE_VDW"> F  </i>
   <i name="Zab_VDW">     -0.84910000</i>
   <i name="PARAM1">      0.12340000</i>
   <i name="PARAM2">      1.00000000</i>
   <i name="PARAM3">      0.00000000</i>
  </separator>
  <separator name="model GW" >
   <i type="int" name="MODEL_GW">     0</i>
   <i name="MODEL_EPS0">     17.59906875</i>
   <i name="MODEL_ALPHA">      1.00000000</i>
  </separator>
  <separator name="linear response parameters" >
   <i type="logical" name="LEPSILON"> F  </i>
   <i type="logical" name="LRPA"> F  </i>
   <i type="logical" name="LNABLA"> F  </i>
   <i type="logical" name="LVEL"> F  </i>
   <i name="CSHIFT">      0.10000000</i>
   <i name="OMEGAMAX">     -1.00000000</i>
   <i name="DEG_THRESHOLD">      0.00200000</i>
   <i name="RTIME">     -0.10000000</i>
   <i name="WPLASMAI">      0.00000000</i>
   <v name="DFIELD">      0.00000000      0.00000000      0.00000000</v>
   <v name="WPLASMA">      0.00000000      0.00000000      0.00000000      0.00000000      0.00000000      0.00000000      0.00000000      0.00000000      0.00000000</v>
  </separator>
  <separator name="orbital magnetization" >
   <i type="logical" name="NUCIND"> F  </i>
   <v name="MAGPOS">      0.00000000      0.00000000      0.00000000</v>
   <i type="logical" name="LNICSALL"> T  </i>
   <i type="logical" name="ORBITALMAG"> F  </i>
   <i type="logical" name="LMAGBLOCH"> F  </i>
   <i type="logical" name="LCHIMAG"> F  </i>
   <i type="logical" name="LGAUGE"> T  </i>
   <i type="int" name="MAGATOM">     0</i>
   <v name="MAGDIPOL">      0.00000000      0.00000000      0.00000000</v>
   <v name="AVECCONST">      0.00000000      0.00000000      0.00000000</v>
  </separator>
  <separator name="response functions" >
   <i type="logical" name="LFINITE_TEMPERATURE"> F  </i>
   <i type="logical" name="LADDER"> F  </i>
   <i type="logical" name="LRPAFORCE"> F  </i>
   <i type="logical" name="LFXC"> F  </i>
   <i type="logical" name="LHARTREE"> T  </i>
   <i type="int" name="IBSE">     0</i>
   <v type="int" name="KPOINT">    -1     0     0     0</v>
   <i type="logical" name="LTCTC"> F  </i>
   <i type="logical" name="LTCTE"> F  </i>
   <i type="logical" name="LTETE"> F  </i>
   <i type="logical" name="LTRIPLET"> F  </i>
   <i type="logical" name="LFXCEPS"> F  </i>
   <i type="logical" name="LFXHEG"> F  </i>
   <i type="int" name="NATURALO">     2</i>
   <i type="logical" name="LHOLEGF"> F  </i>
   <i type="logical" name="L2ORDER"> F  </i>
   <i type="logical" name="LDMP1"> F  </i>
   <i type="logical" name="LMP2LT"> F  </i>
   <i type="logical" name="LSMP2LT"> F  </i>
   <i type="logical" name="LGWLF"> F  </i>
   <i name="ENCUTGW">     -2.00000000</i>
   <i name="ENCUTGWSOFT">     -2.00000000</i>
   <i name="ENCUTLF">     -1.00000000</i>
   <i type="logical" name="LESF_SPLINES"> F  </i>
   <i type="int" name="LMAXMP2">    -1</i>
   <i name="SCISSOR">      0.00000000</i>
   <i type="int" name="NOMEGA">     0</i>
   <i type="int" name="NOMEGAR">     0</i>
   <i type="int" name="NBANDSGW">    -1</i>
   <i type="int" name="NBANDSO">    -1</i>
   <i type="int" name="NBANDSV">    -1</i>
   <i type="int" name="NELMGW">     1</i>
   <i type="int" name="NELMHF">     1</i>
   <i type="int" name="DIM">     3</i>
   <i type="int" name="IESPILON">     4</i>
   <i type="int" name="ANTIRES">     0</i>
   <i name="OMEGAMAX">    -30.00000000</i>
   <i name="OMEGAMIN">    -30.00000000</i>
   <i name="OMEGATL">   -200.00000000</i>
   <i type="int" name="OMEGAGRID">     0</i>
   <i name="CSHIFT">     -0.10000000</i>
   <i type="logical" name="LSELFENERGY"> F  </i>
   <i type="logical" name="LSPECTRAL"> F  </i>
   <i type="logical" name="LSPECTRALGW"> F  </i>
   <i type="logical" name="LSINGLES"> F  </i>
   <i type="logical" name="LFERMIGW"> F  </i>
   <i type="logical" name="ODDONLYGW"> F  </i>
   <i type="logical" name="EVENONLYGW"> F  </i>
   <i type="int" name="NKREDLFX">     1</i>
   <i type="int" name="NKREDLFY">     1</i>
   <i type="int" name="NKREDLFZ">     1</i>
   <i type="int" name="MAXMEM">  2800</i>
   <i type="int" name="TELESCOPE">     0</i>
   <i type="int" name="NTAUPAR">    -1</i>
   <i type="int" name="NOMEGAPAR">    -1</i>
   <i name="DAMP_NEWTON">      0.80000001</i>
   <i name="LAMBDA">      1.00000000</i>
  </separator>
  <separator name="External order field" >
   <i name="OFIELD_KAPPA">      0.00000000</i>
   <v name="OFIELD_K">      0.00000000      0.00000000      0.00000000</v>
   <i name="OFIELD_Q6_NEAR">      0.00000000</i>
   <i name="OFIELD_Q6_FAR">      0.00000000</i>
   <i name="OFIELD_A">      0.00000000</i>
  </separator>
  <separator name="optional k-points parameters" >
   <i type="int" name="KPOINTS_OPT_MODE">     1</i>
   <i type="logical" name="LKPOINTS_OPT"> F  </i>
  </separator>
 </parameters>
 <atominfo>
  <atoms>      40 </atoms>
  <types>       1 </types>
  <array name="atoms" >
   <dimension dim="1">ion</dimension>
   <field type="string">element</field>
   <field type="int">atomtype</field>
   <set>
    <rc><c>Cu</c><c>   1</c></rc>
    <rc><c>Cu</c><c>   1</c></rc>
    <rc><c>Cu</c><c>   1</c></rc>
    <rc><c>Cu</c><c>   1</c></rc>
    <rc><c>Cu</c><c>   1</c></rc>
    <rc><c>Cu</c><c>   1</c></rc>
    <rc><c>Cu</c><c>   1</c></rc>
    <rc><c>Cu</c><c>   1</c></rc>
    <rc><c>Cu</c><c>   1</c></rc>
    <rc><c>Cu</c><c>   1</c></rc>
    <rc><c>Cu</c><c>   1</c></rc>
    <rc><c>Cu</c><c>   1</c></rc>
    <rc><c>Cu</c><c>   1</c></rc>
    <rc><c>Cu</c><c>   1</c></rc>
    <rc><c>Cu</c><c>   1</c></rc>
    <rc><c>Cu</c><c>   1</c></rc>
    <rc><c>Cu</c><c>   1</c></rc>
    <rc><c>Cu</c><c>   1</c></rc>
    <rc><c>Cu</c><c>   1</c></rc>
    <rc><c>Cu</c><c>   1</c></rc>
    <rc><c>Cu</c><c>   1</c></rc>
    <rc><c>Cu</c><c>   1</c></rc>
    <rc><c>Cu</c><c>   1</c></rc>
    <rc><c>Cu</c><c>   1</c></rc>
    <rc><c>Cu</c><c>   1</c></rc>
    <rc><c>Cu</c><c>   1</c></rc>
    <rc><c>Cu</c><c>   1</c></rc>
    <rc><c>Cu</c><c>   1</c></rc>
    <rc><c>Cu</c><c>   1</c></rc>
    <rc><c>Cu</c><c>   1</c></rc>
    <rc><c>Cu</c><c>   1</c></rc>
    <rc><c>Cu</c><c>   1</c></rc>
    <rc><c>Cu</c><c>   1</c></rc>
    <rc><c>Cu</c><c>   1</c></rc>
    <rc><c>Cu</c><c>   1</c></rc>
    <rc><c>Cu</c><c>   1</c></rc>
    <rc><c>Cu</c><c>   1</c></rc>
    <rc><c>Cu</c><c>   1</c></rc>
    <rc><c>Cu</c><c>   1</c></rc>
    <rc><c>Cu</c><c>   1</c></rc>
   </set>
  </array>
  <array name="atomtypes" >
   <dimension dim="1">type</dimension>
   <field type="int">atomspertype</field>
   <field type="string">element</field>
   <field>mass</field>
   <field>valence</field>
   <field type="string">pseudopotential</field>
   <set>
    <rc><c>  40</c><c>Cu</c><c>     63.54600000</c><c>     11.00000000</c><c>  PAW_PBE Cu 22Jun2005                  </c></rc>
   </set>
  </array>
 </atominfo>
 <structure name="initialpos" >
  <crystal>
   <varray name="basis" >
    <v>       7.26000023       0.00000000       0.00000000 </v>
    <v>       0.00000000       7.26000023       0.00000000 </v>
    <v>       0.00000000       0.00000000      22.26000000 </v>
   </varray>
   <i name="volume">   1173.27124998 </i>
   <varray name="rec_basis" >
    <v>       0.13774104       0.00000000       0.00000000 </v>
    <v>       0.00000000       0.13774104       0.00000000 </v>
    <v>       0.00000000       0.00000000       0.04492363 </v>
   </varray>
  </crystal>
  <varray name="positions" >
   <v>       0.00000000       0.00000000       0.00000000 </v>
   <v>       0.00000000       0.50000000       0.00000000 </v>
   <v>       0.50000000       0.00000000       0.00000000 </v>
   <v>       0.50000000       0.50000000       0.00000000 </v>
   <v>       0.25000000       0.25000000       0.00000000 </v>
   <v>       0.25000000       0.75000000       0.00000000 </v>
   <v>       0.75000000       0.25000000       0.00000000 </v>
   <v>       0.75000000       0.75000000       0.00000000 </v>
   <v>       0.00000000       0.25000000       0.08153639 </v>
   <v>       0.00000000       0.75000000       0.08153639 </v>
   <v>       0.50000000       0.25000000       0.08153639 </v>
   <v>       0.50000000       0.75000000       0.08153639 </v>
   <v>       0.25000000       0.00000000       0.08153639 </v>
   <v>       0.25000000       0.50000000       0.08153639 </v>
   <v>       0.75000000       0.00000000       0.08153639 </v>
   <v>       0.75000000       0.50000000       0.08153639 </v>
   <v>       0.00000000       0.00000000       0.16307278 </v>
   <v>       0.00000000       0.50000000       0.16307278 </v>
   <v>       0.50000000       0.00000000       0.16307278 </v>
   <v>       0.50000000       0.50000000       0.16307278 </v>
   <v>       0.25000000       0.25000000       0.16307278 </v>
   <v>       0.25000000       0.75000000       0.16307278 </v>
   <v>       0.75000000       0.25000000       0.16307278 </v>
   <v>       0.75000000       0.75000000       0.16307278 </v>
   <v>       0.00000000       0.25000000       0.24460917 </v>
   <v>       0.00000000       0.75000000       0.24460917 </v>
   <v>       0.50000000       0.25000000       0.24460917 </v>
   <v>       0.50000000       0.75000000       0.24460917 </v>
   <v>       0.25000000       0.00000000       0.24460917 </v>
   <v>       0.25000000       0.50000000       0.24460917 </v>
   <v>       0.75000000       0.00000000       0.24460917 </v>
   <v>       0.75000000       0.50000000       0.24460917 </v>
   <v>       0.00000000       0.00000000       0.32614556 </v>
   <v>       0.00000000       0.50000000       0.32614556 </v>
   <v>       0.50000000       0.00000000       0.32614556 </v>
   <v>       0.50000000       0.50000000       0.32614556 </v>
   <v>       0.25000000       0.25000000       0.32614556 </v>
   <v>       0.25000000       0.75000000       0.32614556 </v>
   <v>       0.75000000       0.25000000       0.32614556 </v>
   <v>       0.75000000       0.75000000       0.32614556 </v>
  </varray>
  <varray name="selective"  type="logical" >
   <v type="logical" >  F  F  F </v>
   <v type="logical" >  F  F  F </v>
   <v type="logical" >  F  F  F </v>
   <v type="logical" >  F  F  F </v>
   <v type="logical" >  F  F  F </v>
   <v type="logical" >  F  F  F </v>
   <v type="logical" >  F  F  F </v>
   <v type="logical" >  F  F  F </v>
   <v type="logical" >  F  F  F </v>
   <v type="logical" >  F  F  F </v>
   <v type="logical" >  F  F  F </v>
   <v type="logical" >  F  F  F </v>
   <v type="logical" >  F  F  F </v>
   <v type="logical" >  F  F  F </v>
   <v type="logical" >  F  F  F </v>
   <v type="logical" >  F  F  F </v>
   <v type="logical" >  T  T  T </v>
   <v type="logical" >  T  T  T </v>
   <v type="logical" >  T  T  T </v>
   <v type="logical" >  T  T  T </v>
   <v type="logical" >  T  T  T </v>
   <v type="logical" >  T  T  T </v>
   <v type="logical" >  T  T  T </v>
   <v type="logical" >  T  T  T </v>
   <v type="logical" >  T  T  T </v>
   <v type="logical" >  T  T  T </v>
   <v type="logical" >  T  T  T </v>
   <v type="logical" >  T  T  T </v>
   <v type="logical" >  T  T  T </v>
   <v type="logical" >  T  T  T </v>
   <v type="logical" >  T  T  T </v>
   <v type="logical" >  T  T  T </v>
   <v type="logical" >  T  T  T </v>
   <v type="logical" >  T  T  T </v>
   <v type="logical" >  T  T  T </v>
   <v type="logical" >  T  T  T </v>
   <v type="logical" >  T  T  T </v>
   <v type="logical" >  T  T  T </v>
   <v type="logical" >  T  T  T </v>
   <v type="logical" >  T  T  T </v>
  </varray>
  <nose>
   <v>      -3.00000000       0.00000000       0.00010000       0.00010000 </v>
  </nose>
 </structure>
 <calculation>
  <scstep>
   <time name="dav">   10.38   10.47</time>
   <time name="total">   10.49   10.58</time>
   <energy>
    <i name="alphaZ">    997.31827505 </i>
    <i name="ewald"> 178443.47286306 </i>
    <i name="hartreedc">-232187.03381345 </i>
    <i name="XCdc">   1824.76130905 </i>
    <i name="pawpsdc">  49123.89984196 </i>
    <i name="pawaedc"> -53356.83726100 </i>
    <i name="eentropy">      0.02024442 </i>
    <i name="bandstr">   3527.71640888 </i>
    <i name="atom">  55638.30560799 </i>
    <i name="e_fr_energy">   4011.62347596 </i>
    <i name="e_wo_entrp">   4011.60323154 </i>
    <i name="e_0_energy">   4011.61672782 </i>
   </energy>
  </scstep>
  <scstep>
   <time name="dav">   10.22   10.30</time>
   <time name="total">   10.22   10.30</time>
   <energy>
    <i name="e_fr_energy">    446.17218729 </i>
    <i name="e_wo_entrp">    446.16515090 </i>
    <i name="e_0_energy">    446.16984182 </i>
   </energy>
  </scstep>
  <scstep>
   <time name="dav">   10.19   10.27</time>
   <time name="total">   10.19   10.27</time>
   <energy>
    <i name="e_fr_energy">   -126.34682305 </i>
    <i name="e_wo_entrp">   -126.42845853 </i>
    <i name="e_0_energy">   -126.37403488 </i>
   </energy>
  </scstep>
  <scstep>
   <time name="dav">   11.17   11.26</time>
   <time name="total">   11.17   11.26</time>
   <energy>
    <i name="e_fr_energy">   -164.09108731 </i>
    <i name="e_wo_entrp">   -164.20179892 </i>
    <i name="e_0_energy">   -164.12799118 </i>
   </energy>
  </scstep>
  <scstep>
   <time name="dav">   11.16   11.24</time>
   <time name="total">   11.85   11.93</time>
   <energy>
    <i name="e_fr_energy">   -164.98424365 </i>
    <i name="e_wo_entrp">   -165.09652845 </i>
    <i name="e_0_energy">   -165.02167191 </i>
   </energy>
  </scstep>
  <scstep>
   <time name="dav">   10.76   10.84</time>
   <time name="total">   11.53   11.62</time>
   <energy>
    <i name="e_fr_energy">   -135.17088954 </i>
    <i name="e_wo_entrp">   -135.16466591 </i>
    <i name="e_0_energy">   -135.16881499 </i>
   </energy>
  </scstep>
  <scstep>
   <time name="dav">   10.89   10.98</time>
   <time name="total">   11.67   11.76</time>
   <energy>
    <i name="e_fr_energy">   -114.28654479 </i>
    <i name="e_wo_entrp">   -114.25265016 </i>
    <i name="e_0_energy">   -114.27524658 </i>
   </energy>
  </scstep>
  <scstep>
   <time name="dav">   11.34   11.43</time>
   <time name="total">   12.09   12.18</time>
   <energy>
    <i name="e_fr_energy">   -112.93369389 </i>
    <i name="e_wo_entrp">   -112.94458628 </i>
    <i name="e_0_energy">   -112.93732469 </i>
   </energy>
  </scstep>
  <scstep>
   <time name="dav">   13.09   13.19</time>
   <time name="total">   13.85   13.96</time>
   <energy>
    <i name="e_fr_energy">   -110.41030424 </i>
    <i name="e_wo_entrp">   -110.38425026 </i>
    <i name="e_0_energy">   -110.40161958 </i>
   </energy>
  </scstep>
  <scstep>
   <time name="dav">   12.40   12.50</time>
   <time name="total">   13.18   13.28</time>
   <energy>
    <i name="e_fr_energy">   -110.19688422 </i>
    <i name="e_wo_entrp">   -110.21320499 </i>
    <i name="e_0_energy">   -110.20232448 </i>
   </energy>
  </scstep>
  <scstep>
   <time name="dav">   11.14   11.23</time>
   <time name="total">   11.92   12.01</time>
   <energy>
    <i name="e_fr_energy">   -113.92290390 </i>
    <i name="e_wo_entrp">   -113.93060090 </i>
    <i name="e_0_energy">   -113.92546956 </i>
   </energy>
  </scstep>
  <scstep>
   <time name="dav">   11.69   11.77</time>
   <time name="total">   12.47   12.56</time>
   <energy>
    <i name="e_fr_energy">   -118.38555639 </i>
    <i name="e_wo_entrp">   -118.39459865 </i>
    <i name="e_0_energy">   -118.38857048 </i>
   </energy>
  </scstep>
  <scstep>
   <time name="dav">   13.83   13.93</time>
   <time name="total">   14.59   14.71</time>
   <energy>
    <i name="e_fr_energy">   -127.29067446 </i>
    <i name="e_wo_entrp">   -127.30782835 </i>
    <i name="e_0_energy">   -127.29639242 </i>
   </energy>
  </scstep>
  <scstep>
   <time name="dav">   13.02   13.12</time>
   <time name="total">   13.79   13.89</time>
   <energy>
    <i name="e_fr_energy">   -131.53282544 </i>
    <i name="e_wo_entrp">   -131.53521023 </i>
    <i name="e_0_energy">   -131.53362037 </i>
   </energy>
  </scstep>
  <scstep>
   <time name="dav">   11.65   11.74</time>
   <time name="total">   12.43   12.52</time>
   <energy>
    <i name="e_fr_energy">   -135.55236106 </i>
    <i name="e_wo_entrp">   -135.54531263 </i>
    <i name="e_0_energy">   -135.55001158 </i>
   </energy>
  </scstep>
  <scstep>
   <time name="dav">   11.00   11.10</time>
   <time name="total">   11.77   11.88</time>
   <energy>
    <i name="e_fr_energy">   -136.98362313 </i>
    <i name="e_wo_entrp">   -136.96220823 </i>
    <i name="e_0_energy">   -136.97648483 </i>
   </energy>
  </scstep>
  <scstep>
   <time name="dav">   11.59   11.68</time>
   <time name="total">   12.37   12.46</time>
   <energy>
    <i name="e_fr_energy">   -137.57757839 </i>
    <i name="e_wo_entrp">   -137.54826485 </i>
    <i name="e_0_energy">   -137.56780721 </i>
   </energy>
  </scstep>
  <scstep>
   <time name="dav">   13.11   13.21</time>
   <time name="total">   13.87   13.98</time>
   <energy>
    <i name="e_fr_energy">   -138.00948470 </i>
    <i name="e_wo_entrp">   -137.97612317 </i>
    <i name="e_0_energy">   -137.99836419 </i>
   </energy>
  </scstep>
  <scstep>
   <time name="dav">   13.10   13.20</time>
   <time name="total">   13.88   13.98</time>
   <energy>
    <i name="e_fr_energy">   -138.45150783 </i>
    <i name="e_wo_entrp">   -138.40924140 </i>
    <i name="e_0_energy">   -138.43741902 </i>
   </energy>
  </scstep>
  <scstep>
   <time name="dav">   13.03   13.13</time>
   <time name="total">   13.81   13.92</time>
   <energy>
    <i name="e_fr_energy">   -138.76811368 </i>
    <i name="e_wo_entrp">   -138.72626333 </i>
    <i name="e_0_energy">   -138.75416356 </i>
   </energy>
  </scstep>
  <scstep>
   <time name="dav">   11.76   11.84</time>
   <time name="total">   12.54   12.64</time>
   <energy>
    <i name="e_fr_energy">   -139.06573193 </i>
    <i name="e_wo_entrp">   -139.02280515 </i>
    <i name="e_0_energy">   -139.05142300 </i>
   </energy>
  </scstep>
  <scstep>
   <time name="dav">   12.21   12.30</time>
   <time name="total">   12.98   13.08</time>
   <energy>
    <i name="e_fr_energy">   -139.32744159 </i>
    <i name="e_wo_entrp">   -139.28176954 </i>
    <i name="e_0_energy">   -139.31221757 </i>
   </energy>
  </scstep>
  <scstep>
   <time name="dav">   11.55   11.64</time>
   <time name="total">   12.32   12.41</time>
   <energy>
    <i name="e_fr_energy">   -139.45149784 </i>
    <i name="e_wo_entrp">   -139.40555635 </i>
    <i name="e_0_energy">   -139.43618401 </i>
   </energy>
  </scstep>
  <scstep>
   <time name="dav">   10.06   10.14</time>
   <time name="total">   10.83   10.91</time>
   <energy>
    <i name="e_fr_energy">   -139.48401577 </i>
    <i name="e_wo_entrp">   -139.43955820 </i>
    <i name="e_0_energy">   -139.46919658 </i>
   </energy>
  </scstep>
  <scstep>
   <time name="dav">    9.27    9.34</time>
   <time name="total">   10.05   10.12</time>
   <energy>
    <i name="e_fr_energy">   -139.50354802 </i>
    <i name="e_wo_entrp">   -139.45860120 </i>
    <i name="e_0_energy">   -139.48856574 </i>
   </energy>
  </scstep>
  <scstep>
   <time name="dav">    8.09    8.15</time>
   <time name="total">    8.87    8.93</time>
   <energy>
    <i name="e_fr_energy">   -139.51088960 </i>
    <i name="e_wo_entrp">   -139.46665416 </i>
    <i name="e_0_energy">   -139.49614445 </i>
   </energy>
  </scstep>
  <scstep>
   <time name="dav">    7.98    8.04</time>
   <time name="total">    8.75    8.82</time>
   <energy>
    <i name="e_fr_energy">   -139.51307699 </i>
    <i name="e_wo_entrp">   -139.46832585 </i>
    <i name="e_0_energy">   -139.49815994 </i>
   </energy>
  </scstep>
  <scstep>
   <time name="dav">    7.48    7.54</time>
   <time name="total">    8.25    8.31</time>
   <energy>
    <i name="e_fr_energy">   -139.51392847 </i>
    <i name="e_wo_entrp">   -139.46931241 </i>
    <i name="e_0_energy">   -139.49905645 </i>
   </energy>
  </scstep>
  <scstep>
   <time name="dav">    7.49    7.55</time>
   <time name="total">    7.59    7.65</time>
   <energy>
    <i name="alphaZ">    997.31827505 </i>
    <i name="ewald"> 178443.47286306 </i>
    <i name="hartreedc">-231630.99544127 </i>
    <i name="XCdc">   1780.32982805 </i>
    <i name="pawpsdc">  51979.08126129 </i>
    <i name="pawaedc"> -56280.99750723 </i>
    <i name="eentropy">     -0.04459594 </i>
    <i name="bandstr">  -1065.98435171 </i>
    <i name="atom">  55638.30560799 </i>
    <i name="e_fr_energy">   -139.51406070 </i>
    <i name="e_wo_entrp">   -139.46946477 </i>
    <i name="e_0_energy">   -139.49919539 </i>
   </energy>
  </scstep>
  <dipole>
   <v name="dipole">      0.00000000       0.00000000       0.01754419 </v>
   <i name="Tr[quadrupol]">  -4343.18561658 </i>
   <i name="Echarged">      0.00000000 </i>
   <i name="Edipol_quadrupol">      0.00000000 </i>
   <i name="Eion">      0.00000000 </i>
  </dipole>
  <structure>
   <crystal>
    <varray name="basis" >
     <v>       7.26000023       0.00000000       0.00000000 </v>
     <v>       0.00000000       7.26000023       0.00000000 </v>
     <v>       0.00000000       0.00000000      22.26000000 </v>
    </varray>
    <i name="volume">   1173.27124998 </i>
    <varray name="rec_basis" >
     <v>       0.13774104       0.00000000       0.00000000 </v>
     <v>       0.00000000       0.13774104       0.00000000 </v>
     <v>       0.00000000       0.00000000       0.04492363 </v>
    </varray>
   </crystal>
   <varray name="positions" >
    <v>       0.00000000       0.00000000       0.00000000 </v>
    <v>       0.00000000       0.50000000       0.00000000 </v>
    <v>       0.50000000       0.00000000       0.00000000 </v>
    <v>       0.50000000       0.50000000       0.00000000 </v>
    <v>       0.25000000       0.25000000       0.00000000 </v>
    <v>       0.25000000       0.75000000       0.00000000 </v>
    <v>       0.75000000       0.25000000       0.00000000 </v>
    <v>       0.75000000       0.75000000       0.00000000 </v>
    <v>       0.00000000       0.25000000       0.08153639 </v>
    <v>       0.00000000       0.75000000       0.08153639 </v>
    <v>       0.50000000       0.25000000       0.08153639 </v>
    <v>       0.50000000       0.75000000       0.08153639 </v>
    <v>       0.25000000       0.00000000       0.08153639 </v>
    <v>       0.25000000       0.50000000       0.08153639 </v>
    <v>       0.75000000       0.00000000       0.08153639 </v>
    <v>       0.75000000       0.50000000       0.08153639 </v>
    <v>       0.00000000       0.00000000       0.16307278 </v>
    <v>       0.00000000       0.50000000       0.16307278 </v>
    <v>       0.50000000       0.00000000       0.16307278 </v>
    <v>       0.50000000       0.50000000       0.16307278 </v>
    <v>       0.25000000       0.25000000       0.16307278 </v>
    <v>       0.25000000       0.75000000       0.16307278 </v>
    <v>       0.75000000       0.25000000       0.16307278 </v>
    <v>       0.75000000       0.75000000       0.16307278 </v>
    <v>       0.00000000       0.25000000       0.24460917 </v>
    <v>       0.00000000       0.75000000       0.24460917 </v>
    <v>       0.50000000       0.25000000       0.24460917 </v>
    <v>       0.50000000       0.75000000       0.24460917 </v>
    <v>       0.25000000       0.00000000       0.24460917 </v>
    <v>       0.25000000       0.50000000       0.24460917 </v>
    <v>       0.75000000       0.00000000       0.24460917 </v>
    <v>       0.75000000       0.50000000       0.24460917 </v>
    <v>       0.00000000       0.00000000       0.32614556 </v>
    <v>       0.00000000       0.50000000       0.32614556 </v>
    <v>       0.50000000       0.00000000       0.32614556 </v>
    <v>       0.50000000       0.50000000       0.32614556 </v>
    <v>       0.25000000       0.25000000       0.32614556 </v>
    <v>       0.25000000       0.75000000       0.32614556 </v>
    <v>       0.75000000       0.25000000       0.32614556 </v>
    <v>       0.75000000       0.75000000       0.32614556 </v>
   </varray>
  </structure>
  <varray name="forces" >
   <v>       0.00000000       0.00000000       0.26953950 </v>
   <v>       0.00000000      -0.00000000       0.26953950 </v>
   <v>      -0.00000000       0.00000000       0.26953950 </v>
   <v>      -0.00000000      -0.00000000       0.26953950 </v>
   <v>      -0.00000000      -0.00000000       0.26953950 </v>
   <v>       0.00000000      -0.00000000       0.26953950 </v>
   <v>       0.00000000      -0.00000000       0.26953950 </v>
   <v>       0.00000000       0.00000000       0.26953950 </v>
   <v>       0.00000000      -0.00000000      -0.14480661 </v>
   <v>       0.00000000       0.00000000      -0.14480661 </v>
   <v>      -0.00000000       0.00000000      -0.14480661 </v>
   <v>       0.00000000      -0.00000000      -0.14480661 </v>
   <v>      -0.00000000       0.00000000      -0.14480661 </v>
   <v>      -0.00000000       0.00000000      -0.14480661 </v>
   <v>       0.00000000       0.00000000      -0.14480661 </v>
   <v>       0.00000000      -0.00000000      -0.14480661 </v>
   <v>      -0.00000000       0.00000000       0.00236565 </v>
   <v>      -0.00000000       0.00000000       0.00236565 </v>
   <v>       0.00000000       0.00000000       0.00236565 </v>
   <v>       0.00000000       0.00000000       0.00236565 </v>
   <v>       0.00000000      -0.00000000       0.00236565 </v>
   <v>      -0.00000000       0.00000000       0.00236565 </v>
   <v>       0.00000000      -0.00000000       0.00236565 </v>
   <v>      -0.00000000       0.00000000       0.00236565 </v>
   <v>      -0.00000000      -0.00000000       0.14724880 </v>
   <v>       0.00000000       0.00000000       0.14724880 </v>
   <v>      -0.00000000      -0.00000000       0.14724880 </v>
   <v>       0.00000000      -0.00000000       0.14724880 </v>
   <v>       0.00000000      -0.00000000       0.14724880 </v>
   <v>      -0.00000000       0.00000000       0.14724880 </v>
   <v>      -0.00000000      -0.00000000       0.14724880 </v>
   <v>      -0.00000000      -0.00000000       0.14724880 </v>
   <v>      -0.00000000       0.00000000      -0.27434735 </v>
   <v>      -0.00000000       0.00000000      -0.27434735 </v>
   <v>       0.00000000      -0.00000000      -0.27434735 </v>
   <v>      -0.00000000      -0.00000000      -0.27434735 </v>
   <v>       0.00000000      -0.00000000      -0.27434735 </v>
   <v>      -0.00000000       0.00000000      -0.27434735 </v>
   <v>       0.00000000      -0.00000000      -0.27434735 </v>
   <v>       0.00000000       0.00000000      -0.27434735 </v>
  </varray>
  <varray name="stress" >
   <v>     -44.26180010       0.00000000       0.00000000 </v>
   <v>       0.00000000     -44.26180010       0.00000000 </v>
   <v>      -0.00000000       0.00000000     -19.27355795 </v>
  </varray>
  <energy>
   <i name="e_fr_energy">   -153.76863156 </i>
   <i name="e_wo_entrp">   -153.72403562 </i>
   <i name="e_0_energy">   -153.75376625 </i>
  </energy>
  <time name="totalsc">  361.24  364.01</time>
 </calculation>
 <calculation>
  <scstep>
   <time name="dav">   10.85   10.93</time>
   <time name="total">   11.61   11.70</time>
   <energy>
    <i name="alphaZ">    997.31827505 </i>
    <i name="ewald"> 178741.94485991 </i>
    <i name="hartreedc">-231928.08559175 </i>
    <i name="XCdc">   1780.50459325 </i>
    <i name="pawpsdc">  51978.44495165 </i>
    <i name="pawaedc"> -56280.33802945 </i>
    <i name="eentropy">     -0.04994671 </i>
    <i name="bandstr">  -1067.56306837 </i>
    <i name="atom">  55638.30560799 </i>
    <i name="e_fr_energy">   -139.51834843 </i>
    <i name="e_wo_entrp">   -139.46840172 </i>
    <i name="e_0_energy">   -139.50169952 </i>
   </energy>
  </scstep>
  <scstep>
   <time name="dav">   13.97   14.07</time>
   <time name="total">   14.73   14.84</time>
   <energy>
    <i name="e_fr_energy">   -139.53672875 </i>
    <i name="e_wo_entrp">   -139.48840384 </i>
    <i name="e_0_energy">   -139.52062045 </i>
   </energy>
  </scstep>
  <scstep>
   <time name="dav">   10.66   10.74</time>
   <time name="total">   11.43   11.51</time>
   <energy>
    <i name="e_fr_energy">   -139.53585038 </i>
    <i name="e_wo_entrp">   -139.48665734 </i>
    <i name="e_0_energy">   -139.51945270 </i>
   </energy>
  </scstep>
  <scstep>
   <time name="dav">   10.86   10.95</time>
   <time name="total">   11.63   11.72</time>
   <energy>
    <i name="e_fr_energy">   -139.53581190 </i>
    <i name="e_wo_entrp">   -139.48673623 </i>
    <i name="e_0_energy">   -139.51945334 </i>
   </energy>
  </scstep>
  <scstep>
   <time name="dav">    9.96   10.04</time>
   <time name="total">   10.06   10.14</time>
   <energy>
    <i name="alphaZ">    997.31827505 </i>
    <i name="ewald"> 178741.94485991 </i>
    <i name="hartreedc">-231928.75646896 </i>
    <i name="XCdc">   1780.45404177 </i>
    <i name="pawpsdc">  51992.27749972 </i>
    <i name="pawaedc"> -56294.25178335 </i>
    <i name="eentropy">     -0.04898839 </i>
    <i name="bandstr">  -1066.77880845 </i>
    <i name="atom">  55638.30560799 </i>
    <i name="e_fr_energy">   -139.53576470 </i>
    <i name="e_wo_entrp">   -139.48677631 </i>
    <i name="e_0_energy">   -139.51943524 </i>
   </energy>
  </scstep>
  <dipole>
   <v name="dipole">      0.00000000       0.00000000       0.00982064 </v>
   <i name="Tr[quadrupol]">  -4343.18089732 </i>
   <i name="Echarged">      0.00000000 </i>
   <i name="Edipol_quadrupol">      0.00000000 </i>
   <i name="Eion">      0.00000000 </i>
  </dipole>
  <structure>
   <crystal>
    <varray name="basis" >
     <v>       7.26000023       0.00000000       0.00000000 </v>
     <v>       0.00000000       7.26000023       0.00000000 </v>
     <v>       0.00000000       0.00000000      22.26000000 </v>
    </varray>
    <i name="volume">   1173.27124998 </i>
    <varray name="rec_basis" >
     <v>       0.13774104       0.00000000       0.00000000 </v>
     <v>       0.00000000       0.13774104       0.00000000 </v>
     <v>       0.00000000       0.00000000       0.04492363 </v>
    </varray>
   </crystal>
   <varray name="positions" >
    <v>       0.00000000       0.00000000       0.00000000 </v>
    <v>       0.00000000       0.50000000       0.00000000 </v>
    <v>       0.50000000       0.00000000       0.00000000 </v>
    <v>       0.50000000       0.50000000       0.00000000 </v>
    <v>       0.25000000       0.25000000       0.00000000 </v>
    <v>       0.25000000       0.75000000       0.00000000 </v>
    <v>       0.75000000       0.25000000       0.00000000 </v>
    <v>       0.75000000       0.75000000       0.00000000 </v>
    <v>       0.00000000       0.25000000       0.08153639 </v>
    <v>       0.00000000       0.75000000       0.08153639 </v>
    <v>       0.50000000       0.25000000       0.08153639 </v>
    <v>       0.50000000       0.75000000       0.08153639 </v>
    <v>       0.25000000       0.00000000       0.08153639 </v>
    <v>       0.25000000       0.50000000       0.08153639 </v>
    <v>       0.75000000       0.00000000       0.08153639 </v>
    <v>       0.75000000       0.50000000       0.08153639 </v>
    <v>      -0.00000000       0.00000000       0.16307791 </v>
    <v>      -0.00000000       0.50000000       0.16307791 </v>
    <v>       0.50000000       0.00000000       0.16307791 </v>
    <v>       0.50000000       0.50000000       0.16307791 </v>
    <v>       0.25000000       0.25000000       0.16307791 </v>
    <v>       0.25000000       0.75000000       0.16307791 </v>
    <v>       0.75000000       0.25000000       0.16307791 </v>
    <v>       0.75000000       0.75000000       0.16307791 </v>
    <v>      -0.00000000       0.25000000       0.24492829 </v>
    <v>       0.00000000       0.75000000       0.24492829 </v>
    <v>       0.50000000       0.25000000       0.24492829 </v>
    <v>       0.50000000       0.75000000       0.24492829 </v>
    <v>       0.25000000      -0.00000000       0.24492829 </v>
    <v>       0.25000000       0.50000000       0.24492829 </v>
    <v>       0.75000000      -0.00000000       0.24492829 </v>
    <v>       0.75000000       0.50000000       0.24492829 </v>
    <v>      -0.00000000       0.00000000       0.32555098 </v>
    <v>      -0.00000000       0.50000000       0.32555098 </v>
    <v>       0.50000000      -0.00000000       0.32555098 </v>
    <v>       0.50000000       0.50000000       0.32555098 </v>
    <v>       0.25000000       0.25000000       0.32555098 </v>
    <v>       0.25000000       0.75000000       0.32555098 </v>
    <v>       0.75000000       0.25000000       0.32555098 </v>
    <v>       0.75000000       0.75000000       0.32555098 </v>
   </varray>
  </structure>
  <varray name="forces" >
   <v>       0.00000000      -0.00000000       0.26750377 </v>
   <v>      -0.00000000       0.00000000       0.26750377 </v>
   <v>       0.00000000      -0.00000000       0.26750377 </v>
   <v>       0.00000000       0.00000000       0.26750377 </v>
   <v>      -0.00000000       0.00000000       0.26750377 </v>
   <v>       0.00000000      -0.00000000       0.26750377 </v>
   <v>      -0.00000000      -0.00000000       0.26750377 </v>
   <v>      -0.00000000      -0.00000000       0.26750377 </v>
   <v>       0.00000000      -0.00000000      -0.14530128 </v>
   <v>       0.00000000       0.00000000      -0.14530128 </v>
   <v>      -0.00000000       0.00000000      -0.14530128 </v>
   <v>       0.00000000      -0.00000000      -0.14530128 </v>
   <v>       0.00000000      -0.00000000      -0.14530128 </v>
   <v>      -0.00000000       0.00000000      -0.14530128 </v>
   <v>       0.00000000       0.00000000      -0.14530128 </v>
   <v>       0.00000000      -0.00000000      -0.14530128 </v>
   <v>       0.00000000      -0.00000000       0.01989573 </v>
   <v>       0.00000000       0.00000000       0.01989573 </v>
   <v>      -0.00000000      -0.00000000       0.01989573 </v>
   <v>      -0.00000000      -0.00000000       0.01989573 </v>
   <v>      -0.00000000       0.00000000       0.01989573 </v>
   <v>      -0.00000000      -0.00000000       0.01989573 </v>
   <v>       0.00000000       0.00000000       0.01989573 </v>
   <v>       0.00000000       0.00000000       0.01989573 </v>
   <v>      -0.00000000      -0.00000000       0.04745582 </v>
   <v>      -0.00000000       0.00000000       0.04745582 </v>
   <v>       0.00000000      -0.00000000       0.04745582 </v>
   <v>       0.00000000       0.00000000       0.04745582 </v>
   <v>      -0.00000000       0.00000000       0.04745582 </v>
   <v>       0.00000000      -0.00000000       0.04745582 </v>
   <v>      -0.00000000       0.00000000       0.04745582 </v>
   <v>      -0.00000000       0.00000000       0.04745582 </v>
   <v>      -0.00000000      -0.00000000      -0.18955404 </v>
   <v>      -0.00000000       0.00000000      -0.18955404 </v>
   <v>       0.00000000      -0.00000000      -0.18955404 </v>
   <v>      -0.00000000       0.00000000      -0.18955404 </v>
   <v>       0.00000000      -0.00000000      -0.18955404 </v>
   <v>      -0.00000000       0.00000000      -0.18955404 </v>
   <v>      -0.00000000      -0.00000000      -0.18955404 </v>
   <v>      -0.00000000       0.00000000      -0.18955404 </v>
  </varray>
  <varray name="stress" >
   <v>     -41.72779210       0.00000000       0.00000000 </v>
   <v>       0.00000000     -41.72779210       0.00000000 </v>
   <v>      -0.00000000      -0.00000000     -16.62027742 </v>
  </varray>
  <energy>
   <i name="e_fr_energy">   -153.79988050 </i>
   <i name="e_wo_entrp">   -153.75089211 </i>
   <i name="e_0_energy">   -153.78355104 </i>
  </energy>
  <time name="totalsc">   81.35   81.98</time>
 </calculation>
 <calculation>
  <scstep>
   <time name="dav">   10.78   10.86</time>
   <time name="total">   11.55   11.63</time>
   <energy>
    <i name="alphaZ">    997.31827505 </i>
    <i name="ewald"> 178991.94424707 </i>
    <i name="hartreedc">-232177.54913444 </i>
    <i name="XCdc">   1780.59938861 </i>
    <i name="pawpsdc">  51998.32144101 </i>
    <i name="pawaedc"> -56300.69573963 </i>
    <i name="eentropy">     -0.05330893 </i>
    <i name="bandstr">  -1067.72146607 </i>
    <i name="atom">  55638.30560799 </i>
    <i name="e_fr_energy">   -139.53068934 </i>
    <i name="e_wo_entrp">   -139.47738041 </i>
    <i name="e_0_energy">   -139.51291970 </i>
   </energy>
  </scstep>
  <scstep>
   <time name="dav">   13.92   14.03</time>
   <time name="total">   14.69   14.81</time>
   <energy>
    <i name="e_fr_energy">   -139.54321550 </i>
    <i name="e_wo_entrp">   -139.49148801 </i>
    <i name="e_0_energy">   -139.52597300 </i>
   </energy>
  </scstep>
  <scstep>
   <time name="dav">   10.58   10.66</time>
   <time name="total">   11.35   11.44</time>
   <energy>
    <i name="e_fr_energy">   -139.54311974 </i>
    <i name="e_wo_entrp">   -139.49051242 </i>
    <i name="e_0_energy">   -139.52558397 </i>
   </energy>
  </scstep>
  <scstep>
   <time name="dav">   10.41   10.49</time>
   <time name="total">   11.18   11.26</time>
   <energy>
    <i name="e_fr_energy">   -139.54304523 </i>
    <i name="e_wo_entrp">   -139.49049458 </i>
    <i name="e_0_energy">   -139.52552835 </i>
   </energy>
  </scstep>
  <scstep>
   <time name="dav">   10.28   10.36</time>
   <time name="total">   10.38   10.46</time>
   <energy>
    <i name="alphaZ">    997.31827505 </i>
    <i name="ewald"> 178991.94424707 </i>
    <i name="hartreedc">-232178.40770956 </i>
    <i name="XCdc">   1780.55339797 </i>
    <i name="pawpsdc">  52011.02067060 </i>
    <i name="pawaedc"> -56313.46442260 </i>
    <i name="eentropy">     -0.05235889 </i>
    <i name="bandstr">  -1066.76076320 </i>
    <i name="atom">  55638.30560799 </i>
    <i name="e_fr_energy">   -139.54305558 </i>
    <i name="e_wo_entrp">   -139.49069668 </i>
    <i name="e_0_energy">   -139.52560261 </i>
   </energy>
  </scstep>
  <dipole>
   <v name="dipole">      0.00000000       0.00000000       0.00230244 </v>
   <i name="Tr[quadrupol]">  -4343.21301676 </i>
   <i name="Echarged">      0.00000000 </i>
   <i name="Edipol_quadrupol">      0.00000000 </i>
   <i name="Eion">      0.00000000 </i>
  </dipole>
  <structure>
   <crystal>
    <varray name="basis" >
     <v>       7.26000023       0.00000000       0.00000000 </v>
     <v>       0.00000000       7.26000023       0.00000000 </v>
     <v>       0.00000000       0.00000000      22.26000000 </v>
    </varray>
    <i name="volume">   1173.27124998 </i>
    <varray name="rec_basis" >
     <v>       0.13774104       0.00000000       0.00000000 </v>
     <v>       0.00000000       0.13774104       0.00000000 </v>
     <v>       0.00000000       0.00000000       0.04492363 </v>
    </varray>
   </crystal>
   <varray name="positions" >
    <v>       0.00000000       0.00000000       0.00000000 </v>
    <v>       0.00000000       0.50000000       0.00000000 </v>
    <v>       0.50000000       0.00000000       0.00000000 </v>
    <v>       0.50000000       0.50000000       0.00000000 </v>
    <v>       0.25000000       0.25000000       0.00000000 </v>
    <v>       0.25000000       0.75000000       0.00000000 </v>
    <v>       0.75000000       0.25000000       0.00000000 </v>
    <v>       0.75000000       0.75000000       0.00000000 </v>
    <v>       0.00000000       0.25000000       0.08153639 </v>
    <v>       0.00000000       0.75000000       0.08153639 </v>
    <v>       0.50000000       0.25000000       0.08153639 </v>
    <v>       0.50000000       0.75000000       0.08153639 </v>
    <v>       0.25000000       0.00000000       0.08153639 </v>
    <v>       0.25000000       0.50000000       0.08153639 </v>
    <v>       0.75000000       0.00000000       0.08153639 </v>
    <v>       0.75000000       0.50000000       0.08153639 </v>
    <v>      -0.00000000       0.00000000       0.16308219 </v>
    <v>      -0.00000000       0.50000000       0.16308219 </v>
    <v>       0.50000000       0.00000000       0.16308219 </v>
    <v>       0.50000000       0.50000000       0.16308219 </v>
    <v>       0.25000000       0.25000000       0.16308219 </v>
    <v>       0.25000000       0.75000000       0.16308219 </v>
    <v>       0.75000000       0.25000000       0.16308219 </v>
    <v>       0.75000000       0.75000000       0.16308219 </v>
    <v>      -0.00000000       0.25000000       0.24519498 </v>
    <v>       0.00000000       0.75000000       0.24519498 </v>
    <v>       0.50000000       0.25000000       0.24519498 </v>
    <v>       0.50000000       0.75000000       0.24519498 </v>
    <v>       0.25000000      -0.00000000       0.24519498 </v>
    <v>       0.25000000       0.50000000       0.24519498 </v>
    <v>       0.75000000      -0.00000000       0.24519498 </v>
    <v>       0.75000000       0.50000000       0.24519498 </v>
    <v>      -0.00000000       0.00000000       0.32505410 </v>
    <v>      -0.00000000       0.50000000       0.32505410 </v>
    <v>       0.50000000      -0.00000000       0.32505410 </v>
    <v>       0.50000000       0.50000000       0.32505410 </v>
    <v>       0.25000000       0.25000000       0.32505410 </v>
    <v>       0.25000000       0.75000000       0.32505410 </v>
    <v>       0.75000000       0.25000000       0.32505410 </v>
    <v>       0.75000000       0.75000000       0.32505410 </v>
   </varray>
  </structure>
  <varray name="forces" >
   <v>      -0.00000000       0.00000000       0.26944378 </v>
   <v>      -0.00000000      -0.00000000       0.26944378 </v>
   <v>       0.00000000       0.00000000       0.26944378 </v>
   <v>      -0.00000000      -0.00000000       0.26944378 </v>
   <v>       0.00000000      -0.00000000       0.26944378 </v>
   <v>      -0.00000000       0.00000000       0.26944378 </v>
   <v>      -0.00000000      -0.00000000       0.26944378 </v>
   <v>       0.00000000       0.00000000       0.26944378 </v>
   <v>      -0.00000000       0.00000000      -0.14387509 </v>
   <v>      -0.00000000      -0.00000000      -0.14387509 </v>
   <v>       0.00000000       0.00000000      -0.14387509 </v>
   <v>       0.00000000      -0.00000000      -0.14387509 </v>
   <v>      -0.00000000       0.00000000      -0.14387509 </v>
   <v>       0.00000000       0.00000000      -0.14387509 </v>
   <v>       0.00000000      -0.00000000      -0.14387509 </v>
   <v>      -0.00000000      -0.00000000      -0.14387509 </v>
   <v>       0.00000000       0.00000000       0.03484953 </v>
   <v>       0.00000000      -0.00000000       0.03484953 </v>
   <v>      -0.00000000       0.00000000       0.03484953 </v>
   <v>       0.00000000       0.00000000       0.03484953 </v>
   <v>      -0.00000000       0.00000000       0.03484953 </v>
   <v>       0.00000000       0.00000000       0.03484953 </v>
   <v>      -0.00000000      -0.00000000       0.03484953 </v>
   <v>       0.00000000       0.00000000       0.03484953 </v>
   <v>       0.00000000      -0.00000000      -0.03089449 </v>
   <v>      -0.00000000      -0.00000000      -0.03089449 </v>
   <v>       0.00000000      -0.00000000      -0.03089449 </v>
   <v>       0.00000000      -0.00000000      -0.03089449 </v>
   <v>       0.00000000      -0.00000000      -0.03089449 </v>
   <v>       0.00000000      -0.00000000      -0.03089449 </v>
   <v>      -0.00000000      -0.00000000      -0.03089449 </v>
   <v>      -0.00000000       0.00000000      -0.03089449 </v>
   <v>       0.00000000       0.00000000      -0.12952374 </v>
   <v>      -0.00000000      -0.00000000      -0.12952374 </v>
   <v>       0.00000000      -0.00000000      -0.12952374 </v>
   <v>      -0.00000000      -0.00000000      -0.12952374 </v>
   <v>      -0.00000000       0.00000000      -0.12952374 </v>
   <v>      -0.00000000      -0.00000000      -0.12952374 </v>
   <v>       0.00000000      -0.00000000      -0.12952374 </v>
   <v>       0.00000000       0.00000000      -0.12952374 </v>
  </varray>
  <varray name="stress" >
   <v>     -42.57483427       0.00000000       0.00000000 </v>
   <v>       0.00000000     -42.57483427       0.00000000 </v>
   <v>       0.00000000       0.00000000     -17.47534287 </v>
  </varray>
  <energy>
   <i name="e_fr_energy">   -153.81522967 </i>
   <i name="e_wo_entrp">   -153.76287078 </i>
   <i name="e_0_energy">   -153.79777670 </i>
  </energy>
  <time name="totalsc">   81.02   81.64</time>
 </calculation>
 <calculation>
  <scstep>
   <time name="dav">   10.79   10.87</time>
   <time name="total">   11.56   11.65</time>
   <energy>
    <i name="alphaZ">    997.31827505 </i>
    <i name="ewald"> 179493.44835410 </i>
    <i name="hartreedc">-232677.73481902 </i>
    <i name="XCdc">   1780.86094455 </i>
    <i name="pawpsdc">  52017.05404102 </i>
    <i name="pawaedc"> -56319.76944480 </i>
    <i name="eentropy">     -0.05913920 </i>
    <i name="bandstr">  -1068.90381318 </i>
    <i name="atom">  55638.30560799 </i>
    <i name="e_fr_energy">   -139.47999351 </i>
    <i name="e_wo_entrp">   -139.42085430 </i>
    <i name="e_0_energy">   -139.46028044 </i>
   </energy>
  </scstep>
  <scstep>
   <time name="dav">   13.78   13.89</time>
   <time name="total">   14.55   14.66</time>
   <energy>
    <i name="e_fr_energy">   -139.53351781 </i>
    <i name="e_wo_entrp">   -139.47723512 </i>
    <i name="e_0_energy">   -139.51475692 </i>
   </energy>
  </scstep>
  <scstep>
   <time name="dav">   10.60   10.68</time>
   <time name="total">   11.37   11.45</time>
   <energy>
    <i name="e_fr_energy">   -139.53061058 </i>
    <i name="e_wo_entrp">   -139.47209832 </i>
    <i name="e_0_energy">   -139.51110649 </i>
   </energy>
  </scstep>
  <scstep>
   <time name="dav">   11.06   11.14</time>
   <time name="total">   11.83   11.92</time>
   <energy>
    <i name="e_fr_energy">   -139.53020444 </i>
    <i name="e_wo_entrp">   -139.47229026 </i>
    <i name="e_0_energy">   -139.51089971 </i>
   </energy>
  </scstep>
  <scstep>
   <time name="dav">   10.59   10.68</time>
   <time name="total">   11.37   11.46</time>
   <energy>
    <i name="e_fr_energy">   -139.53015167 </i>
    <i name="e_wo_entrp">   -139.47224785 </i>
    <i name="e_0_energy">   -139.51085039 </i>
   </energy>
  </scstep>
  <scstep>
   <time name="dav">   12.00   12.09</time>
   <time name="total">   12.77   12.87</time>
   <energy>
    <i name="e_fr_energy">   -139.52961734 </i>
    <i name="e_wo_entrp">   -139.47125023 </i>
    <i name="e_0_energy">   -139.51016164 </i>
   </energy>
  </scstep>
  <scstep>
   <time name="dav">    8.99    9.06</time>
   <time name="total">    9.09    9.16</time>
   <energy>
    <i name="alphaZ">    997.31827505 </i>
    <i name="ewald"> 179493.44835410 </i>
    <i name="hartreedc">-232679.21933321 </i>
    <i name="XCdc">   1780.75487766 </i>
    <i name="pawpsdc">  52054.77961778 </i>
    <i name="pawaedc"> -56358.16038127 </i>
    <i name="eentropy">     -0.05818157 </i>
    <i name="bandstr">  -1066.69838470 </i>
    <i name="atom">  55638.30560799 </i>
    <i name="e_fr_energy">   -139.52954817 </i>
    <i name="e_wo_entrp">   -139.47136660 </i>
    <i name="e_0_energy">   -139.51015431 </i>
   </energy>
  </scstep>
  <dipole>
   <v name="dipole">      0.00000000       0.00000000      -0.00645818 </v>
   <i name="Tr[quadrupol]">  -4343.29169754 </i>
   <i name="Echarged">      0.00000000 </i>
   <i name="Edipol_quadrupol">      0.00000000 </i>
   <i name="Eion">      0.00000000 </i>
  </dipole>
  <structure>
   <crystal>
    <varray name="basis" >
     <v>       7.26000023       0.00000000       0.00000000 </v>
     <v>       0.00000000       7.26000023       0.00000000 </v>
     <v>       0.00000000       0.00000000      22.26000000 </v>
    </varray>
    <i name="volume">   1173.27124998 </i>
    <varray name="rec_basis" >
     <v>       0.13774104       0.00000000       0.00000000 </v>
     <v>       0.00000000       0.13774104       0.00000000 </v>
     <v>       0.00000000       0.00000000       0.04492363 </v>
    </varray>
   </crystal>
   <varray name="positions" >
    <v>       0.00000000       0.00000000       0.00000000 </v>
    <v>       0.00000000       0.50000000       0.00000000 </v>
    <v>       0.50000000       0.00000000       0.00000000 </v>
    <v>       0.50000000       0.50000000       0.00000000 </v>
    <v>       0.25000000       0.25000000       0.00000000 </v>
    <v>       0.25000000       0.75000000       0.00000000 </v>
    <v>       0.75000000       0.25000000       0.00000000 </v>
    <v>       0.75000000       0.75000000       0.00000000 </v>
    <v>       0.00000000       0.25000000       0.08153639 </v>
    <v>       0.00000000       0.75000000       0.08153639 </v>
    <v>       0.50000000       0.25000000       0.08153639 </v>
    <v>       0.50000000       0.75000000       0.08153639 </v>
    <v>       0.25000000       0.00000000       0.08153639 </v>
    <v>       0.25000000       0.50000000       0.08153639 </v>
    <v>       0.75000000       0.00000000       0.08153639 </v>
    <v>       0.75000000       0.50000000       0.08153639 </v>
    <v>      -0.00000000       0.00000000       0.16309076 </v>
    <v>      -0.00000000       0.50000000       0.16309076 </v>
    <v>       0.50000000       0.00000000       0.16309076 </v>
    <v>       0.50000000       0.50000000       0.16309076 </v>
    <v>       0.25000000       0.25000000       0.16309076 </v>
    <v>       0.25000000       0.75000000       0.16309076 </v>
    <v>       0.75000000       0.25000000       0.16309076 </v>
    <v>       0.75000000       0.75000000       0.16309076 </v>
    <v>      -0.00000000       0.25000000       0.24572835 </v>
    <v>       0.00000000       0.75000000       0.24572835 </v>
    <v>       0.50000000       0.25000000       0.24572835 </v>
    <v>       0.50000000       0.75000000       0.24572835 </v>
    <v>       0.25000000      -0.00000000       0.24572835 </v>
    <v>       0.25000000       0.50000000       0.24572835 </v>
    <v>       0.75000000      -0.00000000       0.24572835 </v>
    <v>       0.75000000       0.50000000       0.24572835 </v>
    <v>      -0.00000000       0.00000000       0.32406035 </v>
    <v>      -0.00000000       0.50000000       0.32406035 </v>
    <v>       0.50000000      -0.00000000       0.32406035 </v>
    <v>       0.50000000       0.50000000       0.32406035 </v>
    <v>       0.25000000       0.25000000       0.32406035 </v>
    <v>       0.25000000       0.75000000       0.32406035 </v>
    <v>       0.75000000       0.25000000       0.32406035 </v>
    <v>       0.75000000       0.75000000       0.32406035 </v>
   </varray>
  </structure>
  <varray name="forces" >
   <v>      -0.00000000       0.00000000       0.27996562 </v>
   <v>       0.00000000       0.00000000       0.27996562 </v>
   <v>       0.00000000       0.00000000       0.27996562 </v>
   <v>      -0.00000000       0.00000000       0.27996562 </v>
   <v>      -0.00000000      -0.00000000       0.27996562 </v>
   <v>      -0.00000000       0.00000000       0.27996562 </v>
   <v>       0.00000000       0.00000000       0.27996562 </v>
   <v>      -0.00000000      -0.00000000       0.27996562 </v>
   <v>      -0.00000000       0.00000000      -0.13770171 </v>
   <v>       0.00000000      -0.00000000      -0.13770171 </v>
   <v>      -0.00000000      -0.00000000      -0.13770171 </v>
   <v>       0.00000000      -0.00000000      -0.13770171 </v>
   <v>       0.00000000      -0.00000000      -0.13770171 </v>
   <v>       0.00000000       0.00000000      -0.13770171 </v>
   <v>      -0.00000000       0.00000000      -0.13770171 </v>
   <v>       0.00000000      -0.00000000      -0.13770171 </v>
   <v>      -0.00000000       0.00000000       0.06556969 </v>
   <v>       0.00000000       0.00000000       0.06556969 </v>
   <v>      -0.00000000      -0.00000000       0.06556969 </v>
   <v>      -0.00000000       0.00000000       0.06556969 </v>
   <v>      -0.00000000       0.00000000       0.06556969 </v>
   <v>      -0.00000000      -0.00000000       0.06556969 </v>
   <v>      -0.00000000       0.00000000       0.06556969 </v>
   <v>       0.00000000      -0.00000000       0.06556969 </v>
   <v>       0.00000000      -0.00000000      -0.19483217 </v>
   <v>       0.00000000      -0.00000000      -0.19483217 </v>
   <v>       0.00000000      -0.00000000      -0.19483217 </v>
   <v>      -0.00000000       0.00000000      -0.19483217 </v>
   <v>      -0.00000000      -0.00000000      -0.19483217 </v>
   <v>       0.00000000      -0.00000000      -0.19483217 </v>
   <v>       0.00000000       0.00000000      -0.19483217 </v>
   <v>       0.00000000      -0.00000000      -0.19483217 </v>
   <v>      -0.00000000      -0.00000000      -0.01300143 </v>
   <v>      -0.00000000       0.00000000      -0.01300143 </v>
   <v>       0.00000000       0.00000000      -0.01300143 </v>
   <v>      -0.00000000      -0.00000000      -0.01300143 </v>
   <v>      -0.00000000      -0.00000000      -0.01300143 </v>
   <v>      -0.00000000       0.00000000      -0.01300143 </v>
   <v>       0.00000000      -0.00000000      -0.01300143 </v>
   <v>       0.00000000       0.00000000      -0.01300143 </v>
  </varray>
  <varray name="stress" >
   <v>     -42.34586378       0.00000000      -0.00000000 </v>
   <v>       0.00000000     -42.34586378       0.00000000 </v>
   <v>      -0.00000000       0.00000000     -17.28122390 </v>
  </varray>
  <energy>
   <i name="e_fr_energy">   -153.81805497 </i>
   <i name="e_wo_entrp">   -153.75987340 </i>
   <i name="e_0_energy">   -153.79866111 </i>
  </energy>
  <time name="totalsc">  104.43  105.25</time>
 </calculation>
 <calculation>
  <scstep>
   <time name="dav">   10.81   10.89</time>
   <time name="total">   11.58   11.66</time>
   <energy>
    <i name="alphaZ">    997.31827505 </i>
    <i name="ewald"> 179269.75452409 </i>
    <i name="hartreedc">-232456.59987217 </i>
    <i name="XCdc">   1780.62140291 </i>
    <i name="pawpsdc">  52054.66713320 </i>
    <i name="pawaedc"> -56358.01770548 </i>
    <i name="eentropy">     -0.05533182 </i>
    <i name="bandstr">  -1065.52498665 </i>
    <i name="atom">  55638.30560799 </i>
    <i name="e_fr_energy">   -139.53095288 </i>
    <i name="e_wo_entrp">   -139.47562107 </i>
    <i name="e_0_energy">   -139.51250894 </i>
   </energy>
  </scstep>
  <scstep>
   <time name="dav">   13.44   13.54</time>
   <time name="total">   14.21   14.31</time>
   <energy>
    <i name="e_fr_energy">   -139.54086250 </i>
    <i name="e_wo_entrp">   -139.48482935 </i>
    <i name="e_0_energy">   -139.52218478 </i>
   </energy>
  </scstep>
  <scstep>
   <time name="dav">   10.24   10.32</time>
   <time name="total">   11.01   11.10</time>
   <energy>
    <i name="e_fr_energy">   -139.54058641 </i>
    <i name="e_wo_entrp">   -139.48475186 </i>
    <i name="e_0_energy">   -139.52197489 </i>
   </energy>
  </scstep>
  <scstep>
   <time name="dav">    7.18    7.23</time>
   <time name="total">    7.27    7.33</time>
   <energy>
    <i name="alphaZ">    997.31827505 </i>
    <i name="ewald"> 179269.75452409 </i>
    <i name="hartreedc">-232456.07687623 </i>
    <i name="XCdc">   1780.63828371 </i>
    <i name="pawpsdc">  52044.85372018 </i>
    <i name="pawaedc"> -56347.87939878 </i>
    <i name="eentropy">     -0.05580988 </i>
    <i name="bandstr">  -1066.39883129 </i>
    <i name="atom">  55638.30560799 </i>
    <i name="e_fr_energy">   -139.54050517 </i>
    <i name="e_wo_entrp">   -139.48469528 </i>
    <i name="e_0_energy">   -139.52190187 </i>
   </energy>
  </scstep>
  <dipole>
   <v name="dipole">      0.00000000       0.00000000      -0.00595129 </v>
   <i name="Tr[quadrupol]">  -4343.26744058 </i>
   <i name="Echarged">      0.00000000 </i>
   <i name="Edipol_quadrupol">      0.00000000 </i>
   <i name="Eion">      0.00000000 </i>
  </dipole>
  <structure>
   <crystal>
    <varray name="basis" >
     <v>       7.26000023       0.00000000       0.00000000 </v>
     <v>       0.00000000       7.26000023       0.00000000 </v>
     <v>       0.00000000       0.00000000      22.26000000 </v>
    </varray>
    <i name="volume">   1173.27124998 </i>
    <varray name="rec_basis" >
     <v>       0.13774104       0.00000000       0.00000000 </v>
     <v>       0.00000000       0.13774104       0.00000000 </v>
     <v>       0.00000000       0.00000000       0.04492363 </v>
    </varray>
   </crystal>
   <varray name="positions" >
    <v>       0.00000000       0.00000000       0.00000000 </v>
    <v>       0.00000000       0.50000000       0.00000000 </v>
    <v>       0.50000000       0.00000000       0.00000000 </v>
    <v>       0.50000000       0.50000000       0.00000000 </v>
    <v>       0.25000000       0.25000000       0.00000000 </v>
    <v>       0.25000000       0.75000000       0.00000000 </v>
    <v>       0.75000000       0.25000000       0.00000000 </v>
    <v>       0.75000000       0.75000000       0.00000000 </v>
    <v>       0.00000000       0.25000000       0.08153639 </v>
    <v>       0.00000000       0.75000000       0.08153639 </v>
    <v>       0.50000000       0.25000000       0.08153639 </v>
    <v>       0.50000000       0.75000000       0.08153639 </v>
    <v>       0.25000000       0.00000000       0.08153639 </v>
    <v>       0.25000000       0.50000000       0.08153639 </v>
    <v>       0.75000000       0.00000000       0.08153639 </v>
    <v>       0.75000000       0.50000000       0.08153639 </v>
    <v>      -0.00000000       0.00000000       0.16308694 </v>
    <v>      -0.00000000       0.50000000       0.16308694 </v>
    <v>       0.50000000       0.00000000       0.16308694 </v>
    <v>       0.50000000       0.50000000       0.16308694 </v>
    <v>       0.25000000       0.25000000       0.16308694 </v>
    <v>       0.25000000       0.75000000       0.16308694 </v>
    <v>       0.75000000       0.25000000       0.16308694 </v>
    <v>       0.75000000       0.75000000       0.16308694 </v>
    <v>      -0.00000000       0.25000000       0.24549070 </v>
    <v>       0.00000000       0.75000000       0.24549070 </v>
    <v>       0.50000000       0.25000000       0.24549070 </v>
    <v>       0.50000000       0.75000000       0.24549070 </v>
    <v>       0.25000000      -0.00000000       0.24549070 </v>
    <v>       0.25000000       0.50000000       0.24549070 </v>
    <v>       0.75000000      -0.00000000       0.24549070 </v>
    <v>       0.75000000       0.50000000       0.24549070 </v>
    <v>      -0.00000000       0.00000000       0.32450313 </v>
    <v>      -0.00000000       0.50000000       0.32450313 </v>
    <v>       0.50000000      -0.00000000       0.32450313 </v>
    <v>       0.50000000       0.50000000       0.32450313 </v>
    <v>       0.25000000       0.25000000       0.32450313 </v>
    <v>       0.25000000       0.75000000       0.32450313 </v>
    <v>       0.75000000       0.25000000       0.32450313 </v>
    <v>       0.75000000       0.75000000       0.32450313 </v>
   </varray>
  </structure>
  <varray name="forces" >
   <v>      -0.00000000      -0.00000000       0.27314076 </v>
   <v>       0.00000000      -0.00000000       0.27314076 </v>
   <v>       0.00000000      -0.00000000       0.27314076 </v>
   <v>      -0.00000000      -0.00000000       0.27314076 </v>
   <v>      -0.00000000       0.00000000       0.27314076 </v>
   <v>      -0.00000000      -0.00000000       0.27314076 </v>
   <v>      -0.00000000       0.00000000       0.27314076 </v>
   <v>      -0.00000000      -0.00000000       0.27314076 </v>
   <v>       0.00000000      -0.00000000      -0.14300144 </v>
   <v>      -0.00000000       0.00000000      -0.14300144 </v>
   <v>       0.00000000      -0.00000000      -0.14300144 </v>
   <v>       0.00000000       0.00000000      -0.14300144 </v>
   <v>       0.00000000       0.00000000      -0.14300144 </v>
   <v>      -0.00000000       0.00000000      -0.14300144 </v>
   <v>      -0.00000000      -0.00000000      -0.14300144 </v>
   <v>       0.00000000      -0.00000000      -0.14300144 </v>
   <v>      -0.00000000       0.00000000       0.05063737 </v>
   <v>      -0.00000000       0.00000000       0.05063737 </v>
   <v>      -0.00000000       0.00000000       0.05063737 </v>
   <v>      -0.00000000      -0.00000000       0.05063737 </v>
   <v>       0.00000000      -0.00000000       0.05063737 </v>
   <v>       0.00000000       0.00000000       0.05063737 </v>
   <v>      -0.00000000      -0.00000000       0.05063737 </v>
   <v>      -0.00000000       0.00000000       0.05063737 </v>
   <v>       0.00000000       0.00000000      -0.11264158 </v>
   <v>       0.00000000      -0.00000000      -0.11264158 </v>
   <v>      -0.00000000       0.00000000      -0.11264158 </v>
   <v>       0.00000000      -0.00000000      -0.11264158 </v>
   <v>      -0.00000000      -0.00000000      -0.11264158 </v>
   <v>      -0.00000000       0.00000000      -0.11264158 </v>
   <v>       0.00000000      -0.00000000      -0.11264158 </v>
   <v>       0.00000000      -0.00000000      -0.11264158 </v>
   <v>      -0.00000000       0.00000000      -0.06813510 </v>
   <v>       0.00000000      -0.00000000      -0.06813510 </v>
   <v>       0.00000000      -0.00000000      -0.06813510 </v>
   <v>      -0.00000000       0.00000000      -0.06813510 </v>
   <v>       0.00000000      -0.00000000      -0.06813510 </v>
   <v>      -0.00000000       0.00000000      -0.06813510 </v>
   <v>       0.00000000      -0.00000000      -0.06813510 </v>
   <v>       0.00000000       0.00000000      -0.06813510 </v>
  </varray>
  <varray name="stress" >
   <v>     -39.18278114       0.00000000       0.00000000 </v>
   <v>       0.00000000     -39.18278114       0.00000000 </v>
   <v>      -0.00000000       0.00000000     -14.12094824 </v>
  </varray>
  <energy>
   <i name="e_fr_energy">   -153.82169678 </i>
   <i name="e_wo_entrp">   -153.76588690 </i>
   <i name="e_0_energy">   -153.80309349 </i>
  </energy>
  <time name="totalsc">   65.95   66.47</time>
 </calculation>
 <calculation>
  <scstep>
   <time name="dav">   10.84   10.92</time>
   <time name="total">   11.61   11.70</time>
   <energy>
    <i name="alphaZ">    997.31827505 </i>
    <i name="ewald"> 179597.81806253 </i>
    <i name="hartreedc">-232783.32203934 </i>
    <i name="XCdc">   1780.73531836 </i>
    <i name="pawpsdc">  52041.30733501 </i>
    <i name="pawaedc"> -56344.21931810 </i>
    <i name="eentropy">     -0.05778008 </i>
    <i name="bandstr">  -1067.41343326 </i>
    <i name="atom">  55638.30560799 </i>
    <i name="e_fr_energy">   -139.52797183 </i>
    <i name="e_wo_entrp">   -139.47019175 </i>
    <i name="e_0_energy">   -139.50871180 </i>
   </energy>
  </scstep>
  <scstep>
   <time name="dav">   13.65   13.76</time>
   <time name="total">   14.42   14.53</time>
   <energy>
    <i name="e_fr_energy">   -139.53617494 </i>
    <i name="e_wo_entrp">   -139.47868099 </i>
    <i name="e_0_energy">   -139.51701029 </i>
   </energy>
  </scstep>
  <scstep>
   <time name="dav">   10.37   10.46</time>
   <time name="total">   11.14   11.24</time>
   <energy>
    <i name="e_fr_energy">   -139.53619998 </i>
    <i name="e_wo_entrp">   -139.47870785 </i>
    <i name="e_0_energy">   -139.51703594 </i>
   </energy>
  </scstep>
  <scstep>
   <time name="dav">    9.79    9.88</time>
   <time name="total">    9.89    9.97</time>
   <energy>
    <i name="alphaZ">    997.31827505 </i>
    <i name="ewald"> 179597.81806253 </i>
    <i name="hartreedc">-232783.83389866 </i>
    <i name="XCdc">   1780.73439517 </i>
    <i name="pawpsdc">  52045.06914504 </i>
    <i name="pawaedc"> -56348.13077770 </i>
    <i name="eentropy">     -0.05769282 </i>
    <i name="bandstr">  -1066.75923757 </i>
    <i name="atom">  55638.30560799 </i>
    <i name="e_fr_energy">   -139.53612097 </i>
    <i name="e_wo_entrp">   -139.47842815 </i>
    <i name="e_0_energy">   -139.51689003 </i>
   </energy>
  </scstep>
  <dipole>
   <v name="dipole">      0.00000000       0.00000000      -0.00557186 </v>
   <i name="Tr[quadrupol]">  -4343.27416350 </i>
   <i name="Echarged">      0.00000000 </i>
   <i name="Edipol_quadrupol">      0.00000000 </i>
   <i name="Eion">      0.00000000 </i>
  </dipole>
  <structure>
   <crystal>
    <varray name="basis" >
     <v>       7.26000023       0.00000000       0.00000000 </v>
     <v>       0.00000000       7.26000023       0.00000000 </v>
     <v>       0.00000000       0.00000000      22.26000000 </v>
    </varray>
    <i name="volume">   1173.27124998 </i>
    <varray name="rec_basis" >
     <v>       0.13774104       0.00000000       0.00000000 </v>
     <v>       0.00000000       0.13774104       0.00000000 </v>
     <v>       0.00000000       0.00000000       0.04492363 </v>
    </varray>
   </crystal>
   <varray name="positions" >
    <v>       0.00000000       0.00000000       0.00000000 </v>
    <v>       0.00000000       0.50000000       0.00000000 </v>
    <v>       0.50000000       0.00000000       0.00000000 </v>
    <v>       0.50000000       0.50000000       0.00000000 </v>
    <v>       0.25000000       0.25000000       0.00000000 </v>
    <v>       0.25000000       0.75000000       0.00000000 </v>
    <v>       0.75000000       0.25000000       0.00000000 </v>
    <v>       0.75000000       0.75000000       0.00000000 </v>
    <v>       0.00000000       0.25000000       0.08153639 </v>
    <v>       0.00000000       0.75000000       0.08153639 </v>
    <v>       0.50000000       0.25000000       0.08153639 </v>
    <v>       0.50000000       0.75000000       0.08153639 </v>
    <v>       0.25000000       0.00000000       0.08153639 </v>
    <v>       0.25000000       0.50000000       0.08153639 </v>
    <v>       0.75000000       0.00000000       0.08153639 </v>
    <v>       0.75000000       0.50000000       0.08153639 </v>
    <v>      -0.00000000       0.00000000       0.16323663 </v>
    <v>      -0.00000000       0.50000000       0.16323663 </v>
    <v>       0.50000000       0.00000000       0.16323663 </v>
    <v>       0.50000000       0.50000000       0.16323663 </v>
    <v>       0.25000000       0.25000000       0.16323663 </v>
    <v>       0.25000000       0.75000000       0.16323663 </v>
    <v>       0.75000000       0.25000000       0.16323663 </v>
    <v>       0.75000000       0.75000000       0.16323663 </v>
    <v>       0.00000000       0.25000000       0.24523919 </v>
    <v>       0.00000000       0.75000000       0.24523919 </v>
    <v>       0.50000000       0.25000000       0.24523919 </v>
    <v>       0.50000000       0.75000000       0.24523919 </v>
    <v>       0.25000000      -0.00000000       0.24523919 </v>
    <v>       0.25000000       0.50000000       0.24523919 </v>
    <v>       0.75000000      -0.00000000       0.24523919 </v>
    <v>       0.75000000       0.50000000       0.24523919 </v>
    <v>      -0.00000000       0.00000000       0.32415687 </v>
    <v>      -0.00000000       0.50000000       0.32415687 </v>
    <v>       0.50000000      -0.00000000       0.32415687 </v>
    <v>       0.50000000       0.50000000       0.32415687 </v>
    <v>       0.25000000       0.25000000       0.32415687 </v>
    <v>       0.25000000       0.75000000       0.32415687 </v>
    <v>       0.75000000       0.25000000       0.32415687 </v>
    <v>       0.75000000       0.75000000       0.32415687 </v>
   </varray>
  </structure>
  <varray name="forces" >
   <v>       0.00000000      -0.00000000       0.27532126 </v>
   <v>       0.00000000       0.00000000       0.27532126 </v>
   <v>      -0.00000000      -0.00000000       0.27532126 </v>
   <v>      -0.00000000      -0.00000000       0.27532126 </v>
[...]
       <r>    10.5598     0.0000   284.0000 </r>
       <r>    10.6317     0.0000   284.0000 </r>
       <r>    10.7037     0.0000   284.0000 </r>
       <r>    10.7757     0.0000   284.0000 </r>
       <r>    10.8476     0.0000   284.0000 </r>
       <r>    10.9196     0.0000   284.0000 </r>
       <r>    10.9916     0.0000   284.0000 </r>
      </set>
      <set comment="spin 2">
       <r>   -10.5979     0.0000     0.0000 </r>
       <r>   -10.5259     0.0000     0.0000 </r>
       <r>   -10.4540     0.0000     0.0000 </r>
       <r>   -10.3820     0.0000     0.0000 </r>
       <r>   -10.3100     0.0000     0.0000 </r>
       <r>   -10.2381    -0.0000    -0.0000 </r>
       <r>   -10.1661    -0.0000    -0.0000 </r>
       <r>   -10.0941    -0.0000    -0.0000 </r>
       <r>   -10.0222    -0.0000    -0.0000 </r>
       <r>    -9.9502    -0.0000    -0.0000 </r>
       <r>    -9.8782    -0.0000    -0.0000 </r>
       <r>    -9.8063    -0.0000    -0.0000 </r>
       <r>    -9.7343    -0.0000    -0.0000 </r>
       <r>    -9.6624    -0.0000    -0.0000 </r>
       <r>    -9.5904    -0.0000    -0.0000 </r>
       <r>    -9.5184    -0.0000    -0.0000 </r>
       <r>    -9.4465    -0.0000    -0.0000 </r>
       <r>    -9.3745    -0.0000    -0.0000 </r>
       <r>    -9.3025    -0.0000    -0.0000 </r>
       <r>    -9.2306    -0.0001    -0.0000 </r>
       <r>    -9.1586    -0.0004    -0.0000 </r>
       <r>    -9.0866    -0.0019    -0.0002 </r>
       <r>    -9.0147    -0.0070    -0.0007 </r>
       <r>    -8.9427    -0.0178    -0.0020 </r>
       <r>    -8.8707    -0.0244    -0.0037 </r>
       <r>    -8.7988     0.0084    -0.0031 </r>
       <r>    -8.7268     0.1197     0.0055 </r>
       <r>    -8.6548     0.2774     0.0255 </r>
       <r>    -8.5829     0.3636     0.0516 </r>
       <r>    -8.5109     0.3471     0.0766 </r>
       <r>    -8.4390     0.4459     0.1087 </r>
       <r>    -8.3670     0.8964     0.1732 </r>
       <r>    -8.2950     1.5003     0.2812 </r>
       <r>    -8.2231     1.7194     0.4049 </r>
       <r>    -8.1511     1.4199     0.5071 </r>
       <r>    -8.0791     1.1510     0.5899 </r>
       <r>    -8.0072     1.3628     0.6880 </r>
       <r>    -7.9352     1.7182     0.8117 </r>
       <r>    -7.8632     1.5899     0.9261 </r>
       <r>    -7.7913     0.9317     0.9931 </r>
       <r>    -7.7193     0.2303     1.0097 </r>
       <r>    -7.6473    -0.1518     0.9988 </r>
       <r>    -7.5754    -0.1681     0.9867 </r>
       <r>    -7.5034     0.1892     1.0003 </r>
       <r>    -7.4314     0.9035     1.0653 </r>
       <r>    -7.3595     1.6599     1.1848 </r>
       <r>    -7.2875     2.0539     1.3326 </r>
       <r>    -7.2155     2.3145     1.4991 </r>
       <r>    -7.1436     3.1845     1.7283 </r>
       <r>    -7.0716     4.5952     2.0590 </r>
       <r>    -6.9997     5.2979     2.4403 </r>
       <r>    -6.9277     4.5330     2.7665 </r>
       <r>    -6.8557     3.1121     2.9904 </r>
       <r>    -6.7838     2.1137     3.1426 </r>
       <r>    -6.7118     1.5454     3.2538 </r>
       <r>    -6.6398     0.9314     3.3208 </r>
       <r>    -6.5679     0.2497     3.3388 </r>
       <r>    -6.4959    -0.2106     3.3236 </r>
       <r>    -6.4239    -0.2231     3.3076 </r>
       <r>    -6.3520     0.4099     3.3371 </r>
       <r>    -6.2800     1.6854     3.4584 </r>
       <r>    -6.2080     3.0327     3.6766 </r>
       <r>    -6.1361     3.7953     3.9497 </r>
       <r>    -6.0641     4.1847     4.2509 </r>
       <r>    -5.9921     4.8058     4.5967 </r>
       <r>    -5.9202     5.3529     4.9819 </r>
       <r>    -5.8482     5.1358     5.3515 </r>
       <r>    -5.7763     4.4978     5.6752 </r>
       <r>    -5.7043     4.1575     5.9744 </r>
       <r>    -5.6323     3.8666     6.2527 </r>
       <r>    -5.5604     3.1885     6.4821 </r>
       <r>    -5.4884     2.6288     6.6713 </r>
       <r>    -5.4164     2.7699     6.8706 </r>
       <r>    -5.3445     3.2857     7.1071 </r>
       <r>    -5.2725     3.6921     7.3728 </r>
       <r>    -5.2005     4.1457     7.6711 </r>
       <r>    -5.1286     4.8339     8.0190 </r>
       <r>    -5.0566     5.3816     8.4063 </r>
       <r>    -4.9846     5.4615     8.7993 </r>
       <r>    -4.9127     5.4736     9.1932 </r>
       <r>    -4.8407     6.2979     9.6465 </r>
       <r>    -4.7687     8.5305    10.2604 </r>
       <r>    -4.6968    11.6079    11.0957 </r>
       <r>    -4.6248    13.7141    12.0827 </r>
       <r>    -4.5528    13.5366    13.0568 </r>
       <r>    -4.4809    12.0615    13.9248 </r>
       <r>    -4.4089    11.6843    14.7657 </r>
       <r>    -4.3370    13.6523    15.7481 </r>
       <r>    -4.2650    16.9043    16.9647 </r>
       <r>    -4.1930    19.3789    18.3593 </r>
       <r>    -4.1211    20.2173    19.8142 </r>
       <r>    -4.0491    20.7213    21.3054 </r>
       <r>    -3.9771    23.5014    22.9967 </r>
       <r>    -3.9052    30.0766    25.1611 </r>
       <r>    -3.8332    38.4748    27.9300 </r>
       <r>    -3.7612    44.5740    31.1377 </r>
       <r>    -3.6893    46.5671    34.4889 </r>
       <r>    -3.6173    45.8680    37.7898 </r>
       <r>    -3.5453    43.6168    40.9287 </r>
       <r>    -3.4734    39.6870    43.7847 </r>
       <r>    -3.4014    35.3240    46.3268 </r>
       <r>    -3.3294    33.3658    48.7280 </r>
       <r>    -3.2575    34.8939    51.2391 </r>
       <r>    -3.1855    37.7377    53.9549 </r>
       <r>    -3.1136    39.4738    56.7956 </r>
       <r>    -3.0416    40.8679    59.7367 </r>
       <r>    -2.9696    44.6360    62.9489 </r>
       <r>    -2.8977    50.9941    66.6187 </r>
       <r>    -2.8257    56.9737    70.7188 </r>
       <r>    -2.7537    60.8242    75.0960 </r>
       <r>    -2.6818    64.1325    79.7113 </r>
       <r>    -2.6098    68.2518    84.6230 </r>
       <r>    -2.5378    71.1958    89.7466 </r>
       <r>    -2.4659    69.9019    94.7771 </r>
       <r>    -2.3939    64.7323    99.4355 </r>
       <r>    -2.3219    60.1368   103.7632 </r>
       <r>    -2.2500    60.0507   108.0848 </r>
       <r>    -2.1780    63.8798   112.6819 </r>
       <r>    -2.1060    68.2489   117.5934 </r>
       <r>    -2.0341    71.1750   122.7155 </r>
       <r>    -1.9621    73.1245   127.9779 </r>
       <r>    -1.8902    75.1836   133.3885 </r>
       <r>    -1.8182    77.3963   138.9583 </r>
       <r>    -1.7462    78.7359   144.6245 </r>
       <r>    -1.6743    78.6427   150.2840 </r>
       <r>    -1.6023    78.6137   155.9414 </r>
       <r>    -1.5303    81.6473   161.8171 </r>
       <r>    -1.4584    89.2090   168.2371 </r>
       <r>    -1.3864    98.8723   175.3524 </r>
       <r>    -1.3144   105.6462   182.9552 </r>
       <r>    -1.2425   104.8725   190.5023 </r>
       <r>    -1.1705    94.1718   197.2794 </r>
       <r>    -1.0985    75.2764   202.6966 </r>
       <r>    -1.0266    54.0074   206.5833 </r>
       <r>    -0.9546    36.2241   209.1901 </r>
       <r>    -0.8826    24.0310   210.9195 </r>
       <r>    -0.8107    16.3814   212.0984 </r>
       <r>    -0.7387    11.4499   212.9224 </r>
       <r>    -0.6667     7.9522   213.4947 </r>
       <r>    -0.5948     5.7075   213.9054 </r>
       <r>    -0.5228     4.9293   214.2601 </r>
       <r>    -0.4509     4.7665   214.6032 </r>
       <r>    -0.3789     3.8592   214.8809 </r>
       <r>    -0.3069     2.3939   215.0532 </r>
       <r>    -0.2350     2.1649   215.2090 </r>
       <r>    -0.1630     4.3449   215.5216 </r>
       <r>    -0.0910     7.8769   216.0885 </r>
       <r>    -0.0191    10.2994   216.8297 </r>
       <r>     0.0529    10.1344   217.5590 </r>
       <r>     0.1249     8.3028   218.1565 </r>
       <r>     0.1968     7.1440   218.6706 </r>
       <r>     0.2688     8.2070   219.2613 </r>
       <r>     0.3408    10.6759   220.0295 </r>
       <r>     0.4127    11.8632   220.8833 </r>
       <r>     0.4847     9.8691   221.5935 </r>
       <r>     0.5567     5.6189   221.9979 </r>
       <r>     0.6286     1.8077   222.1280 </r>
       <r>     0.7006     0.4722   222.1620 </r>
       <r>     0.7725     1.8777   222.2971 </r>
       <r>     0.8445     4.6577   222.6323 </r>
       <r>     0.9165     6.5781   223.1057 </r>
       <r>     0.9884     6.1873   223.5509 </r>
       <r>     1.0604     4.1340   223.8484 </r>
       <r>     1.1324     2.2265   224.0087 </r>
       <r>     1.2043     1.4548   224.1134 </r>
       <r>     1.2763     1.8209   224.2444 </r>
       <r>     1.3483     3.5337   224.4987 </r>
       <r>     1.4202     6.9303   224.9975 </r>
       <r>     1.4922    11.2109   225.8042 </r>
       <r>     1.5642    14.5423   226.8508 </r>
       <r>     1.6361    15.7398   227.9835 </r>
       <r>     1.7081    14.8194   229.0500 </r>
       <r>     1.7801    11.9956   229.9132 </r>
       <r>     1.8520     7.6756   230.4656 </r>
       <r>     1.9240     3.3251   230.7049 </r>
       <r>     1.9959     0.7184   230.7566 </r>
       <r>     2.0679     0.2577   230.7751 </r>
       <r>     2.1399     0.9925   230.8466 </r>
       <r>     2.2118     2.1760   231.0031 </r>
       <r>     2.2838     3.9330   231.2862 </r>
       <r>     2.3558     6.0899   231.7244 </r>
       <r>     2.4277     7.3016   232.2499 </r>
       <r>     2.4997     6.4932   232.7172 </r>
       <r>     2.5717     4.6538   233.0521 </r>
       <r>     2.6436     3.9178   233.3340 </r>
       <r>     2.7156     5.0529   233.6977 </r>
       <r>     2.7876     6.8094   234.1877 </r>
       <r>     2.8595     7.5355   234.7300 </r>
       <r>     2.9315     6.6362   235.2076 </r>
       <r>     3.0035     4.6965   235.5456 </r>
       <r>     3.0754     2.9682   235.7592 </r>
       <r>     3.1474     2.5722   235.9443 </r>
       <r>     3.2194     3.5143   236.1972 </r>
       <r>     3.2913     4.5542   236.5249 </r>
       <r>     3.3633     4.4997   236.8487 </r>
       <r>     3.4352     3.4571   237.0975 </r>
       <r>     3.5072     2.5098   237.2781 </r>
       <r>     3.5792     2.7798   237.4782 </r>
       <r>     3.6511     5.1170   237.8464 </r>
       <r>     3.7231     9.2555   238.5125 </r>
       <r>     3.7951    12.6219   239.4208 </r>
       <r>     3.8670    12.0900   240.2909 </r>
       <r>     3.9390     7.9260   240.8613 </r>
       <r>     4.0110     4.1007   241.1564 </r>
       <r>     4.0829     4.0079   241.4448 </r>
       <r>     4.1549     7.1825   241.9617 </r>
       <r>     4.2269    10.4658   242.7149 </r>
       <r>     4.2988    11.4602   243.5396 </r>
       <r>     4.3708    10.2966   244.2806 </r>
       <r>     4.4428     8.3503   244.8815 </r>
       <r>     4.5147     6.4348   245.3446 </r>
       <r>     4.5867     5.0188   245.7058 </r>
       <r>     4.6586     5.0052   246.0660 </r>
       <r>     4.7306     6.7698   246.5532 </r>
       <r>     4.8026     9.0171   247.2021 </r>
       <r>     4.8745     9.7675   247.9050 </r>
       <r>     4.9465     8.2359   248.4977 </r>
       <r>     5.0185     5.3131   248.8801 </r>
       <r>     5.0904     2.5979   249.0670 </r>
       <r>     5.1624     1.2172   249.1546 </r>
       <r>     5.2344     1.3751   249.2536 </r>
       <r>     5.3063     2.8110   249.4559 </r>
       <r>     5.3783     5.2608   249.8344 </r>
       <r>     5.4503     8.1168   250.4186 </r>
       <r>     5.5222    10.3278   251.1618 </r>
       <r>     5.5942    11.4261   251.9841 </r>
       <r>     5.6662    11.8846   252.8393 </r>
       <r>     5.7381    11.8543   253.6924 </r>
       <r>     5.8101    10.6684   254.4602 </r>
       <r>     5.8820     8.0323   255.0382 </r>
       <r>     5.9540     4.8860   255.3899 </r>
       <r>     6.0260     3.1415   255.6159 </r>
       <r>     6.0979     4.5751   255.9452 </r>
       <r>     6.1699     8.9126   256.5866 </r>
       <r>     6.2419    13.1129   257.5302 </r>
       <r>     6.3138    14.2097   258.5528 </r>
       <r>     6.3858    12.8677   259.4789 </r>
       <r>     6.4578    12.1127   260.3506 </r>
       <r>     6.5297    12.7673   261.2693 </r>
       <r>     6.6017    12.8058   262.1909 </r>
       <r>     6.6737    11.0666   262.9873 </r>
       <r>     6.7456     8.8417   263.6236 </r>
       <r>     6.8176     7.7051   264.1781 </r>
       <r>     6.8896     7.7914   264.7388 </r>
       <r>     6.9615     8.2971   265.3359 </r>
       <r>     7.0335     8.3872   265.9395 </r>
       <r>     7.1055     7.4328   266.4744 </r>
       <r>     7.1774     5.3240   266.8575 </r>
       <r>     7.2494     3.2555   267.0918 </r>
       <r>     7.3213     3.4704   267.3416 </r>
       <r>     7.3933     6.9555   267.8421 </r>
       <r>     7.4653    11.7410   268.6870 </r>
       <r>     7.5372    14.8194   269.7535 </r>
       <r>     7.6092    15.3437   270.8577 </r>
       <r>     7.6812    14.5590   271.9055 </r>
       <r>     7.7531    13.4536   272.8737 </r>
       <r>     7.8251    12.0575   273.7414 </r>
       <r>     7.8971    10.2621   274.4799 </r>
       <r>     7.9690     8.3552   275.0812 </r>
       <r>     8.0410     7.1650   275.5968 </r>
       <r>     8.1130     7.5083   276.1371 </r>
       <r>     8.1849     9.1818   276.7979 </r>
       <r>     8.2569    10.9902   277.5888 </r>
       <r>     8.3289    11.8682   278.4429 </r>
       <r>     8.4008    11.8158   279.2932 </r>
       <r>     8.4728    11.7874   280.1415 </r>
       <r>     8.5447    12.3165   281.0278 </r>
       <r>     8.6167    12.3446   281.9162 </r>
       <r>     8.6887    10.4506   282.6683 </r>
       <r>     8.7606     7.0387   283.1748 </r>
       <r>     8.8326     3.9926   283.4622 </r>
       <r>     8.9046     2.4594   283.6392 </r>
       <r>     8.9765     2.0245   283.7848 </r>
       <r>     9.0485     1.7169   283.9084 </r>
       <r>     9.1205     1.0986   283.9875 </r>
       <r>     9.1924     0.4072   284.0168 </r>
       <r>     9.2644    -0.0087   284.0161 </r>
       <r>     9.3364    -0.1119   284.0081 </r>
       <r>     9.4083    -0.0743   284.0027 </r>
       <r>     9.4803    -0.0287   284.0007 </r>
       <r>     9.5523    -0.0076   284.0001 </r>
       <r>     9.6242    -0.0014   284.0000 </r>
       <r>     9.6962    -0.0002   284.0000 </r>
       <r>     9.7681    -0.0000   284.0000 </r>
       <r>     9.8401    -0.0000   284.0000 </r>
       <r>     9.9121    -0.0000   284.0000 </r>
       <r>     9.9840    -0.0000   284.0000 </r>
       <r>    10.0560    -0.0000   284.0000 </r>
       <r>    10.1280    -0.0000   284.0000 </r>
       <r>    10.1999    -0.0000   284.0000 </r>
       <r>    10.2719    -0.0000   284.0000 </r>
       <r>    10.3439     0.0000   284.0000 </r>
       <r>    10.4158     0.0000   284.0000 </r>
       <r>    10.4878     0.0000   284.0000 </r>
       <r>    10.5598     0.0000   284.0000 </r>
       <r>    10.6317     0.0000   284.0000 </r>
       <r>    10.7037     0.0000   284.0000 </r>
       <r>    10.7757     0.0000   284.0000 </r>
       <r>    10.8476     0.0000   284.0000 </r>
       <r>    10.9196     0.0000   284.0000 </r>
       <r>    10.9916     0.0000   284.0000 </r>
      </set>
     </set>
    </array>
   </total>
  </dos>
 </calculation>
 <structure name="finalpos" >
  <crystal>
   <varray name="basis" >
    <v>       7.26000023       0.00000000       0.00000000 </v>
    <v>       0.00000000       7.26000023       0.00000000 </v>
    <v>       0.00000000       0.00000000      22.26000000 </v>
   </varray>
   <i name="volume">   1173.27124998 </i>
   <varray name="rec_basis" >
    <v>       0.13774104       0.00000000       0.00000000 </v>
    <v>       0.00000000       0.13774104       0.00000000 </v>
    <v>       0.00000000       0.00000000       0.04492363 </v>
   </varray>
  </crystal>
  <varray name="positions" >
   <v>       0.00000000       0.00000000       0.00000000 </v>
   <v>       0.00000000       0.50000000       0.00000000 </v>
   <v>       0.50000000       0.00000000       0.00000000 </v>
   <v>       0.50000000       0.50000000       0.00000000 </v>
   <v>       0.25000000       0.25000000       0.00000000 </v>
   <v>       0.25000000       0.75000000       0.00000000 </v>
   <v>       0.75000000       0.25000000       0.00000000 </v>
   <v>       0.75000000       0.75000000       0.00000000 </v>
   <v>       0.00000000       0.25000000       0.08153639 </v>
   <v>       0.00000000       0.75000000       0.08153639 </v>
   <v>       0.50000000       0.25000000       0.08153639 </v>
   <v>       0.50000000       0.75000000       0.08153639 </v>
   <v>       0.25000000       0.00000000       0.08153639 </v>
   <v>       0.25000000       0.50000000       0.08153639 </v>
   <v>       0.75000000       0.00000000       0.08153639 </v>
   <v>       0.75000000       0.50000000       0.08153639 </v>
   <v>      -0.00000000       0.00000000       0.16143283 </v>
   <v>      -0.00000000       0.50000000       0.16143283 </v>
   <v>       0.50000000       0.00000000       0.16143283 </v>
   <v>       0.50000000       0.50000000       0.16143283 </v>
   <v>       0.25000000       0.25000000       0.16143283 </v>
   <v>       0.25000000       0.75000000       0.16143283 </v>
   <v>       0.75000000       0.25000000       0.16143283 </v>
   <v>       0.75000000       0.75000000       0.16143283 </v>
   <v>      -0.00000000       0.25000000       0.24154376 </v>
   <v>       0.00000000       0.75000000       0.24154376 </v>
   <v>       0.50000000       0.25000000       0.24154376 </v>
   <v>       0.50000000       0.75000000       0.24154376 </v>
   <v>       0.25000000      -0.00000000       0.24154376 </v>
   <v>       0.25000000       0.50000000       0.24154376 </v>
   <v>       0.75000000       0.00000000       0.24154376 </v>
   <v>       0.75000000       0.50000000       0.24154376 </v>
   <v>      -0.00000000       0.00000000       0.31975879 </v>
   <v>       0.00000000       0.50000000       0.31975879 </v>
   <v>       0.50000000       0.00000000       0.31975879 </v>
   <v>       0.50000000       0.50000000       0.31975879 </v>
   <v>       0.25000000       0.25000000       0.31975879 </v>
   <v>       0.25000000       0.75000000       0.31975879 </v>
   <v>       0.75000000       0.25000000       0.31975879 </v>
   <v>       0.75000000       0.75000000       0.31975879 </v>
  </varray>
  <varray name="selective"  type="logical" >
   <v type="logical" >  F  F  F </v>
   <v type="logical" >  F  F  F </v>
   <v type="logical" >  F  F  F </v>
   <v type="logical" >  F  F  F </v>
   <v type="logical" >  F  F  F </v>
   <v type="logical" >  F  F  F </v>
   <v type="logical" >  F  F  F </v>
   <v type="logical" >  F  F  F </v>
   <v type="logical" >  F  F  F </v>
   <v type="logical" >  F  F  F </v>
   <v type="logical" >  F  F  F </v>
   <v type="logical" >  F  F  F </v>
   <v type="logical" >  F  F  F </v>
   <v type="logical" >  F  F  F </v>
   <v type="logical" >  F  F  F </v>
   <v type="logical" >  F  F  F </v>
   <v type="logical" >  T  T  T </v>
   <v type="logical" >  T  T  T </v>
   <v type="logical" >  T  T  T </v>
   <v type="logical" >  T  T  T </v>
   <v type="logical" >  T  T  T </v>
   <v type="logical" >  T  T  T </v>
   <v type="logical" >  T  T  T </v>
   <v type="logical" >  T  T  T </v>
   <v type="logical" >  T  T  T </v>
   <v type="logical" >  T  T  T </v>
   <v type="logical" >  T  T  T </v>
   <v type="logical" >  T  T  T </v>
   <v type="logical" >  T  T  T </v>
   <v type="logical" >  T  T  T </v>
   <v type="logical" >  T  T  T </v>
   <v type="logical" >  T  T  T </v>
   <v type="logical" >  T  T  T </v>
   <v type="logical" >  T  T  T </v>
   <v type="logical" >  T  T  T </v>
   <v type="logical" >  T  T  T </v>
   <v type="logical" >  T  T  T </v>
   <v type="logical" >  T  T  T </v>
   <v type="logical" >  T  T  T </v>
   <v type="logical" >  T  T  T </v>
  </varray>
  <nose>
   <v>      -3.00000000       0.00000000       0.00010000       0.00010000 </v>
  </nose>
 </structure>
</modeling>
