  34  34   0   0
  0.1991679E+02  0.5133596E-09  0.5133596E-09  0.2967047E-08  0.5000000E-15
  1.000000000000000E-004
  CAR 
 unknown system                          
     14.83568880     -9.11619236  301      2.17411272      1.00000000
     -9.116  0.0000E+00  0.0000E+00  0.0000E+00  0.0000E+00
     -9.036  0.0000E+00  0.0000E+00  0.0000E+00  0.0000E+00
     -8.957  0.0000E+00  0.0000E+00  0.0000E+00  0.0000E+00
     -8.877  0.0000E+00  0.0000E+00  0.0000E+00  0.0000E+00
     -8.797  0.0000E+00  0.0000E+00  0.0000E+00  0.0000E+00
     -8.717 -0.5908E-30 -0.5908E-30 -0.4717E-31 -0.4717E-31
     -8.637 -0.2847E-27 -0.2847E-27 -0.2278E-28 -0.2278E-28
     -8.557 -0.9962E-25 -0.9962E-25 -0.7976E-26 -0.7976E-26
     -8.477 -0.2526E-22 -0.2526E-22 -0.2024E-23 -0.2024E-23
     -8.398 -0.4638E-20 -0.4638E-20 -0.3723E-21 -0.3723E-21
     -8.318 -0.6164E-18 -0.6164E-18 -0.4959E-19 -0.4959E-19
     -8.238 -0.5743E-16 -0.5743E-16 -0.4634E-17 -0.4634E-17
     -8.158 -0.3967E-14 -0.3967E-14 -0.3214E-15 -0.3214E-15
     -8.078 -0.1976E-12 -0.1976E-12 -0.1610E-13 -0.1610E-13
     -7.998 -0.7079E-11 -0.7079E-11 -0.5813E-12 -0.5813E-12
     -7.919 -0.1818E-09 -0.1818E-09 -0.1509E-10 -0.1509E-10
     -7.839 -0.3332E-08 -0.3332E-08 -0.2811E-09 -0.2811E-09
     -7.759 -0.4330E-07 -0.4330E-07 -0.3738E-08 -0.3738E-08
     -7.679 -0.3947E-06 -0.3947E-06 -0.3525E-07 -0.3525E-07
     -7.599 -0.2476E-05 -0.2476E-05 -0.2329E-06 -0.2329E-06
     -7.519 -0.1028E-04 -0.1028E-04 -0.1054E-05 -0.1054E-05
     -7.440 -0.2558E-04 -0.2558E-04 -0.3096E-05 -0.3096E-05
     -7.360 -0.2294E-04 -0.2294E-04 -0.4928E-05 -0.4928E-05
     -7.280  0.7062E-04  0.7062E-04  0.7106E-06  0.7106E-06
     -7.200  0.2967E-03  0.2967E-03  0.2440E-04  0.2440E-04
     -7.120  0.5211E-03  0.5211E-03  0.6600E-04  0.6600E-04
     -7.040  0.5198E-03  0.5198E-03  0.1075E-03  0.1075E-03
     -6.961  0.3042E-03  0.3042E-03  0.1318E-03  0.1318E-03
     -6.881  0.1630E-03  0.1630E-03  0.1448E-03  0.1448E-03
     -6.801  0.2837E-03  0.2837E-03  0.1675E-03  0.1675E-03
     -6.721  0.4906E-03  0.4906E-03  0.2066E-03  0.2066E-03
     -6.641  0.4609E-03  0.4609E-03  0.2434E-03  0.2434E-03
     -6.561  0.1520E-03  0.1520E-03  0.2556E-03  0.2556E-03
     -6.481 -0.4178E-04 -0.4178E-04  0.2522E-03  0.2522E-03
     -6.402  0.4822E-03  0.4822E-03  0.2907E-03  0.2907E-03
     -6.322  0.1892E-02  0.1892E-02  0.4418E-03  0.4418E-03
     -6.242  0.3263E-02  0.3263E-02  0.7023E-03  0.7023E-03
     -6.162  0.3331E-02  0.3331E-02  0.9683E-03  0.9683E-03
     -6.082  0.2295E-02  0.2295E-02  0.1152E-02  0.1152E-02
     -6.002  0.1752E-02  0.1752E-02  0.1291E-02  0.1291E-02
     -5.923  0.2481E-02  0.2481E-02  0.1489E-02  0.1489E-02
     -5.843  0.3323E-02  0.3323E-02  0.1755E-02  0.1755E-02
     -5.763  0.2856E-02  0.2856E-02  0.1983E-02  0.1983E-02
     -5.683  0.1347E-02  0.1347E-02  0.2090E-02  0.2090E-02
     -5.603  0.6654E-04  0.6654E-04  0.2096E-02  0.2096E-02
     -5.523 -0.3752E-03 -0.3752E-03  0.2066E-02  0.2066E-02
     -5.444  0.8068E-04  0.8068E-04  0.2072E-02  0.2072E-02
     -5.364  0.1524E-02  0.1524E-02  0.2194E-02  0.2194E-02
     -5.284  0.3343E-02  0.3343E-02  0.2461E-02  0.2461E-02
     -5.204  0.3988E-02  0.3988E-02  0.2779E-02  0.2779E-02
     -5.124  0.2790E-02  0.2790E-02  0.3002E-02  0.3002E-02
     -5.044  0.9434E-03  0.9434E-03  0.3077E-02  0.3077E-02
     -4.965 -0.1919E-03 -0.1919E-03  0.3062E-02  0.3062E-02
     -4.885 -0.3526E-03 -0.3526E-03  0.3034E-02  0.3034E-02
     -4.805  0.3463E-03  0.3463E-03  0.3061E-02  0.3061E-02
     -4.725  0.1791E-02  0.1791E-02  0.3204E-02  0.3204E-02
     -4.645  0.3365E-02  0.3365E-02  0.3473E-02  0.3473E-02
     -4.565  0.4448E-02  0.4448E-02  0.3828E-02  0.3828E-02
     -4.485  0.5271E-02  0.5271E-02  0.4249E-02  0.4249E-02
     -4.406  0.6000E-02  0.6000E-02  0.4728E-02  0.4728E-02
     -4.326  0.5796E-02  0.5796E-02  0.5191E-02  0.5191E-02
     -4.246  0.4187E-02  0.4187E-02  0.5525E-02  0.5525E-02
     -4.166  0.2435E-02  0.2435E-02  0.5719E-02  0.5719E-02
     -4.086  0.2125E-02  0.2125E-02  0.5889E-02  0.5889E-02
     -4.006  0.3173E-02  0.3173E-02  0.6142E-02  0.6142E-02
     -3.927  0.4713E-02  0.4713E-02  0.6519E-02  0.6519E-02
     -3.847  0.6592E-02  0.6592E-02  0.7045E-02  0.7045E-02
     -3.767  0.8363E-02  0.8363E-02  0.7713E-02  0.7713E-02
     -3.687  0.8815E-02  0.8815E-02  0.8416E-02  0.8416E-02
     -3.607  0.7903E-02  0.7903E-02  0.9047E-02  0.9047E-02
     -3.527  0.7158E-02  0.7158E-02  0.9619E-02  0.9619E-02
     -3.448  0.7269E-02  0.7269E-02  0.1020E-01  0.1020E-01
     -3.368  0.7174E-02  0.7174E-02  0.1077E-01  0.1077E-01
     -3.288  0.6108E-02  0.6108E-02  0.1126E-01  0.1126E-01
     -3.208  0.4630E-02  0.4630E-02  0.1163E-01  0.1163E-01
     -3.128  0.3638E-02  0.3638E-02  0.1192E-01  0.1192E-01
     -3.048  0.3903E-02  0.3903E-02  0.1223E-01  0.1223E-01
     -2.969  0.5601E-02  0.5601E-02  0.1268E-01  0.1268E-01
     -2.889  0.7774E-02  0.7774E-02  0.1330E-01  0.1330E-01
     -2.809  0.1000E-01  0.1000E-01  0.1410E-01  0.1410E-01
     -2.729  0.1363E-01  0.1363E-01  0.1519E-01  0.1519E-01
     -2.649  0.1946E-01  0.1946E-01  0.1674E-01  0.1674E-01
     -2.569  0.2606E-01  0.2606E-01  0.1882E-01  0.1882E-01
     -2.490  0.3120E-01  0.3120E-01  0.2131E-01  0.2131E-01
     -2.410  0.3273E-01  0.3273E-01  0.2392E-01  0.2392E-01
     -2.330  0.2972E-01  0.2972E-01  0.2630E-01  0.2630E-01
     -2.250  0.2469E-01  0.2469E-01  0.2827E-01  0.2827E-01
     -2.170  0.2249E-01  0.2249E-01  0.3006E-01  0.3006E-01
     -2.090  0.2570E-01  0.2570E-01  0.3212E-01  0.3212E-01
     -2.010  0.3304E-01  0.3304E-01  0.3475E-01  0.3475E-01
     -1.931  0.4123E-01  0.4123E-01  0.3805E-01  0.3805E-01
     -1.851  0.4677E-01  0.4677E-01  0.4178E-01  0.4178E-01
     -1.771  0.4792E-01  0.4792E-01  0.4561E-01  0.4561E-01
     -1.691  0.4538E-01  0.4538E-01  0.4923E-01  0.4923E-01
     -1.611  0.4081E-01  0.4081E-01  0.5249E-01  0.5249E-01
     -1.531  0.3670E-01  0.3670E-01  0.5542E-01  0.5542E-01
     -1.452  0.3527E-01  0.3527E-01  0.5823E-01  0.5823E-01
     -1.372  0.3700E-01  0.3700E-01  0.6119E-01  0.6119E-01
     -1.292  0.4231E-01  0.4231E-01  0.6456E-01  0.6456E-01
     -1.212  0.5093E-01  0.5093E-01  0.6863E-01  0.6863E-01
     -1.132  0.5884E-01  0.5884E-01  0.7333E-01  0.7333E-01
     -1.052  0.6168E-01  0.6168E-01  0.7825E-01  0.7825E-01
     -0.973  0.6215E-01  0.6215E-01  0.8322E-01  0.8322E-01
     -0.893  0.6693E-01  0.6693E-01  0.8856E-01  0.8856E-01
     -0.813  0.7530E-01  0.7530E-01  0.9457E-01  0.9457E-01
     -0.733  0.8003E-01  0.8003E-01  0.1010E+00  0.1010E+00
     -0.653  0.7850E-01  0.7850E-01  0.1072E+00  0.1072E+00
     -0.573  0.7440E-01  0.7440E-01  0.1132E+00  0.1132E+00
     -0.494  0.7114E-01  0.7114E-01  0.1188E+00  0.1188E+00
     -0.414  0.6928E-01  0.6928E-01  0.1244E+00  0.1244E+00
     -0.334  0.6852E-01  0.6852E-01  0.1298E+00  0.1298E+00
     -0.254  0.6777E-01  0.6777E-01  0.1353E+00  0.1353E+00
     -0.174  0.6536E-01  0.6536E-01  0.1405E+00  0.1405E+00
     -0.094  0.6239E-01  0.6239E-01  0.1455E+00  0.1455E+00
     -0.014  0.6121E-01  0.6121E-01  0.1503E+00  0.1503E+00
      0.065  0.6204E-01  0.6204E-01  0.1553E+00  0.1553E+00
      0.145  0.6679E-01  0.6679E-01  0.1606E+00  0.1606E+00
      0.225  0.7750E-01  0.7750E-01  0.1668E+00  0.1668E+00
      0.305  0.8867E-01  0.8867E-01  0.1739E+00  0.1739E+00
      0.385  0.9291E-01  0.9291E-01  0.1813E+00  0.1813E+00
      0.465  0.9220E-01  0.9220E-01  0.1887E+00  0.1887E+00
      0.544  0.9195E-01  0.9195E-01  0.1960E+00  0.1960E+00
      0.624  0.8809E-01  0.8809E-01  0.2031E+00  0.2031E+00
      0.704  0.7136E-01  0.7136E-01  0.2088E+00  0.2088E+00
      0.784  0.4281E-01  0.4281E-01  0.2122E+00  0.2122E+00
      0.864  0.1568E-01  0.1568E-01  0.2134E+00  0.2134E+00
      0.944  0.9990E-03  0.9990E-03  0.2135E+00  0.2135E+00
      1.023 -0.1617E-02 -0.1617E-02  0.2134E+00  0.2134E+00
      1.103  0.8590E-03  0.8590E-03  0.2134E+00  0.2134E+00
      1.183  0.3082E-02  0.3082E-02  0.2137E+00  0.2137E+00
      1.263  0.4050E-02  0.4050E-02  0.2140E+00  0.2140E+00
      1.343  0.4908E-02  0.4908E-02  0.2144E+00  0.2144E+00
      1.423  0.6013E-02  0.6013E-02  0.2149E+00  0.2149E+00
      1.502  0.6275E-02  0.6275E-02  0.2154E+00  0.2154E+00
      1.582  0.4774E-02  0.4774E-02  0.2158E+00  0.2158E+00
      1.662  0.2654E-02  0.2654E-02  0.2160E+00  0.2160E+00
      1.742  0.2685E-02  0.2685E-02  0.2162E+00  0.2162E+00
      1.822  0.6261E-02  0.6261E-02  0.2167E+00  0.2167E+00
      1.902  0.1143E-01  0.1143E-01  0.2176E+00  0.2176E+00
      1.982  0.1457E-01  0.1457E-01  0.2188E+00  0.2188E+00
      2.061  0.1414E-01  0.1414E-01  0.2199E+00  0.2199E+00
      2.141  0.1225E-01  0.1225E-01  0.2209E+00  0.2209E+00
      2.221  0.1130E-01  0.1130E-01  0.2218E+00  0.2218E+00
      2.301  0.1013E-01  0.1013E-01  0.2226E+00  0.2226E+00
      2.381  0.6829E-02  0.6829E-02  0.2231E+00  0.2231E+00
      2.461  0.3224E-02  0.3224E-02  0.2234E+00  0.2234E+00
      2.540  0.2521E-02  0.2521E-02  0.2236E+00  0.2236E+00
      2.620  0.4788E-02  0.4788E-02  0.2240E+00  0.2240E+00
      2.700  0.7560E-02  0.7560E-02  0.2246E+00  0.2246E+00
      2.780  0.8678E-02  0.8678E-02  0.2253E+00  0.2253E+00
      2.860  0.7541E-02  0.7541E-02  0.2259E+00  0.2259E+00
      2.940  0.5560E-02  0.5560E-02  0.2263E+00  0.2263E+00
      3.019  0.4704E-02  0.4704E-02  0.2267E+00  0.2267E+00
      3.099  0.4669E-02  0.4669E-02  0.2271E+00  0.2271E+00
      3.179  0.3909E-02  0.3909E-02  0.2274E+00  0.2274E+00
      3.259  0.2835E-02  0.2835E-02  0.2276E+00  0.2276E+00
      3.339  0.3132E-02  0.3132E-02  0.2278E+00  0.2278E+00
      3.419  0.5313E-02  0.5313E-02  0.2283E+00  0.2283E+00
      3.498  0.8586E-02  0.8586E-02  0.2290E+00  0.2290E+00
      3.578  0.1159E-01  0.1159E-01  0.2299E+00  0.2299E+00
      3.658  0.1265E-01  0.1265E-01  0.2309E+00  0.2309E+00
      3.738  0.1086E-01  0.1086E-01  0.2318E+00  0.2318E+00
      3.818  0.7338E-02  0.7338E-02  0.2323E+00  0.2323E+00
      3.898  0.4542E-02  0.4542E-02  0.2327E+00  0.2327E+00
      3.978  0.3447E-02  0.3447E-02  0.2330E+00  0.2330E+00
      4.057  0.2797E-02  0.2797E-02  0.2332E+00  0.2332E+00
      4.137  0.1562E-02  0.1562E-02  0.2333E+00  0.2333E+00
      4.217  0.2639E-03  0.2639E-03  0.2334E+00  0.2334E+00
      4.297 -0.4494E-03 -0.4494E-03  0.2333E+00  0.2333E+00
      4.377 -0.4739E-03 -0.4739E-03  0.2333E+00  0.2333E+00
      4.457  0.6189E-03  0.6189E-03  0.2333E+00  0.2333E+00
      4.536  0.3254E-02  0.3254E-02  0.2336E+00  0.2336E+00
      4.616  0.6168E-02  0.6168E-02  0.2341E+00  0.2341E+00
      4.696  0.7118E-02  0.7118E-02  0.2346E+00  0.2346E+00
      4.776  0.5942E-02  0.5942E-02  0.2351E+00  0.2351E+00
      4.856  0.4343E-02  0.4343E-02  0.2355E+00  0.2355E+00
      4.936  0.2968E-02  0.2968E-02  0.2357E+00  0.2357E+00
      5.015  0.1471E-02  0.1471E-02  0.2358E+00  0.2358E+00
      5.095  0.1265E-03  0.1265E-03  0.2358E+00  0.2358E+00
      5.175 -0.4585E-03 -0.4585E-03  0.2358E+00  0.2358E+00
      5.255  0.1602E-03  0.1602E-03  0.2358E+00  0.2358E+00
      5.335  0.2280E-02  0.2280E-02  0.2360E+00  0.2360E+00
      5.415  0.5266E-02  0.5266E-02  0.2364E+00  0.2364E+00
      5.494  0.7460E-02  0.7460E-02  0.2370E+00  0.2370E+00
      5.574  0.8215E-02  0.8215E-02  0.2377E+00  0.2377E+00
      5.654  0.8686E-02  0.8686E-02  0.2384E+00  0.2384E+00
      5.734  0.9339E-02  0.9339E-02  0.2391E+00  0.2391E+00
      5.814  0.8992E-02  0.8992E-02  0.2398E+00  0.2398E+00
      5.894  0.7272E-02  0.7272E-02  0.2404E+00  0.2404E+00
      5.973  0.5216E-02  0.5216E-02  0.2408E+00  0.2408E+00
      6.053  0.3481E-02  0.3481E-02  0.2411E+00  0.2411E+00
      6.133  0.2242E-02  0.2242E-02  0.2413E+00  0.2413E+00
      6.213  0.2326E-02  0.2326E-02  0.2415E+00  0.2415E+00
      6.293  0.4732E-02  0.4732E-02  0.2418E+00  0.2418E+00
      6.373  0.8355E-02  0.8355E-02  0.2425E+00  0.2425E+00
      6.453  0.1003E-01  0.1003E-01  0.2433E+00  0.2433E+00
      6.532  0.8578E-02  0.8578E-02  0.2440E+00  0.2440E+00
      6.612  0.6178E-02  0.6178E-02  0.2445E+00  0.2445E+00
      6.692  0.4616E-02  0.4616E-02  0.2449E+00  0.2449E+00
      6.772  0.4030E-02  0.4029E-02  0.2452E+00  0.2452E+00
      6.852  0.4678E-02  0.4678E-02  0.2455E+00  0.2455E+00
      6.932  0.6238E-02  0.6238E-02  0.2460E+00  0.2460E+00
      7.011  0.7313E-02  0.7314E-02  0.2466E+00  0.2466E+00
      7.091  0.7865E-02  0.7866E-02  0.2473E+00  0.2473E+00
      7.171  0.8971E-02  0.8972E-02  0.2480E+00  0.2480E+00
      7.251  0.1026E-01  0.1026E-01  0.2488E+00  0.2488E+00
      7.331  0.1081E-01  0.1081E-01  0.2497E+00  0.2497E+00
      7.411  0.1041E-01  0.1041E-01  0.2505E+00  0.2505E+00
      7.490  0.8544E-02  0.8544E-02  0.2512E+00  0.2512E+00
      7.570  0.5282E-02  0.5282E-02  0.2516E+00  0.2516E+00
      7.650  0.2880E-02  0.2880E-02  0.2518E+00  0.2518E+00
      7.730  0.3475E-02  0.3475E-02  0.2521E+00  0.2521E+00
      7.810  0.6484E-02  0.6484E-02  0.2526E+00  0.2526E+00
      7.890  0.9560E-02  0.9560E-02  0.2534E+00  0.2534E+00
      7.969  0.1087E-01  0.1087E-01  0.2542E+00  0.2542E+00
      8.049  0.9871E-02  0.9871E-02  0.2550E+00  0.2550E+00
      8.129  0.7289E-02  0.7290E-02  0.2556E+00  0.2556E+00
      8.209  0.5091E-02  0.5092E-02  0.2560E+00  0.2560E+00
      8.289  0.4649E-02  0.4650E-02  0.2564E+00  0.2564E+00
      8.369  0.5572E-02  0.5571E-02  0.2568E+00  0.2568E+00
      8.449  0.7597E-02  0.7596E-02  0.2574E+00  0.2574E+00
      8.528  0.1079E-01  0.1079E-01  0.2583E+00  0.2583E+00
      8.608  0.1316E-01  0.1316E-01  0.2594E+00  0.2594E+00
      8.688  0.1199E-01  0.1199E-01  0.2603E+00  0.2603E+00
      8.768  0.7822E-02  0.7822E-02  0.2609E+00  0.2609E+00
      8.848  0.4096E-02  0.4096E-02  0.2613E+00  0.2613E+00
      8.928  0.3151E-02  0.3151E-02  0.2615E+00  0.2615E+00
      9.007  0.4354E-02  0.4354E-02  0.2619E+00  0.2619E+00
      9.087  0.5563E-02  0.5564E-02  0.2623E+00  0.2623E+00
      9.167  0.5828E-02  0.5829E-02  0.2628E+00  0.2628E+00
      9.247  0.6404E-02  0.6404E-02  0.2633E+00  0.2633E+00
      9.327  0.8516E-02  0.8516E-02  0.2640E+00  0.2640E+00
      9.407  0.1097E-01  0.1097E-01  0.2648E+00  0.2648E+00
      9.486  0.1125E-01  0.1125E-01  0.2657E+00  0.2657E+00
      9.566  0.8712E-02  0.8712E-02  0.2664E+00  0.2664E+00
      9.646  0.5584E-02  0.5584E-02  0.2669E+00  0.2669E+00
      9.726  0.4391E-02  0.4392E-02  0.2672E+00  0.2672E+00
      9.806  0.5193E-02  0.5194E-02  0.2676E+00  0.2676E+00
      9.886  0.6528E-02  0.6529E-02  0.2682E+00  0.2682E+00
      9.965  0.8188E-02  0.8187E-02  0.2688E+00  0.2688E+00
     10.045  0.1058E-01  0.1058E-01  0.2697E+00  0.2697E+00
     10.125  0.1208E-01  0.1208E-01  0.2706E+00  0.2706E+00
     10.205  0.1066E-01  0.1066E-01  0.2715E+00  0.2715E+00
     10.285  0.7519E-02  0.7519E-02  0.2721E+00  0.2721E+00
     10.365  0.5446E-02  0.5447E-02  0.2725E+00  0.2725E+00
     10.445  0.5417E-02  0.5417E-02  0.2730E+00  0.2730E+00
     10.524  0.6948E-02  0.6948E-02  0.2735E+00  0.2735E+00
     10.604  0.9356E-02  0.9356E-02  0.2743E+00  0.2743E+00
     10.684  0.1137E-01  0.1137E-01  0.2752E+00  0.2752E+00
     10.764  0.1168E-01  0.1168E-01  0.2761E+00  0.2761E+00
     10.844  0.1088E-01  0.1088E-01  0.2770E+00  0.2770E+00
     10.924  0.1065E-01  0.1065E-01  0.2778E+00  0.2778E+00
     11.003  0.1065E-01  0.1065E-01  0.2787E+00  0.2787E+00
     11.083  0.9544E-02  0.9544E-02  0.2794E+00  0.2794E+00
     11.163  0.8518E-02  0.8518E-02  0.2801E+00  0.2801E+00
     11.243  0.1019E-01  0.1019E-01  0.2809E+00  0.2809E+00
     11.323  0.1421E-01  0.1421E-01  0.2821E+00  0.2821E+00
     11.403  0.1655E-01  0.1655E-01  0.2834E+00  0.2834E+00
     11.482  0.1413E-01  0.1413E-01  0.2845E+00  0.2845E+00
     11.562  0.8842E-02  0.8841E-02  0.2852E+00  0.2852E+00
     11.642  0.5320E-02  0.5319E-02  0.2856E+00  0.2856E+00
     11.722  0.5553E-02  0.5552E-02  0.2861E+00  0.2861E+00
     11.802  0.7703E-02  0.7703E-02  0.2867E+00  0.2867E+00
     11.882  0.8822E-02  0.8822E-02  0.2874E+00  0.2874E+00
     11.961  0.7368E-02  0.7368E-02  0.2880E+00  0.2880E+00
     12.041  0.4282E-02  0.4282E-02  0.2883E+00  0.2883E+00
     12.121  0.1778E-02  0.1778E-02  0.2885E+00  0.2885E+00
     12.201  0.7543E-03  0.7542E-03  0.2885E+00  0.2885E+00
     12.281  0.5828E-03  0.5827E-03  0.2886E+00  0.2886E+00
     12.361  0.9266E-03  0.9267E-03  0.2886E+00  0.2886E+00
     12.441  0.1889E-02  0.1889E-02  0.2888E+00  0.2888E+00
     12.520  0.2845E-02  0.2845E-02  0.2890E+00  0.2890E+00
     12.600  0.2865E-02  0.2865E-02  0.2893E+00  0.2893E+00
     12.680  0.2199E-02  0.2199E-02  0.2894E+00  0.2894E+00
     12.760  0.1932E-02  0.1932E-02  0.2896E+00  0.2896E+00
     12.840  0.2160E-02  0.2160E-02  0.2898E+00  0.2898E+00
     12.920  0.1958E-02  0.1958E-02  0.2899E+00  0.2899E+00
     12.999  0.1078E-02  0.1078E-02  0.2900E+00  0.2900E+00
     13.079  0.2348E-03  0.2347E-03  0.2900E+00  0.2900E+00
     13.159 -0.1009E-03 -0.1009E-03  0.2900E+00  0.2900E+00
     13.239 -0.1001E-03 -0.1001E-03  0.2900E+00  0.2900E+00
     13.319 -0.3905E-04 -0.3904E-04  0.2900E+00  0.2900E+00
     13.399 -0.9221E-05 -0.9218E-05  0.2900E+00  0.2900E+00
     13.478 -0.1446E-05 -0.1446E-05  0.2900E+00  0.2900E+00
     13.558 -0.1564E-06 -0.1563E-06  0.2900E+00  0.2900E+00
     13.638 -0.1187E-07 -0.1186E-07  0.2900E+00  0.2900E+00
     13.718 -0.6389E-09 -0.6385E-09  0.2900E+00  0.2900E+00
     13.798 -0.2456E-10 -0.2454E-10  0.2900E+00  0.2900E+00
     13.878 -0.6772E-12 -0.6767E-12  0.2900E+00  0.2900E+00
     13.957 -0.1343E-13 -0.1342E-13  0.2900E+00  0.2900E+00
     14.037 -0.1916E-15 -0.1916E-15  0.2900E+00  0.2900E+00
     14.117 -0.2318E-17 -0.2318E-17  0.2900E+00  0.2900E+00
     14.197  0.0000E+00  0.0000E+00  0.2900E+00  0.2900E+00
     14.277  0.0000E+00  0.0000E+00  0.2900E+00  0.2900E+00
     14.357  0.0000E+00  0.0000E+00  0.2900E+00  0.2900E+00
     14.436  0.0000E+00  0.0000E+00  0.2900E+00  0.2900E+00
     14.516  0.0000E+00  0.0000E+00  0.2900E+00  0.2900E+00
     14.596  0.0000E+00  0.0000E+00  0.2900E+00  0.2900E+00
     14.676  0.0000E+00  0.0000E+00  0.2900E+00  0.2900E+00
     14.756  0.0000E+00  0.0000E+00  0.2900E+00  0.2900E+00
     14.836  0.0000E+00  0.0000E+00  0.2900E+00  0.2900E+00
