   34   34  800    2
  0.1991679E+02  0.5133595E-09  0.5133595E-09  0.2967047E-08  0.5000000E-15
  1.000000000000000E-004
  CAR 
 unknown system                          
    354      4    232
 
  0.0000000E+00  0.0000000E+00  0.0000000E+00  0.1111111E+00
      1         -7.116192       -7.116192   1.000000   1.000000
      2         -6.718887       -6.718887   1.000000   1.000000
      3         -6.085422       -6.085422   1.000000   1.000000
      4         -5.245231       -5.245231   1.000000   1.000000
      5         -4.331298       -4.331298   1.000000   1.000000
      6         -3.657514       -3.657514   1.000000   1.000000
      7         -3.412678       -3.412678   1.000000   1.000000
      8         -3.015989       -3.015989   1.000000   1.000000
      9         -2.891742       -2.891742   1.000000   1.000000
     10         -2.888818       -2.888818   1.000000   1.000000
     11         -2.888644       -2.888644   1.000000   1.000000
     12         -2.885377       -2.885377   1.000000   1.000000
     13         -2.704531       -2.704531   1.000000   1.000000
     14         -2.704390       -2.704390   1.000000   1.000000
     15         -2.704295       -2.704295   1.000000   1.000000
     16         -2.683053       -2.683053   1.000000   1.000000
     17         -2.682922       -2.682922   1.000000   1.000000
     18         -2.682780       -2.682780   1.000000   1.000000
     19         -2.565959       -2.565959   1.000000   1.000000
     20         -2.565696       -2.565696   1.000000   1.000000
     21         -2.564291       -2.564291   1.000000   1.000000
     22         -2.425970       -2.425970   1.000000   1.000000
     23         -2.425598       -2.425598   1.000000   1.000000
     24         -2.425356       -2.425356   1.000000   1.000000
     25         -2.379453       -2.379453   1.000000   1.000000
     26         -2.379446       -2.379446   1.000000   1.000000
     27         -2.378553       -2.378553   1.000000   1.000000
     28         -2.231887       -2.231887   1.000000   1.000000
     29         -2.231293       -2.231293   1.000000   1.000000
     30         -2.231246       -2.231246   1.000000   1.000000
     31         -2.115890       -2.115890   1.000000   1.000000
     32         -2.115436       -2.115436   1.000000   1.000000
     33         -2.114733       -2.114733   1.000000   1.000000
     34         -2.113337       -2.113337   1.000000   1.000000
     35         -2.112892       -2.112892   1.000000   1.000000
     36         -2.110292       -2.110292   1.000000   1.000000
     37         -2.101838       -2.101839   1.000000   1.000000
     38         -2.101647       -2.101647   1.000000   1.000000
     39         -2.100353       -2.100353   1.000000   1.000000
     40         -1.928036       -1.928036   1.000000   1.000000
     41         -1.927255       -1.927255   1.000000   1.000000
     42         -1.927240       -1.927240   1.000000   1.000000
     43         -1.682711       -1.682711   1.000000   1.000000
     44         -1.681300       -1.681300   1.000000   1.000000
     45         -1.681086       -1.681086   1.000000   1.000000
     46         -1.368929       -1.368929   1.000000   1.000000
     47         -1.367691       -1.367691   1.000000   1.000000
     48         -1.366469       -1.366469   1.000000   1.000000
     49         -1.065007       -1.065007   1.000000   1.000000
     50         -1.064819       -1.064819   1.000000   1.000000
     51         -1.063249       -1.063249   1.000000   1.000000
     52         -0.958415       -0.958415   1.000000   1.000000
     53         -0.944094       -0.944094   1.000000   1.000000
     54         -0.924352       -0.924352   1.000000   1.000000
     55         -0.921866       -0.921866   1.000000   1.000000
     56         -0.921697       -0.921697   1.000000   1.000000
     57         -0.871175       -0.871175   1.000000   1.000000
     58         -0.870811       -0.870811   1.000000   1.000000
     59         -0.869192       -0.869192   1.000000   1.000000
     60         -0.869153       -0.869153   1.000000   1.000000
     61         -0.868798       -0.868798   1.000000   1.000000
     62         -0.865812       -0.865812   1.000000   1.000000
     63         -0.865808       -0.865808   1.000000   1.000000
     64         -0.807611       -0.807611   1.000000   1.000000
     65         -0.796883       -0.796883   1.000000   1.000000
     66         -0.796563       -0.796563   1.000000   1.000000
     67         -0.795935       -0.795935   1.000000   1.000000
     68         -0.780917       -0.780917   1.000000   1.000000
     69         -0.780203       -0.780203   1.000000   1.000000
     70         -0.777273       -0.777273   1.000000   1.000000
     71         -0.774898       -0.774898   1.000000   1.000000
     72         -0.774228       -0.774228   1.000000   1.000000
     73         -0.772284       -0.772284   1.000000   1.000000
     74         -0.771463       -0.771463   1.000000   1.000000
     75         -0.771383       -0.771383   1.000000   1.000000
     76         -0.770964       -0.770964   1.000000   1.000000
     77         -0.770381       -0.770381   1.000000   1.000000
     78         -0.769999       -0.769999   1.000000   1.000000
     79         -0.726585       -0.726585   1.000000   1.000000
     80         -0.726264       -0.726264   1.000000   1.000000
     81         -0.719324       -0.719324   1.000000   1.000000
     82         -0.685684       -0.685684   1.000000   1.000000
     83         -0.685159       -0.685159   1.000000   1.000000
     84         -0.674394       -0.674394   1.000000   1.000000
     85         -0.673942       -0.673942   1.000000   1.000000
     86         -0.672295       -0.672295   1.000000   1.000000
     87         -0.599548       -0.599548   1.000000   1.000000
     88         -0.599282       -0.599282   1.000000   1.000000
     89         -0.581798       -0.581798   1.000000   1.000000
     90         -0.581494       -0.581494   1.000000   1.000000
     91         -0.542105       -0.542105   1.000000   1.000000
     92         -0.540643       -0.540643   1.000000   1.000000
     93         -0.540263       -0.540263   1.000000   1.000000
     94         -0.458029       -0.458029   1.000000   1.000000
     95         -0.454657       -0.454657   1.000000   1.000000
     96         -0.452420       -0.452420   1.000000   1.000000
     97         -0.451762       -0.451762   1.000000   1.000000
     98         -0.249985       -0.249985   1.000000   1.000000
     99         -0.249031       -0.249031   1.000000   1.000000
    100         -0.247693       -0.247693   1.000000   1.000000
    101         -0.195053       -0.195053   1.000000   1.000000
    102         -0.194815       -0.194815   1.000000   1.000000
    103         -0.193524       -0.193524   1.000000   1.000000
    104         -0.017696       -0.017696   1.000000   1.000000
    105         -0.014029       -0.014029   1.000000   1.000000
    106         -0.010527       -0.010527   1.000000   1.000000
    107         -0.004804       -0.004804   1.000000   1.000000
    108          0.024259        0.024259   1.000000   1.000000
    109          0.024508        0.024508   1.000000   1.000000
    110          0.027768        0.027768   1.000000   1.000000
    111          0.029293        0.029293   1.000000   1.000000
    112          0.030257        0.030257   1.000000   1.000000
    113          0.035736        0.035736   1.000000   1.000000
    114          0.036505        0.036505   1.000000   1.000000
    115          0.038707        0.038707   1.000000   1.000000
    116          0.087674        0.087674   1.000000   1.000000
    117          0.087679        0.087679   1.000000   1.000000
    118          0.240220        0.240220   1.000000   1.000000
    119          0.241468        0.241468   1.000000   1.000000
    120          0.289430        0.289430   1.000000   1.000000
    121          0.289887        0.289887   1.000000   1.000000
    122          0.291686        0.291686   1.000000   1.000000
    123          0.320296        0.320296   1.000000   1.000000
    124          0.320374        0.320374   1.000000   1.000000
    125          0.321084        0.321084   1.000000   1.000000
    126          0.387825        0.387825   1.000000   1.000000
    127          0.394024        0.394024   1.000000   1.000000
    128          0.395437        0.395437   1.000000   1.000000
    129          0.484427        0.484427   1.000000   1.000000
    130          0.484898        0.484898   1.000000   1.000000
    131          0.485651        0.485651   1.000000   1.000000
    132          0.505054        0.505054   1.000000   1.000000
    133          0.507871        0.507871   1.000000   1.000000
    134          0.508576        0.508576   1.000000   1.000000
    135          0.529341        0.529341   1.000000   1.000000
    136          0.531859        0.531859   1.000000   1.000000
    137          0.557228        0.557228   1.000000   1.000000
    138          0.557473        0.557473   1.000000   1.000000
    139          0.557875        0.557875   1.000000   1.000000
    140          0.558158        0.558158   1.000000   1.000000
    141          0.558299        0.558299   1.000000   1.000000
    142          0.559327        0.559327   1.000000   1.000000
    143          0.584612        0.584612   1.000000   1.000000
    144          0.584956        0.584956   1.000000   1.000000
    145          0.585493        0.585493   1.000000   1.000000
    146          0.590741        0.590741   1.000000   1.000000
    147          0.591195        0.591195   1.000000   1.000000
    148          0.591787        0.591787   1.000000   1.000000
    149          0.610490        0.610490   1.000000   1.000000
    150          0.613371        0.613371   1.000000   1.000000
    151          0.613639        0.613639   1.000000   1.000000
    152          0.613800        0.613800   1.000000   1.000000
    153          0.615594        0.615594   1.000000   1.000000
    154          0.657395        0.657395   1.000000   1.000000
    155          0.657911        0.657911   1.000000   1.000000
    156          0.658544        0.658544   1.000000   1.000000
    157          0.665314        0.665314   1.000000   1.000000
    158          0.666431        0.666431   1.000000   1.000000
    159          0.667568        0.667568   1.000000   1.000000
    160          0.683599        0.683599   1.000000   1.000000
    161          0.684414        0.684414   1.000000   1.000000
    162          0.686929        0.686929   1.000000   1.000000
    163          0.707648        0.707648   1.000000   1.000000
    164          0.708135        0.708135   1.000000   1.000000
    165          0.709714        0.709714   1.000000   1.000000
    166          0.747440        0.747440   1.000000   1.000000
    167          0.747629        0.747629   1.000000   1.000000
    168          0.748467        0.748467   1.000000   1.000000
    169          1.481563        1.481563   1.000006   1.000006
    170          1.490411        1.490411   1.000007   1.000007
    171          1.490901        1.490901   1.000008   1.000008
    172          1.642537        1.642537   1.000556   1.000556
    173          1.983436        1.983436   1.019589   1.019589
    174          2.112006        2.112006   0.749273   0.749273
    175          2.115166        2.115166   0.737820   0.737820
    176          2.116211        2.116211   0.733990   0.733990
    177          2.652921        2.652921  -0.001835  -0.001835
    178          2.653287        2.653287  -0.001821  -0.001821
    179          2.655677        2.655677  -0.001731  -0.001731
    180          3.041329        3.041329  -0.000000  -0.000000
    181          3.041622        3.041622  -0.000000  -0.000000
    182          3.046060        3.046060  -0.000000  -0.000000
    183          3.300819        3.300819  -0.000000  -0.000000
    184          3.301159        3.301159  -0.000000  -0.000000
    185          3.308590        3.308590  -0.000000  -0.000000
    186          3.494122        3.494122  -0.000000  -0.000000
    187          3.494354        3.494354  -0.000000  -0.000000
    188          3.504224        3.504224  -0.000000  -0.000000
    189          3.652674        3.652674  -0.000000  -0.000000
    190          3.653596        3.653596  -0.000000  -0.000000
    191          3.662859        3.662859  -0.000000  -0.000000
    192          3.734500        3.734500  -0.000000  -0.000000
    193          3.734925        3.734925  -0.000000  -0.000000
    194          3.759554        3.759554  -0.000000  -0.000000
    195          6.118080        6.118080  -0.000000  -0.000000
    196          6.129319        6.129318  -0.000000  -0.000000
    197          6.139941        6.139941  -0.000000  -0.000000
    198          6.340653        6.340626  -0.000000  -0.000000
    199          6.539990        6.539989  -0.000000  -0.000000
    200          6.543921        6.543904  -0.000000  -0.000000
    201          6.561582        6.561582  -0.000000  -0.000000
    202          6.648094        6.648089  -0.000000  -0.000000
    203          7.092937        7.092937  -0.000000  -0.000000
    204          7.119223        7.119223  -0.000000  -0.000000
    205          7.139883        7.139874  -0.000000  -0.000000
    206          7.387036        7.387022  -0.000000  -0.000000
    207          7.648637        7.648613   0.000000   0.000000
    208          7.704545        7.704542   0.000000   0.000000
    209          7.713517        7.713517   0.000000   0.000000
    210          7.956462        7.956415   0.000000   0.000000
    211          8.450254        8.450254   0.000000   0.000000
    212          8.463413        8.463412   0.000000   0.000000
    213          8.490099        8.490097   0.000000   0.000000
    214          8.806676        8.806648   0.000000   0.000000
    215          9.334086        9.334063   0.000000   0.000000
    216          9.405290        9.405290   0.000000   0.000000
    217          9.446776        9.446775   0.000000   0.000000
    218          9.513035        9.513024   0.000000   0.000000
    219         10.073118       10.073115   0.000000   0.000000
    220         10.107048       10.107048   0.000000   0.000000
    221         10.126062       10.126062   0.000000   0.000000
    222         10.275528       10.275520   0.000000   0.000000
    223         10.571703       10.571703   0.000000   0.000000
    224         10.715624       10.715624   0.000000   0.000000
    225         10.847813       10.847804   0.000000   0.000000
    226         11.197753       11.197746   0.000000   0.000000
    227         11.275947       11.275947   0.000000   0.000000
    228         11.345430       11.345417   0.000000   0.000000
    229         11.422506       11.422498   0.000000   0.000000
    230         11.514617       11.514617   0.000000   0.000000
    231         11.705460       11.705440   0.000000   0.000000
    232         11.924235       11.924235   0.000000   0.000000
 
  0.3333333E+00  0.5551115E-16  0.0000000E+00  0.4444444E+00
      1         -6.246186       -6.246186   1.000000   1.000000
      2         -5.864730       -5.864730   1.000000   1.000000
      3         -5.259105       -5.259105   1.000000   1.000000
      4         -4.464582       -4.464582   1.000000   1.000000
      5         -4.022489       -4.022489   1.000000   1.000000
      6         -3.764475       -3.764475   1.000000   1.000000
      7         -3.675710       -3.675710   1.000000   1.000000
      8         -3.477720       -3.477720   1.000000   1.000000
      9         -3.377798       -3.377798   1.000000   1.000000
     10         -2.965873       -2.965873   1.000000   1.000000
     11         -2.848494       -2.848494   1.000000   1.000000
     12         -2.694475       -2.694475   1.000000   1.000000
     13         -2.691953       -2.691953   1.000000   1.000000
     14         -2.593858       -2.593858   1.000000   1.000000
     15         -2.543959       -2.543959   1.000000   1.000000
     16         -2.542859       -2.542859   1.000000   1.000000
     17         -2.479629       -2.479629   1.000000   1.000000
     18         -2.443945       -2.443945   1.000000   1.000000
     19         -2.440882       -2.440882   1.000000   1.000000
     20         -2.401596       -2.401596   1.000000   1.000000
     21         -2.394338       -2.394338   1.000000   1.000000
     22         -2.393034       -2.393034   1.000000   1.000000
     23         -2.278986       -2.278986   1.000000   1.000000
     24         -2.277657       -2.277657   1.000000   1.000000
     25         -2.276743       -2.276743   1.000000   1.000000
     26         -2.111376       -2.111376   1.000000   1.000000
     27         -2.110707       -2.110707   1.000000   1.000000
     28         -2.005547       -2.005547   1.000000   1.000000
     29         -2.002830       -2.002830   1.000000   1.000000
     30         -2.002128       -2.002128   1.000000   1.000000
     31         -1.999158       -1.999158   1.000000   1.000000
     32         -1.902506       -1.902506   1.000000   1.000000
     33         -1.901244       -1.901244   1.000000   1.000000
     34         -1.878051       -1.878051   1.000000   1.000000
     35         -1.877534       -1.877534   1.000000   1.000000
     36         -1.873527       -1.873527   1.000000   1.000000
     37         -1.842999       -1.842999   1.000000   1.000000
     38         -1.714081       -1.714081   1.000000   1.000000
     39         -1.712973       -1.712973   1.000000   1.000000
     40         -1.688619       -1.688619   1.000000   1.000000
     41         -1.683472       -1.683472   1.000000   1.000000
     42         -1.681740       -1.681740   1.000000   1.000000
     43         -1.518221       -1.518221   1.000000   1.000000
     44         -1.516358       -1.516358   1.000000   1.000000
     45         -1.511842       -1.511842   1.000000   1.000000
     46         -1.450283       -1.450283   1.000000   1.000000
     47         -1.448175       -1.448175   1.000000   1.000000
     48         -1.395418       -1.395418   1.000000   1.000000
     49         -1.329333       -1.329333   1.000000   1.000000
     50         -1.293275       -1.293275   1.000000   1.000000
     51         -1.291052       -1.291052   1.000000   1.000000
     52         -1.270306       -1.270306   1.000000   1.000000
     53         -1.238303       -1.238303   1.000000   1.000000
     54         -1.180696       -1.180696   1.000000   1.000000
     55         -1.180253       -1.180253   1.000000   1.000000
     56         -1.178707       -1.178707   1.000000   1.000000
     57         -1.151695       -1.151695   1.000000   1.000000
     58         -1.149663       -1.149663   1.000000   1.000000
     59         -1.117080       -1.117080   1.000000   1.000000
     60         -1.115637       -1.115637   1.000000   1.000000
     61         -1.095582       -1.095582   1.000000   1.000000
     62         -1.093727       -1.093727   1.000000   1.000000
     63         -1.083151       -1.083151   1.000000   1.000000
     64         -1.081263       -1.081263   1.000000   1.000000
     65         -1.032967       -1.032967   1.000000   1.000000
     66         -0.988741       -0.988741   1.000000   1.000000
     67         -0.985910       -0.985910   1.000000   1.000000
     68         -0.917435       -0.917435   1.000000   1.000000
     69         -0.883189       -0.883189   1.000000   1.000000
     70         -0.870568       -0.870568   1.000000   1.000000
     71         -0.848864       -0.848864   1.000000   1.000000
     72         -0.845647       -0.845647   1.000000   1.000000
     73         -0.833589       -0.833589   1.000000   1.000000
     74         -0.817690       -0.817690   1.000000   1.000000
     75         -0.806013       -0.806013   1.000000   1.000000
     76         -0.804812       -0.804812   1.000000   1.000000
     77         -0.767838       -0.767838   1.000000   1.000000
     78         -0.752129       -0.752129   1.000000   1.000000
     79         -0.713129       -0.713129   1.000000   1.000000
     80         -0.690702       -0.690702   1.000000   1.000000
     81         -0.685588       -0.685588   1.000000   1.000000
     82         -0.684134       -0.684134   1.000000   1.000000
     83         -0.660000       -0.660000   1.000000   1.000000
     84         -0.658885       -0.658885   1.000000   1.000000
     85         -0.653148       -0.653148   1.000000   1.000000
     86         -0.636634       -0.636634   1.000000   1.000000
     87         -0.636459       -0.636459   1.000000   1.000000
     88         -0.587470       -0.587470   1.000000   1.000000
     89         -0.586251       -0.586251   1.000000   1.000000
     90         -0.579664       -0.579664   1.000000   1.000000
     91         -0.577724       -0.577724   1.000000   1.000000
     92         -0.557293       -0.557293   1.000000   1.000000
     93         -0.518457       -0.518457   1.000000   1.000000
     94         -0.484307       -0.484307   1.000000   1.000000
     95         -0.475225       -0.475225   1.000000   1.000000
     96         -0.463132       -0.463132   1.000000   1.000000
     97         -0.461377       -0.461377   1.000000   1.000000
     98         -0.460480       -0.460480   1.000000   1.000000
     99         -0.458736       -0.458736   1.000000   1.000000
    100         -0.447163       -0.447163   1.000000   1.000000
    101         -0.437898       -0.437898   1.000000   1.000000
    102         -0.433904       -0.433904   1.000000   1.000000
    103         -0.357806       -0.357806   1.000000   1.000000
    104         -0.345291       -0.345291   1.000000   1.000000
    105         -0.343754       -0.343754   1.000000   1.000000
    106         -0.312826       -0.312826   1.000000   1.000000
    107         -0.287545       -0.287545   1.000000   1.000000
    108         -0.276009       -0.276009   1.000000   1.000000
    109         -0.264268       -0.264268   1.000000   1.000000
    110         -0.261446       -0.261446   1.000000   1.000000
    111         -0.250665       -0.250665   1.000000   1.000000
    112         -0.248254       -0.248254   1.000000   1.000000
    113         -0.245664       -0.245664   1.000000   1.000000
    114         -0.192991       -0.192991   1.000000   1.000000
    115         -0.180443       -0.180443   1.000000   1.000000
    116         -0.168016       -0.168016   1.000000   1.000000
    117         -0.123333       -0.123333   1.000000   1.000000
    118         -0.120331       -0.120331   1.000000   1.000000
    119         -0.078470       -0.078470   1.000000   1.000000
    120         -0.053342       -0.053342   1.000000   1.000000
    121         -0.047070       -0.047070   1.000000   1.000000
    122         -0.010587       -0.010587   1.000000   1.000000
    123          0.026996        0.026996   1.000000   1.000000
    124          0.028919        0.028919   1.000000   1.000000
    125          0.034246        0.034246   1.000000   1.000000
    126          0.082016        0.082016   1.000000   1.000000
    127          0.104577        0.104577   1.000000   1.000000
    128          0.160623        0.160623   1.000000   1.000000
    129          0.161823        0.161823   1.000000   1.000000
    130          0.169039        0.169039   1.000000   1.000000
    131          0.206868        0.206868   1.000000   1.000000
    132          0.218350        0.218350   1.000000   1.000000
    133          0.219712        0.219712   1.000000   1.000000
    134          0.229457        0.229457   1.000000   1.000000
    135          0.236108        0.236108   1.000000   1.000000
    136          0.237183        0.237183   1.000000   1.000000
    137          0.246126        0.246126   1.000000   1.000000
    138          0.252532        0.252532   1.000000   1.000000
    139          0.264184        0.264184   1.000000   1.000000
    140          0.264896        0.264896   1.000000   1.000000
    141          0.265953        0.265953   1.000000   1.000000
    142          0.287632        0.287632   1.000000   1.000000
    143          0.325626        0.325626   1.000000   1.000000
    144          0.327030        0.327030   1.000000   1.000000
    145          0.333816        0.333816   1.000000   1.000000
    146          0.351258        0.351258   1.000000   1.000000
    147          0.354221        0.354221   1.000000   1.000000
    148          0.380225        0.380225   1.000000   1.000000
    149          0.385809        0.385809   1.000000   1.000000
    150          0.408785        0.408785   1.000000   1.000000
    151          0.430639        0.430639   1.000000   1.000000
    152          0.442730        0.442730   1.000000   1.000000
    153          0.445283        0.445283   1.000000   1.000000
    154          0.464221        0.464221   1.000000   1.000000
    155          0.549485        0.549485   1.000000   1.000000
    156          0.550836        0.550836   1.000000   1.000000
    157          0.552498        0.552498   1.000000   1.000000
    158          0.581789        0.581789   1.000000   1.000000
    159          0.584540        0.584540   1.000000   1.000000
    160          0.595030        0.595030   1.000000   1.000000
    161          0.596615        0.596615   1.000000   1.000000
    162          0.614691        0.614691   1.000000   1.000000
    163          0.615965        0.615965   1.000000   1.000000
    164          0.637550        0.637550   1.000000   1.000000
    165          0.663329        0.663329   1.000000   1.000000
    166          0.663985        0.663985   1.000000   1.000000
    167          0.683330        0.683330   1.000000   1.000000
    168          0.685396        0.685396   1.000000   1.000000
    169          0.726459        0.726459   1.000000   1.000000
    170          0.727707        0.727707   1.000000   1.000000
    171          1.122455        1.122455   1.000000   1.000000
    172          1.496871        1.496871   1.000009   1.000009
    173          1.858952        1.858952   1.024186   1.024186
    174          1.860135        1.860135   1.024460   1.024460
    175          1.960819        1.960819   1.030721   1.030721
    176          2.014338        2.014338   0.989759   0.989759
    177          2.014521        2.014521   0.989523   0.989523
    178          2.273791        2.273791   0.130786   0.130786
    179          2.275362        2.275362   0.126490   0.126490
    180          2.607868        2.607868  -0.004464  -0.004464
    181          2.791857        2.791857  -0.000056  -0.000056
    182          2.794527        2.794527  -0.000052  -0.000052
    183          3.077938        3.077938  -0.000000  -0.000000
    184          3.592488        3.592488  -0.000000  -0.000000
    185          3.596377        3.596377  -0.000000  -0.000000
    186          3.734159        3.734159  -0.000000  -0.000000
    187          3.979293        3.979293  -0.000000  -0.000000
    188          4.622365        4.622365  -0.000000  -0.000000
    189          4.626908        4.626908  -0.000000  -0.000000
    190          5.487614        5.487614  -0.000000  -0.000000
    191          5.720579        5.720579  -0.000000  -0.000000
    192          5.727407        5.727407  -0.000000  -0.000000
    193          6.381303        6.381303  -0.000000  -0.000000
    194          6.395506        6.395506  -0.000000  -0.000000
    195          6.684845        6.684842  -0.000000  -0.000000
    196          6.927284        6.927284  -0.000000  -0.000000
    197          6.941080        6.941080  -0.000000  -0.000000
    198          7.173467        7.173444  -0.000000  -0.000000
    199          7.237070        7.237062  -0.000000  -0.000000
    200          7.415243        7.415242  -0.000000  -0.000000
    201          7.449909        7.449906  -0.000000  -0.000000
    202          7.855437        7.855427   0.000000   0.000000
    203          7.982896        7.982896   0.000000   0.000000
    204          8.049232        8.049229   0.000000   0.000000
    205          8.296618        8.296560   0.000000   0.000000
    206          8.541653        8.541649   0.000000   0.000000
    207          8.572509        8.572505   0.000000   0.000000
    208          8.634372        8.634369   0.000000   0.000000
    209          9.013731        9.013729   0.000000   0.000000
    210          9.098850        9.098817   0.000000   0.000000
    211          9.294278        9.294278   0.000000   0.000000
    212          9.419577        9.419569   0.000000   0.000000
    213          9.464503        9.464495   0.000000   0.000000
    214          9.770741        9.770719   0.000000   0.000000
    215         10.062277       10.062267   0.000000   0.000000
    216         10.091384       10.091368   0.000000   0.000000
    217         10.147700       10.147692   0.000000   0.000000
    218         10.338341       10.338306   0.000000   0.000000
    219         10.485584       10.485567   0.000000   0.000000
    220         10.647178       10.647175   0.000000   0.000000
    221         10.683350       10.683349   0.000000   0.000000
    222         10.757535       10.757527   0.000000   0.000000
    223         10.942876       10.942835   0.000000   0.000000
    224         10.991511       10.991510   0.000000   0.000000
    225         10.994584       10.994582   0.000000   0.000000
    226         11.155278       11.155272   0.000000   0.000000
    227         11.294477       11.294474   0.000000   0.000000
    228         11.345856       11.345851   0.000000   0.000000
    229         11.467201       11.467180   0.000000   0.000000
    230         11.728934       11.728929   0.000000   0.000000
    231         11.854752       11.854747   0.000000   0.000000