       N       E                     dE             d eps       ncg     rms          rms(c)
DAV:   1     0.345136931971E+04    0.34514E+04   -0.12528E+05  3712   0.193E+03
DAV:   2     0.487631646443E+03   -0.29637E+04   -0.28285E+04  3712   0.449E+02
DAV:   3    -0.928141055813E+02   -0.58045E+03   -0.52754E+03  3712   0.230E+02
DAV:   4    -0.138337612049E+03   -0.45524E+02   -0.43769E+02  4096   0.895E+01
DAV:   5    -0.139447474734E+03   -0.11099E+01   -0.11059E+01  4136   0.140E+01    0.526E+01
DAV:   6    -0.114928202507E+03    0.24519E+02   -0.30832E+02  4184   0.125E+02    0.273E+01
DAV:   7    -0.102562787802E+03    0.12365E+02   -0.79355E+01  4272   0.992E+01    0.165E+01
DAV:   8    -0.109621747890E+03   -0.70590E+01   -0.72537E+01  4768   0.135E+02    0.229E+01
DAV:   9    -0.992992513402E+02    0.10322E+02   -0.17307E+01  5360   0.668E+01    0.122E+01
DAV:  10    -0.100118471105E+03   -0.81922E+00   -0.67108E+00  4840   0.399E+01    0.113E+01
DAV:  11    -0.101497265479E+03   -0.13788E+01   -0.72635E+00  4208   0.353E+01    0.106E+01
DAV:  12    -0.102379911369E+03   -0.88265E+00   -0.14544E+01  4424   0.605E+01    0.113E+01
DAV:  13    -0.102639276999E+03   -0.25937E+00   -0.65891E+00  5672   0.469E+01    0.821E+00
DAV:  14    -0.104323081619E+03   -0.16838E+01   -0.42877E+00  6176   0.365E+01    0.734E+00
DAV:  15    -0.108774531181E+03   -0.44514E+01   -0.37235E+00  5128   0.231E+01    0.433E+00
DAV:  16    -0.112021692027E+03   -0.32472E+01   -0.31073E+00  4832   0.197E+01    0.305E+00
DAV:  17    -0.113621635859E+03   -0.15999E+01   -0.16745E+00  4416   0.136E+01    0.244E+00
DAV:  18    -0.114642855388E+03   -0.10212E+01   -0.10026E+00  4696   0.988E+00    0.208E+00
DAV:  19    -0.115500324920E+03   -0.85747E+00   -0.66752E-01  4656   0.787E+00    0.185E+00
DAV:  20    -0.116405742775E+03   -0.90542E+00   -0.61924E-01  4872   0.661E+00    0.148E+00
DAV:  21    -0.117256799718E+03   -0.85106E+00   -0.65127E-01  5112   0.587E+00    0.142E+00
DAV:  22    -0.117681673924E+03   -0.42487E+00   -0.25179E-01  5048   0.542E+00    0.114E+00
DAV:  23    -0.118129924866E+03   -0.44825E+00   -0.21089E-01  4744   0.480E+00    0.105E+00
DAV:  24    -0.118625344396E+03   -0.49542E+00   -0.14839E-01  4776   0.456E+00    0.700E-01
DAV:  25    -0.119869908414E+03   -0.12446E+01   -0.13876E-01  5112   0.392E+00    0.560E-01
DAV:  26    -0.120398876709E+03   -0.52897E+00   -0.37488E-02  4336   0.236E+00    0.335E-01
DAV:  27    -0.120543861261E+03   -0.14498E+00   -0.12311E-02  4312   0.182E+00    0.180E-01
DAV:  28    -0.120577269020E+03   -0.33408E-01   -0.45215E-03  4848   0.714E-01    0.141E-01
DAV:  29    -0.120588373941E+03   -0.11105E-01   -0.29991E-03  4016   0.690E-01    0.723E-02
DAV:  30    -0.120592602617E+03   -0.42287E-02   -0.88571E-04  3776   0.404E-01    0.711E-02
DAV:  31    -0.120593721557E+03   -0.11189E-02   -0.43687E-04  2520   0.313E-01    0.651E-02
DAV:  32    -0.120593733346E+03   -0.11789E-04   -0.46861E-04  2584   0.257E-01
   1 F= -.13462371E+03 E0= -.13462216E+03  d E =-.134624E+03  mag=     0.0110
       N       E                     dE             d eps       ncg     rms          rms(c)
DAV:   1    -0.120587677988E+03    0.60436E-02   -0.20735E+01  3792   0.875E+00    0.117E+00
DAV:   2    -0.120617314545E+03   -0.29637E-01   -0.50851E-01  5432   0.386E+00    0.851E-01
DAV:   3    -0.120655269450E+03   -0.37955E-01   -0.18781E-01  4552   0.868E+00    0.136E+00
DAV:   4    -0.120655651777E+03   -0.38233E-03   -0.38043E-01  4584   0.120E+01    0.121E+00
DAV:   5    -0.120627838509E+03    0.27813E-01   -0.15349E-01  5576   0.859E+00    0.790E-01
DAV:   6    -0.120612132648E+03    0.15706E-01   -0.36262E-02  6064   0.564E+00    0.280E-01
DAV:   7    -0.120611222839E+03    0.90981E-03   -0.10805E-02  6424   0.224E+00    0.204E-01
DAV:   8    -0.120610805133E+03    0.41771E-03   -0.47522E-03  4296   0.124E+00    0.644E-02
DAV:   9    -0.120611003367E+03   -0.19823E-03   -0.23132E-03  3896   0.379E-01    0.504E-02
DAV:  10    -0.120611106951E+03   -0.10358E-03   -0.54576E-04  3096   0.308E-01
   2 F= -.13470237E+03 E0= -.13469994E+03  d E =-.786654E-01  mag=     0.0069
       N       E                     dE             d eps       ncg     rms          rms(c)
DAV:   1    -0.120656931184E+03   -0.45928E-01   -0.26035E+00  3776   0.319E+00    0.329E-01
DAV:   2    -0.120665035017E+03   -0.81038E-02   -0.85394E-02  6056   0.156E+00    0.345E-01
DAV:   3    -0.120667509909E+03   -0.24749E-02   -0.28966E-02  4336   0.309E+00    0.420E-01
DAV:   4    -0.120665150638E+03    0.23593E-02   -0.20023E-02  4440   0.270E+00    0.281E-01
DAV:   5    -0.120664860043E+03    0.29059E-03   -0.76983E-03  4416   0.236E+00    0.241E-01
DAV:   6    -0.120663896357E+03    0.96369E-03   -0.33971E-03  4592   0.167E+00    0.119E-01
DAV:   7    -0.120663744670E+03    0.15169E-03   -0.13349E-03  3944   0.819E-01
   3 F= -.13470963E+03 E0= -.13470749E+03  d E =-.859218E-01  mag=     0.0051
       N       E                     dE             d eps       ncg     rms          rms(c)
DAV:   1    -0.120665784512E+03   -0.18882E-02   -0.19695E-02  5280   0.423E-01    0.403E-02
DAV:   2    -0.120666251643E+03   -0.46713E-03   -0.16152E-03  2904   0.727E-01    0.119E-01
DAV:   3    -0.120665886170E+03    0.36547E-03   -0.16798E-03  2704   0.747E-01    0.406E-02
DAV:   4    -0.120665919756E+03   -0.33586E-04   -0.18029E-04  2304   0.293E-01
   4 F= -.13471023E+03 E0= -.13470809E+03  d E =-.865251E-01  mag=     0.0046
       N       E                     dE             d eps       ncg     rms          rms(c)
DAV:   1    -0.120667841428E+03   -0.19553E-02   -0.29759E-02  4912   0.434E-01    0.569E-02
DAV:   2    -0.120668094637E+03   -0.25321E-03   -0.10266E-03  3024   0.587E-01    0.951E-02
DAV:   3    -0.120668003474E+03    0.91164E-04   -0.12412E-03  2608   0.696E-01
   5 F= -.13471053E+03 E0= -.13470842E+03  d E =-.868235E-01  mag=     0.0042
       N       E                     dE             d eps       ncg     rms          rms(c)
DAV:   1    -0.120681805311E+03   -0.13711E-01   -0.62843E+00  4056   0.527E+00    0.233E-01
DAV:   2    -0.120701638963E+03   -0.19834E-01   -0.12808E-01  6848   0.353E+00    0.589E-01
DAV:   3    -0.120694070401E+03    0.75686E-02   -0.61485E-02  4824   0.425E+00    0.345E-01
DAV:   4    -0.120693793607E+03    0.27679E-03   -0.16636E-02  4344   0.226E+00    0.279E-01
DAV:   5    -0.120693021447E+03    0.77216E-03   -0.68156E-03  4256   0.142E+00    0.147E-01
DAV:   6    -0.120693123937E+03   -0.10249E-03   -0.31996E-03  3928   0.702E-01    0.116E-01
DAV:   7    -0.120693242270E+03   -0.11833E-03   -0.15558E-03  3888   0.697E-01
   6 F= -.13474068E+03 E0= -.13473798E+03  d E =-.301505E-01  mag=     0.0031
       N       E                     dE             d eps       ncg     rms          rms(c)
DAV:   1    -0.120650466251E+03    0.42658E-01   -0.29336E+01  4056   0.114E+01    0.509E-01
DAV:   2    -0.120714035389E+03   -0.63569E-01   -0.63489E-01  5624   0.482E+00    0.764E-01
DAV:   3    -0.120725222847E+03   -0.11187E-01   -0.16553E-01  4288   0.699E+00    0.874E-01
DAV:   4    -0.120709685107E+03    0.15538E-01   -0.88312E-02  4344   0.528E+00    0.471E-01
DAV:   5    -0.120708063967E+03    0.16211E-02   -0.12178E-02  4784   0.262E+00    0.335E-01
DAV:   6    -0.120707417733E+03    0.64623E-03   -0.10788E-02  4800   0.178E+00    0.255E-01
DAV:   7    -0.120707336837E+03    0.80897E-04   -0.74235E-03  4112   0.153E+00    0.186E-01
DAV:   8    -0.120707232186E+03    0.10465E-03   -0.42154E-03  4304   0.110E+00    0.987E-02
DAV:   9    -0.120707173073E+03    0.59113E-04   -0.13497E-03  3592   0.531E-01
   7 F= -.13476595E+03 E0= -.13476214E+03  d E =-.554184E-01  mag=     0.0021
       N       E                     dE             d eps       ncg     rms          rms(c)
DAV:   1    -0.120715559964E+03   -0.83278E-02   -0.61676E+00  3856   0.528E+00    0.311E-01
DAV:   2    -0.120729141202E+03   -0.13581E-01   -0.14585E-01  5376   0.189E+00    0.342E-01
DAV:   3    -0.120732071411E+03   -0.29302E-02   -0.24563E-02  4184   0.275E+00    0.441E-01
DAV:   4    -0.120728949405E+03    0.31220E-02   -0.22248E-02  4376   0.278E+00    0.250E-01
DAV:   5    -0.120728883509E+03    0.65896E-04   -0.42980E-03  4016   0.166E+00    0.226E-01
DAV:   6    -0.120729278224E+03   -0.39471E-03   -0.49547E-03  4552   0.207E+00    0.231E-01
DAV:   7    -0.120727962575E+03    0.13156E-02   -0.30438E-03  4072   0.148E+00    0.712E-02
DAV:   8    -0.120728010118E+03   -0.47543E-04   -0.12743E-03  3992   0.454E-01
   8 F= -.13479206E+03 E0= -.13478809E+03  d E =-.261114E-01  mag=     0.0015
       N       E                     dE             d eps       ncg     rms          rms(c)
DAV:   1    -0.120726517763E+03    0.14448E-02   -0.23654E+00  3880   0.327E+00    0.194E-01
DAV:   2    -0.120731762947E+03   -0.52452E-02   -0.56445E-02  5368   0.113E+00    0.204E-01
DAV:   3    -0.120733267200E+03   -0.15043E-02   -0.10672E-02  4144   0.184E+00    0.291E-01
DAV:   4    -0.120731626616E+03    0.16406E-02   -0.92702E-03  4144   0.181E+00    0.145E-01
DAV:   5    -0.120731570024E+03    0.56592E-04   -0.11376E-03  2432   0.902E-01
   9 F= -.13479976E+03 E0= -.13479559E+03  d E =-.338090E-01  mag=     0.0012
       N       E                     dE             d eps       ncg     rms          rms(c)
DAV:   1    -0.120742293213E+03   -0.10667E-01   -0.21941E+00  3824   0.337E+00    0.228E-01
DAV:   2    -0.120762206862E+03   -0.19914E-01   -0.62488E-02  6944   0.504E+00    0.762E-01
DAV:   3    -0.120747278017E+03    0.14929E-01   -0.44815E-02  6008   0.450E+00    0.280E-01
DAV:   4    -0.120746368721E+03    0.90930E-03   -0.13604E-02  5672   0.202E+00    0.194E-01
DAV:   5    -0.120746083929E+03    0.28479E-03   -0.43937E-03  4696   0.879E-01    0.102E-01
DAV:   6    -0.120746233668E+03   -0.14974E-03   -0.18718E-03  3976   0.608E-01
  10 F= -.13481913E+03 E0= -.13481488E+03  d E =-.193693E-01  mag=     0.0009
       N       E                     dE             d eps       ncg     rms          rms(c)
DAV:   1    -0.120703160881E+03    0.42923E-01   -0.19554E+01  3808   0.934E+00    0.518E-01
DAV:   2    -0.120756113104E+03   -0.52952E-01   -0.47204E-01  6160   0.533E+00    0.852E-01
DAV:   3    -0.120753315879E+03    0.27972E-02   -0.12241E-01  5688   0.627E+00    0.656E-01
DAV:   4    -0.120746541482E+03    0.67744E-02   -0.44288E-02  4440   0.408E+00    0.457E-01
DAV:   5    -0.120745784107E+03    0.75737E-03   -0.11608E-02  4560   0.270E+00    0.410E-01
DAV:   6    -0.120744845064E+03    0.93904E-03   -0.91899E-03  4520   0.239E+00    0.325E-01
DAV:   7    -0.120744214500E+03    0.63056E-03   -0.83060E-03  4688   0.153E+00    0.155E-01
DAV:   8    -0.120744151728E+03    0.62772E-04   -0.32536E-03  4120   0.820E-01    0.826E-02
DAV:   9    -0.120744022161E+03    0.12957E-03   -0.97131E-04  3304   0.509E-01
  11 F= -.13483657E+03 E0= -.13483209E+03  d E =-.368072E-01  mag=     0.0006
       N       E                     dE             d eps       ncg     rms          rms(c)
DAV:   1    -0.120748837205E+03   -0.46855E-02   -0.69051E-01  3768   0.176E+00    0.905E-02
DAV:   2    -0.120750634378E+03   -0.17972E-02   -0.15829E-02  6080   0.938E-01    0.169E-01
DAV:   3    -0.120750230016E+03    0.40436E-03   -0.32733E-03  4040   0.101E+00    0.935E-02
DAV:   4    -0.120750159143E+03    0.70874E-04   -0.66787E-04  2744   0.408E-01
  12 F= -.13483781E+03 E0= -.13483338E+03  d E =-.380495E-01  mag=     0.0006
       N       E                     dE             d eps       ncg     rms          rms(c)
DAV:   1    -0.120751627473E+03   -0.13975E-02   -0.31653E+00  3744   0.378E+00    0.178E-01
DAV:   2    -0.120764443211E+03   -0.12816E-01   -0.82593E-02  6616   0.318E+00    0.495E-01
DAV:   3    -0.120759632620E+03    0.48106E-02   -0.30562E-02  6248   0.323E+00    0.235E-01
DAV:   4    -0.120758904168E+03    0.72845E-03   -0.74260E-03  4216   0.162E+00    0.192E-01
DAV:   5    -0.120758687296E+03    0.21687E-03   -0.20928E-03  3912   0.712E-01    0.132E-01
DAV:   6    -0.120758754004E+03   -0.66707E-04   -0.11936E-03  3944   0.637E-01
  13 F= -.13485030E+03 E0= -.13484558E+03  d E =-.124940E-01  mag=     0.0004
       N       E                     dE             d eps       ncg     rms          rms(c)
DAV:   1    -0.120699976543E+03    0.58711E-01   -0.28357E+01  3728   0.113E+01    0.568E-01
DAV:   2    -0.120806400513E+03   -0.10642E+00   -0.78868E-01  6488   0.858E+00    0.136E+00
DAV:   3    -0.120771197284E+03    0.35203E-01   -0.24663E-01  6352   0.844E+00    0.643E-01
DAV:   4    -0.120766952480E+03    0.42448E-02   -0.26956E-02  4976   0.302E+00    0.507E-01
DAV:   5    -0.120767329718E+03   -0.37724E-03   -0.15494E-02  4376   0.254E+00    0.503E-01
DAV:   6    -0.120767774332E+03   -0.44461E-03   -0.18150E-02  4312   0.306E+00    0.491E-01
DAV:   7    -0.120765114929E+03    0.26594E-02   -0.12437E-02  4304   0.213E+00    0.216E-01
DAV:   8    -0.120765059372E+03    0.55557E-04   -0.51502E-03  5872   0.595E-01    0.141E-01
DAV:   9    -0.120764700163E+03    0.35921E-03   -0.13347E-03  3944   0.773E-01    0.563E-02
DAV:  10    -0.120764691149E+03    0.90139E-05   -0.51253E-04  2680   0.303E-01
  14 F= -.13486978E+03 E0= -.13486463E+03  d E =-.319732E-01  mag=     0.0003
       N       E                     dE             d eps       ncg     rms          rms(c)
DAV:   1    -0.120785892244E+03   -0.21192E-01   -0.46030E+00  3712   0.454E+00    0.339E-01
DAV:   2    -0.120798495256E+03   -0.12603E-01   -0.14029E-01  5488   0.186E+00    0.382E-01
DAV:   3    -0.120799000120E+03   -0.50486E-03   -0.12586E-02  4352   0.224E+00    0.354E-01
DAV:   4    -0.120799419369E+03   -0.41925E-03   -0.16316E-02  4568   0.256E+00    0.351E-01
DAV:   5    -0.120799024485E+03    0.39488E-03   -0.15321E-02  4152   0.253E+00    0.316E-01
DAV:   6    -0.120797487977E+03    0.15365E-02   -0.59725E-03  4464   0.216E+00    0.175E-01
DAV:   7    -0.120796846591E+03    0.64139E-03   -0.25571E-03  4976   0.122E+00    0.634E-02
DAV:   8    -0.120796865147E+03   -0.18556E-04   -0.97054E-04  3552   0.407E-01
  15 F= -.13489859E+03 E0= -.13489303E+03  d E =-.288051E-01  mag=     0.0002
       N       E                     dE             d eps       ncg     rms          rms(c)
DAV:   1    -0.120798026941E+03   -0.11803E-02   -0.33251E-01  3792   0.124E+00    0.945E-02
DAV:   2    -0.120798985545E+03   -0.95860E-03   -0.10813E-02  5360   0.411E-01    0.934E-02
DAV:   3    -0.120799058980E+03   -0.73435E-04   -0.85696E-04  3000   0.525E-01
  16 F= -.13490093E+03 E0= -.13489515E+03  d E =-.311520E-01  mag=     0.0002
       N       E                     dE             d eps       ncg     rms          rms(c)
DAV:   1    -0.120805787997E+03   -0.68025E-02   -0.38534E+00  3792   0.430E+00    0.205E-01
DAV:   2    -0.120829370091E+03   -0.23582E-01   -0.12781E-01  6832   0.463E+00    0.718E-01
DAV:   3    -0.120814226091E+03    0.15144E-01   -0.57087E-02  6688   0.416E+00    0.244E-01
DAV:   4    -0.120814522617E+03   -0.29653E-03   -0.71225E-03  4128   0.921E-01    0.200E-01
DAV:   5    -0.120814696752E+03   -0.17414E-03   -0.35252E-03  4152   0.945E-01    0.191E-01
DAV:   6    -0.120814616087E+03    0.80665E-04   -0.18038E-03  4168   0.951E-01
  17 F= -.13491709E+03 E0= -.13491117E+03  d E =-.161526E-01  mag=     0.0001
       N       E                     dE             d eps       ncg     rms          rms(c)
DAV:   1    -0.120760591338E+03    0.54105E-01   -0.25779E+01  3792   0.111E+01    0.507E-01
DAV:   2    -0.120828719604E+03   -0.68128E-01   -0.64406E-01  5696   0.463E+00    0.851E-01
DAV:   3    -0.120826519569E+03    0.22000E-02   -0.12966E-01  4224   0.645E+00    0.732E-01
DAV:   4    -0.120819663475E+03    0.68561E-02   -0.31926E-02  4224   0.336E+00    0.407E-01
DAV:   5    -0.120821341556E+03   -0.16781E-02   -0.11498E-02  5128   0.230E+00    0.477E-01
DAV:   6    -0.120821082387E+03    0.25917E-03   -0.13922E-02  4416   0.333E+00    0.411E-01
DAV:   7    -0.120818050382E+03    0.30320E-02   -0.90015E-03  5136   0.224E+00    0.121E-01
DAV:   8    -0.120818187676E+03   -0.13729E-03   -0.43625E-03  5488   0.942E-01    0.877E-02
DAV:   9    -0.120818176585E+03    0.11091E-04   -0.16750E-03  3664   0.547E-01
  18 F= -.13492369E+03 E0= -.13491633E+03  d E =-.227607E-01  mag=     0.0001
       N       E                     dE             d eps       ncg     rms          rms(c)
DAV:   1    -0.120815810227E+03    0.23774E-02   -0.33082E+00  3768   0.392E+00    0.160E-01
DAV:   2    -0.120823767509E+03   -0.79573E-02   -0.79276E-02  5440   0.152E+00    0.272E-01
DAV:   3    -0.120823389007E+03    0.37850E-03   -0.54522E-03  4184   0.118E+00    0.184E-01
DAV:   4    -0.120823392917E+03   -0.39108E-05   -0.14818E-03  3960   0.630E-01
  19 F= -.13492752E+03 E0= -.13492055E+03  d E =-.265820E-01  mag=     0.0001
       N       E                     dE             d eps       ncg     rms          rms(c)
DAV:   1    -0.120824311977E+03   -0.92297E-03   -0.32216E+00  3712   0.397E+00    0.237E-01
DAV:   2    -0.120892876047E+03   -0.68564E-01   -0.27294E-01  6928   0.831E+00    0.133E+00
DAV:   3    -0.120833265487E+03    0.59611E-01   -0.17670E-01  6912   0.764E+00    0.325E-01
DAV:   4    -0.120832785507E+03    0.47998E-03   -0.10902E-02  6832   0.198E+00    0.196E-01
DAV:   5    -0.120832618088E+03    0.16742E-03   -0.58024E-03  5200   0.113E+00    0.151E-01
DAV:   6    -0.120832666417E+03   -0.48329E-04   -0.22694E-03  4008   0.687E-01    0.129E-01
DAV:   7    -0.120832558747E+03    0.10767E-03   -0.12907E-03  3952   0.591E-01
  20 F= -.13493692E+03 E0= -.13492963E+03  d E =-.940397E-02  mag=     0.0001
       N       E                     dE             d eps       ncg     rms          rms(c)
DAV:   1    -0.120789467663E+03    0.43199E-01   -0.19014E+01  3712   0.942E+00    0.552E-01
DAV:   2    -0.120845331549E+03   -0.55864E-01   -0.57303E-01  5456   0.433E+00    0.815E-01
DAV:   3    -0.120844412105E+03    0.91944E-03   -0.60298E-02  4800   0.458E+00    0.651E-01
DAV:   4    -0.120840915377E+03    0.34967E-02   -0.36417E-02  4544   0.332E+00    0.575E-01
DAV:   5    -0.120840293156E+03    0.62222E-03   -0.14355E-02  4640   0.259E+00    0.521E-01
DAV:   6    -0.120837996875E+03    0.22963E-02   -0.13453E-02  4624   0.292E+00    0.377E-01
DAV:   7    -0.120836154786E+03    0.18421E-02   -0.10679E-02  4968   0.235E+00    0.149E-01
DAV:   8    -0.120836145541E+03    0.92448E-05   -0.38216E-03  5632   0.818E-01    0.963E-02
DAV:   9    -0.120836062132E+03    0.83410E-04   -0.11483E-03  3632   0.463E-01
  21 F= -.13494262E+03 E0= -.13493400E+03  d E =-.151063E-01  mag=     0.0000
       N       E                     dE             d eps       ncg     rms          rms(c)
DAV:   1    -0.120834022150E+03    0.21234E-02   -0.17660E+00  3728   0.286E+00    0.171E-01
DAV:   2    -0.120838573445E+03   -0.45513E-02   -0.50482E-02  5152   0.100E+00    0.219E-01
DAV:   3    -0.120838455993E+03    0.11745E-03   -0.28998E-03  4280   0.866E-01    0.173E-01
DAV:   4    -0.120838669030E+03   -0.21304E-03   -0.26303E-03  3360   0.976E-01    0.194E-01
DAV:   5    -0.120838640169E+03    0.28861E-04   -0.38378E-03  2616   0.119E+00    0.183E-01
DAV:   6    -0.120838263394E+03    0.37678E-03   -0.21502E-03  2912   0.117E+00    0.123E-01
DAV:   7    -0.120837903796E+03    0.35960E-03   -0.72514E-04  2928   0.710E-01    0.352E-02
DAV:   8    -0.120837923103E+03   -0.19307E-04   -0.35618E-04  2672   0.202E-01
  22 F= -.13494363E+03 E0= -.13493541E+03  d E =-.161152E-01  mag=     0.0000
       N       E                     dE             d eps       ncg     rms          rms(c)
DAV:   1    -0.120840401377E+03   -0.24976E-02   -0.33185E-01  3744   0.123E+00    0.796E-02
DAV:   2    -0.120841467660E+03   -0.10663E-02   -0.99622E-03  6112   0.733E-01    0.138E-01
DAV:   3    -0.120841308517E+03    0.15914E-03   -0.14946E-03  3152   0.736E-01
  23 F= -.13494756E+03 E0= -.13493916E+03  d E =-.393297E-02  mag=     0.0000
       N       E                     dE             d eps       ncg     rms          rms(c)
DAV:   1    -0.120842537128E+03   -0.10695E-02   -0.29921E+00  3712   0.376E+00    0.267E-01
DAV:   2    -0.120853445615E+03   -0.10908E-01   -0.96503E-02  6288   0.238E+00    0.450E-01
DAV:   3    -0.120850528660E+03    0.29170E-02   -0.18870E-02  5408   0.230E+00    0.293E-01
DAV:   4    -0.120850234740E+03    0.29392E-03   -0.38960E-03  4080   0.100E+00    0.256E-01
DAV:   5    -0.120850210494E+03    0.24246E-04   -0.25670E-03  4224   0.110E+00    0.235E-01
DAV:   6    -0.120849547165E+03    0.66333E-03   -0.26863E-03  4704   0.878E-01    0.920E-02
DAV:   7    -0.120849435737E+03    0.11143E-03   -0.16191E-03  4192   0.561E-01
  24 F= -.13495745E+03 E0= -.13494858E+03  d E =-.138203E-01  mag=     0.0000
       N       E                     dE             d eps       ncg     rms          rms(c)
DAV:   1    -0.120830014297E+03    0.19533E-01   -0.11917E+01  3712   0.744E+00    0.452E-01
DAV:   2    -0.120864267434E+03   -0.34253E-01   -0.35928E-01  5360   0.310E+00    0.621E-01
DAV:   3    -0.120865991009E+03   -0.17236E-02   -0.46318E-02  4672   0.382E+00    0.550E-01
DAV:   4    -0.120861423166E+03    0.45678E-02   -0.22598E-02  4480   0.257E+00    0.414E-01
DAV:   5    -0.120863959847E+03   -0.25367E-02   -0.97875E-03  4704   0.253E+00    0.496E-01
DAV:   6    -0.120860326923E+03    0.36329E-02   -0.11481E-02  4816   0.289E+00    0.244E-01
DAV:   7    -0.120859357100E+03    0.96982E-03   -0.55984E-03  4992   0.152E+00    0.979E-02
DAV:   8    -0.120859259331E+03    0.97768E-04   -0.19664E-03  4640   0.671E-01
  25 F= -.13497129E+03 E0= -.13496149E+03  d E =-.276622E-01  mag=     0.0000
       N       E                     dE             d eps       ncg     rms          rms(c)
DAV:   1    -0.120744040683E+03    0.11532E+00   -0.47439E+01  3728   0.150E+01    0.989E-01
DAV:   2    -0.120863531090E+03   -0.11949E+00   -0.13624E+00  5168   0.472E+00    0.105E+00
DAV:   3    -0.120861674191E+03    0.18569E-02   -0.67185E-02  4288   0.481E+00    0.881E-01
DAV:   4    -0.120864160635E+03   -0.24864E-02   -0.70321E-02  4512   0.580E+00    0.848E-01
DAV:   5    -0.120910027930E+03   -0.45867E-01   -0.28922E-01  5056   0.944E+00    0.140E+00
DAV:   6    -0.120858298405E+03    0.51730E-01   -0.21050E-01  5344   0.884E+00    0.586E-01
DAV:   7    -0.120848628377E+03    0.96700E-02   -0.19287E-02  6768   0.348E+00    0.181E-01
DAV:   8    -0.120848696851E+03   -0.68474E-04   -0.73729E-03  6064   0.127E+00    0.153E-01
DAV:   9    -0.120848696489E+03    0.36186E-06   -0.35730E-03  4064   0.763E-01    0.693E-02
DAV:  10    -0.120848736104E+03   -0.39614E-04   -0.91159E-04  3744   0.408E-01
  26 F= -.13497062E+03 E0= -.13495925E+03  d E =-.269863E-01  mag=     0.0000
       N       E                     dE             d eps       ncg     rms          rms(c)
DAV:   1    -0.120818932548E+03    0.29764E-01   -0.17829E+01  3712   0.917E+00    0.527E-01
DAV:   2    -0.120867312809E+03   -0.48380E-01   -0.51356E-01  5232   0.325E+00    0.695E-01
DAV:   3    -0.120868816105E+03   -0.15033E-02   -0.65695E-02  4336   0.411E+00    0.649E-01
DAV:   4    -0.120863423982E+03    0.53921E-02   -0.22249E-02  4496   0.245E+00    0.463E-01
DAV:   5    -0.120867727367E+03   -0.43034E-02   -0.10311E-02  4720   0.305E+00    0.598E-01
DAV:   6    -0.120864243214E+03    0.34842E-02   -0.24909E-02  4816   0.412E+00    0.415E-01
DAV:   7    -0.120860388523E+03    0.38547E-02   -0.10271E-02  5648   0.251E+00    0.108E-01
DAV:   8    -0.120860375884E+03    0.12639E-04   -0.38032E-03  5584   0.720E-01    0.560E-02
DAV:   9    -0.120860463687E+03   -0.87803E-04   -0.13481E-03  3744   0.361E-01
  27 F= -.13497602E+03 E0= -.13496548E+03  d E =-.323875E-01  mag=     0.0000
       N       E                     dE             d eps       ncg     rms          rms(c)
DAV:   1    -0.120866092155E+03   -0.57163E-02   -0.30934E+00  3712   0.376E+00    0.273E-01
DAV:   2    -0.120873349627E+03   -0.72575E-02   -0.87416E-02  5088   0.109E+00    0.266E-01
DAV:   3    -0.120874799889E+03   -0.14503E-02   -0.11196E-02  4400   0.188E+00    0.341E-01
DAV:   4    -0.120873385643E+03    0.14142E-02   -0.14549E-02  4272   0.214E+00    0.231E-01
DAV:   5    -0.120874258106E+03   -0.87246E-03   -0.81109E-03  3088   0.206E+00    0.276E-01
DAV:   6    -0.120872573432E+03    0.16847E-02   -0.49547E-03  3440   0.191E+00    0.132E-01
DAV:   7    -0.120872226000E+03    0.34743E-03   -0.13168E-03  4240   0.798E-01    0.267E-02
DAV:   8    -0.120872264274E+03   -0.38275E-04   -0.42289E-04  2496   0.196E-01
  28 F= -.13498940E+03 E0= -.13497863E+03  d E =-.133769E-01  mag=     0.0000
       N       E                     dE             d eps       ncg     rms          rms(c)
DAV:   1    -0.120831770967E+03    0.40455E-01   -0.27696E+01  3712   0.113E+01    0.816E-01
DAV:   2    -0.120908730936E+03   -0.76960E-01   -0.89036E-01  5152   0.401E+00    0.915E-01
DAV:   3    -0.120923295782E+03   -0.14565E-01   -0.11962E-01  4384   0.613E+00    0.101E+00
DAV:   4    -0.120904617812E+03    0.18678E-01   -0.13796E-01  5504   0.576E+00    0.670E-01
DAV:   5    -0.120903290462E+03    0.13274E-02   -0.45396E-02  6424   0.392E+00    0.536E-01
DAV:   6    -0.120909092497E+03   -0.58020E-02   -0.35049E-02  5056   0.562E+00    0.642E-01
DAV:   7    -0.120896781994E+03    0.12311E-01   -0.21805E-02  5216   0.373E+00    0.111E-01
DAV:   8    -0.120897053258E+03   -0.27126E-03   -0.55595E-03  5280   0.745E-01    0.723E-02
DAV:   9    -0.120897258054E+03   -0.20480E-03   -0.25119E-03  3952   0.510E-01    0.518E-02
DAV:  10    -0.120897287361E+03   -0.29307E-04   -0.75706E-04  3104   0.331E-01
  29 F= -.13501846E+03 E0= -.13500771E+03  d E =-.424457E-01  mag=     0.0000
       N       E                     dE             d eps       ncg     rms          rms(c)
DAV:   1    -0.120569853366E+03    0.32740E+00   -0.10949E+02  3712   0.230E+01    0.154E+00
DAV:   2    -0.120978745476E+03   -0.40889E+00   -0.43251E+00  5584   0.114E+01    0.222E+00
DAV:   3    -0.120993138657E+03   -0.14393E-01   -0.75687E-01  5736   0.141E+01    0.191E+00
DAV:   4    -0.120924701896E+03    0.68437E-01   -0.29924E-01  5112   0.813E+00    0.136E+00
DAV:   5    -0.120955227328E+03   -0.30525E-01   -0.12682E-01  4816   0.839E+00    0.163E+00
DAV:   6    -0.120934968677E+03    0.20259E-01   -0.27048E-01  4656   0.120E+01    0.136E+00
DAV:   7    -0.120900650813E+03    0.34318E-01   -0.67172E-02  5736   0.616E+00    0.418E-01
DAV:   8    -0.120898251602E+03    0.23992E-02   -0.29932E-02  5568   0.223E+00    0.191E-01
DAV:   9    -0.120898475643E+03   -0.22404E-03   -0.10417E-02  4672   0.111E+00    0.868E-02
DAV:  10    -0.120899308307E+03   -0.83266E-03   -0.79877E-03  3952   0.809E-01    0.101E-01
DAV:  11    -0.120899360897E+03   -0.52590E-04   -0.11742E-03  3840   0.417E-01
  30 F= -.13502336E+03 E0= -.13501443E+03  d E =-.473456E-01  mag=     0.0000
       N       E                     dE             d eps       ncg     rms          rms(c)
DAV:   1    -0.120858764697E+03    0.40544E-01   -0.23756E+01  3728   0.105E+01    0.799E-01
DAV:   2    -0.120914486006E+03   -0.55721E-01   -0.68078E-01  5088   0.283E+00    0.716E-01
DAV:   3    -0.120910859564E+03    0.36264E-02   -0.26747E-02  4336   0.248E+00    0.533E-01
DAV:   4    -0.120942498990E+03   -0.31639E-01   -0.15101E-01  4528   0.688E+00    0.106E+00
DAV:   5    -0.120919764032E+03    0.22735E-01   -0.22583E-01  4800   0.806E+00    0.683E-01
DAV:   6    -0.120914970221E+03    0.47938E-02   -0.52651E-02  6192   0.546E+00    0.505E-01
DAV:   7    -0.120906697660E+03    0.82726E-02   -0.13949E-02  6384   0.312E+00    0.831E-02
DAV:   8    -0.120906824985E+03   -0.12732E-03   -0.32348E-03  5304   0.484E-01    0.630E-02
DAV:   9    -0.120906853510E+03   -0.28525E-04   -0.83878E-04  3688   0.351E-01
  31 F= -.13503030E+03 E0= -.13502045E+03  d E =-.542820E-01  mag=     0.0000
       N       E                     dE             d eps       ncg     rms          rms(c)
DAV:   1    -0.120919224545E+03   -0.12400E-01   -0.38969E+00  3728   0.427E+00    0.256E-01
DAV:   2    -0.120929095320E+03   -0.98708E-02   -0.10466E-01  5344   0.160E+00    0.333E-01
DAV:   3    -0.120928537053E+03    0.55827E-03   -0.10247E-02  4160   0.168E+00    0.252E-01
DAV:   4    -0.120928203896E+03    0.33316E-03   -0.24973E-03  4144   0.900E-01    0.204E-01
DAV:   5    -0.120933535593E+03   -0.53317E-02   -0.24734E-02  4272   0.275E+00    0.460E-01
DAV:   6    -0.120927810391E+03    0.57252E-02   -0.26465E-02  3008   0.248E+00    0.128E-01
DAV:   7    -0.120927549454E+03    0.26094E-03   -0.10344E-03  2752   0.704E-01    0.533E-02
DAV:   8    -0.120927626895E+03   -0.77442E-04   -0.11579E-03  4064   0.298E-01
  32 F= -.13504897E+03 E0= -.13503922E+03  d E =-.186705E-01  mag=     0.0000
       N       E                     dE             d eps       ncg     rms          rms(c)
DAV:   1    -0.120891226048E+03    0.36323E-01   -0.31832E+01  3728   0.123E+01    0.762E-01
DAV:   2    -0.120981150648E+03   -0.89925E-01   -0.91799E-01  5584   0.549E+00    0.107E+00
DAV:   3    -0.120979271325E+03    0.18793E-02   -0.17322E-01  4432   0.658E+00    0.909E-01
DAV:   4    -0.120974109960E+03    0.51614E-02   -0.10801E-01  4368   0.528E+00    0.785E-01
DAV:   5    -0.120968601246E+03    0.55087E-02   -0.30974E-02  4640   0.399E+00    0.575E-01
DAV:   6    -0.120965633582E+03    0.29677E-02   -0.25437E-02  5648   0.304E+00    0.393E-01
DAV:   7    -0.120963589936E+03    0.20436E-02   -0.12948E-02  4416   0.252E+00    0.128E-01
DAV:   8    -0.120963904791E+03   -0.31485E-03   -0.53260E-03  4488   0.932E-01    0.990E-02
DAV:   9    -0.120963934997E+03   -0.30206E-04   -0.20619E-03  3912   0.588E-01    0.355E-02
DAV:  10    -0.120963955308E+03   -0.20311E-04   -0.43421E-04  2576   0.219E-01
  33 F= -.13507880E+03 E0= -.13506998E+03  d E =-.485040E-01  mag=     0.0000
       N       E                     dE             d eps       ncg     rms          rms(c)
DAV:   1    -0.120960005880E+03    0.39291E-02   -0.41652E+00  3728   0.441E+00    0.281E-01
DAV:   2    -0.120972090949E+03   -0.12085E-01   -0.11235E-01  6080   0.242E+00    0.444E-01
DAV:   3    -0.120970334120E+03    0.17568E-02   -0.24327E-02  4640   0.265E+00    0.319E-01
DAV:   4    -0.120970054781E+03    0.27934E-03   -0.12638E-02  4336   0.195E+00    0.288E-01
DAV:   5    -0.120969123775E+03    0.93101E-03   -0.47071E-03  4232   0.136E+00    0.186E-01
DAV:   6    -0.120968997426E+03    0.12635E-03   -0.29335E-03  4688   0.956E-01    0.134E-01
DAV:   7    -0.120968824056E+03    0.17337E-03   -0.17781E-03  4064   0.828E-01
  34 F= -.13508133E+03 E0= -.13507277E+03  d E =-.510296E-01  mag=     0.0000
       N       E                     dE             d eps       ncg     rms          rms(c)
DAV:   1    -0.120962073137E+03    0.69243E-02   -0.98508E+00  3744   0.677E+00    0.487E-01
DAV:   2    -0.120984924159E+03   -0.22851E-01   -0.25100E-01  5424   0.269E+00    0.552E-01
DAV:   3    -0.120987577461E+03   -0.26533E-02   -0.52907E-02  4320   0.403E+00    0.567E-01
DAV:   4    -0.120987115231E+03    0.46223E-03   -0.55072E-02  4384   0.417E+00    0.527E-01
DAV:   5    -0.120982543324E+03    0.45719E-02   -0.21281E-02  4704   0.340E+00    0.308E-01
DAV:   6    -0.120981604047E+03    0.93928E-03   -0.89065E-03  5888   0.218E+00    0.215E-01
DAV:   7    -0.120980892043E+03    0.71200E-03   -0.44340E-03  4416   0.142E+00    0.625E-02
DAV:   8    -0.120981033272E+03   -0.14123E-03   -0.20205E-03  4000   0.447E-01    0.512E-02
DAV:   9    -0.120981083953E+03   -0.50681E-04   -0.67043E-04  3216   0.233E-01
  35 F= -.13508917E+03 E0= -.13508116E+03  d E =-.784133E-02  mag=     0.0000
       N       E                     dE             d eps       ncg     rms          rms(c)
DAV:   1    -0.120979914342E+03    0.11189E-02   -0.93609E-01  3744   0.209E+00    0.127E-01
DAV:   2    -0.120982196546E+03   -0.22822E-02   -0.24841E-02  5280   0.721E-01    0.163E-01
DAV:   3    -0.120982120906E+03    0.75641E-04   -0.19517E-03  4208   0.700E-01
  36 F= -.13509127E+03 E0= -.13508303E+03  d E =-.994001E-02  mag=     0.0000
       N       E                     dE             d eps       ncg     rms          rms(c)
DAV:   1    -0.120980800776E+03    0.13958E-02   -0.11184E+01  3760   0.730E+00    0.299E-01
DAV:   2    -0.121025596237E+03   -0.44795E-01   -0.30802E-01  6672   0.531E+00    0.906E-01
DAV:   3    -0.121005413519E+03    0.20183E-01   -0.14738E-01  5824   0.538E+00    0.383E-01
DAV:   4    -0.121005694548E+03   -0.28103E-03   -0.16773E-02  4152   0.162E+00    0.316E-01
DAV:   5    -0.121005913048E+03   -0.21850E-03   -0.96654E-03  4256   0.144E+00    0.275E-01
DAV:   6    -0.121005478324E+03    0.43472E-03   -0.35631E-03  4224   0.828E-01    0.187E-01
DAV:   7    -0.121005055912E+03    0.42241E-03   -0.33968E-03  4368   0.103E+00    0.955E-02
DAV:   8    -0.121004790522E+03    0.26539E-03   -0.15314E-03  3568   0.617E-01    0.576E-02
DAV:   9    -0.121004809241E+03   -0.18719E-04   -0.66287E-04  2992   0.302E-01
  37 F= -.13510502E+03 E0= -.13509765E+03  d E =-.137455E-01  mag=     0.0000
       N       E                     dE             d eps       ncg     rms          rms(c)
DAV:   1    -0.121004367641E+03    0.42288E-03   -0.32646E+00  3776   0.392E+00    0.182E-01
DAV:   2    -0.121011806392E+03   -0.74388E-02   -0.78814E-02  5104   0.121E+00    0.232E-01
DAV:   3    -0.121011698684E+03    0.10771E-03   -0.37347E-03  4208   0.914E-01    0.187E-01
DAV:   4    -0.121011831869E+03   -0.13318E-03   -0.23976E-03  3504   0.950E-01    0.192E-01
DAV:   5    -0.121012242516E+03   -0.41065E-03   -0.62762E-03  2688   0.134E+00    0.220E-01
DAV:   6    -0.121011672648E+03    0.56987E-03   -0.55075E-03  2784   0.144E+00    0.152E-01
DAV:   7    -0.121011122125E+03    0.55052E-03   -0.11968E-03  2784   0.898E-01    0.537E-02
DAV:   8    -0.121011134310E+03   -0.12185E-04   -0.43617E-04  2752   0.236E-01
  38 F= -.13510669E+03 E0= -.13509971E+03  d E =-.154200E-01  mag=     0.0000
       N       E                     dE             d eps       ncg     rms          rms(c)
DAV:   1    -0.121009063666E+03    0.20585E-02   -0.31450E-01  3776   0.122E+00    0.685E-02
DAV:   2    -0.121010119674E+03   -0.10560E-02   -0.81790E-03  6528   0.933E-01    0.158E-01
DAV:   3    -0.121009805519E+03    0.31415E-03   -0.29874E-03  3376   0.102E+00    0.982E-02
DAV:   4    -0.121009679131E+03    0.12639E-03   -0.89125E-04  2352   0.532E-01
  39 F= -.13510667E+03 E0= -.13509952E+03  d E =-.154017E-01  mag=     0.0000
       N       E                     dE             d eps       ncg     rms          rms(c)
DAV:   1    -0.121016044223E+03   -0.62387E-02   -0.12587E+00  3968   0.238E+00    0.101E-01
DAV:   2    -0.121018524622E+03   -0.24804E-02   -0.25921E-02  5216   0.652E-01    0.112E-01
DAV:   3    -0.121018903535E+03   -0.37891E-03   -0.42047E-03  4096   0.106E+00    0.164E-01
DAV:   4    -0.121018474346E+03    0.42919E-03   -0.25379E-03  2608   0.852E-01    0.843E-02
DAV:   5    -0.121018494107E+03   -0.19761E-04   -0.55493E-04  2448   0.517E-01
  40 F= -.13511071E+03 E0= -.13510355E+03  d E =-.403555E-02  mag=     0.0000
       N       E                     dE             d eps       ncg     rms          rms(c)
DAV:   1    -0.121019991910E+03   -0.15176E-02   -0.99453E-02  5024   0.804E-01    0.708E-02
DAV:   2    -0.121021383571E+03   -0.13917E-02   -0.59990E-03  3664   0.143E+00    0.225E-01
DAV:   3    -0.121020142581E+03    0.12410E-02   -0.78561E-03  2976   0.146E+00    0.962E-02
DAV:   4    -0.121020092748E+03    0.49833E-04   -0.15367E-03  2464   0.737E-01
  41 F= -.13511101E+03 E0= -.13510407E+03  d E =-.433905E-02  mag=     0.0000
       N       E                     dE             d eps       ncg     rms          rms(c)
DAV:   1    -0.121024494871E+03   -0.43523E-02   -0.42123E-01  4096   0.146E+00    0.625E-02
DAV:   2    -0.121025404069E+03   -0.90920E-03   -0.86016E-03  5792   0.633E-01    0.103E-01
DAV:   3    -0.121025301753E+03    0.10232E-03   -0.12320E-03  3792   0.601E-01
  42 F= -.13511358E+03 E0= -.13510648E+03  d E =-.256753E-02  mag=     0.0000
       N       E                     dE             d eps       ncg     rms          rms(c)
DAV:   1    -0.121030161518E+03   -0.47574E-02   -0.37775E+00  4064   0.411E+00    0.183E-01
DAV:   2    -0.121039700199E+03   -0.95387E-02   -0.79625E-02  6816   0.241E+00    0.407E-01
DAV:   3    -0.121036722092E+03    0.29781E-02   -0.28358E-02  5456   0.253E+00    0.210E-01
DAV:   4    -0.121036649321E+03    0.72771E-04   -0.39636E-03  4176   0.855E-01    0.167E-01
DAV:   5    -0.121036728291E+03   -0.78970E-04   -0.27724E-03  3968   0.922E-01    0.166E-01
DAV:   6    -0.121036634419E+03    0.93873E-04   -0.22991E-03  3968   0.922E-01    0.112E-01
DAV:   7    -0.121036384924E+03    0.24950E-03   -0.16369E-03  4112   0.680E-01    0.360E-02
DAV:   8    -0.121036371922E+03    0.13002E-04   -0.41847E-04  2384   0.222E-01
  43 F= -.13511685E+03 E0= -.13510966E+03  d E =-.583867E-02  mag=     0.0000
       N       E                     dE             d eps       ncg     rms          rms(c)
DAV:   1    -0.121042048330E+03   -0.56634E-02   -0.10257E+00  4072   0.214E+00    0.777E-02
DAV:   2    -0.121044256492E+03   -0.22082E-02   -0.19999E-02  6272   0.105E+00    0.169E-01
DAV:   3    -0.121044086195E+03    0.17030E-03   -0.57127E-03  4136   0.123E+00    0.110E-01
DAV:   4    -0.121043893728E+03    0.19247E-03   -0.18807E-03  3072   0.695E-01
  44 F= -.13511880E+03 E0= -.13511146E+03  d E =-.194652E-02  mag=     0.0000
       N       E                     dE             d eps       ncg     rms          rms(c)
DAV:   1    -0.121050119185E+03   -0.60330E-02   -0.27566E+00  4112   0.351E+00    0.147E-01
DAV:   2    -0.121055129735E+03   -0.50106E-02   -0.52675E-02  5344   0.109E+00    0.205E-01
DAV:   3    -0.121055231633E+03   -0.10190E-03   -0.67534E-03  4176   0.126E+00    0.184E-01
DAV:   4    -0.121054866846E+03    0.36479E-03   -0.26497E-03  3568   0.791E-01    0.140E-01
DAV:   5    -0.121055024600E+03   -0.15775E-03   -0.11517E-03  2592   0.749E-01
  45 F= -.13512085E+03 E0= -.13511338E+03  d E =-.399959E-02  mag=     0.0000
       N       E                     dE             d eps       ncg     rms          rms(c)
DAV:   1    -0.121059512285E+03   -0.46454E-02   -0.37568E-01  5456   0.163E+00    0.140E-01
DAV:   2    -0.121065379536E+03   -0.58673E-02   -0.19349E-02  4832   0.301E+00    0.487E-01
DAV:   3    -0.121061127520E+03    0.42520E-02   -0.38747E-02  4416   0.314E+00    0.271E-01
DAV:   4    -0.121059585123E+03    0.15424E-02   -0.10600E-02  2928   0.166E+00    0.105E-01
DAV:   5    -0.121059413948E+03    0.17117E-03   -0.17450E-03  3632   0.763E-01
  46 F= -.13512225E+03 E0= -.13511493E+03  d E =-.139742E-02  mag=     0.0000
       N       E                     dE             d eps       ncg     rms          rms(c)
DAV:   1    -0.121064636433E+03   -0.50513E-02   -0.15126E+00  3984   0.268E+00    0.100E-01
DAV:   2    -0.121069009926E+03   -0.43735E-02   -0.35396E-02  6672   0.167E+00    0.270E-01
DAV:   3    -0.121067731834E+03    0.12781E-02   -0.13569E-02  5352   0.175E+00    0.134E-01
DAV:   4    -0.121067656502E+03    0.75332E-04   -0.24110E-03  3920   0.738E-01    0.106E-01
DAV:   5    -0.121067648331E+03    0.81706E-05   -0.11227E-03  3728   0.457E-01
  47 F= -.13512443E+03 E0= -.13511706E+03  d E =-.358308E-02  mag=     0.0000
       N       E                     dE             d eps       ncg     rms          rms(c)
DAV:   1    -0.121066133409E+03    0.15231E-02   -0.60448E+00  3984   0.529E+00    0.213E-01
DAV:   2    -0.121077856600E+03   -0.11723E-01   -0.12331E-01  5280   0.159E+00    0.277E-01
DAV:   3    -0.121078859005E+03   -0.10024E-02   -0.17798E-02  4192   0.206E+00    0.306E-01
DAV:   4    -0.121077417302E+03    0.14417E-02   -0.87158E-03  4104   0.147E+00    0.184E-01
DAV:   5    -0.121077553456E+03   -0.13615E-03   -0.19505E-03  2880   0.975E-01
  48 F= -.13512228E+03 E0= -.13511453E+03  d E =-.143378E-02  mag=     0.0000
       N       E                     dE             d eps       ncg     rms          rms(c)
DAV:   1    -0.121063351795E+03    0.14066E-01   -0.37919E+00  4032   0.435E+00    0.172E-01
DAV:   2    -0.121083667394E+03   -0.20316E-01   -0.10626E-01  7088   0.449E+00    0.696E-01
DAV:   3    -0.121072202313E+03    0.11465E-01   -0.91774E-02  6816   0.449E+00    0.323E-01
DAV:   4    -0.121070517814E+03    0.16845E-02   -0.21814E-02  5216   0.237E+00    0.204E-01
DAV:   5    -0.121070194789E+03    0.32302E-03   -0.49369E-03  4432   0.889E-01    0.920E-02
DAV:   6    -0.121070308768E+03   -0.11398E-03   -0.18923E-03  3872   0.353E-01
  49 F= -.13512462E+03 E0= -.13511736E+03  d E =-.377383E-02  mag=     0.0000
       N       E                     dE             d eps       ncg     rms          rms(c)
DAV:   1    -0.121073581839E+03   -0.33870E-02   -0.31304E-01  3920   0.126E+00    0.677E-02
DAV:   2    -0.121074215190E+03   -0.63335E-03   -0.64144E-03  6000   0.565E-01    0.747E-02
DAV:   3    -0.121074299706E+03   -0.84516E-04   -0.11753E-03  3152   0.680E-01
  50 F= -.13512593E+03 E0= -.13511850E+03  d E =-.130451E-02  mag=     0.0000
       N       E                     dE             d eps       ncg     rms          rms(c)
DAV:   1    -0.121077198609E+03   -0.29834E-02   -0.53537E-01  4016   0.171E+00    0.104E-01
DAV:   2    -0.121085536750E+03   -0.83381E-02   -0.42168E-02  6944   0.299E+00    0.500E-01
DAV:   3    -0.121077874216E+03    0.76625E-02   -0.32565E-02  5536   0.271E+00    0.852E-02
DAV:   4    -0.121078073466E+03   -0.19925E-03   -0.22575E-03  4656   0.391E-01    0.747E-02
DAV:   5    -0.121078169251E+03   -0.95785E-04   -0.11632E-03  3776   0.635E-01
  51 F= -.13512634E+03 E0= -.13511899E+03  d E =-.171968E-02  mag=     0.0000
       N       E                     dE             d eps       ncg     rms          rms(c)
DAV:   1    -0.121081184683E+03   -0.31112E-02   -0.19557E-01  5344   0.118E+00    0.819E-02
DAV:   2    -0.121083730329E+03   -0.25456E-02   -0.73232E-03  4480   0.198E+00    0.322E-01
DAV:   3    -0.121081605938E+03    0.21244E-02   -0.99124E-03  3184   0.186E+00    0.135E-01
DAV:   4    -0.121081206465E+03    0.39947E-03   -0.31153E-03  2592   0.909E-01    0.615E-02
DAV:   5    -0.121081178519E+03    0.27946E-04   -0.57116E-04  2448   0.393E-01
  52 F= -.13512717E+03 E0= -.13511993E+03  d E =-.823493E-03  mag=     0.0000
       N       E                     dE             d eps       ncg     rms          rms(c)
DAV:   1    -0.121087038050E+03   -0.58316E-02   -0.17353E+00  3904   0.286E+00    0.105E-01
DAV:   2    -0.121091444709E+03   -0.44067E-02   -0.36041E-02  6368   0.159E+00    0.261E-01
DAV:   3    -0.121090437216E+03    0.10075E-02   -0.10309E-02  5200   0.160E+00    0.151E-01
DAV:   4    -0.121090230529E+03    0.20669E-03   -0.29784E-03  3936   0.832E-01    0.112E-01
DAV:   5    -0.121090213025E+03    0.17505E-04   -0.95961E-04  3552   0.373E-01
  53 F= -.13512966E+03 E0= -.13512253E+03  d E =-.331418E-02  mag=    -0.0000
       N       E                     dE             d eps       ncg     rms          rms(c)
DAV:   1    -0.121093996468E+03   -0.37659E-02   -0.69332E+00  3904   0.570E+00    0.224E-01
DAV:   2    -0.121112071921E+03   -0.18075E-01   -0.14939E-01  6768   0.324E+00    0.548E-01
DAV:   3    -0.121106153128E+03    0.59188E-02   -0.48388E-02  5872   0.314E+00    0.248E-01
DAV:   4    -0.121106160642E+03   -0.75140E-05   -0.65990E-03  3896   0.759E-01    0.210E-01
DAV:   5    -0.121106610515E+03   -0.44987E-03   -0.33793E-03  4208   0.117E+00    0.243E-01
DAV:   6    -0.121106262546E+03    0.34797E-03   -0.36711E-03  4160   0.115E+00    0.149E-01
DAV:   7    -0.121105620680E+03    0.64187E-03   -0.42867E-03  4496   0.126E+00    0.113E-01
DAV:   8    -0.121105579868E+03    0.40812E-04   -0.14404E-03  3904   0.362E-01
  54 F= -.13513200E+03 E0= -.13512508E+03  d E =-.565426E-02  mag=    -0.0000
       N       E                     dE             d eps       ncg     rms          rms(c)
DAV:   1    -0.121108271274E+03   -0.26506E-02   -0.66974E-01  3928   0.181E+00    0.799E-02
DAV:   2    -0.121110176989E+03   -0.19057E-02   -0.16076E-02  6624   0.114E+00    0.191E-01
DAV:   3    -0.121109878650E+03    0.29834E-03   -0.79295E-03  4352   0.139E+00    0.107E-01
DAV:   4    -0.121109601972E+03    0.27668E-03   -0.17414E-03  2632   0.677E-01    0.766E-02
DAV:   5    -0.121109576505E+03    0.25468E-04   -0.51401E-04  2448   0.416E-01
  55 F= -.13513196E+03 E0= -.13512514E+03  d E =-.561328E-02  mag=    -0.0000
       N       E                     dE             d eps       ncg     rms          rms(c)
DAV:   1    -0.121114213119E+03   -0.46111E-02   -0.50554E-01  3888   0.155E+00    0.956E-02
DAV:   2    -0.121115227565E+03   -0.10144E-02   -0.11330E-02  5648   0.641E-01    0.111E-01
DAV:   3    -0.121115273759E+03   -0.46194E-04   -0.15495E-03  3808   0.706E-01
  56 F= -.13513394E+03 E0= -.13512724E+03  d E =-.198676E-02  mag=    -0.0000
       N       E                     dE             d eps       ncg     rms          rms(c)
DAV:   1    -0.121116291278E+03   -0.10637E-02   -0.39252E-02  5536   0.799E-01    0.983E-02
DAV:   2    -0.121126835844E+03   -0.10545E-01   -0.48434E-02  3296   0.345E+00    0.593E-01
DAV:   3    -0.121116080558E+03    0.10755E-01   -0.41241E-02  2720   0.307E+00    0.592E-02
DAV:   4    -0.121116338570E+03   -0.25801E-03   -0.63078E-04  2512   0.654E-01    0.110E-01
DAV:   5    -0.121116183241E+03    0.15533E-03   -0.99067E-04  2784   0.711E-01
  57 F= -.13513387E+03 E0= -.13512728E+03  d E =-.191410E-02  mag=    -0.0000
       N       E                     dE             d eps       ncg     rms          rms(c)
DAV:   1    -0.121119693348E+03   -0.33548E-02   -0.55678E-01  3968   0.165E+00    0.656E-02
DAV:   2    -0.121121153779E+03   -0.14604E-02   -0.12774E-02  6496   0.910E-01    0.151E-01
DAV:   3    -0.121120857794E+03    0.29598E-03   -0.47224E-03  3984   0.106E+00    0.845E-02
DAV:   4    -0.121120795929E+03    0.61865E-04   -0.85238E-04  2832   0.424E-01
  58 F= -.13513585E+03 E0= -.13512935E+03  d E =-.198262E-02  mag=    -0.0000
       N       E                     dE             d eps       ncg     rms          rms(c)
DAV:   1    -0.121120730105E+03    0.12769E-03   -0.49875E+00  3920   0.481E+00    0.209E-01
DAV:   2    -0.121130425499E+03   -0.96954E-02   -0.10300E-01  5200   0.139E+00    0.250E-01
DAV:   3    -0.121130474375E+03   -0.48876E-04   -0.65147E-03  4192   0.129E+00    0.235E-01
DAV:   4    -0.121130397887E+03    0.76488E-04   -0.47976E-03  4016   0.119E+00    0.202E-01
DAV:   5    -0.121130594117E+03   -0.19623E-03   -0.68955E-03  2656   0.139E+00    0.217E-01
DAV:   6    -0.121129997928E+03    0.59619E-03   -0.45947E-03  2704   0.126E+00    0.148E-01
DAV:   7    -0.121129639503E+03    0.35843E-03   -0.19626E-03  4080   0.884E-01    0.732E-02
DAV:   8    -0.121129626798E+03    0.12705E-04   -0.59179E-04  2592   0.376E-01
  59 F= -.13513687E+03 E0= -.13513072E+03  d E =-.299889E-02  mag=    -0.0000
       N       E                     dE             d eps       ncg     rms          rms(c)
DAV:   1    -0.121125058876E+03    0.45806E-02   -0.94851E-01  3936   0.210E+00    0.917E-02
DAV:   2    -0.121127025651E+03   -0.19668E-02   -0.18770E-02  6256   0.989E-01    0.167E-01
DAV:   3    -0.121126829760E+03    0.19589E-03   -0.27675E-03  4064   0.982E-01    0.105E-01
DAV:   4    -0.121126799831E+03    0.29929E-04   -0.13127E-03  2880   0.543E-01
  60 F= -.13513744E+03 E0= -.13513111E+03  d E =-.357254E-02  mag=    -0.0000
       N       E                     dE             d eps       ncg     rms          rms(c)
DAV:   1    -0.121127012545E+03   -0.18278E-03   -0.71350E-03  5536   0.445E-01    0.678E-02
DAV:   2    -0.121128172245E+03   -0.11597E-02   -0.51982E-03  2592   0.121E+00    0.208E-01
DAV:   3    -0.121127013636E+03    0.11586E-02   -0.60776E-03  2640   0.122E+00    0.563E-02
DAV:   4    -0.121127126402E+03   -0.11277E-03   -0.81077E-04  2544   0.604E-01
  61 F= -.13513748E+03 E0= -.13513140E+03  d E =-.361452E-02  mag=    -0.0000
       N       E                     dE             d eps       ncg     rms          rms(c)
DAV:   1    -0.121126669247E+03    0.34439E-03   -0.33978E-03  4896   0.499E-01    0.191E-02
DAV:   2    -0.121126870332E+03   -0.20109E-03   -0.11157E-03  3008   0.476E-01    0.749E-02
DAV:   3    -0.121126765765E+03    0.10457E-03   -0.71170E-04  2496   0.474E-01
  62 F= -.13513734E+03 E0= -.13513110E+03  d E =-.346775E-02  mag=    -0.0000
       N       E                     dE             d eps       ncg     rms          rms(c)
DAV:   1    -0.121126831079E+03    0.39253E-04   -0.91495E-04  3216   0.204E-01    0.184E-02
DAV:   2    -0.121126914881E+03   -0.83802E-04   -0.49565E-04  2560   0.312E-01
  63 F= -.13513734E+03 E0= -.13513118E+03  d E =-.347056E-02  mag=    -0.0000
       N       E                     dE             d eps       ncg     rms          rms(c)
DAV:   1    -0.121126825905E+03    0.51743E-05   -0.33052E-04  2432   0.329E-01    0.216E-02
DAV:   2    -0.121127152584E+03   -0.32668E-03   -0.14148E-03  2584   0.666E-01    0.109E-01
DAV:   3    -0.121126848172E+03    0.30441E-03   -0.18403E-03  2464   0.699E-01    0.310E-02
DAV:   4    -0.121126828199E+03    0.19973E-04   -0.84648E-05  2224   0.165E-01
  64 F= -.13513733E+03 E0= -.13513106E+03  d E =-.345702E-02  mag=    -0.0000
       N       E                     dE             d eps       ncg     rms          rms(c)
DAV:   1    -0.121126863221E+03   -0.15049E-04   -0.70375E-05  2192   0.926E-02    0.833E-03
DAV:   2    -0.121126885104E+03   -0.21883E-04   -0.14391E-04  2176   0.181E-01
  65 F= -.13513735E+03 E0= -.13513109E+03  d E =-.347733E-02  mag=    -0.0000
       N       E                     dE             d eps       ncg     rms          rms(c)
DAV:   1    -0.121126859740E+03    0.34810E-05   -0.14976E-04  2144   0.202E-01    0.126E-02
DAV:   2    -0.121127613140E+03   -0.75340E-03   -0.33943E-03  2576   0.922E-01    0.157E-01
DAV:   3    -0.121126845959E+03    0.76718E-03   -0.27759E-03  2464   0.824E-01    0.662E-03
DAV:   4    -0.121126856283E+03   -0.10323E-04   -0.13308E-05  2256   0.773E-02
  66 F= -.13513734E+03 E0= -.13513107E+03  d E =-.346553E-02  mag=    -0.0000
       N       E                     dE             d eps       ncg     rms          rms(c)
DAV:   1    -0.121126859219E+03   -0.13260E-04   -0.22812E-05  2248   0.653E-02    0.366E-03
DAV:   2    -0.121126862334E+03   -0.31156E-05   -0.23291E-05  1984   0.686E-02
  67 F= -.13513734E+03 E0= -.13513110E+03  d E =-.346837E-02  mag=    -0.0000
       N       E                     dE             d eps       ncg     rms          rms(c)
DAV:   1    -0.121129082734E+03   -0.22235E-02   -0.19543E-01  3872   0.949E-01    0.377E-02
DAV:   2    -0.121129525059E+03   -0.44232E-03   -0.39409E-03  5456   0.442E-01    0.764E-02
DAV:   3    -0.121129440036E+03    0.85022E-04   -0.12281E-03  3072   0.514E-01
  68 F= -.13513815E+03 E0= -.13513189E+03  d E =-.807328E-03  mag=    -0.0000
       N       E                     dE             d eps       ncg     rms          rms(c)
DAV:   1    -0.121133160287E+03   -0.36352E-02   -0.17585E+00  3872   0.285E+00    0.135E-01
DAV:   2    -0.121136709304E+03   -0.35490E-02   -0.35944E-02  5456   0.103E+00    0.199E-01
DAV:   3    -0.121136502529E+03    0.20677E-03   -0.36636E-03  4160   0.978E-01    0.141E-01
DAV:   4    -0.121136562531E+03   -0.60001E-04   -0.18559E-03  2912   0.702E-01
  69 F= -.13513997E+03 E0= -.13513353E+03  d E =-.263120E-02  mag=    -0.0000
       N       E                     dE             d eps       ncg     rms          rms(c)
DAV:   1    -0.121138372775E+03   -0.18702E-02   -0.17735E-01  5488   0.125E+00    0.153E-01
DAV:   2    -0.121159968768E+03   -0.21596E-01   -0.92841E-02  4544   0.500E+00    0.866E-01
DAV:   3    -0.121138219157E+03    0.21750E-01   -0.91987E-02  3968   0.440E+00    0.128E-01
DAV:   4    -0.121138393178E+03   -0.17402E-03   -0.29249E-03  3280   0.118E+00    0.145E-01
DAV:   5    -0.121138048196E+03    0.34498E-03   -0.13154E-03  3760   0.788E-01    0.681E-02
DAV:   6    -0.121138018759E+03    0.29437E-04   -0.66524E-04  3264   0.445E-01
  70 F= -.13513978E+03 E0= -.13513338E+03  d E =-.244175E-02  mag=     0.0000
       N       E                     dE             d eps       ncg     rms          rms(c)
DAV:   1    -0.121140553943E+03   -0.25057E-02   -0.32308E-01  3808   0.124E+00    0.604E-02
DAV:   2    -0.121141315620E+03   -0.76168E-03   -0.75113E-03  5792   0.495E-01    0.906E-02
DAV:   3    -0.121141320441E+03   -0.48208E-05   -0.14579E-03  2704   0.632E-01
  71 F= -.13514068E+03 E0= -.13513420E+03  d E =-.900806E-03  mag=     0.0000
       N       E                     dE             d eps       ncg     rms          rms(c)
DAV:   1    -0.121142725876E+03   -0.14103E-02   -0.10377E-01  5200   0.817E-01    0.863E-02
DAV:   2    -0.121144781497E+03   -0.20556E-02   -0.95218E-03  3200   0.164E+00    0.279E-01
DAV:   3    -0.121142821356E+03    0.19601E-02   -0.10107E-02  2704   0.161E+00    0.902E-02
DAV:   4    -0.121142770568E+03    0.50788E-04   -0.12360E-03  2512   0.703E-01
  72 F= -.13514080E+03 E0= -.13513411E+03  d E =-.102154E-02  mag=    -0.0000
       N       E                     dE             d eps       ncg     rms          rms(c)
DAV:   1    -0.121143889493E+03   -0.10681E-02   -0.40659E-02  5312   0.610E-01    0.491E-02
DAV:   2    -0.121145193597E+03   -0.13041E-02   -0.60990E-03  2992   0.137E+00    0.219E-01
DAV:   3    -0.121143987484E+03    0.12061E-02   -0.68581E-03  2576   0.133E+00    0.758E-02
DAV:   4    -0.121143889329E+03    0.98155E-04   -0.40231E-04  2320   0.412E-01
  73 F= -.13514101E+03 E0= -.13513440E+03  d E =-.206259E-03  mag=    -0.0000
       N       E                     dE             d eps       ncg     rms          rms(c)
DAV:   1    -0.121146709768E+03   -0.27223E-02   -0.35908E-01  3808   0.131E+00    0.768E-02
DAV:   2    -0.121148211734E+03   -0.15020E-02   -0.98290E-03  6624   0.115E+00    0.194E-01
DAV:   3    -0.121147544454E+03    0.66728E-03   -0.48145E-03  3584   0.119E+00    0.107E-01
DAV:   4    -0.121147407675E+03    0.13678E-03   -0.13980E-03  2560   0.608E-01
  74 F= -.13514179E+03 E0= -.13513510E+03  d E =-.992163E-03  mag=    -0.0000
       N       E                     dE             d eps       ncg     rms          rms(c)
DAV:   1    -0.121150722473E+03   -0.31780E-02   -0.14254E+00  3792   0.260E+00    0.158E-01
DAV:   2    -0.121154091330E+03   -0.33689E-02   -0.34308E-02  5888   0.119E+00    0.228E-01
DAV:   3    -0.121153763652E+03    0.32768E-03   -0.82559E-03  4512   0.137E+00    0.185E-01
DAV:   4    -0.121153465232E+03    0.29842E-03   -0.23700E-03  3808   0.799E-01    0.134E-01
DAV:   5    -0.121153689140E+03   -0.22391E-03   -0.16851E-03  3104   0.910E-01    0.156E-01
DAV:   6    -0.121153381047E+03    0.30809E-03   -0.17055E-03  3264   0.101E+00    0.112E-01
DAV:   7    -0.121153188741E+03    0.19231E-03   -0.49500E-04  2704   0.554E-01
  75 F= -.13514213E+03 E0= -.13513527E+03  d E =-.133021E-02  mag=    -0.0000
       N       E                     dE             d eps       ncg     rms          rms(c)
DAV:   1    -0.121152020387E+03    0.13607E-02   -0.63951E-02  3792   0.559E-01    0.321E-02
DAV:   2    -0.121152100473E+03   -0.80086E-04   -0.80661E-04  2896   0.281E-01
  76 F= -.13514219E+03 E0= -.13513539E+03  d E =-.138856E-02  mag=    -0.0000
       N       E                     dE             d eps       ncg     rms          rms(c)
DAV:   1    -0.121152669469E+03   -0.64908E-03   -0.16025E-02  5296   0.389E-01    0.247E-02
DAV:   2    -0.121152769165E+03   -0.99696E-04   -0.34128E-04  2640   0.383E-01
  77 F= -.13514229E+03 E0= -.13513563E+03  d E =-.148539E-02  mag=    -0.0000
       N       E                     dE             d eps       ncg     rms          rms(c)
DAV:   1    -0.121152374194E+03    0.29528E-03   -0.45939E-03  5392   0.392E-01    0.169E-02
DAV:   2    -0.121152857428E+03   -0.48323E-03   -0.21406E-03  2624   0.776E-01    0.128E-01
DAV:   3    -0.121152384908E+03    0.47252E-03   -0.20237E-03  2568   0.708E-01    0.251E-02
DAV:   4    -0.121152378037E+03    0.68712E-05   -0.89814E-05  2336   0.166E-01
  78 F= -.13514220E+03 E0= -.13513535E+03  d E =-.140198E-02  mag=    -0.0000
       N       E                     dE             d eps       ncg     rms          rms(c)
DAV:   1    -0.121152543258E+03   -0.15835E-03   -0.13125E-03  3696   0.120E-01    0.841E-03
DAV:   2    -0.121152549241E+03   -0.59839E-05   -0.50905E-05  2224   0.705E-02
  79 F= -.13514221E+03 E0= -.13513538E+03  d E =-.140830E-02  mag=    -0.0000
       N       E                     dE             d eps       ncg     rms          rms(c)
DAV:   1    -0.121152397657E+03    0.14560E-03   -0.24980E-04  2272   0.137E-01    0.237E-02
DAV:   2    -0.121153228075E+03   -0.83042E-03   -0.38851E-03  2560   0.103E+00    0.176E-01
DAV:   3    -0.121152408873E+03    0.81920E-03   -0.37295E-03  2464   0.956E-01    0.157E-02
DAV:   4    -0.121152411076E+03   -0.22032E-05   -0.82727E-05  2256   0.131E-01
  80 F= -.13514219E+03 E0= -.13513535E+03  d E =-.138942E-02  mag=    -0.0000
       N       E                     dE             d eps       ncg     rms          rms(c)
DAV:   1    -0.121152529050E+03   -0.12018E-03   -0.92374E-05  2288   0.964E-02    0.125E-02
DAV:   2    -0.121152596637E+03   -0.67587E-04   -0.33662E-04  2352   0.311E-01
  81 F= -.13514228E+03 E0= -.13513546E+03  d E =-.147552E-02  mag=    -0.0000
       N       E                     dE             d eps       ncg     rms          rms(c)
DAV:   1    -0.121152484832E+03    0.44218E-04   -0.40773E-04  2432   0.319E-01    0.101E-02
DAV:   2    -0.121153140636E+03   -0.65580E-03   -0.29732E-03  2560   0.843E-01    0.147E-01
DAV:   3    -0.121152475678E+03    0.66496E-03   -0.23587E-03  2496   0.750E-01    0.731E-03
DAV:   4    -0.121152483111E+03   -0.74334E-05   -0.15749E-05  2272   0.810E-02
  82 F= -.13514221E+03 E0= -.13513537E+03  d E =-.141173E-02  mag=    -0.0000
       N       E                     dE             d eps       ncg     rms          rms(c)
DAV:   1    -0.121152507315E+03   -0.31637E-04   -0.82792E-06  2240   0.515E-02    0.270E-03
DAV:   2    -0.121152510814E+03   -0.34985E-05   -0.15090E-05  2112   0.697E-02
  83 F= -.13514222E+03 E0= -.13513541E+03  d E =-.141586E-02  mag=    -0.0000
       N       E                     dE             d eps       ncg     rms          rms(c)
DAV:   1    -0.121153959715E+03   -0.14524E-02   -0.98591E-02  3760   0.675E-01    0.377E-02
DAV:   2    -0.121154192751E+03   -0.23304E-03   -0.17360E-03  2896   0.428E-01    0.863E-02
DAV:   3    -0.121154093493E+03    0.99257E-04   -0.11388E-03  2912   0.470E-01
  84 F= -.13514260E+03 E0= -.13513578E+03  d E =-.379173E-03  mag=    -0.0000
       N       E                     dE             d eps       ncg     rms          rms(c)
DAV:   1    -0.121155904031E+03   -0.17113E-02   -0.15036E-01  3760   0.868E-01    0.731E-02
DAV:   2    -0.121156494122E+03   -0.59009E-03   -0.38398E-03  5024   0.816E-01    0.135E-01
DAV:   3    -0.121156134245E+03    0.35988E-03   -0.14189E-03  3008   0.772E-01    0.679E-02
DAV:   4    -0.121156282767E+03   -0.14852E-03   -0.13335E-03  2448   0.575E-01
  85 F= -.13514332E+03 E0= -.13513660E+03  d E =-.110002E-02  mag=    -0.0000
       N       E                     dE             d eps       ncg     rms          rms(c)
DAV:   1    -0.121158768632E+03   -0.26344E-02   -0.58900E-01  3776   0.174E+00    0.102E-01
DAV:   2    -0.121161751389E+03   -0.29828E-02   -0.20660E-02  6480   0.160E+00    0.266E-01
DAV:   3    -0.121159943564E+03    0.18078E-02   -0.98855E-03  4912   0.149E+00    0.106E-01
DAV:   4    -0.121159974414E+03   -0.30850E-04   -0.11036E-03  3712   0.362E-01
  86 F= -.13514407E+03 E0= -.13513750E+03  d E =-.185552E-02  mag=    -0.0000
       N       E                     dE             d eps       ncg     rms          rms(c)
DAV:   1    -0.121163123265E+03   -0.31797E-02   -0.23417E+00  3760   0.332E+00    0.233E-01
DAV:   2    -0.121169422407E+03   -0.62991E-02   -0.55261E-02  6560   0.194E+00    0.359E-01
DAV:   3    -0.121167934516E+03    0.14879E-02   -0.13972E-02  5344   0.214E+00    0.247E-01
DAV:   4    -0.121168232012E+03   -0.29750E-03   -0.10522E-02  4112   0.163E+00    0.261E-01
DAV:   5    -0.121167064368E+03    0.11676E-02   -0.59702E-03  4000   0.125E+00    0.127E-01
DAV:   6    -0.121166966512E+03    0.97856E-04   -0.19904E-03  4208   0.544E-01
  87 F= -.13514519E+03 E0= -.13513869E+03  d E =-.297557E-02  mag=    -0.0000
       N       E                     dE             d eps       ncg     rms          rms(c)
DAV:   1    -0.121160272306E+03    0.67921E-02   -0.93716E+00  3760   0.657E+00    0.364E-01
DAV:   2    -0.121182099454E+03   -0.21827E-01   -0.22571E-01  5184   0.217E+00    0.468E-01
DAV:   3    -0.121182736220E+03   -0.63677E-03   -0.39098E-02  4336   0.301E+00    0.455E-01
DAV:   4    -0.121180737131E+03    0.19991E-02   -0.20130E-02  4384   0.225E+00    0.339E-01
DAV:   5    -0.121180591671E+03    0.14546E-03   -0.77576E-03  4360   0.186E+00    0.314E-01
DAV:   6    -0.121179736886E+03    0.85479E-03   -0.73957E-03  5504   0.181E+00    0.227E-01
DAV:   7    -0.121178793340E+03    0.94355E-03   -0.34888E-03  4352   0.149E+00    0.592E-02
DAV:   8    -0.121178912208E+03   -0.11887E-03   -0.14569E-03  3936   0.265E-01
  88 F= -.13514538E+03 E0= -.13513924E+03  d E =-.316555E-02  mag=    -0.0000
       N       E                     dE             d eps       ncg     rms          rms(c)
DAV:   1    -0.121171156291E+03    0.76370E-02   -0.17310E+00  3760   0.281E+00    0.163E-01
DAV:   2    -0.121176854441E+03   -0.56981E-02   -0.46693E-02  6608   0.197E+00    0.353E-01
DAV:   3    -0.121174638896E+03    0.22155E-02   -0.17983E-02  6160   0.202E+00    0.179E-01
DAV:   4    -0.121174448016E+03    0.19088E-03   -0.23390E-03  3888   0.812E-01    0.153E-01
DAV:   5    -0.121174355790E+03    0.92226E-04   -0.14039E-03  3904   0.715E-01
  89 F= -.13514588E+03 E0= -.13513971E+03  d E =-.366054E-02  mag=    -0.0000
       N       E                     dE             d eps       ncg     rms          rms(c)
DAV:   1    -0.121168349230E+03    0.60988E-02   -0.98594E-01  3792   0.225E+00    0.156E-01
DAV:   2    -0.121171595882E+03   -0.32467E-02   -0.26332E-02  6464   0.206E+00    0.269E-01
DAV:   3    -0.121171905196E+03   -0.30931E-03   -0.22895E-02  5744   0.244E+00    0.279E-01
DAV:   4    -0.121170150508E+03    0.17547E-02   -0.75992E-03  3904   0.133E+00    0.104E-01
DAV:   5    -0.121170266959E+03   -0.11645E-03   -0.11990E-03  3616   0.595E-01
  90 F= -.13514562E+03 E0= -.13513938E+03  d E =-.340005E-02  mag=    -0.0000
       N       E                     dE             d eps       ncg     rms          rms(c)
DAV:   1    -0.121169260543E+03    0.88996E-03   -0.52381E-02  5424   0.985E-01    0.965E-02
DAV:   2    -0.121173746806E+03   -0.44863E-02   -0.12939E-02  4384   0.260E+00    0.416E-01
DAV:   3    -0.121169759698E+03    0.39871E-02   -0.14815E-02  3984   0.240E+00    0.160E-01
DAV:   4    -0.121169222766E+03    0.53693E-03   -0.38713E-03  2560   0.991E-01    0.646E-02
DAV:   5    -0.121169185370E+03    0.37396E-04   -0.46411E-04  2432   0.440E-01
  91 F= -.13514541E+03 E0= -.13513898E+03  d E =-.319091E-02  mag=    -0.0000
       N       E                     dE             d eps       ncg     rms          rms(c)
DAV:   1    -0.121169857327E+03   -0.63456E-03   -0.24655E-02  5184   0.406E-01    0.305E-02
DAV:   2    -0.121170825253E+03   -0.96793E-03   -0.46356E-03  2576   0.107E+00    0.188E-01
DAV:   3    -0.121169867972E+03    0.95728E-03   -0.41439E-03  2560   0.996E-01    0.231E-02
DAV:   4    -0.121169873437E+03   -0.54653E-05   -0.91117E-05  2352   0.188E-01
  92 F= -.13514550E+03 E0= -.13513914E+03  d E =-.328060E-02  mag=    -0.0000
       N       E                     dE             d eps       ncg     rms          rms(c)
DAV:   1    -0.121169938813E+03   -0.70841E-04   -0.47802E-04  2688   0.180E-01    0.284E-02
DAV:   2    -0.121170227559E+03   -0.28875E-03   -0.12194E-03  2608   0.668E-01    0.110E-01
DAV:   3    -0.121170014634E+03    0.21293E-03   -0.15927E-03  2496   0.693E-01    0.504E-02
DAV:   4    -0.121169965689E+03    0.48945E-04   -0.34477E-04  2368   0.302E-01
  93 F= -.13514547E+03 E0= -.13513905E+03  d E =-.324933E-02  mag=    -0.0000
       N       E                     dE             d eps       ncg     rms          rms(c)
DAV:   1    -0.121169875818E+03    0.13882E-03   -0.17198E-04  2416   0.143E-01    0.176E-02
DAV:   2    -0.121169951886E+03   -0.76069E-04   -0.23671E-04  2448   0.356E-01
  94 F= -.13514557E+03 E0= -.13513911E+03  d E =-.334900E-02  mag=    -0.0000
       N       E                     dE             d eps       ncg     rms          rms(c)
DAV:   1    -0.121169940928E+03   -0.65110E-04   -0.22823E-04  2544   0.330E-01    0.156E-02
DAV:   2    -0.121170598692E+03   -0.65776E-03   -0.28839E-03  2624   0.888E-01    0.149E-01
DAV:   3    -0.121169940635E+03    0.65806E-03   -0.27438E-03  2512   0.813E-01    0.197E-02
DAV:   4    -0.121169937335E+03    0.32993E-05   -0.30016E-05  2256   0.115E-01
  95 F= -.13514549E+03 E0= -.13513911E+03  d E =-.327771E-02  mag=    -0.0000
       N       E                     dE             d eps       ncg     rms          rms(c)
DAV:   1    -0.121169917823E+03    0.22812E-04   -0.14199E-05  2128   0.557E-02    0.486E-03
DAV:   2    -0.121169920776E+03   -0.29527E-05   -0.16696E-05  1952   0.808E-02
  96 F= -.13514550E+03 E0= -.13513911E+03  d E =-.328386E-02  mag=    -0.0000
       N       E                     dE             d eps       ncg     rms          rms(c)
DAV:   1    -0.121171308621E+03   -0.13908E-02   -0.55258E-01  3760   0.160E+00    0.782E-02
DAV:   2    -0.121172472507E+03   -0.11639E-02   -0.12285E-02  5168   0.502E-01    0.980E-02
DAV:   3    -0.121172525433E+03   -0.52926E-04   -0.15098E-03  3552   0.617E-01
  97 F= -.13514702E+03 E0= -.13514080E+03  d E =-.151979E-02  mag=    -0.0000
       N       E                     dE             d eps       ncg     rms          rms(c)
DAV:   1    -0.121173379544E+03   -0.90704E-03   -0.48405E-01  3792   0.158E+00    0.129E-01
DAV:   2    -0.121179736280E+03   -0.63567E-02   -0.32340E-02  6608   0.259E+00    0.451E-01
DAV:   3    -0.121174095699E+03    0.56406E-02   -0.26700E-02  5648   0.241E+00    0.129E-01
DAV:   4    -0.121174178264E+03   -0.82565E-04   -0.21482E-03  4384   0.831E-01    0.123E-01
DAV:   5    -0.121174010702E+03    0.16756E-03   -0.17126E-03  3840   0.651E-01
  98 F= -.13514750E+03 E0= -.13514148E+03  d E =-.200087E-02  mag=    -0.0000
       N       E                     dE             d eps       ncg     rms          rms(c)
DAV:   1    -0.121171753091E+03    0.24252E-02   -0.19085E+00  3792   0.299E+00    0.150E-01
DAV:   2    -0.121176246346E+03   -0.44933E-02   -0.44525E-02  6096   0.123E+00    0.220E-01
DAV:   3    -0.121176240895E+03    0.54504E-05   -0.11399E-02  4528   0.165E+00    0.195E-01
DAV:   4    -0.121175760566E+03    0.48033E-03   -0.32888E-03  3840   0.862E-01    0.125E-01
DAV:   5    -0.121175935136E+03   -0.17457E-03   -0.12337E-03  2960   0.761E-01
  99 F= -.13514744E+03 E0= -.13514150E+03  d E =-.193613E-02  mag=    -0.0000
       N       E                     dE             d eps       ncg     rms          rms(c)
DAV:   1    -0.121174850493E+03    0.91007E-03   -0.49167E-01  5088   0.175E+00    0.115E-01
DAV:   2    -0.121178610118E+03   -0.37596E-02   -0.12909E-02  4792   0.253E+00    0.373E-01
DAV:   3    -0.121176195632E+03    0.24145E-02   -0.19128E-02  4416   0.249E+00    0.221E-01
DAV:   4    -0.121175288698E+03    0.90693E-03   -0.78968E-03  2864   0.137E+00    0.106E-01
DAV:   5    -0.121175070641E+03    0.21806E-03   -0.10952E-03  2992   0.588E-01    0.435E-02
DAV:   6    -0.121175110265E+03   -0.39624E-04   -0.69276E-04  2832   0.180E-01
 100 F= -.13514761E+03 E0= -.13514165E+03  d E =-.210910E-02  mag=    -0.0000
       N       E                     dE             d eps       ncg     rms          rms(c)
DAV:   1    -0.121176101689E+03   -0.10310E-02   -0.32218E-01  3744   0.122E+00    0.769E-02
DAV:   2    -0.121177258195E+03   -0.11565E-02   -0.86221E-03  6592   0.944E-01    0.156E-01
DAV:   3    -0.121176765998E+03    0.49220E-03   -0.16710E-03  2944   0.862E-01    0.731E-02
DAV:   4    -0.121176890190E+03   -0.12419E-03   -0.11619E-03  2512   0.543E-01
 101 F= -.13514804E+03 E0= -.13514215E+03  d E =-.433388E-03  mag=    -0.0000
       N       E                     dE             d eps       ncg     rms          rms(c)
DAV:   1    -0.121176753409E+03    0.12589E-04   -0.14022E-03  2640   0.572E-01    0.579E-02
DAV:   2    -0.121179458937E+03   -0.27055E-02   -0.12444E-02  2608   0.183E+00    0.311E-01
DAV:   3    -0.121176737076E+03    0.27219E-02   -0.11933E-02  2560   0.170E+00    0.424E-02
DAV:   4    -0.121176792657E+03   -0.55582E-04   -0.45855E-04  2320   0.446E-01
 102 F= -.13514789E+03 E0= -.13514191E+03  d E =-.277608E-03  mag=    -0.0000
       N       E                     dE             d eps       ncg     rms          rms(c)
DAV:   1    -0.121176733357E+03    0.37183E-05   -0.39490E-04  2512   0.352E-01    0.303E-02
DAV:   2    -0.121178349297E+03   -0.16159E-02   -0.72576E-03  2624   0.144E+00    0.237E-01
DAV:   3    -0.121176740781E+03    0.16085E-02   -0.66227E-03  2544   0.127E+00    0.339E-02
DAV:   4    -0.121176733866E+03    0.69155E-05   -0.12726E-04  2288   0.237E-01
 103 F= -.13514789E+03 E0= -.13514206E+03  d E =-.276069E-03  mag=    -0.0000
       N       E                     dE             d eps       ncg     rms          rms(c)
DAV:   1    -0.121177291069E+03   -0.55029E-03   -0.31228E-01  3760   0.120E+00    0.610E-02
DAV:   2    -0.121178110474E+03   -0.81941E-03   -0.74852E-03  6256   0.599E-01    0.113E-01
DAV:   3    -0.121177923602E+03    0.18687E-03   -0.19926E-03  2864   0.696E-01
 104 F= -.13514822E+03 E0= -.13514238E+03  d E =-.330435E-03  mag=    -0.0000
       N       E                     dE             d eps       ncg     rms          rms(c)
DAV:   1    -0.121178348240E+03   -0.23777E-03   -0.11144E-01  3808   0.754E-01    0.789E-02
DAV:   2    -0.121178557528E+03   -0.20929E-03   -0.26479E-03  5200   0.398E-01    0.820E-02
DAV:   3    -0.121178575015E+03   -0.17487E-04   -0.70435E-04  2640   0.597E-01
 105 F= -.13514836E+03 E0= -.13514235E+03  d E =-.472358E-03  mag=    -0.0000
       N       E                     dE             d eps       ncg     rms          rms(c)
DAV:   1    -0.121179640412E+03   -0.10829E-02   -0.17180E-01  5216   0.111E+00    0.118E-01
DAV:   2    -0.121215388824E+03   -0.35748E-01   -0.15997E-01  4616   0.630E+00    0.109E+00
DAV:   3    -0.121179394564E+03    0.35994E-01   -0.13293E-01  4256   0.537E+00    0.766E-02
DAV:   4    -0.121179449701E+03   -0.55137E-04   -0.61067E-04  3184   0.447E-01
 106 F= -.13514869E+03 E0= -.13514261E+03  d E =-.326584E-03  mag=    -0.0000
       N       E                     dE             d eps       ncg     rms          rms(c)
DAV:   1    -0.121179484408E+03   -0.89844E-04   -0.14730E-03  4448   0.372E-01    0.568E-02
DAV:   2    -0.121181228093E+03   -0.17437E-02   -0.46983E-03  4208   0.165E+00    0.260E-01
DAV:   3    -0.121179484963E+03    0.17431E-02   -0.33214E-03  2544   0.139E+00    0.380E-02
DAV:   4    -0.121179464704E+03    0.20258E-04   -0.33444E-04  2352   0.278E-01
 107 F= -.13514874E+03 E0= -.13514281E+03  d E =-.380283E-03  mag=    -0.0000
       N       E                     dE             d eps       ncg     rms          rms(c)
DAV:   1    -0.121179477563E+03    0.74000E-05   -0.29957E-04  2400   0.134E-01    0.161E-02
DAV:   2    -0.121179521952E+03   -0.44389E-04   -0.25071E-04  2064   0.259E-01
 108 F= -.13514876E+03 E0= -.13514289E+03  d E =-.404872E-03  mag=    -0.0000
       N       E                     dE             d eps       ncg     rms          rms(c)
DAV:   1    -0.121179489631E+03   -0.12068E-04   -0.20116E-04  2368   0.265E-01    0.183E-02
DAV:   2    -0.121179811397E+03   -0.32177E-03   -0.13615E-03  2464   0.642E-01    0.106E-01
DAV:   3    -0.121179509577E+03    0.30182E-03   -0.16327E-03  2560   0.651E-01    0.301E-02
DAV:   4    -0.121179486904E+03    0.22673E-04   -0.70600E-05  2288   0.162E-01
 109 F= -.13514875E+03 E0= -.13514277E+03  d E =-.392114E-03  mag=    -0.0000
       N       E                     dE             d eps       ncg     rms          rms(c)
DAV:   1    -0.121179496681E+03    0.12895E-04   -0.23282E-05  2176   0.628E-02    0.645E-03
DAV:   2    -0.121179504231E+03   -0.75494E-05   -0.36198E-05  2240   0.116E-01
 110 F= -.13514876E+03 E0= -.13514276E+03  d E =-.398285E-03  mag=    -0.0000
       N       E                     dE             d eps       ncg     rms          rms(c)
DAV:   1    -0.121179498507E+03   -0.18259E-05   -0.76142E-05  2016   0.147E-01    0.143E-02
DAV:   2    -0.121180063162E+03   -0.56465E-03   -0.25525E-03  2544   0.809E-01    0.138E-01
DAV:   3    -0.121179490077E+03    0.57308E-03   -0.22990E-03  2496   0.747E-01    0.725E-03
DAV:   4    -0.121179494221E+03   -0.41432E-05   -0.55529E-06  2272   0.511E-02
 111 F= -.13514875E+03 E0= -.13514279E+03  d E =-.394179E-03  mag=    -0.0000
       N       E                     dE             d eps       ncg     rms          rms(c)
DAV:   1    -0.121180316541E+03   -0.82646E-03   -0.26559E-01  3808   0.111E+00    0.458E-02
DAV:   2    -0.121180874408E+03   -0.55787E-03   -0.54159E-03  5792   0.426E-01    0.788E-02
DAV:   3    -0.121180841537E+03    0.32871E-04   -0.11584E-03  2688   0.520E-01
 112 F= -.13514942E+03 E0= -.13514341E+03  d E =-.665618E-03  mag=    -0.0000
       N       E                     dE             d eps       ncg     rms          rms(c)
DAV:   1    -0.121181265229E+03   -0.39082E-03   -0.95555E-02  3888   0.725E-01    0.600E-02
DAV:   2    -0.121181523799E+03   -0.25857E-03   -0.18697E-03  4224   0.582E-01    0.991E-02
DAV:   3    -0.121181416738E+03    0.10706E-03   -0.13359E-03  2656   0.667E-01
 113 F= -.13514959E+03 E0= -.13514353E+03  d E =-.838278E-03  mag=    -0.0000
       N       E                     dE             d eps       ncg     rms          rms(c)
DAV:   1    -0.121181282286E+03    0.24151E-03   -0.30051E-03  3904   0.573E-01    0.779E-02
DAV:   2    -0.121191753452E+03   -0.10471E-01   -0.46702E-02  4048   0.358E+00    0.595E-01
DAV:   3    -0.121181491693E+03    0.10262E-01   -0.41485E-02  2720   0.320E+00    0.111E-01
DAV:   4    -0.121181200655E+03    0.29104E-03   -0.98042E-04  2480   0.661E-01    0.301E-02
DAV:   5    -0.121181293440E+03   -0.92785E-04   -0.10032E-03  3648   0.201E-01
 114 F= -.13514954E+03 E0= -.13514342E+03  d E =-.786344E-03  mag=    -0.0000
       N       E                     dE             d eps       ncg     rms          rms(c)
DAV:   1    -0.121181384873E+03   -0.18422E-03   -0.23256E-03  4960   0.200E-01    0.169E-02
DAV:   2    -0.121181439635E+03   -0.54762E-04   -0.21693E-04  2432   0.263E-01
 115 F= -.13514962E+03 E0= -.13514340E+03  d E =-.867652E-03  mag=    -0.0000
       N       E                     dE             d eps       ncg     rms          rms(c)
DAV:   1    -0.121181400945E+03   -0.16073E-04   -0.38131E-04  2416   0.329E-01    0.276E-02
DAV:   2    -0.121183005802E+03   -0.16049E-02   -0.72015E-03  2560   0.139E+00    0.233E-01
DAV:   3    -0.121181394645E+03    0.16112E-02   -0.67930E-03  2496   0.128E+00    0.268E-02
DAV:   4    -0.121181391949E+03    0.26963E-05   -0.58482E-05  2272   0.176E-01
 116 F= -.13514957E+03 E0= -.13514347E+03  d E =-.816486E-03  mag=    -0.0000
       N       E                     dE             d eps       ncg     rms          rms(c)
DAV:   1    -0.121181386914E+03    0.77316E-05   -0.23959E-05  2352   0.935E-02    0.550E-03
DAV:   2    -0.121181393048E+03   -0.61349E-05   -0.27876E-05  2016   0.106E-01
 117 F= -.13514957E+03 E0= -.13514349E+03  d E =-.819753E-03  mag=    -0.0000
       N       E                     dE             d eps       ncg     rms          rms(c)
DAV:   1    -0.121181392228E+03   -0.53147E-05   -0.57323E-05  1920   0.129E-01    0.129E-02
DAV:   2    -0.121181819566E+03   -0.42734E-03   -0.19331E-03  2560   0.704E-01    0.121E-01
DAV:   3    -0.121181386384E+03    0.43318E-03   -0.17724E-03  2464   0.657E-01    0.697E-03
DAV:   4    -0.121181389084E+03   -0.27003E-05   -0.43844E-06  2256   0.450E-02
 118 F= -.13514957E+03 E0= -.13514349E+03  d E =-.814705E-03  mag=    -0.0000
       N       E                     dE             d eps       ncg     rms          rms(c)
DAV:   1    -0.121181307148E+03    0.79235E-04   -0.35234E-02  3888   0.402E-01    0.189E-02
DAV:   2    -0.121181347817E+03   -0.40668E-04   -0.37928E-04  2624   0.182E-01
 119 F= -.13514969E+03 E0= -.13514364E+03  d E =-.119171E-03  mag=    -0.0000
       N       E                     dE             d eps       ncg     rms          rms(c)
DAV:   1    -0.121181334879E+03   -0.27731E-04   -0.47589E-04  2304   0.230E-01    0.250E-02
DAV:   2    -0.121181963943E+03   -0.62906E-03   -0.29806E-03  2592   0.910E-01    0.155E-01
DAV:   3    -0.121181344792E+03    0.61915E-03   -0.29046E-03  2480   0.845E-01    0.141E-02
DAV:   4    -0.121181354963E+03   -0.10171E-04   -0.15816E-04  2256   0.151E-01
 120 F= -.13514967E+03 E0= -.13514362E+03  d E =-.105400E-03  mag=    -0.0000
       N       E                     dE             d eps       ncg     rms          rms(c)
DAV:   1    -0.121181357365E+03   -0.12574E-04   -0.13318E-04  2208   0.122E-01    0.139E-02
DAV:   2    -0.121181588113E+03   -0.23075E-03   -0.10581E-03  2528   0.544E-01    0.926E-02
DAV:   3    -0.121181360257E+03    0.22786E-03   -0.10214E-03  2480   0.511E-01    0.142E-02
DAV:   4    -0.121181360054E+03    0.20318E-06   -0.27403E-05  2256   0.955E-02
 121 F= -.13514970E+03 E0= -.13514363E+03  d E =-.130245E-03  mag=    -0.0000
       N       E                     dE             d eps       ncg     rms          rms(c)
DAV:   1    -0.121181372202E+03   -0.11945E-04   -0.50029E-05  2064   0.785E-02    0.102E-02
DAV:   2    -0.121181434956E+03   -0.62754E-04   -0.28050E-04  2288   0.292E-01
 122 F= -.13514976E+03 E0= -.13514370E+03  d E =-.195254E-03  mag=    -0.0000
       N       E                     dE             d eps       ncg     rms          rms(c)
DAV:   1    -0.121181374951E+03   -0.27491E-05   -0.33429E-04  2384   0.297E-01    0.142E-02
DAV:   2    -0.121181898854E+03   -0.52390E-03   -0.22960E-03  2560   0.779E-01    0.132E-01
DAV:   3    -0.121181378423E+03    0.52043E-03   -0.21284E-03  2528   0.725E-01    0.207E-02
DAV:   4    -0.121181371042E+03    0.73811E-05   -0.40847E-05  2288   0.138E-01
 123 F= -.13514970E+03 E0= -.13514363E+03  d E =-.135930E-03  mag=    -0.0000
       N       E                     dE             d eps       ncg     rms          rms(c)
DAV:   1    -0.121181228419E+03    0.15000E-03   -0.28207E-02  3856   0.362E-01    0.158E-02
DAV:   2    -0.121181260226E+03   -0.31808E-04   -0.27382E-04  2416   0.169E-01
 124 F= -.13514983E+03 E0= -.13514381E+03  d E =-.123543E-03  mag=    -0.0000
