<?xml version="1.0" encoding="ISO-8859-1"?>
<modeling>
 <generator>
  <i name="program" type="string">vasp </i>
  <i name="version" type="string">6.3.2  </i>
  <i name="subversion" type="string">27Jun22 (build Aug 17 2022 15:43:34) complex                          parallel </i>
  <i name="platform" type="string">tv2STDVTST </i>
  <i name="date" type="string">2025 02 17 </i>
  <i name="time" type="string">21:46:48 </i>
 </generator>
 <incar>
  <i type="int" name="ISTART">     0</i>
  <i type="string" name="PREC">Normal</i>
  <i type="int" name="ISPIN">     2</i>
  <i type="int" name="ICHARG">     2</i>
  <i type="int" name="IBRION">     2</i>
  <i name="EDIFF">      0.00020000</i>
  <i name="EDIFFG">     -0.03000000</i>
  <i type="int" name="NSW">   800</i>
  <i type="int" name="ISIF">     2</i>
  <i type="int" name="ISYM">     1</i>
  <i name="ENCUT">    400.00000000</i>
  <i name="POTIM">      0.50000000</i>
  <i type="logical" name="LREAL"> F  </i>
  <i type="int" name="ISMEAR">     1</i>
  <i name="SIGMA">      0.20000000</i>
  <i type="logical" name="LWAVE"> F  </i>
  <i type="logical" name="LCHARG"> F  </i>
  <i type="string" name="GGA">PE</i>
  <i type="int" name="IVDW">    11</i>
 </incar>
 <primitive_cell>
  <structure name="primitive_cell" >
   <crystal>
    <varray name="basis" >
     <v>       5.13359547       0.00000000       0.00000000 </v>
     <v>       2.56679773       4.44582409       0.00000000 </v>
     <v>       0.00000000       0.00000000      29.67047119 </v>
    </varray>
    <i name="volume">    677.17101477 </i>
    <varray name="rec_basis" >
     <v>       0.19479525      -0.11246509       0.00000000 </v>
     <v>       0.00000000       0.22493018       0.00000000 </v>
     <v>       0.00000000       0.00000000       0.03370354 </v>
    </varray>
   </crystal>
   <varray name="positions" >
    <v>       0.00000000       0.00000000       0.00000000 </v>
    <v>       1.00000000       0.50000000       0.00000000 </v>
    <v>       0.50000000       0.00000000       0.00000000 </v>
    <v>       0.50000000       0.50000000       0.00000000 </v>
    <v>       0.16666667       0.16666667       0.07063526 </v>
    <v>       0.16666667       0.66666667       0.07063526 </v>
    <v>       0.66666667       0.16666667       0.07063526 </v>
    <v>       0.66666667       0.66666667       0.07063526 </v>
    <v>       0.33333333       0.33333333       0.13847021 </v>
    <v>       0.33333333       0.83333333       0.13847021 </v>
    <v>       0.83333333       0.33333333       0.13847021 </v>
    <v>       0.83333333       0.83333333       0.13847021 </v>
    <v>       0.00000000       0.00000000       0.20667428 </v>
    <v>       1.00000000       0.50000000       0.20667428 </v>
    <v>       0.50000000       0.00000000       0.20667428 </v>
    <v>       0.50000000       0.50000000       0.20667428 </v>
    <v>       0.16666667       0.16666667       0.27488859 </v>
    <v>       0.16666667       0.66666667       0.27488859 </v>
    <v>       0.66666667       0.16666667       0.27488859 </v>
    <v>       0.66666667       0.66666667       0.27488859 </v>
    <v>       0.33333333       0.33333333       0.34319917 </v>
    <v>       0.33333333       0.83333333       0.34319917 </v>
    <v>       0.83333333       0.33333333       0.34319917 </v>
    <v>       0.83333333       0.83333333       0.34319917 </v>
    <v>       0.00000000       0.00000000       0.41105828 </v>
    <v>       1.00000000       0.50000000       0.41105828 </v>
    <v>       0.50000000       0.00000000       0.41105828 </v>
    <v>       0.50000000       0.50000000       0.41105828 </v>
    <v>       0.16666667       0.16666667       0.48054462 </v>
    <v>       0.16666667       0.66666667       0.48054462 </v>
    <v>       0.66666667       0.16666667       0.48054462 </v>
    <v>       0.66666667       0.66666667       0.48054462 </v>
    <v>       0.33333333       0.83333333       0.53425930 </v>
    <v>       0.24943438       0.00113125       0.53425930 </v>
   </varray>
  </structure>
  <varray name="primitive_index" >
   <v type="int" >        1 </v>
   <v type="int" >        2 </v>
   <v type="int" >        3 </v>
   <v type="int" >        4 </v>
   <v type="int" >        5 </v>
   <v type="int" >        6 </v>
   <v type="int" >        7 </v>
   <v type="int" >        8 </v>
   <v type="int" >        9 </v>
   <v type="int" >       10 </v>
   <v type="int" >       11 </v>
   <v type="int" >       12 </v>
   <v type="int" >       13 </v>
   <v type="int" >       14 </v>
   <v type="int" >       15 </v>
   <v type="int" >       16 </v>
   <v type="int" >       17 </v>
   <v type="int" >       18 </v>
   <v type="int" >       19 </v>
   <v type="int" >       20 </v>
   <v type="int" >       21 </v>
   <v type="int" >       22 </v>
   <v type="int" >       23 </v>
   <v type="int" >       24 </v>
   <v type="int" >       25 </v>
   <v type="int" >       26 </v>
   <v type="int" >       27 </v>
   <v type="int" >       28 </v>
   <v type="int" >       29 </v>
   <v type="int" >       30 </v>
   <v type="int" >       31 </v>
   <v type="int" >       32 </v>
   <v type="int" >       33 </v>
   <v type="int" >       34 </v>
  </varray>
 </primitive_cell>
 <kpoints>
  <generation param="Monkhorst-Pack">
   <v type="int" name="divisions">       3        3        1 </v>
   <v name="usershift">      0.00000000       0.00000000       0.00000000 </v>
   <v name="genvec1">      0.33333333       0.00000000       0.00000000 </v>
   <v name="genvec2">      0.00000000       0.33333333       0.00000000 </v>
   <v name="genvec3">      0.00000000       0.00000000       1.00000000 </v>
   <v name="shift">      0.00000000       0.00000000       0.00000000 </v>
  </generation>
  <varray name="kpointlist" >
   <v>       0.00000000       0.00000000       0.00000000 </v>
   <v>       0.33333333       0.00000000       0.00000000 </v>
   <v>       0.00000000       0.33333333       0.00000000 </v>
   <v>      -0.33333333       0.33333333       0.00000000 </v>
  </varray>
  <varray name="weights" >
   <v>       0.11111111 </v>
   <v>       0.44444444 </v>
   <v>       0.22222222 </v>
   <v>       0.22222222 </v>
  </varray>
 </kpoints>
 <parameters>
  <separator name="general" >
   <i type="string" name="SYSTEM">unknown system</i>
   <i type="logical" name="LCOMPAT"> F  </i>
  </separator>
  <separator name="electronic" >
   <i type="string" name="PREC">normal</i>
   <i name="ENMAX">    400.00000000</i>
   <i name="ENAUG">    586.98000000</i>
   <i name="EDIFF">      0.00020000</i>
   <i type="int" name="IALGO">    38</i>
   <i type="int" name="IWAVPR">    11</i>
   <i type="int" name="NBANDS">   232</i>
   <i type="int" name="NBANDSLOW">    -1</i>
   <i type="int" name="NBANDSHIGH">    -1</i>
   <i name="NELECT">    354.00000000</i>
   <i type="int" name="TURBO">     0</i>
   <i type="int" name="IRESTART">     0</i>
   <i type="int" name="NREBOOT">     0</i>
   <i type="int" name="NMIN">     0</i>
   <i name="EREF">      0.00000000</i>
   <separator name="electronic smearing" >
    <i type="int" name="ISMEAR">     1</i>
    <i name="SIGMA">      0.20000000</i>
    <i name="KSPACING">      0.50000000</i>
    <i type="logical" name="KGAMMA"> T  </i>
    <i type="logical" name="KBLOWUP"> T  </i>
   </separator>
   <separator name="electronic projectors" >
    <i type="logical" name="LREAL"> F  </i>
    <v name="ROPT">      0.00000000      0.00000000</v>
    <i type="int" name="LMAXPAW">  -100</i>
    <i type="int" name="LMAXMIX">     2</i>
    <i type="logical" name="NLSPLINE"> F  </i>
   </separator>
   <separator name="electronic startup" >
    <i type="int" name="ISTART">     0</i>
    <i type="int" name="ICHARG">     2</i>
    <i type="int" name="INIWAV">     1</i>
   </separator>
   <separator name="electronic spin" >
    <i type="int" name="ISPIN">     2</i>
    <i type="logical" name="LNONCOLLINEAR"> F  </i>
    <v name="MAGMOM">      1.00000000      1.00000000      1.00000000      1.00000000      1.00000000      1.00000000      1.00000000      1.00000000      1.00000000      1.00000000      1.00000000      1.00000000      1.00000000      1.00000000      1.00000000      1.00000000      1.00000000      1.00000000      1.00000000      1.00000000
      1.00000000      1.00000000      1.00000000      1.00000000      1.00000000      1.00000000      1.00000000      1.00000000      1.00000000      1.00000000      1.00000000      1.00000000      1.00000000      1.00000000</v>
    <i name="NUPDOWN">     -1.00000000</i>
    <i type="logical" name="LSORBIT"> F  </i>
    <v name="SAXIS">      0.00000000      0.00000000      1.00000000</v>
    <i type="logical" name="LSPIRAL"> F  </i>
    <v name="QSPIRAL">      0.00000000      0.00000000      0.00000000</v>
    <i type="logical" name="LZEROZ"> F  </i>
   </separator>
   <separator name="electronic exchange-correlation" >
    <i type="logical" name="LASPH"> F  </i>
    <i type="logical" name="LMETAGGA"> F  </i>
   </separator>
   <separator name="electronic convergence" >
    <i type="int" name="NELM">    60</i>
    <i type="int" name="NELMDL">    -5</i>
    <i type="int" name="NELMIN">     2</i>
    <i name="ENINI">    400.00000000</i>
    <separator name="electronic convergence detail" >
     <i type="logical" name="LDIAG"> T  </i>
     <i type="logical" name="LSUBROT"> F  </i>
     <i name="WEIMIN">      0.00100000</i>
     <i name="EBREAK">      0.00000022</i>
     <i name="DEPER">      0.30000000</i>
     <i type="int" name="NRMM">     4</i>
     <i name="TIME">      0.40000000</i>
    </separator>
   </separator>
   <separator name="electronic mixer" >
    <i name="AMIX">      0.40000000</i>
    <i name="BMIX">      1.00000000</i>
    <i name="AMIN">      0.10000000</i>
    <i name="AMIX_MAG">      1.60000000</i>
    <i name="BMIX_MAG">      1.00000000</i>
    <separator name="electronic mixer details" >
     <i type="int" name="IMIX">     4</i>
     <i type="logical" name="MIXFIRST"> F  </i>
     <i type="int" name="MAXMIX">   -45</i>
     <i name="WC">    100.00000000</i>
     <i type="int" name="INIMIX">     1</i>
     <i type="int" name="MIXPRE">     1</i>
     <i type="int" name="MREMOVE">     5</i>
    </separator>
   </separator>
   <separator name="electronic dipolcorrection" >
    <i type="logical" name="LDIPOL"> F  </i>
    <i type="logical" name="LMONO"> F  </i>
    <i type="int" name="IDIPOL">     0</i>
    <i name="EPSILON">      1.00000000</i>
    <v name="DIPOL">   -100.00000000   -100.00000000   -100.00000000</v>
    <i name="EFIELD">      0.00000000</i>
   </separator>
  </separator>
  <separator name="grids" >
   <i type="int" name="NGX">    28</i>
   <i type="int" name="NGY">    28</i>
   <i type="int" name="NGZ">   150</i>
   <i type="int" name="NGXF">    56</i>
   <i type="int" name="NGYF">    56</i>
   <i type="int" name="NGZF">   300</i>
   <i type="logical" name="ADDGRID"> F  </i>
  </separator>
  <separator name="ionic" >
   <i type="int" name="NSW">   800</i>
   <i type="int" name="IBRION">     2</i>
   <i type="int" name="MDALGO">     0</i>
   <i type="int" name="ISIF">     2</i>
   <i name="PSTRESS">      0.00000000</i>
   <i name="EDIFFG">     -0.03000000</i>
   <i type="int" name="NFREE">     1</i>
   <i name="POTIM">      0.50000000</i>
   <i name="SMASS">     -3.00000000</i>
   <i name="SCALEE">      1.00000000</i>
  </separator>
  <separator name="ionic md" >
   <i name="TEBEG">      0.00010000</i>
   <i name="TEEND">      0.00010000</i>
   <i type="int" name="NBLOCK">     1</i>
   <i type="int" name="KBLOCK">   800</i>
   <i type="int" name="NPACO">   256</i>
   <i name="APACO">     10.00000000</i>
  </separator>
  <separator name="symmetry" >
   <i type="int" name="ISYM">     1</i>
   <i name="SYMPREC">      0.00001000</i>
  </separator>
  <separator name="dos" >
   <i type="int" name="LORBIT">     0</i>
   <v name="RWIGS">     -1.00000000     -1.00000000</v>
   <i type="int" name="NEDOS">   301</i>
   <i name="EMIN">     10.00000000</i>
   <i name="EMAX">    -10.00000000</i>
   <i name="EFERMI">      0.00000000</i>
  </separator>
  <separator name="writing" >
   <i type="int" name="NWRITE">     2</i>
   <i type="logical" name="LWAVE"> F  </i>
   <i type="logical" name="LDOWNSAMPLE"> F  </i>
   <i type="logical" name="LCHARG"> F  </i>
   <i type="logical" name="LPARD"> F  </i>
   <i type="logical" name="LVTOT"> F  </i>
   <i type="logical" name="LVHAR"> F  </i>
   <i type="logical" name="LELF"> F  </i>
   <i type="logical" name="LOPTICS"> F  </i>
   <v name="STM">      0.00000000      0.00000000      0.00000000      0.00000000      0.00000000      0.00000000      0.00000000</v>
  </separator>
  <separator name="performance" >
   <i type="int" name="NPAR">     4</i>
   <i type="int" name="NSIM">     4</i>
   <i type="int" name="NBLK">    -1</i>
   <i type="logical" name="LPLANE"> T  </i>
   <i type="logical" name="LSCALAPACK"> T  </i>
   <i type="logical" name="LSCAAWARE"> F  </i>
   <i type="logical" name="LSCALU"> F  </i>
   <i type="logical" name="LASYNC"> F  </i>
   <i type="logical" name="LORBITALREAL"> F  </i>
  </separator>
  <separator name="miscellaneous" >
   <i type="int" name="IDIOT">     3</i>
   <i type="int" name="PHON_NSTRUCT">    -1</i>
   <i type="logical" name="LMUSIC"> F  </i>
   <v name="POMASS">     63.54600000      1.00000000</v>
   <v name="DARWINR">      0.00000000      0.00000000</v>
   <v name="DARWINV">      1.00000000      1.00000000</v>
   <i type="logical" name="LCORR"> T  </i>
  </separator>
  <i type="logical" name="GGA_COMPAT"> T  </i>
  <i type="logical" name="LBERRY"> F  </i>
  <i type="int" name="ICORELEVEL">     0</i>
  <i type="logical" name="LDAU"> F  </i>
  <i type="int" name="I_CONSTRAINED_M">     0</i>
  <separator name="electronic exchange-correlation" >
   <i type="string" name="GGA">PE</i>
   <i type="int" name="VOSKOWN">     0</i>
   <i type="logical" name="LHFCALC"> F  </i>
   <i type="string" name="PRECFOCK"></i>
   <i type="logical" name="LSYMGRAD"> F  </i>
   <i type="logical" name="LHFONE"> F  </i>
   <i type="logical" name="LRHFCALC"> F  </i>
   <i type="logical" name="LTHOMAS"> F  </i>
   <i type="logical" name="LMODELHF"> F  </i>
   <i type="logical" name="LFOCKACE"> F  </i>
   <i name="ENCUT4O">     -1.00000000</i>
   <i type="int" name="EXXOEP">     0</i>
   <i type="int" name="FOURORBIT">     0</i>
   <i name="AEXX">      0.00000000</i>
   <i name="HFALPHA">      0.00000000</i>
   <i name="MCALPHA">      0.00000000</i>
   <i name="ALDAX">      1.00000000</i>
   <i name="AGGAX">      1.00000000</i>
   <i name="ALDAC">      1.00000000</i>
   <i name="AGGAC">      1.00000000</i>
   <i type="int" name="NKREDX">     1</i>
   <i type="int" name="NKREDY">     1</i>
   <i type="int" name="NKREDZ">     1</i>
   <i type="logical" name="SHIFTRED"> F  </i>
   <i type="logical" name="ODDONLY"> F  </i>
   <i type="logical" name="EVENONLY"> F  </i>
   <i type="int" name="LMAXFOCK">     0</i>
   <i type="int" name="NMAXFOCKAE">     0</i>
   <i type="logical" name="LFOCKAEDFT"> F  </i>
   <i name="HFSCREEN">      0.00000000</i>
   <i name="HFSCREENC">      0.00000000</i>
   <i type="int" name="NBANDSGWLOW">     0</i>
  </separator>
  <separator name="vdW DFT" >
   <i type="logical" name="LUSE_VDW"> F  </i>
   <i name="Zab_VDW">     -0.84910000</i>
   <i name="PARAM1">      0.12340000</i>
   <i name="PARAM2">      1.00000000</i>
   <i name="PARAM3">      0.00000000</i>
  </separator>
  <separator name="model GW" >
   <i type="int" name="MODEL_GW">     0</i>
   <i name="MODEL_EPS0">     11.95007673</i>
   <i name="MODEL_ALPHA">      1.00000000</i>
  </separator>
  <separator name="linear response parameters" >
   <i type="logical" name="LEPSILON"> F  </i>
   <i type="logical" name="LRPA"> F  </i>
   <i type="logical" name="LNABLA"> F  </i>
   <i type="logical" name="LVEL"> F  </i>
   <i name="CSHIFT">      0.10000000</i>
   <i name="OMEGAMAX">     -1.00000000</i>
   <i name="DEG_THRESHOLD">      0.00200000</i>
   <i name="RTIME">     -0.10000000</i>
   <i name="WPLASMAI">      0.00000000</i>
   <v name="DFIELD">      0.00000000      0.00000000      0.00000000</v>
   <v name="WPLASMA">      0.00000000      0.00000000      0.00000000      0.00000000      0.00000000      0.00000000      0.00000000      0.00000000      0.00000000</v>
  </separator>
  <separator name="orbital magnetization" >
   <i type="logical" name="NUCIND"> F  </i>
   <v name="MAGPOS">      0.00000000      0.00000000      0.00000000</v>
   <i type="logical" name="LNICSALL"> T  </i>
   <i type="logical" name="ORBITALMAG"> F  </i>
   <i type="logical" name="LMAGBLOCH"> F  </i>
   <i type="logical" name="LCHIMAG"> F  </i>
   <i type="logical" name="LGAUGE"> T  </i>
   <i type="int" name="MAGATOM">     0</i>
   <v name="MAGDIPOL">      0.00000000      0.00000000      0.00000000</v>
   <v name="AVECCONST">      0.00000000      0.00000000      0.00000000</v>
  </separator>
  <separator name="response functions" >
   <i type="logical" name="LFINITE_TEMPERATURE"> F  </i>
   <i type="logical" name="LADDER"> F  </i>
   <i type="logical" name="LRPAFORCE"> F  </i>
   <i type="logical" name="LFXC"> F  </i>
   <i type="logical" name="LHARTREE"> T  </i>
   <i type="int" name="IBSE">     0</i>
   <v type="int" name="KPOINT">    -1     0     0     0</v>
   <i type="logical" name="LTCTC"> F  </i>
   <i type="logical" name="LTCTE"> F  </i>
   <i type="logical" name="LTETE"> F  </i>
   <i type="logical" name="LTRIPLET"> F  </i>
   <i type="logical" name="LFXCEPS"> F  </i>
   <i type="logical" name="LFXHEG"> F  </i>
   <i type="int" name="NATURALO">     2</i>
   <i type="logical" name="LHOLEGF"> F  </i>
   <i type="logical" name="L2ORDER"> F  </i>
   <i type="logical" name="LDMP1"> F  </i>
   <i type="logical" name="LMP2LT"> F  </i>
   <i type="logical" name="LSMP2LT"> F  </i>
   <i type="logical" name="LGWLF"> F  </i>
   <i name="ENCUTGW">     -2.00000000</i>
   <i name="ENCUTGWSOFT">     -2.00000000</i>
   <i name="ENCUTLF">     -1.00000000</i>
   <i type="logical" name="LESF_SPLINES"> F  </i>
   <i type="int" name="LMAXMP2">    -1</i>
   <i name="SCISSOR">      0.00000000</i>
   <i type="int" name="NOMEGA">     0</i>
   <i type="int" name="NOMEGAR">     0</i>
   <i type="int" name="NBANDSGW">    -1</i>
   <i type="int" name="NBANDSO">    -1</i>
   <i type="int" name="NBANDSV">    -1</i>
   <i type="int" name="NELMGW">     1</i>
   <i type="int" name="NELMHF">     1</i>
   <i type="int" name="DIM">     3</i>
   <i type="int" name="IESPILON">     4</i>
   <i type="int" name="ANTIRES">     0</i>
   <i name="OMEGAMAX">    -30.00000000</i>
   <i name="OMEGAMIN">    -30.00000000</i>
   <i name="OMEGATL">   -200.00000000</i>
   <i type="int" name="OMEGAGRID">     0</i>
   <i name="CSHIFT">     -0.10000000</i>
   <i type="logical" name="LSELFENERGY"> F  </i>
   <i type="logical" name="LSPECTRAL"> F  </i>
   <i type="logical" name="LSPECTRALGW"> F  </i>
   <i type="logical" name="LSINGLES"> F  </i>
   <i type="logical" name="LFERMIGW"> F  </i>
   <i type="logical" name="ODDONLYGW"> F  </i>
   <i type="logical" name="EVENONLYGW"> F  </i>
   <i type="int" name="NKREDLFX">     1</i>
   <i type="int" name="NKREDLFY">     1</i>
   <i type="int" name="NKREDLFZ">     1</i>
   <i type="int" name="MAXMEM">  2800</i>
   <i type="int" name="TELESCOPE">     0</i>
   <i type="int" name="NTAUPAR">    -1</i>
   <i type="int" name="NOMEGAPAR">    -1</i>
   <i name="DAMP_NEWTON">      0.80000001</i>
   <i name="LAMBDA">      1.00000000</i>
  </separator>
  <separator name="External order field" >
   <i name="OFIELD_KAPPA">      0.00000000</i>
   <v name="OFIELD_K">      0.00000000      0.00000000      0.00000000</v>
   <i name="OFIELD_Q6_NEAR">      0.00000000</i>
   <i name="OFIELD_Q6_FAR">      0.00000000</i>
   <i name="OFIELD_A">      0.00000000</i>
  </separator>
  <separator name="optional k-points parameters" >
   <i type="int" name="KPOINTS_OPT_MODE">     1</i>
   <i type="logical" name="LKPOINTS_OPT"> F  </i>
  </separator>
 </parameters>
 <atominfo>
  <atoms>      34 </atoms>
  <types>       2 </types>
  <array name="atoms" >
   <dimension dim="1">ion</dimension>
   <field type="string">element</field>
   <field type="int">atomtype</field>
   <set>
    <rc><c>Cu</c><c>   1</c></rc>
    <rc><c>Cu</c><c>   1</c></rc>
    <rc><c>Cu</c><c>   1</c></rc>
    <rc><c>Cu</c><c>   1</c></rc>
    <rc><c>Cu</c><c>   1</c></rc>
    <rc><c>Cu</c><c>   1</c></rc>
    <rc><c>Cu</c><c>   1</c></rc>
    <rc><c>Cu</c><c>   1</c></rc>
    <rc><c>Cu</c><c>   1</c></rc>
    <rc><c>Cu</c><c>   1</c></rc>
    <rc><c>Cu</c><c>   1</c></rc>
    <rc><c>Cu</c><c>   1</c></rc>
    <rc><c>Cu</c><c>   1</c></rc>
    <rc><c>Cu</c><c>   1</c></rc>
    <rc><c>Cu</c><c>   1</c></rc>
    <rc><c>Cu</c><c>   1</c></rc>
    <rc><c>Cu</c><c>   1</c></rc>
    <rc><c>Cu</c><c>   1</c></rc>
    <rc><c>Cu</c><c>   1</c></rc>
    <rc><c>Cu</c><c>   1</c></rc>
    <rc><c>Cu</c><c>   1</c></rc>
    <rc><c>Cu</c><c>   1</c></rc>
    <rc><c>Cu</c><c>   1</c></rc>
    <rc><c>Cu</c><c>   1</c></rc>
    <rc><c>Cu</c><c>   1</c></rc>
    <rc><c>Cu</c><c>   1</c></rc>
    <rc><c>Cu</c><c>   1</c></rc>
    <rc><c>Cu</c><c>   1</c></rc>
    <rc><c>Cu</c><c>   1</c></rc>
    <rc><c>Cu</c><c>   1</c></rc>
    <rc><c>Cu</c><c>   1</c></rc>
    <rc><c>Cu</c><c>   1</c></rc>
    <rc><c>H </c><c>   2</c></rc>
    <rc><c>H </c><c>   2</c></rc>
   </set>
  </array>
  <array name="atomtypes" >
   <dimension dim="1">type</dimension>
   <field type="int">atomspertype</field>
   <field type="string">element</field>
   <field>mass</field>
   <field>valence</field>
   <field type="string">pseudopotential</field>
   <set>
    <rc><c>  32</c><c>Cu</c><c>     63.54600000</c><c>     11.00000000</c><c>  PAW_PBE Cu 22Jun2005                  </c></rc>
    <rc><c>   2</c><c>H </c><c>      1.00000000</c><c>      1.00000000</c><c>  PAW_PBE H 15Jun2001                   </c></rc>
   </set>
  </array>
 </atominfo>
 <structure name="initialpos" >
  <crystal>
   <varray name="basis" >
    <v>       5.13359547       0.00000000       0.00000000 </v>
    <v>       2.56679773       4.44582409       0.00000000 </v>
    <v>       0.00000000       0.00000000      29.67047119 </v>
   </varray>
   <i name="volume">    677.17101477 </i>
   <varray name="rec_basis" >
    <v>       0.19479525      -0.11246509       0.00000000 </v>
    <v>       0.00000000       0.22493018       0.00000000 </v>
    <v>       0.00000000       0.00000000       0.03370354 </v>
   </varray>
  </crystal>
  <varray name="positions" >
   <v>       0.00000000       0.00000000       0.00000000 </v>
   <v>       1.00000000       0.50000000       0.00000000 </v>
   <v>       0.50000000       0.00000000       0.00000000 </v>
   <v>       0.50000000       0.50000000       0.00000000 </v>
   <v>       0.16666667       0.16666667       0.07063526 </v>
   <v>       0.16666667       0.66666667       0.07063526 </v>
   <v>       0.66666667       0.16666667       0.07063526 </v>
   <v>       0.66666667       0.66666667       0.07063526 </v>
   <v>       0.33333333       0.33333333       0.13847021 </v>
   <v>       0.33333333       0.83333333       0.13847021 </v>
   <v>       0.83333333       0.33333333       0.13847021 </v>
   <v>       0.83333333       0.83333333       0.13847021 </v>
   <v>       0.00000000       0.00000000       0.20667428 </v>
   <v>       1.00000000       0.50000000       0.20667428 </v>
   <v>       0.50000000       0.00000000       0.20667428 </v>
   <v>       0.50000000       0.50000000       0.20667428 </v>
   <v>       0.16666667       0.16666667       0.27488859 </v>
   <v>       0.16666667       0.66666667       0.27488859 </v>
   <v>       0.66666667       0.16666667       0.27488859 </v>
   <v>       0.66666667       0.66666667       0.27488859 </v>
   <v>       0.33333333       0.33333333       0.34319917 </v>
   <v>       0.33333333       0.83333333       0.34319917 </v>
   <v>       0.83333333       0.33333333       0.34319917 </v>
   <v>       0.83333333       0.83333333       0.34319917 </v>
   <v>       0.00000000       0.00000000       0.41105828 </v>
   <v>       1.00000000       0.50000000       0.41105828 </v>
   <v>       0.50000000       0.00000000       0.41105828 </v>
   <v>       0.50000000       0.50000000       0.41105828 </v>
   <v>       0.16666667       0.16666667       0.48054462 </v>
   <v>       0.16666667       0.66666667       0.48054462 </v>
   <v>       0.66666667       0.16666667       0.48054462 </v>
   <v>       0.66666667       0.66666667       0.48054462 </v>
   <v>       0.33333333       0.83333333       0.53425930 </v>
   <v>       0.24943438       0.00113125       0.53425930 </v>
  </varray>
 </structure>
 <calculation>
  <scstep>
   <time name="dav">    6.10    6.15</time>
   <time name="total">    6.18    6.23</time>
   <energy>
    <i name="alphaZ">   1114.72537883 </i>
    <i name="ewald"> 216569.83336233 </i>
    <i name="hartreedc">-260598.69333466 </i>
    <i name="XCdc">   1472.20930012 </i>
    <i name="pawpsdc">  39302.70853331 </i>
    <i name="pawaedc"> -42689.07521165 </i>
    <i name="eentropy">     -0.01292162 </i>
    <i name="bandstr">   3744.07246133 </i>
    <i name="atom">  44535.60175172 </i>
    <i name="e_fr_energy">   3451.36931971 </i>
    <i name="e_wo_entrp">   3451.38224133 </i>
    <i name="e_0_energy">   3451.37362692 </i>
   </energy>
  </scstep>
  <scstep>
   <time name="dav">    6.05    6.10</time>
   <time name="total">    6.05    6.10</time>
   <energy>
    <i name="e_fr_energy">    487.63164644 </i>
    <i name="e_wo_entrp">    487.62585285 </i>
    <i name="e_0_energy">    487.62971525 </i>
   </energy>
  </scstep>
  <scstep>
   <time name="dav">    6.02    6.07</time>
   <time name="total">    6.02    6.07</time>
   <energy>
    <i name="e_fr_energy">    -92.81410558 </i>
    <i name="e_wo_entrp">    -92.82540258 </i>
    <i name="e_0_energy">    -92.81787125 </i>
   </energy>
  </scstep>
  <scstep>
   <time name="dav">    6.45    6.50</time>
   <time name="total">    6.45    6.50</time>
   <energy>
    <i name="e_fr_energy">   -138.33761205 </i>
    <i name="e_wo_entrp">   -138.36453236 </i>
    <i name="e_0_energy">   -138.34658549 </i>
   </energy>
  </scstep>
  <scstep>
   <time name="dav">    6.54    6.59</time>
   <time name="total">    6.94    6.99</time>
   <energy>
    <i name="e_fr_energy">   -139.44747473 </i>
    <i name="e_wo_entrp">   -139.47638546 </i>
    <i name="e_0_energy">   -139.45711164 </i>
   </energy>
  </scstep>
  <scstep>
   <time name="dav">    6.56    6.61</time>
   <time name="total">    7.03    7.08</time>
   <energy>
    <i name="e_fr_energy">   -114.92820251 </i>
    <i name="e_wo_entrp">   -114.88599926 </i>
    <i name="e_0_energy">   -114.91413476 </i>
   </energy>
  </scstep>
  <scstep>
   <time name="dav">    6.70    6.75</time>
   <time name="total">    7.15    7.21</time>
   <energy>
    <i name="e_fr_energy">   -102.56278780 </i>
    <i name="e_wo_entrp">   -102.56335304 </i>
    <i name="e_0_energy">   -102.56297622 </i>
   </energy>
  </scstep>
  <scstep>
   <time name="dav">    7.29    7.34</time>
   <time name="total">    7.74    7.80</time>
   <energy>
    <i name="e_fr_energy">   -109.62174789 </i>
    <i name="e_wo_entrp">   -109.65419994 </i>
    <i name="e_0_energy">   -109.63256524 </i>
   </energy>
  </scstep>
  <scstep>
   <time name="dav">    7.98    8.04</time>
   <time name="total">    8.43    8.49</time>
   <energy>
    <i name="e_fr_energy">    -99.29925134 </i>
    <i name="e_wo_entrp">    -99.25251310 </i>
    <i name="e_0_energy">    -99.28367193 </i>
   </energy>
  </scstep>
  <scstep>
   <time name="dav">    7.34    7.40</time>
   <time name="total">    7.79    7.85</time>
   <energy>
    <i name="e_fr_energy">   -100.11847111 </i>
    <i name="e_wo_entrp">   -100.09760253 </i>
    <i name="e_0_energy">   -100.11151491 </i>
   </energy>
  </scstep>
  <scstep>
   <time name="dav">    6.57    6.62</time>
   <time name="total">    7.02    7.08</time>
   <energy>
    <i name="e_fr_energy">   -101.49726548 </i>
    <i name="e_wo_entrp">   -101.54051707 </i>
    <i name="e_0_energy">   -101.51168268 </i>
   </energy>
  </scstep>
  <scstep>
   <time name="dav">    6.85    6.91</time>
   <time name="total">    7.32    7.37</time>
   <energy>
    <i name="e_fr_energy">   -102.37991137 </i>
    <i name="e_wo_entrp">   -102.34984522 </i>
    <i name="e_0_energy">   -102.36988932 </i>
   </energy>
  </scstep>
  <scstep>
   <time name="dav">    8.39    8.45</time>
   <time name="total">    8.85    8.92</time>
   <energy>
    <i name="e_fr_energy">   -102.63927700 </i>
    <i name="e_wo_entrp">   -102.66585184 </i>
    <i name="e_0_energy">   -102.64813528 </i>
   </energy>
  </scstep>
  <scstep>
   <time name="dav">    8.95    9.02</time>
   <time name="total">    9.40    9.47</time>
   <energy>
    <i name="e_fr_energy">   -104.32308162 </i>
    <i name="e_wo_entrp">   -104.32384748 </i>
    <i name="e_0_energy">   -104.32333691 </i>
   </energy>
  </scstep>
  <scstep>
   <time name="dav">    7.66    7.72</time>
   <time name="total">    8.11    8.17</time>
   <energy>
    <i name="e_fr_energy">   -108.77453118 </i>
    <i name="e_wo_entrp">   -108.78613907 </i>
    <i name="e_0_energy">   -108.77840048 </i>
   </energy>
  </scstep>
  <scstep>
   <time name="dav">    7.32    7.37</time>
   <time name="total">    7.78    7.84</time>
   <energy>
    <i name="e_fr_energy">   -112.02169203 </i>
    <i name="e_wo_entrp">   -112.01901440 </i>
    <i name="e_0_energy">   -112.02079948 </i>
   </energy>
  </scstep>
  <scstep>
   <time name="dav">    6.79    6.85</time>
   <time name="total">    7.26    7.31</time>
   <energy>
    <i name="e_fr_energy">   -113.62163586 </i>
    <i name="e_wo_entrp">   -113.59471557 </i>
    <i name="e_0_energy">   -113.61266243 </i>
   </energy>
  </scstep>
  <scstep>
   <time name="dav">    7.13    7.19</time>
   <time name="total">    7.58    7.64</time>
   <energy>
    <i name="e_fr_energy">   -114.64285539 </i>
    <i name="e_wo_entrp">   -114.61921724 </i>
    <i name="e_0_energy">   -114.63497601 </i>
   </energy>
  </scstep>
  <scstep>
   <time name="dav">    7.09    7.14</time>
   <time name="total">    7.55    7.61</time>
   <energy>
    <i name="e_fr_energy">   -115.50032492 </i>
    <i name="e_wo_entrp">   -115.47986566 </i>
    <i name="e_0_energy">   -115.49350517 </i>
   </energy>
  </scstep>
  <scstep>
   <time name="dav">    7.35    7.41</time>
   <time name="total">    7.80    7.86</time>
   <energy>
    <i name="e_fr_energy">   -116.40574278 </i>
    <i name="e_wo_entrp">   -116.39248053 </i>
    <i name="e_0_energy">   -116.40132203 </i>
   </energy>
  </scstep>
  <scstep>
   <time name="dav">    7.63    7.69</time>
   <time name="total">    8.09    8.15</time>
   <energy>
    <i name="e_fr_energy">   -117.25679972 </i>
    <i name="e_wo_entrp">   -117.24466440 </i>
    <i name="e_0_energy">   -117.25275461 </i>
   </energy>
  </scstep>
  <scstep>
   <time name="dav">    7.55    7.61</time>
   <time name="total">    7.99    8.06</time>
   <energy>
    <i name="e_fr_energy">   -117.68167392 </i>
    <i name="e_wo_entrp">   -117.67432695 </i>
    <i name="e_0_energy">   -117.67922493 </i>
   </energy>
  </scstep>
  <scstep>
   <time name="dav">    7.19    7.25</time>
   <time name="total">    7.64    7.70</time>
   <energy>
    <i name="e_fr_energy">   -118.12992487 </i>
    <i name="e_wo_entrp">   -118.12189481 </i>
    <i name="e_0_energy">   -118.12724818 </i>
   </energy>
  </scstep>
  <scstep>
   <time name="dav">    7.23    7.29</time>
   <time name="total">    7.68    7.73</time>
   <energy>
    <i name="e_fr_energy">   -118.62534440 </i>
    <i name="e_wo_entrp">   -118.62171147 </i>
    <i name="e_0_energy">   -118.62413342 </i>
   </energy>
  </scstep>
  <scstep>
   <time name="dav">    7.63    7.69</time>
   <time name="total">    8.08    8.15</time>
   <energy>
    <i name="e_fr_energy">   -119.86990841 </i>
    <i name="e_wo_entrp">   -119.86213831 </i>
    <i name="e_0_energy">   -119.86731838 </i>
   </energy>
  </scstep>
  <scstep>
   <time name="dav">    6.70    6.75</time>
   <time name="total">    7.16    7.22</time>
   <energy>
    <i name="e_fr_energy">   -120.39887671 </i>
    <i name="e_wo_entrp">   -120.39338657 </i>
    <i name="e_0_energy">   -120.39704666 </i>
   </energy>
  </scstep>
  <scstep>
   <time name="dav">    6.73    6.78</time>
   <time name="total">    7.18    7.24</time>
   <energy>
    <i name="e_fr_energy">   -120.54386126 </i>
    <i name="e_wo_entrp">   -120.53871918 </i>
    <i name="e_0_energy">   -120.54214724 </i>
   </energy>
  </scstep>
  <scstep>
   <time name="dav">    7.32    7.38</time>
   <time name="total">    7.79    7.84</time>
   <energy>
    <i name="e_fr_energy">   -120.57726902 </i>
    <i name="e_wo_entrp">   -120.57244584 </i>
    <i name="e_0_energy">   -120.57566129 </i>
   </energy>
  </scstep>
  <scstep>
   <time name="dav">    6.31    6.36</time>
   <time name="total">    6.77    6.82</time>
   <energy>
    <i name="e_fr_energy">   -120.58837394 </i>
    <i name="e_wo_entrp">   -120.58377331 </i>
    <i name="e_0_energy">   -120.58684040 </i>
   </energy>
  </scstep>
  <scstep>
   <time name="dav">    6.04    6.08</time>
   <time name="total">    6.51    6.56</time>
   <energy>
    <i name="e_fr_energy">   -120.59260262 </i>
    <i name="e_wo_entrp">   -120.58797862 </i>
    <i name="e_0_energy">   -120.59106128 </i>
   </energy>
  </scstep>
  <scstep>
   <time name="dav">    4.57    4.61</time>
   <time name="total">    5.03    5.07</time>
   <energy>
    <i name="e_fr_energy">   -120.59372156 </i>
    <i name="e_wo_entrp">   -120.58909126 </i>
    <i name="e_0_energy">   -120.59217812 </i>
   </energy>
  </scstep>
  <scstep>
   <time name="dav">    4.64    4.68</time>
   <time name="total">    4.72    4.76</time>
   <energy>
    <i name="alphaZ">   1114.72537883 </i>
    <i name="ewald"> 216569.83336233 </i>
    <i name="hartreedc">-260100.37671395 </i>
    <i name="XCdc">   1433.95702011 </i>
    <i name="pawpsdc">  42139.56655756 </i>
    <i name="pawaedc"> -45591.55543974 </i>
    <i name="eentropy">     -0.00463883 </i>
    <i name="bandstr">   -222.34101137 </i>
    <i name="atom">  44535.60175172 </i>
    <i name="e_fr_energy">   -120.59373335 </i>
    <i name="e_wo_entrp">   -120.58909451 </i>
    <i name="e_0_energy">   -120.59218707 </i>
   </energy>
  </scstep>
  <structure>
   <crystal>
    <varray name="basis" >
     <v>       5.13359547       0.00000000       0.00000000 </v>
     <v>       2.56679773       4.44582409       0.00000000 </v>
     <v>       0.00000000       0.00000000      29.67047119 </v>
    </varray>
    <i name="volume">    677.17101477 </i>
    <varray name="rec_basis" >
     <v>       0.19479525      -0.11246509       0.00000000 </v>
     <v>       0.00000000       0.22493018       0.00000000 </v>
     <v>       0.00000000       0.00000000       0.03370354 </v>
    </varray>
   </crystal>
   <varray name="positions" >
    <v>       0.00000000       0.00000000       0.00000000 </v>
    <v>       1.00000000       0.50000000       0.00000000 </v>
    <v>       0.50000000       0.00000000       0.00000000 </v>
    <v>       0.50000000       0.50000000       0.00000000 </v>
    <v>       0.16666667       0.16666667       0.07063526 </v>
    <v>       0.16666667       0.66666667       0.07063526 </v>
    <v>       0.66666667       0.16666667       0.07063526 </v>
    <v>       0.66666667       0.66666667       0.07063526 </v>
    <v>       0.33333333       0.33333333       0.13847021 </v>
    <v>       0.33333333       0.83333333       0.13847021 </v>
    <v>       0.83333333       0.33333333       0.13847021 </v>
    <v>       0.83333333       0.83333333       0.13847021 </v>
    <v>       0.00000000       0.00000000       0.20667428 </v>
    <v>       1.00000000       0.50000000       0.20667428 </v>
    <v>       0.50000000       0.00000000       0.20667428 </v>
    <v>       0.50000000       0.50000000       0.20667428 </v>
    <v>       0.16666667       0.16666667       0.27488859 </v>
    <v>       0.16666667       0.66666667       0.27488859 </v>
    <v>       0.66666667       0.16666667       0.27488859 </v>
    <v>       0.66666667       0.66666667       0.27488859 </v>
    <v>       0.33333333       0.33333333       0.34319917 </v>
    <v>       0.33333333       0.83333333       0.34319917 </v>
    <v>       0.83333333       0.33333333       0.34319917 </v>
    <v>       0.83333333       0.83333333       0.34319917 </v>
    <v>       0.00000000       0.00000000       0.41105828 </v>
    <v>       1.00000000       0.50000000       0.41105828 </v>
    <v>       0.50000000       0.00000000       0.41105828 </v>
    <v>       0.50000000       0.50000000       0.41105828 </v>
    <v>       0.16666667       0.16666667       0.48054462 </v>
    <v>       0.16666667       0.66666667       0.48054462 </v>
    <v>       0.66666667       0.16666667       0.48054462 </v>
    <v>       0.66666667       0.66666667       0.48054462 </v>
    <v>       0.33333333       0.83333333       0.53425930 </v>
    <v>       0.24943438       0.00113125       0.53425930 </v>
   </varray>
  </structure>
  <varray name="forces" >
   <v>      -0.01900953       0.01699755       0.15377512 </v>
   <v>       0.00000000      -0.00486520       0.13021596 </v>
   <v>       0.01900953       0.01699755       0.15377512 </v>
   <v>       0.00000000      -0.03040533       0.14131648 </v>
   <v>       0.00000000       0.00135860      -0.11503086 </v>
   <v>      -0.00177090       0.00254011      -0.13576666 </v>
   <v>       0.00000000      -0.00302277      -0.12797310 </v>
   <v>       0.00177090       0.00254011      -0.13576666 </v>
   <v>       0.00175879       0.01048059      -0.01218747 </v>
   <v>       0.00000000      -0.01336506      -0.03390526 </v>
   <v>      -0.00175879       0.01048059      -0.01218747 </v>
   <v>       0.00000000      -0.00557694      -0.00437369 </v>
   <v>      -0.01196492       0.00970871       0.01928987 </v>
   <v>       0.00000000       0.00098473      -0.03276112 </v>
   <v>       0.01196492       0.00970871       0.01928987 </v>
   <v>       0.00000000      -0.02370147       0.01979623 </v>
   <v>       0.00000000       0.05806096       0.04482993 </v>
   <v>      -0.04123379      -0.03375317       0.01430365 </v>
   <v>       0.00000000       0.01121537      -0.01455420 </v>
   <v>       0.04123379      -0.03375317       0.01430365 </v>
   <v>       0.00787413       0.02467531       0.01383631 </v>
   <v>       0.00000000      -0.04410811      -0.05535321 </v>
   <v>      -0.00787413       0.02467531       0.01383631 </v>
   <v>       0.00000000      -0.01451023       0.01760874 </v>
   <v>       0.03899904      -0.01685928       0.03178497 </v>
   <v>       0.00000000      -0.00400934       0.16732253 </v>
   <v>      -0.03899904      -0.01685928       0.03178497 </v>
   <v>       0.00000000       0.03469700       0.08019556 </v>
   <v>       0.00000000       0.35446024      -0.38681103 </v>
   <v>      -0.28426691      -0.29213852      -0.30876969 </v>
   <v>       0.00000000       0.13272627      -0.19203479 </v>
   <v>       0.28426691      -0.29213852      -0.30876969 </v>
   <v>       0.00000000      -1.63206470       0.10550120 </v>
   <v>      -0.00000000       1.73882338       0.70347845 </v>
  </varray>
  <varray name="stress" >
   <v>     -31.60972491       0.00000000       0.00000000 </v>
   <v>       0.00000000     -29.23732676       0.44910974 </v>
   <v>       0.00000000       0.44911519      -7.78408283 </v>
  </varray>
  <energy>
   <i name="e_fr_energy">   -134.62370799 </i>
   <i name="e_wo_entrp">   -134.61906915 </i>
   <i name="e_0_energy">   -134.62216171 </i>
  </energy>
  <time name="totalsc">  244.68  246.60</time>
 </calculation>
 <calculation>
  <scstep>
   <time name="dav">    6.06    6.11</time>
   <time name="total">    6.54    6.60</time>
   <energy>
    <i name="alphaZ">   1114.72537883 </i>
    <i name="ewald"> 216876.19028645 </i>
    <i name="hartreedc">-260408.01896151 </i>
    <i name="XCdc">   1433.89374846 </i>
    <i name="pawpsdc">  42139.17768071 </i>
    <i name="pawaedc"> -45591.16547885 </i>
    <i name="eentropy">     -0.00857223 </i>
    <i name="bandstr">   -220.98351158 </i>
    <i name="atom">  44535.60175172 </i>
    <i name="e_fr_energy">   -120.58767799 </i>
    <i name="e_wo_entrp">   -120.57910576 </i>
    <i name="e_0_energy">   -120.58482058 </i>
   </energy>
  </scstep>
  <scstep>
   <time name="dav">    8.01    8.07</time>
   <time name="total">    8.48    8.55</time>
   <energy>
    <i name="e_fr_energy">   -120.61731455 </i>
    <i name="e_wo_entrp">   -120.60920171 </i>
    <i name="e_0_energy">   -120.61461027 </i>
   </energy>
  </scstep>
  <scstep>
   <time name="dav">    6.96    7.02</time>
   <time name="total">    7.44    7.50</time>
   <energy>
    <i name="e_fr_energy">   -120.65526945 </i>
    <i name="e_wo_entrp">   -120.64947078 </i>
    <i name="e_0_energy">   -120.65333656 </i>
   </energy>
  </scstep>
  <scstep>
   <time name="dav">    7.00    7.06</time>
   <time name="total">    7.48    7.53</time>
   <energy>
    <i name="e_fr_energy">   -120.65565178 </i>
    <i name="e_wo_entrp">   -120.64770946 </i>
    <i name="e_0_energy">   -120.65300434 </i>
   </energy>
  </scstep>
  <scstep>
   <time name="dav">    8.21    8.27</time>
   <time name="total">    8.68    8.75</time>
   <energy>
    <i name="e_fr_energy">   -120.62783851 </i>
    <i name="e_wo_entrp">   -120.62201142 </i>
    <i name="e_0_energy">   -120.62589615 </i>
   </energy>
  </scstep>
  <scstep>
   <time name="dav">    8.79    8.86</time>
   <time name="total">    9.26    9.33</time>
   <energy>
    <i name="e_fr_energy">   -120.61213265 </i>
    <i name="e_wo_entrp">   -120.60602875 </i>
    <i name="e_0_energy">   -120.61009802 </i>
   </energy>
  </scstep>
  <scstep>
   <time name="dav">    9.26    9.34</time>
   <time name="total">    9.74    9.81</time>
   <energy>
    <i name="e_fr_energy">   -120.61122284 </i>
    <i name="e_wo_entrp">   -120.60293605 </i>
    <i name="e_0_energy">   -120.60846058 </i>
   </energy>
  </scstep>
  <scstep>
   <time name="dav">    6.66    6.71</time>
   <time name="total">    7.13    7.18</time>
   <energy>
    <i name="e_fr_energy">   -120.61080513 </i>
    <i name="e_wo_entrp">   -120.60343940 </i>
    <i name="e_0_energy">   -120.60834989 </i>
   </energy>
  </scstep>
  <scstep>
   <time name="dav">    6.18    6.23</time>
   <time name="total">    6.65    6.70</time>
   <energy>
    <i name="e_fr_energy">   -120.61100337 </i>
    <i name="e_wo_entrp">   -120.60372723 </i>
    <i name="e_0_energy">   -120.60857799 </i>
   </energy>
  </scstep>
  <scstep>
   <time name="dav">    5.24    5.28</time>
   <time name="total">    5.32    5.36</time>
   <energy>
    <i name="alphaZ">   1114.72537883 </i>
    <i name="ewald"> 216876.19028645 </i>
    <i name="hartreedc">-260397.94021729 </i>
    <i name="XCdc">   1433.68400151 </i>
    <i name="pawpsdc">  42141.76960030 </i>
    <i name="pawaedc"> -45593.99430537 </i>
    <i name="eentropy">     -0.00731361 </i>
    <i name="bandstr">   -230.64028949 </i>
    <i name="atom">  44535.60175172 </i>
    <i name="e_fr_energy">   -120.61110695 </i>
    <i name="e_wo_entrp">   -120.60379334 </i>
    <i name="e_0_energy">   -120.60866908 </i>
   </energy>
  </scstep>
  <structure>
   <crystal>
    <varray name="basis" >
     <v>       5.13359547       0.00000000       0.00000000 </v>
     <v>       2.56679773       4.44582409       0.00000000 </v>
     <v>       0.00000000       0.00000000      29.67047119 </v>
    </varray>
    <i name="volume">    677.17101477 </i>
    <varray name="rec_basis" >
     <v>       0.19479525      -0.11246509       0.00000000 </v>
     <v>       0.00000000       0.22493018       0.00000000 </v>
     <v>       0.00000000       0.00000000       0.03370354 </v>
    </varray>
   </crystal>
   <varray name="positions" >
    <v>      -0.00027086       0.00018444       0.00025003 </v>
    <v>       0.00002640       0.49994721       0.00021172 </v>
    <v>       0.50008642       0.00018444       0.00025003 </v>
    <v>       0.50016497       0.49967006       0.00022977 </v>
    <v>       0.16665930       0.16668141       0.07044823 </v>
    <v>       0.16663624       0.66669423       0.07041451 </v>
    <v>       0.66668307       0.16663387       0.07042719 </v>
    <v>       0.66666953       0.66669423       0.07041451 </v>
    <v>       0.33329300       0.33344706       0.13845040 </v>
    <v>       0.33340585       0.83318831       0.13841508 </v>
    <v>       0.83325994       0.33344706       0.13845040 </v>
    <v>       0.83336359       0.83327282       0.13846310 </v>
    <v>      -0.00016512       0.00010535       0.20670564 </v>
    <v>       0.99999466       0.50001069       0.20662101 </v>
    <v>       0.50005976       0.00010535       0.20670564 </v>
    <v>       0.50012860       0.49974281       0.20670647 </v>
    <v>       0.16635165       0.16729670       0.27496148 </v>
    <v>       0.16646231       0.66630040       0.27491184 </v>
    <v>       0.66660582       0.16678837       0.27486492 </v>
    <v>       0.66723729       0.66630040       0.27491184 </v>
    <v>       0.33327345       0.33360109       0.34322167 </v>
    <v>       0.33357265       0.83285471       0.34310917 </v>
    <v>       0.83312546       0.33360109       0.34322167 </v>
    <v>       0.83341206       0.83317588       0.34322780 </v>
    <v>       0.00045796      -0.00018294       0.41110996 </v>
    <v>       0.00002175       0.49995649       0.41133034 </v>
    <v>       0.49972498      -0.00018294       0.41110996 </v>
    <v>       0.49981175       0.50037651       0.41118867 </v>
    <v>       0.16474350       0.17051300       0.47991568 </v>
    <v>       0.16558032       0.66349660       0.48004257 </v>
    <v>       0.66594655       0.16810691       0.48023238 </v>
    <v>       0.67092308       0.66349660       0.48004257 </v>
    <v>       0.34218829       0.81562343       0.53443084 </v>
    <v>       0.24000019       0.01999962       0.53540312 </v>
   </varray>
  </structure>
  <varray name="forces" >
   <v>      -0.00998049       0.01110514       0.10397133 </v>
   <v>      -0.00000000      -0.00358077       0.08056179 </v>
   <v>       0.00998049       0.01110514       0.10397133 </v>
   <v>      -0.00000000      -0.01911922       0.08919402 </v>
   <v>      -0.00000000       0.00051123      -0.04692982 </v>
   <v>       0.00064814       0.00199983      -0.06531891 </v>
   <v>      -0.00000000      -0.00021939      -0.05088729 </v>
   <v>      -0.00064814       0.00199983      -0.06531891 </v>
   <v>       0.00027798       0.00365604      -0.03260479 </v>
   <v>      -0.00000000      -0.00736589      -0.03690275 </v>
   <v>      -0.00027798       0.00365604      -0.03260479 </v>
   <v>      -0.00000000      -0.00041176      -0.02909537 </v>
   <v>       0.00518901       0.00312820       0.01476720 </v>
   <v>      -0.00000000      -0.00318252      -0.02134114 </v>
   <v>      -0.00518901       0.00312820       0.01476720 </v>
   <v>      -0.00000000      -0.00746082       0.00998822 </v>
   <v>      -0.00000000       0.03057690       0.02285537 </v>
   <v>      -0.02174252      -0.01723458      -0.00334885 </v>
   <v>      -0.00000000       0.00901519       0.00470074 </v>
   <v>       0.02174252      -0.01723458      -0.00334885 </v>
   <v>      -0.00138491       0.01580199       0.02862625 </v>
   <v>      -0.00000000      -0.03085316      -0.02550281 </v>
   <v>       0.00138491       0.01580199       0.02862625 </v>
   <v>      -0.00000000      -0.01146836       0.01789916 </v>
   <v>       0.01484336      -0.01775025      -0.01374202 </v>
   <v>      -0.00000000       0.01001116       0.00952845 </v>
   <v>      -0.01484336      -0.01775025      -0.01374202 </v>
   <v>      -0.00000000       0.02037201      -0.00103087 </v>
   <v>      -0.00000000       0.03445123      -0.02130223 </v>
   <v>      -0.05318198      -0.10949940      -0.09274337 </v>
   <v>      -0.00000000       0.07860888      -0.14280797 </v>
   <v>       0.05318198      -0.10949940      -0.09274337 </v>
   <v>      -0.00000000       1.04726946      -0.10365746 </v>
   <v>       0.00000000      -0.92956813       0.36551627 </v>
  </varray>
  <varray name="stress" >
   <v>     -31.31593266       0.00000000       0.00000000 </v>
   <v>       0.00000000     -33.75270313       0.42378327 </v>
   <v>       0.00000000       0.42378890      -8.67440139 </v>
  </varray>
  <energy>
   <i name="e_fr_energy">   -134.70237342 </i>
   <i name="e_wo_entrp">   -134.69505981 </i>
   <i name="e_0_energy">   -134.69993555 </i>
  </energy>
  <time name="totalsc">   88.30   89.02</time>
 </calculation>
 <calculation>
  <scstep>
   <time name="dav">    6.04    6.09</time>
   <time name="total">    6.52    6.57</time>
   <energy>
    <i name="alphaZ">   1114.72537883 </i>
    <i name="ewald"> 216765.07064539 </i>
    <i name="hartreedc">-260285.66584714 </i>
    <i name="XCdc">   1433.69861589 </i>
    <i name="pawpsdc">  42142.01538995 </i>
    <i name="pawaedc"> -45594.24321145 </i>
    <i name="eentropy">     -0.00627380 </i>
    <i name="bandstr">   -231.85338057 </i>
    <i name="atom">  44535.60175172 </i>
    <i name="e_fr_energy">   -120.65693118 </i>
    <i name="e_wo_entrp">   -120.65065739 </i>
    <i name="e_0_energy">   -120.65483992 </i>
   </energy>
  </scstep>
  <scstep>
   <time name="dav">    8.77    8.84</time>
   <time name="total">    9.24    9.31</time>
   <energy>
    <i name="e_fr_energy">   -120.66503502 </i>
    <i name="e_wo_entrp">   -120.65832843 </i>
    <i name="e_0_energy">   -120.66279949 </i>
   </energy>
  </scstep>
  <scstep>
   <time name="dav">    6.70    6.76</time>
   <time name="total">    7.17    7.24</time>
   <energy>
    <i name="e_fr_energy">   -120.66750991 </i>
    <i name="e_wo_entrp">   -120.66090173 </i>
    <i name="e_0_energy">   -120.66530718 </i>
   </energy>
  </scstep>
  <scstep>
   <time name="dav">    6.83    6.89</time>
   <time name="total">    7.31    7.38</time>
   <energy>
    <i name="e_fr_energy">   -120.66515064 </i>
    <i name="e_wo_entrp">   -120.65879916 </i>
    <i name="e_0_energy">   -120.66303348 </i>
   </energy>
  </scstep>
  <scstep>
   <time name="dav">    6.80    6.86</time>
   <time name="total">    7.27    7.33</time>
   <energy>
    <i name="e_fr_energy">   -120.66486004 </i>
    <i name="e_wo_entrp">   -120.65892542 </i>
    <i name="e_0_energy">   -120.66288184 </i>
   </energy>
  </scstep>
  <scstep>
   <time name="dav">    7.00    7.07</time>
   <time name="total">    7.48    7.55</time>
   <energy>
    <i name="e_fr_energy">   -120.66389636 </i>
    <i name="e_wo_entrp">   -120.65687224 </i>
    <i name="e_0_energy">   -120.66155499 </i>
   </energy>
  </scstep>
  <scstep>
   <time name="dav">    6.23    6.28</time>
   <time name="total">    6.30    6.36</time>
   <energy>
    <i name="alphaZ">   1114.72537883 </i>
    <i name="ewald"> 216765.07064539 </i>
    <i name="hartreedc">-260286.99037317 </i>
    <i name="XCdc">   1433.76688924 </i>
    <i name="pawpsdc">  42141.39725748 </i>
    <i name="pawaedc"> -45593.59353640 </i>
    <i name="eentropy">     -0.00642991 </i>
    <i name="bandstr">   -230.63532785 </i>
    <i name="atom">  44535.60175172 </i>
    <i name="e_fr_energy">   -120.66374467 </i>
    <i name="e_wo_entrp">   -120.65731476 </i>
    <i name="e_0_energy">   -120.66160137 </i>
   </energy>
  </scstep>
  <structure>
   <crystal>
    <varray name="basis" >
     <v>       5.13359547       0.00000000       0.00000000 </v>
     <v>       2.56679773       4.44582409       0.00000000 </v>
     <v>       0.00000000       0.00000000      29.67047119 </v>
    </varray>
    <i name="volume">    677.17101477 </i>
    <varray name="rec_basis" >
     <v>       0.19479525      -0.11246509       0.00000000 </v>
     <v>       0.00000000       0.22493018       0.00000000 </v>
     <v>       0.00000000       0.00000000       0.03370354 </v>
    </varray>
   </crystal>
   <varray name="positions" >
    <v>      -0.00017305       0.00011784       0.00015974 </v>
    <v>       0.00001686       0.49996627       0.00013526 </v>
    <v>       0.50005521       0.00011784       0.00015974 </v>
    <v>       0.50010539       0.49978921       0.00014680 </v>
    <v>       0.16666196       0.16667609       0.07051577 </v>
    <v>       0.16664723       0.66668428       0.07049423 </v>
    <v>       0.66667714       0.16664571       0.07050233 </v>
    <v>       0.66666849       0.66668428       0.07049423 </v>
    <v>       0.33330756       0.33340599       0.13845755 </v>
    <v>       0.33337966       0.83324068       0.13843499 </v>
    <v>       0.83328645       0.33340599       0.13845755 </v>
    <v>       0.83335266       0.83329467       0.13846567 </v>
    <v>      -0.00010549       0.00006731       0.20669432 </v>
    <v>       0.99999659       0.50000683       0.20664025 </v>
    <v>       0.50003818       0.00006731       0.20669432 </v>
    <v>       0.50008216       0.49983569       0.20669484 </v>
    <v>       0.16646541       0.16706918       0.27493516 </v>
    <v>       0.16653611       0.66643267       0.27490345 </v>
    <v>       0.66662779       0.16674442       0.27487347 </v>
    <v>       0.66703122       0.66643267       0.27490345 </v>
    <v>       0.33329508       0.33350440       0.34321354 </v>
    <v>       0.33348622       0.83302755       0.34314167 </v>
    <v>       0.83320053       0.33350440       0.34321354 </v>
    <v>       0.83338363       0.83323274       0.34321746 </v>
    <v>       0.00029258      -0.00011688       0.41109130 </v>
    <v>       0.00001390       0.49997221       0.41123209 </v>
    <v>       0.49982430      -0.00011688       0.41109130 </v>
    <v>       0.49987973       0.50024054       0.41114158 </v>
    <v>       0.16543801       0.16912397       0.48014281 </v>
    <v>       0.16597263       0.66464141       0.48022388 </v>
    <v>       0.66620660       0.16758679       0.48034514 </v>
    <v>       0.66938596       0.66464141       0.48022388 </v>
    <v>       0.33899050       0.82201901       0.53436889 </v>
    <v>       0.24340716       0.01318568       0.53499005 </v>
   </varray>
  </structure>
  <varray name="forces" >
   <v>      -0.01421313       0.01397441       0.12238451 </v>
   <v>       0.00000000      -0.00421947       0.09841115 </v>
   <v>       0.01421313       0.01397441       0.12238451 </v>
   <v>       0.00000000      -0.02453231       0.10803133 </v>
   <v>       0.00000000       0.00124197      -0.07935838 </v>
   <v>      -0.00061283       0.00242943      -0.09919131 </v>
   <v>       0.00000000      -0.00152891      -0.08706552 </v>
   <v>       0.00061283       0.00242943      -0.09919131 </v>
   <v>       0.00122004       0.00673319      -0.02486262 </v>
   <v>       0.00000000      -0.01031427      -0.03679831 </v>
   <v>      -0.00122004       0.00673319      -0.02486262 </v>
   <v>      -0.00000000      -0.00234336      -0.01952960 </v>
   <v>      -0.00216436       0.00593608       0.01827879 </v>
   <v>       0.00000000      -0.00108449      -0.02685575 </v>
   <v>       0.00216436       0.00593608       0.01827879 </v>
   <v>       0.00000000      -0.01483375       0.01549428 </v>
   <v>      -0.00000000       0.04340365       0.03161133 </v>
   <v>      -0.03106283      -0.02486562       0.00169394 </v>
   <v>       0.00000000       0.01013966      -0.00511502 </v>
   <v>       0.03106283      -0.02486562       0.00169394 </v>
   <v>       0.00248809       0.02014457       0.02988633 </v>
   <v>       0.00000000      -0.03727206      -0.03378424 </v>
   <v>      -0.00248809       0.02014457       0.02988633 </v>
   <v>       0.00000000      -0.01311163       0.02438105 </v>
   <v>       0.02370424      -0.01738403       0.00632280 </v>
   <v>       0.00000000       0.00488025       0.07936035 </v>
   <v>      -0.02370424      -0.01738403       0.00632280 </v>
   <v>      -0.00000000       0.02528535       0.03662866 </v>
   <v>      -0.00000000       0.14286929      -0.13847569 </v>
   <v>      -0.14654225      -0.18188983      -0.17914967 </v>
   <v>       0.00000000       0.10145234      -0.16289680 </v>
   <v>       0.14654225      -0.18188983      -0.17914967 </v>
   <v>       0.00000000       0.45035864      -0.02813758 </v>
   <v>       0.00000000      -0.32054730       0.47337320 </v>
  </varray>
  <varray name="stress" >
   <v>     -31.04146397       0.00000000       0.00000000 </v>
   <v>       0.00000000     -32.28688954       0.50841767 </v>
   <v>       0.00000000       0.50842340      -7.79286729 </v>
  </varray>
  <energy>
   <i name="e_fr_energy">   -134.70962980 </i>
   <i name="e_wo_entrp">   -134.70319990 </i>
   <i name="e_0_energy">   -134.70748650 </i>
  </energy>
  <time name="totalsc">   62.86   63.43</time>
 </calculation>
 <calculation>
  <scstep>
   <time name="dav">    7.82    7.89</time>
   <time name="total">    8.30    8.37</time>
   <energy>
    <i name="alphaZ">   1114.72537883 </i>
    <i name="ewald"> 216755.82522198 </i>
    <i name="hartreedc">-260277.79496125 </i>
    <i name="XCdc">   1433.76725036 </i>
    <i name="pawpsdc">  42141.38620675 </i>
    <i name="pawaedc"> -45593.57481223 </i>
    <i name="eentropy">     -0.00634578 </i>
    <i name="bandstr">   -230.59547489 </i>
    <i name="atom">  44535.60175172 </i>
    <i name="e_fr_energy">   -120.66578451 </i>
    <i name="e_wo_entrp">   -120.65943873 </i>
    <i name="e_0_energy">   -120.66366925 </i>
   </energy>
  </scstep>
  <scstep>
   <time name="dav">    5.03    5.07</time>
   <time name="total">    5.50    5.54</time>
   <energy>
    <i name="e_fr_energy">   -120.66625164 </i>
    <i name="e_wo_entrp">   -120.65969133 </i>
    <i name="e_0_energy">   -120.66406487 </i>
   </energy>
  </scstep>
  <scstep>
   <time name="dav">    4.79    4.83</time>
   <time name="total">    5.27    5.31</time>
   <energy>
    <i name="e_fr_energy">   -120.66588617 </i>
    <i name="e_wo_entrp">   -120.65943875 </i>
    <i name="e_0_energy">   -120.66373703 </i>
   </energy>
  </scstep>
  <scstep>
   <time name="dav">    4.33    4.36</time>
   <time name="total">    4.41    4.44</time>
   <energy>
    <i name="alphaZ">   1114.72537883 </i>
    <i name="ewald"> 216755.82522198 </i>
    <i name="hartreedc">-260277.57020617 </i>
    <i name="XCdc">   1433.76942875 </i>
    <i name="pawpsdc">  42141.17339369 </i>
    <i name="pawaedc"> -45593.35072215 </i>
    <i name="eentropy">     -0.00642047 </i>
    <i name="bandstr">   -230.83374594 </i>
    <i name="atom">  44535.60175172 </i>
    <i name="e_fr_energy">   -120.66591976 </i>
    <i name="e_wo_entrp">   -120.65949929 </i>
    <i name="e_0_energy">   -120.66377960 </i>
   </energy>
  </scstep>
  <structure>
   <crystal>
    <varray name="basis" >
     <v>       5.13359547       0.00000000       0.00000000 </v>
     <v>       2.56679773       4.44582409       0.00000000 </v>
     <v>       0.00000000       0.00000000      29.67047119 </v>
    </varray>
    <i name="volume">    677.17101477 </i>
    <varray name="rec_basis" >
     <v>       0.19479525      -0.11246509       0.00000000 </v>
     <v>       0.00000000       0.22493018       0.00000000 </v>
     <v>       0.00000000       0.00000000       0.03370354 </v>
    </varray>
   </crystal>
   <varray name="positions" >
    <v>      -0.00016489       0.00011228       0.00015220 </v>
    <v>       0.00001607       0.49996786       0.00012889 </v>
    <v>       0.50005261       0.00011228       0.00015220 </v>
    <v>       0.50010042       0.49979915       0.00013987 </v>
    <v>       0.16666218       0.16667564       0.07052141 </v>
    <v>       0.16664815       0.66668345       0.07050088 </v>
    <v>       0.66667665       0.16664670       0.07050860 </v>
    <v>       0.66666841       0.66668345       0.07050088 </v>
    <v>       0.33330878       0.33340256       0.13845815 </v>
    <v>       0.33337748       0.83324505       0.13843665 </v>
    <v>       0.83328866       0.33340256       0.13845815 </v>
    <v>       0.83335175       0.83329649       0.13846588 </v>
    <v>      -0.00010051       0.00006413       0.20669337 </v>
    <v>       0.99999675       0.50000650       0.20664185 </v>
    <v>       0.50003638       0.00006413       0.20669337 </v>
    <v>       0.50007828       0.49984344       0.20669387 </v>
    <v>       0.16647490       0.16705020       0.27493296 </v>
    <v>       0.16654226       0.66644371       0.27490275 </v>
    <v>       0.66662962       0.16674075       0.27487418 </v>
    <v>       0.66701403       0.66644371       0.27490275 </v>
    <v>       0.33329688       0.33349633       0.34321287 </v>
    <v>       0.33347901       0.83304197       0.34314438 </v>
    <v>       0.83320679       0.33349633       0.34321287 </v>
    <v>       0.83338126       0.83323748       0.34321660 </v>
    <v>       0.00027878      -0.00011137       0.41108974 </v>
    <v>       0.00001324       0.49997352       0.41122389 </v>
    <v>       0.49983258      -0.00011137       0.41108974 </v>
    <v>       0.49988540       0.50022920       0.41113766 </v>
    <v>       0.16549595       0.16900810       0.48016176 </v>
    <v>       0.16600536       0.66473691       0.48023900 </v>
    <v>       0.66622830       0.16754341       0.48035454 </v>
    <v>       0.66925774       0.66473691       0.48023900 </v>
    <v>       0.33872374       0.82255251       0.53436373 </v>
    <v>       0.24369136       0.01261728       0.53495560 </v>
   </varray>
  </structure>
  <varray name="forces" >
   <v>      -0.01405546       0.01409888       0.12419110 </v>
   <v>      -0.00000000      -0.00423759       0.10002974 </v>
   <v>       0.01405546       0.01409888       0.12419110 </v>
   <v>       0.00000000      -0.02452616       0.10965812 </v>
   <v>       0.00000000       0.00102297      -0.07882222 </v>
   <v>      -0.00043645       0.00241969      -0.09898119 </v>
   <v>       0.00000000      -0.00149051      -0.08703874 </v>
   <v>       0.00043645       0.00241969      -0.09898119 </v>
   <v>       0.00109547       0.00682726      -0.02465309 </v>
   <v>       0.00000000      -0.01032164      -0.03694354 </v>
   <v>      -0.00109547       0.00682726      -0.02465309 </v>
   <v>      -0.00000000      -0.00244794      -0.01918519 </v>
   <v>      -0.00206515       0.00612992       0.01754382 </v>
   <v>       0.00000000      -0.00136372      -0.02786125 </v>
   <v>       0.00206515       0.00612992       0.01754382 </v>
   <v>       0.00000000      -0.01483345       0.01487865 </v>
   <v>       0.00000000       0.04417575       0.03280683 </v>
   <v>      -0.03154240      -0.02510727       0.00264379 </v>
   <v>       0.00000000       0.01012974      -0.00443600 </v>
   <v>       0.03154240      -0.02510727       0.00264379 </v>
   <v>       0.00238740       0.02039573       0.02662656 </v>
   <v>      -0.00000000      -0.03755133      -0.03692869 </v>
   <v>      -0.00238740       0.02039573       0.02662656 </v>
   <v>       0.00000000      -0.01331121       0.02181865 </v>
   <v>       0.02483688      -0.01783307       0.00245277 </v>
   <v>       0.00000000       0.00478310       0.07420707 </v>
   <v>      -0.02483688      -0.01783307       0.00245277 </v>
   <v>      -0.00000000       0.02665805       0.03267842 </v>
   <v>       0.00000000       0.14455479      -0.14048662 </v>
   <v>      -0.14614680      -0.18247754      -0.17788547 </v>
   <v>       0.00000000       0.10179792      -0.16139532 </v>
   <v>       0.14614680      -0.18247754      -0.17788547 </v>
   <v>      -0.00000000       0.40585372      -0.02279807 </v>
   <v>       0.00000000      -0.27779968       0.48594160 </v>
  </varray>
  <varray name="stress" >
   <v>     -30.49399798       0.00000000       0.00000000 </v>
   <v>       0.00000000     -31.66381449       0.51064636 </v>
   <v>       0.00000000       0.51065186      -7.19068623 </v>
  </varray>
  <energy>
   <i name="e_fr_energy">   -134.71023306 </i>
   <i name="e_wo_entrp">   -134.70381259 </i>
   <i name="e_0_energy">   -134.70809290 </i>
  </energy>
  <time name="totalsc">   35.08   35.38</time>
 </calculation>
 <calculation>
  <scstep>
   <time name="dav">    7.38    7.44</time>
   <time name="total">    7.85    7.91</time>
   <energy>
    <i name="alphaZ">   1114.72537883 </i>
    <i name="ewald"> 216744.18694007 </i>
    <i name="hartreedc">-260266.35351369 </i>
    <i name="XCdc">   1433.77216848 </i>
    <i name="pawpsdc">  42141.17765819 </i>
    <i name="pawaedc"> -45593.35387394 </i>
    <i name="eentropy">     -0.00623588 </i>
    <i name="bandstr">   -230.41811520 </i>
    <i name="atom">  44535.60175172 </i>
    <i name="e_fr_energy">   -120.66784143 </i>
    <i name="e_wo_entrp">   -120.66160555 </i>
    <i name="e_0_energy">   -120.66576280 </i>
   </energy>
  </scstep>
  <scstep>
   <time name="dav">    5.17    5.21</time>
   <time name="total">    5.63    5.67</time>
   <energy>
    <i name="e_fr_energy">   -120.66809464 </i>
    <i name="e_wo_entrp">   -120.66160142 </i>
    <i name="e_0_energy">   -120.66593023 </i>
   </energy>
  </scstep>
  <scstep>
   <time name="dav">    4.69    4.72</time>
   <time name="total">    4.76    4.80</time>
   <energy>
    <i name="alphaZ">   1114.72537883 </i>
    <i name="ewald"> 216744.18694007 </i>
    <i name="hartreedc">-260266.39770955 </i>
    <i name="XCdc">   1433.77804978 </i>
    <i name="pawpsdc">  42141.08705855 </i>
    <i name="pawaedc"> -45593.27064609 </i>
    <i name="eentropy">     -0.00632334 </i>
    <i name="bandstr">   -230.37250345 </i>
    <i name="atom">  44535.60175172 </i>
    <i name="e_fr_energy">   -120.66800347 </i>
    <i name="e_wo_entrp">   -120.66168013 </i>
    <i name="e_0_energy">   -120.66589569 </i>
   </energy>
  </scstep>
  <structure>
   <crystal>
    <varray name="basis" >
     <v>       5.13359547       0.00000000       0.00000000 </v>
     <v>       2.56679773       4.44582409       0.00000000 </v>
     <v>       0.00000000       0.00000000      29.67047119 </v>
    </varray>
    <i name="volume">    677.17101477 </i>
    <varray name="rec_basis" >
     <v>       0.19479525      -0.11246509       0.00000000 </v>
     <v>       0.00000000       0.22493018       0.00000000 </v>
     <v>       0.00000000       0.00000000       0.03370354 </v>
    </varray>
   </crystal>
   <varray name="positions" >
    <v>      -0.00015461       0.00010528       0.00014272 </v>
    <v>       0.00001507       0.49996987       0.00012085 </v>
    <v>       0.50004933       0.00010528       0.00014272 </v>
    <v>       0.50009416       0.49981167       0.00013116 </v>
    <v>       0.16666246       0.16667508       0.07052850 </v>
    <v>       0.16664930       0.66668240       0.07050926 </v>
    <v>       0.66667603       0.16664794       0.07051649 </v>
    <v>       0.66666830       0.66668240       0.07050926 </v>
    <v>       0.33331031       0.33339825       0.13845890 </v>
    <v>       0.33337472       0.83325055       0.13843875 </v>
    <v>       0.83329144       0.33339825       0.13845890 </v>
    <v>       0.83335061       0.83329879       0.13846615 </v>
    <v>      -0.00009425       0.00006014       0.20669218 </v>
    <v>       0.99999695       0.50000610       0.20664387 </v>
    <v>       0.50003411       0.00006014       0.20669218 </v>
    <v>       0.50007340       0.49985319       0.20669265 </v>
    <v>       0.16648685       0.16702629       0.27493019 </v>
    <v>       0.16655002       0.66645760       0.27490186 </v>
    <v>       0.66663193       0.16673613       0.27487508 </v>
    <v>       0.66699238       0.66645760       0.27490186 </v>
    <v>       0.33329915       0.33348617       0.34321201 </v>
    <v>       0.33346994       0.83306013       0.34314780 </v>
    <v>       0.83321468       0.33348617       0.34321201 </v>
    <v>       0.83337827       0.83324346       0.34321551 </v>
    <v>       0.00026141      -0.00010443       0.41108778 </v>
    <v>       0.00001242       0.49997517       0.41121357 </v>
    <v>       0.49984302      -0.00010443       0.41108778 </v>
    <v>       0.49989254       0.50021491       0.41113271 </v>
    <v>       0.16556891       0.16886218       0.48018562 </v>
    <v>       0.16604657       0.66485717       0.48025805 </v>
    <v>       0.66625562       0.16748877       0.48036639 </v>
    <v>       0.66909626       0.66485717       0.48025805 </v>
    <v>       0.33838780       0.82322440       0.53435722 </v>
    <v>       0.24404928       0.01190144       0.53491220 </v>
   </varray>
  </structure>
  <varray name="forces" >
   <v>      -0.01454870       0.01440650       0.12750007 </v>
   <v>       0.00000000      -0.00425574       0.10307549 </v>
   <v>       0.01454870       0.01440650       0.12750007 </v>
   <v>       0.00000000      -0.02506450       0.11310223 </v>
   <v>       0.00000000       0.00124950      -0.08194144 </v>
   <v>      -0.00065416       0.00238595      -0.10207320 </v>
   <v>       0.00000000      -0.00159182      -0.09000784 </v>
   <v>       0.00065416       0.00238595      -0.10207320 </v>
   <v>       0.00113941       0.00722667      -0.02574814 </v>
   <v>      -0.00000000      -0.01047706      -0.03791814 </v>
   <v>      -0.00113941       0.00722667      -0.02574814 </v>
   <v>       0.00000000      -0.00288304      -0.02010076 </v>
   <v>      -0.00272756       0.00633667       0.01805349 </v>
   <v>       0.00000000      -0.00118658      -0.02690691 </v>
   <v>       0.00272756       0.00633667       0.01805349 </v>
   <v>       0.00000000      -0.01538894       0.01587377 </v>
   <v>      -0.00000000       0.04508963       0.03455632 </v>
   <v>      -0.03196471      -0.02565360       0.00465391 </v>
   <v>       0.00000000       0.01006662      -0.00346993 </v>
   <v>       0.03196471      -0.02565360       0.00465391 </v>
   <v>       0.00260312       0.02062839       0.02544300 </v>
   <v>       0.00000000      -0.03743813      -0.03679913 </v>
   <v>      -0.00260312       0.02062839       0.02544300 </v>
   <v>       0.00000000      -0.01359842       0.02129674 </v>
   <v>       0.02563661      -0.01746330       0.00397786 </v>
   <v>       0.00000000       0.00421018       0.08090421 </v>
   <v>      -0.02563661      -0.01746330       0.00397786 </v>
   <v>       0.00000000       0.02666930       0.03544201 </v>
   <v>       0.00000000       0.15698393      -0.15624311 </v>
   <v>      -0.15491229      -0.18914197      -0.18672155 </v>
   <v>       0.00000000       0.10327198      -0.16424953 </v>
   <v>       0.15491229      -0.18914197      -0.18672155 </v>
   <v>       0.00000000       0.34456768      -0.01716066 </v>
   <v>      -0.00000000      -0.21767523       0.50037575 </v>
  </varray>
  <varray name="stress" >
   <v>     -30.89342365       0.00000000       0.00000000 </v>
   <v>       0.00000000     -31.95312485       0.51352720 </v>
   <v>       0.00000000       0.51353288      -7.72910341 </v>
  </varray>
  <energy>
   <i name="e_fr_energy">   -134.71053147 </i>
   <i name="e_wo_entrp">   -134.70420813 </i>
   <i name="e_0_energy">   -134.70842369 </i>
  </energy>
  <time name="totalsc">   29.85   30.11</time>
 </calculation>
 <calculation>
  <scstep>
   <time name="dav">    6.35    6.40</time>
   <time name="total">    6.83    6.88</time>
   <energy>
    <i name="alphaZ">   1114.72537883 </i>
    <i name="ewald"> 216957.37155592 </i>
    <i name="hartreedc">-260479.61173922 </i>
    <i name="XCdc">   1433.83654552 </i>
    <i name="pawpsdc">  42141.10766836 </i>
    <i name="pawaedc"> -45593.29130303 </i>
    <i name="eentropy">     -0.00823696 </i>
    <i name="bandstr">   -230.41342645 </i>
    <i name="atom">  44535.60175172 </i>
    <i name="e_fr_energy">   -120.68180531 </i>
    <i name="e_wo_entrp">   -120.67356835 </i>
    <i name="e_0_energy">   -120.67905966 </i>
   </energy>
  </scstep>
  <scstep>
   <time name="dav">    9.73    9.81</time>
   <time name="total">   10.20   10.28</time>
   <energy>
    <i name="e_fr_energy">   -120.70163896 </i>
    <i name="e_wo_entrp">   -120.69327176 </i>
    <i name="e_0_energy">   -120.69884990 </i>
   </energy>
  </scstep>
  <scstep>
   <time name="dav">    7.27    7.33</time>
   <time name="total">    7.75    7.81</time>
   <energy>
    <i name="e_fr_energy">   -120.69407040 </i>
    <i name="e_wo_entrp">   -120.68591932 </i>
    <i name="e_0_energy">   -120.69135337 </i>
   </energy>
  </scstep>
  <scstep>
   <time name="dav">    6.69    6.74</time>
   <time name="total">    7.16    7.21</time>
   <energy>
    <i name="e_fr_energy">   -120.69379361 </i>
    <i name="e_wo_entrp">   -120.68624480 </i>
    <i name="e_0_energy">   -120.69127734 </i>
   </energy>
  </scstep>
  <scstep>
   <time name="dav">    6.58    6.63</time>
   <time name="total">    7.05    7.10</time>
   <energy>
    <i name="e_fr_energy">   -120.69302145 </i>
    <i name="e_wo_entrp">   -120.68503404 </i>
    <i name="e_0_energy">   -120.69035898 </i>
   </energy>
  </scstep>
  <scstep>
   <time name="dav">    6.19    6.23</time>
   <time name="total">    6.66    6.71</time>
   <energy>
    <i name="e_fr_energy">   -120.69312394 </i>
    <i name="e_wo_entrp">   -120.68508138 </i>
    <i name="e_0_energy">   -120.69044308 </i>
   </energy>
  </scstep>
  <scstep>
   <time name="dav">    6.15    6.20</time>
   <time name="total">    6.23    6.28</time>
   <energy>
    <i name="alphaZ">   1114.72537883 </i>
    <i name="ewald"> 216957.37155592 </i>
    <i name="hartreedc">-260478.89517154 </i>
    <i name="XCdc">   1433.84428773 </i>
    <i name="pawpsdc">  42149.10553343 </i>
    <i name="pawaedc"> -45601.43239755 </i>
    <i name="eentropy">     -0.00811978 </i>
    <i name="bandstr">   -231.00606103 </i>
    <i name="atom">  44535.60175172 </i>
    <i name="e_fr_energy">   -120.69324227 </i>
    <i name="e_wo_entrp">   -120.68512249 </i>
    <i name="e_0_energy">   -120.69053568 </i>
   </energy>
  </scstep>
  <structure>
   <crystal>
    <varray name="basis" >
     <v>       5.13359547       0.00000000       0.00000000 </v>
     <v>       2.56679773       4.44582409       0.00000000 </v>
     <v>       0.00000000       0.00000000      29.67047119 </v>
    </varray>
    <i name="volume">    677.17101477 </i>
    <varray name="rec_basis" >
     <v>       0.19479525      -0.11246509       0.00000000 </v>
     <v>       0.00000000       0.22493018       0.00000000 </v>
     <v>       0.00000000       0.00000000       0.03370354 </v>
    </varray>
   </crystal>
   <varray name="positions" >
    <v>      -0.00037731       0.00026608       0.00035648 </v>
    <v>       0.00003873       0.49992253       0.00029459 </v>
    <v>       0.50011124       0.00026608       0.00035648 </v>
    <v>       0.50023448       0.49953104       0.00032155 </v>
    <v>       0.16665555       0.16668891       0.07038857 </v>
    <v>       0.16662890       0.66670874       0.07033613 </v>
    <v>       0.66668551       0.16662897       0.07036253 </v>
    <v>       0.66666236       0.66670874       0.07033613 </v>
    <v>       0.33328034       0.33348096       0.13841871 </v>
    <v>       0.33343372       0.83313256       0.13837704 </v>
    <v>       0.83323869       0.33348096       0.13841871 </v>
    <v>       0.83336784       0.83326432       0.13843559 </v>
    <v>      -0.00016512       0.00013321       0.20672206 </v>
    <v>       0.00000232       0.49999536       0.20659871 </v>
    <v>       0.50003191       0.00013321       0.20672206 </v>
    <v>       0.50016220       0.49967560       0.20671937 </v>
    <v>       0.16623267       0.16753467       0.27498863 </v>
    <v>       0.16638284       0.66616761       0.27491104 </v>
    <v>       0.66657610       0.16684779       0.27486763 </v>
    <v>       0.66744956       0.66616761       0.27491104 </v>
    <v>       0.33321339       0.33371676       0.34325201 </v>
    <v>       0.33367883       0.83264234       0.34308437 </v>
    <v>       0.83306984       0.33371676       0.34325201 </v>
    <v>       0.83345335       0.83309330       0.34324995 </v>
    <v>       0.00061267      -0.00029540       0.41109870 </v>
    <v>      -0.00000636       0.50001271       0.41136021 </v>
    <v>       0.49968273      -0.00029540       0.41109870 </v>
    <v>       0.49974201       0.50051597       0.41119803 </v>
    <v>       0.16460380       0.17079239       0.47989240 </v>
    <v>       0.16554854       0.66267354       0.47993183 </v>
    <v>       0.66567357       0.16865286       0.48009198 </v>
    <v>       0.67177793       0.66267354       0.47993183 </v>
    <v>       0.33753743       0.82492515       0.53434835 </v>
    <v>       0.24421412       0.01157177       0.53576686 </v>
   </varray>
  </structure>
  <varray name="forces" >
   <v>      -0.00625356       0.00827018       0.09161032 </v>
   <v>      -0.00000000      -0.00288603       0.07260461 </v>
   <v>       0.00625356       0.00827018       0.09161032 </v>
   <v>      -0.00000000      -0.01350135       0.07927388 </v>
   <v>      -0.00000000       0.00169008      -0.02993159 </v>
   <v>      -0.00044809       0.00166866      -0.04617892 </v>
   <v>      -0.00000000      -0.00048662      -0.03052162 </v>
   <v>       0.00044809       0.00166866      -0.04617892 </v>
   <v>       0.00203266       0.00257213      -0.03579221 </v>
   <v>      -0.00000000      -0.00571424      -0.03696855 </v>
   <v>      -0.00203266       0.00257213      -0.03579221 </v>
   <v>      -0.00000000       0.00183059      -0.03287718 </v>
   <v>       0.00501990       0.00142325       0.00897424 </v>
   <v>      -0.00000000      -0.00107466      -0.02200760 </v>
   <v>      -0.00501990       0.00142325       0.00897424 </v>
   <v>      -0.00000000      -0.00446981       0.00516935 </v>
   <v>      -0.00000000       0.01886790       0.02105892 </v>
   <v>      -0.01450320      -0.00977030      -0.00395380 </v>
   <v>      -0.00000000       0.00403499       0.00878671 </v>
   <v>       0.01450320      -0.00977030      -0.00395380 </v>
   <v>      -0.00078024       0.00946954       0.02907173 </v>
   <v>      -0.00000000      -0.02170480      -0.02445054 </v>
   <v>       0.00078024       0.00946954       0.02907173 </v>
   <v>      -0.00000000      -0.00620959       0.02158722 </v>
   <v>       0.01671757      -0.01470457      -0.02303160 </v>
   <v>      -0.00000000       0.00057118      -0.02865620 </v>
   <v>      -0.01671757      -0.01470457      -0.02303160 </v>
   <v>       0.00000000       0.01881510      -0.01555500 </v>
   <v>      -0.00000000       0.00842051      -0.05750564 </v>
   <v>      -0.07157727      -0.09555052      -0.14128371 </v>
   <v>       0.00000000       0.04685135      -0.13149114 </v>
   <v>       0.07157727      -0.09555052      -0.14128371 </v>
   <v>       0.00000000       0.33618445       0.01159634 </v>
   <v>      -0.00000000      -0.18797578       0.43105592 </v>
  </varray>
  <varray name="stress" >
   <v>     -30.45459103       0.00000000       0.00000000 </v>
   <v>       0.00000000     -31.53253590       0.60106851 </v>
   <v>       0.00000000       0.60107404      -6.85612361 </v>
  </varray>
  <energy>
   <i name="e_fr_energy">   -134.74068197 </i>
   <i name="e_wo_entrp">   -134.73256220 </i>
   <i name="e_0_energy">   -134.73797538 </i>
  </energy>
  <time name="totalsc">   63.46   63.97</time>
 </calculation>
 <calculation>
  <scstep>
   <time name="dav">    6.34    6.39</time>
   <time name="total">    6.82    6.87</time>
   <energy>
    <i name="alphaZ">   1114.72537883 </i>
    <i name="ewald"> 217421.10237927 </i>
    <i name="hartreedc">-260942.30822391 </i>
[...]
       <r>    11.0832     7.6355   223.5412 </r>
       <r>    11.1631     6.8145   224.0853 </r>
       <r>    11.2429     8.1500   224.7360 </r>
       <r>    11.3227    11.3660   225.6434 </r>
       <r>    11.4026    13.2423   226.7007 </r>
       <r>    11.4824    11.3018   227.6030 </r>
       <r>    11.5623     7.0738   228.1678 </r>
       <r>    11.6421     4.2561   228.5076 </r>
       <r>    11.7219     4.4420   228.8623 </r>
       <r>    11.8018     6.1623   229.3543 </r>
       <r>    11.8816     7.0573   229.9177 </r>
       <r>    11.9615     5.8942   230.3883 </r>
       <r>    12.0413     3.4256   230.6618 </r>
       <r>    12.1211     1.4221   230.7753 </r>
       <r>    12.2010     0.6034   230.8235 </r>
       <r>    12.2808     0.4662   230.8607 </r>
       <r>    12.3607     0.7413   230.9199 </r>
       <r>    12.4405     1.5114   231.0406 </r>
       <r>    12.5203     2.2759   231.2223 </r>
       <r>    12.6002     2.2917   231.4053 </r>
       <r>    12.6800     1.7596   231.5458 </r>
       <r>    12.7599     1.5456   231.6692 </r>
       <r>    12.8397     1.7279   231.8071 </r>
       <r>    12.9195     1.5665   231.9322 </r>
       <r>    12.9994     0.8622   232.0010 </r>
       <r>    13.0792     0.1879   232.0160 </r>
       <r>    13.1591    -0.0807   232.0096 </r>
       <r>    13.2389    -0.0801   232.0032 </r>
       <r>    13.3187    -0.0312   232.0007 </r>
       <r>    13.3986    -0.0074   232.0001 </r>
       <r>    13.4784    -0.0012   232.0000 </r>
       <r>    13.5583    -0.0001   232.0000 </r>
       <r>    13.6381    -0.0000   232.0000 </r>
       <r>    13.7179    -0.0000   232.0000 </r>
       <r>    13.7978    -0.0000   232.0000 </r>
       <r>    13.8776    -0.0000   232.0000 </r>
       <r>    13.9575    -0.0000   232.0000 </r>
       <r>    14.0373    -0.0000   232.0000 </r>
       <r>    14.1171    -0.0000   232.0000 </r>
       <r>    14.1970     0.0000   232.0000 </r>
       <r>    14.2768     0.0000   232.0000 </r>
       <r>    14.3567     0.0000   232.0000 </r>
       <r>    14.4365     0.0000   232.0000 </r>
       <r>    14.5163     0.0000   232.0000 </r>
       <r>    14.5962     0.0000   232.0000 </r>
       <r>    14.6760     0.0000   232.0000 </r>
       <r>    14.7558     0.0000   232.0000 </r>
       <r>    14.8357     0.0000   232.0000 </r>
      </set>
      <set comment="spin 2">
       <r>    -9.1162     0.0000     0.0000 </r>
       <r>    -9.0364     0.0000     0.0000 </r>
       <r>    -8.9565     0.0000     0.0000 </r>
       <r>    -8.8767     0.0000     0.0000 </r>
       <r>    -8.7968     0.0000     0.0000 </r>
       <r>    -8.7170    -0.0000    -0.0000 </r>
       <r>    -8.6372    -0.0000    -0.0000 </r>
       <r>    -8.5573    -0.0000    -0.0000 </r>
       <r>    -8.4775    -0.0000    -0.0000 </r>
       <r>    -8.3976    -0.0000    -0.0000 </r>
       <r>    -8.3178    -0.0000    -0.0000 </r>
       <r>    -8.2380    -0.0000    -0.0000 </r>
       <r>    -8.1581    -0.0000    -0.0000 </r>
       <r>    -8.0783    -0.0000    -0.0000 </r>
       <r>    -7.9984    -0.0000    -0.0000 </r>
       <r>    -7.9186    -0.0000    -0.0000 </r>
       <r>    -7.8388    -0.0000    -0.0000 </r>
       <r>    -7.7589    -0.0000    -0.0000 </r>
       <r>    -7.6791    -0.0003    -0.0000 </r>
       <r>    -7.5992    -0.0020    -0.0002 </r>
       <r>    -7.5194    -0.0082    -0.0008 </r>
       <r>    -7.4396    -0.0205    -0.0025 </r>
       <r>    -7.3597    -0.0184    -0.0039 </r>
       <r>    -7.2799     0.0565     0.0006 </r>
       <r>    -7.2000     0.2374     0.0195 </r>
       <r>    -7.1202     0.4169     0.0528 </r>
       <r>    -7.0404     0.4158     0.0860 </r>
       <r>    -6.9605     0.2434     0.1054 </r>
       <r>    -6.8807     0.1304     0.1158 </r>
       <r>    -6.8008     0.2269     0.1340 </r>
       <r>    -6.7210     0.3925     0.1653 </r>
       <r>    -6.6412     0.3687     0.1947 </r>
       <r>    -6.5613     0.1216     0.2044 </r>
       <r>    -6.4815    -0.0334     0.2018 </r>
       <r>    -6.4016     0.3857     0.2326 </r>
       <r>    -6.3218     1.5136     0.3534 </r>
       <r>    -6.2420     2.6105     0.5618 </r>
       <r>    -6.1621     2.6651     0.7746 </r>
       <r>    -6.0823     1.8360     0.9212 </r>
       <r>    -6.0024     1.4014     1.0331 </r>
       <r>    -5.9226     1.9847     1.1915 </r>
       <r>    -5.8428     2.6585     1.4038 </r>
       <r>    -5.7629     2.2845     1.5862 </r>
       <r>    -5.6831     1.0775     1.6722 </r>
       <r>    -5.6032     0.0532     1.6765 </r>
       <r>    -5.5234    -0.3002     1.6525 </r>
       <r>    -5.4436     0.0645     1.6577 </r>
       <r>    -5.3637     1.2192     1.7550 </r>
       <r>    -5.2839     2.6742     1.9685 </r>
       <r>    -5.2041     3.1902     2.2232 </r>
       <r>    -5.1242     2.2319     2.4014 </r>
       <r>    -5.0444     0.7547     2.4617 </r>
       <r>    -4.9645    -0.1535     2.4494 </r>
       <r>    -4.8847    -0.2821     2.4269 </r>
       <r>    -4.8049     0.2770     2.4490 </r>
       <r>    -4.7250     1.4329     2.5634 </r>
       <r>    -4.6452     2.6921     2.7783 </r>
       <r>    -4.5653     3.5586     3.0625 </r>
       <r>    -4.4855     4.2171     3.3991 </r>
       <r>    -4.4057     4.7997     3.7824 </r>
       <r>    -4.3258     4.6368     4.1526 </r>
       <r>    -4.2460     3.3494     4.4200 </r>
       <r>    -4.1661     1.9482     4.5755 </r>
       <r>    -4.0863     1.7001     4.7113 </r>
       <r>    -4.0065     2.5381     4.9139 </r>
       <r>    -3.9266     3.7706     5.2149 </r>
       <r>    -3.8468     5.2735     5.6360 </r>
       <r>    -3.7669     6.6907     6.1702 </r>
       <r>    -3.6871     7.0519     6.7332 </r>
       <r>    -3.6073     6.3221     7.2379 </r>
       <r>    -3.5274     5.7261     7.6951 </r>
       <r>    -3.4476     5.8149     8.1594 </r>
       <r>    -3.3677     5.7393     8.6176 </r>
       <r>    -3.2879     4.8861     9.0077 </r>
       <r>    -3.2081     3.7040     9.3034 </r>
       <r>    -3.1282     2.9104     9.5358 </r>
       <r>    -3.0484     3.1227     9.7851 </r>
       <r>    -2.9685     4.4809    10.1429 </r>
       <r>    -2.8887     6.2189    10.6394 </r>
       <r>    -2.8089     8.0022    11.2783 </r>
       <r>    -2.7290    10.9055    12.1490 </r>
       <r>    -2.6492    15.5647    13.3916 </r>
       <r>    -2.5693    20.8506    15.0563 </r>
       <r>    -2.4895    24.9585    17.0490 </r>
       <r>    -2.4097    26.1840    19.1395 </r>
       <r>    -2.3298    23.7755    21.0378 </r>
       <r>    -2.2500    19.7511    22.6147 </r>
       <r>    -2.1701    17.9945    24.0514 </r>
       <r>    -2.0903    20.5640    25.6932 </r>
       <r>    -2.0105    26.4288    27.8032 </r>
       <r>    -1.9306    32.9847    30.4367 </r>
       <r>    -1.8508    37.4170    33.4241 </r>
       <r>    -1.7709    38.3337    36.4846 </r>
       <r>    -1.6911    36.3011    39.3829 </r>
       <r>    -1.6113    32.6468    41.9894 </r>
       <r>    -1.5314    29.3563    44.3332 </r>
       <r>    -1.4516    28.2122    46.5857 </r>
       <r>    -1.3718    29.6019    48.9491 </r>
       <r>    -1.2919    33.8482    51.6515 </r>
       <r>    -1.2121    40.7445    54.9045 </r>
       <r>    -1.1322    47.0750    58.6630 </r>
       <r>    -1.0524    49.3404    62.6023 </r>
       <r>    -0.9726    49.7227    66.5721 </r>
       <r>    -0.8927    53.5470    70.8473 </r>
       <r>    -0.8129    60.2403    75.6568 </r>
       <r>    -0.7330    64.0251    80.7686 </r>
       <r>    -0.6532    62.7964    85.7822 </r>
       <r>    -0.5734    59.5182    90.5341 </r>
       <r>    -0.4935    56.9132    95.0781 </r>
       <r>    -0.4137    55.4270    99.5033 </r>
       <r>    -0.3338    54.8162   103.8798 </r>
       <r>    -0.2540    54.2180   108.2086 </r>
       <r>    -0.1742    52.2877   112.3832 </r>
       <r>    -0.0943    49.9159   116.3685 </r>
       <r>    -0.0145    48.9683   120.2781 </r>
       <r>     0.0654    49.6297   124.2405 </r>
       <r>     0.1452    53.4294   128.5063 </r>
       <r>     0.2250    62.0025   133.4565 </r>
       <r>     0.3049    70.9332   139.1198 </r>
       <r>     0.3847    74.3255   145.0539 </r>
       <r>     0.4646    73.7627   150.9431 </r>
       <r>     0.5444    73.5615   156.8162 </r>
       <r>     0.6242    70.4746   162.4429 </r>
       <r>     0.7041    57.0841   167.0005 </r>
       <r>     0.7839    34.2512   169.7351 </r>
       <r>     0.8638    12.5454   170.7367 </r>
       <r>     0.9436     0.7992   170.8005 </r>
       <r>     1.0234    -1.2937   170.6972 </r>
       <r>     1.1033     0.6872   170.7521 </r>
       <r>     1.1831     2.4660   170.9490 </r>
       <r>     1.2630     3.2398   171.2076 </r>
       <r>     1.3428     3.9268   171.5211 </r>
       <r>     1.4226     4.8108   171.9052 </r>
       <r>     1.5025     5.0203   172.3061 </r>
       <r>     1.5823     3.8189   172.6110 </r>
       <r>     1.6622     2.1232   172.7805 </r>
       <r>     1.7420     2.1480   172.9520 </r>
       <r>     1.8218     5.0091   173.3519 </r>
       <r>     1.9017     9.1442   174.0820 </r>
       <r>     1.9815    11.6566   175.0126 </r>
       <r>     2.0614    11.3120   175.9158 </r>
       <r>     2.1412     9.8022   176.6984 </r>
       <r>     2.2210     9.0380   177.4200 </r>
       <r>     2.3009     8.1014   178.0668 </r>
       <r>     2.3807     5.4631   178.5029 </r>
       <r>     2.4606     2.5795   178.7089 </r>
       <r>     2.5404     2.0165   178.8699 </r>
       <r>     2.6202     3.8308   179.1757 </r>
       <r>     2.7001     6.0478   179.6586 </r>
       <r>     2.7799     6.9425   180.2129 </r>
       <r>     2.8597     6.0326   180.6945 </r>
       <r>     2.9396     4.4479   181.0496 </r>
       <r>     3.0194     3.7635   181.3501 </r>
       <r>     3.0993     3.7350   181.6483 </r>
       <r>     3.1791     3.1270   181.8980 </r>
       <r>     3.2589     2.2678   182.0790 </r>
       <r>     3.3388     2.5055   182.2791 </r>
       <r>     3.4186     4.2503   182.6184 </r>
       <r>     3.4985     6.8686   183.1668 </r>
       <r>     3.5783     9.2699   183.9069 </r>
       <r>     3.6581    10.1228   184.7151 </r>
       <r>     3.7380     8.6845   185.4085 </r>
       <r>     3.8178     5.8707   185.8772 </r>
       <r>     3.8977     3.6333   186.1673 </r>
       <r>     3.9775     2.7574   186.3874 </r>
       <r>     4.0573     2.2372   186.5660 </r>
       <r>     4.1372     1.2495   186.6658 </r>
       <r>     4.2170     0.2111   186.6827 </r>
       <r>     4.2969    -0.3595   186.6540 </r>
       <r>     4.3767    -0.3791   186.6237 </r>
       <r>     4.4565     0.4952   186.6632 </r>
       <r>     4.5364     2.6029   186.8710 </r>
       <r>     4.6162     4.9342   187.2650 </r>
       <r>     4.6961     5.6943   187.7196 </r>
       <r>     4.7759     4.7532   188.0991 </r>
       <r>     4.8557     3.4746   188.3765 </r>
       <r>     4.9356     2.3740   188.5661 </r>
       <r>     5.0154     1.1765   188.6600 </r>
       <r>     5.0953     0.1012   188.6681 </r>
       <r>     5.1751    -0.3668   188.6388 </r>
       <r>     5.2549     0.1281   188.6490 </r>
       <r>     5.3348     1.8237   188.7946 </r>
       <r>     5.4146     4.2126   189.1309 </r>
       <r>     5.4945     5.9680   189.6074 </r>
       <r>     5.5743     6.5719   190.1321 </r>
       <r>     5.6541     6.9487   190.6869 </r>
       <r>     5.7340     7.4709   191.2834 </r>
       <r>     5.8138     7.1935   191.8577 </r>
       <r>     5.8937     5.8175   192.3222 </r>
       <r>     5.9735     4.1726   192.6553 </r>
       <r>     6.0533     2.7849   192.8777 </r>
       <r>     6.1332     1.7940   193.0209 </r>
       <r>     6.2130     1.8610   193.1695 </r>
       <r>     6.2929     3.7853   193.4717 </r>
       <r>     6.3727     6.6842   194.0054 </r>
       <r>     6.4525     8.0211   194.6458 </r>
       <r>     6.5324     6.8626   195.1937 </r>
       <r>     6.6122     4.9424   195.5883 </r>
       <r>     6.6920     3.6928   195.8831 </r>
       <r>     6.7719     3.2236   196.1405 </r>
       <r>     6.8517     3.7427   196.4393 </r>
       <r>     6.9316     4.9902   196.8377 </r>
       <r>     7.0114     5.8509   197.3048 </r>
       <r>     7.0912     6.2928   197.8072 </r>
       <r>     7.1711     7.1773   198.3803 </r>
       <r>     7.2509     8.2101   199.0358 </r>
       <r>     7.3308     8.6451   199.7260 </r>
       <r>     7.4106     8.3296   200.3910 </r>
       <r>     7.4904     6.8355   200.9368 </r>
       <r>     7.5703     4.2254   201.2741 </r>
       <r>     7.6501     2.3043   201.4581 </r>
       <r>     7.7300     2.7798   201.6800 </r>
       <r>     7.8098     5.1870   202.0942 </r>
       <r>     7.8896     7.6479   202.7048 </r>
       <r>     7.9695     8.6980   203.3992 </r>
       <r>     8.0493     7.8965   204.0297 </r>
       <r>     8.1292     5.8319   204.4953 </r>
       <r>     8.2090     4.0739   204.8205 </r>
       <r>     8.2888     3.7200   205.1175 </r>
       <r>     8.3687     4.4569   205.4734 </r>
       <r>     8.4485     6.0769   205.9586 </r>
       <r>     8.5284     8.6307   206.6476 </r>
       <r>     8.6082    10.5293   207.4883 </r>
       <r>     8.6880     9.5936   208.2542 </r>
       <r>     8.7679     6.2578   208.7538 </r>
       <r>     8.8477     3.2767   209.0155 </r>
       <r>     8.9276     2.5211   209.2167 </r>
       <r>     9.0074     3.4832   209.4948 </r>
       <r>     9.0872     4.4511   209.8502 </r>
       <r>     9.1671     4.6628   210.2225 </r>
       <r>     9.2469     5.1234   210.6315 </r>
       <r>     9.3268     6.8129   211.1755 </r>
       <r>     9.4066     8.7736   211.8760 </r>
       <r>     9.4864     8.9991   212.5944 </r>
       <r>     9.5663     6.9696   213.1509 </r>
       <r>     9.6461     4.4672   213.5076 </r>
       <r>     9.7260     3.5134   213.7881 </r>
       <r>     9.8058     4.1553   214.1198 </r>
       <r>     9.8856     5.2228   214.5368 </r>
       <r>     9.9655     6.5499   215.0598 </r>
       <r>    10.0453     8.4670   215.7358 </r>
       <r>    10.1252     9.6632   216.5073 </r>
       <r>    10.2050     8.5281   217.1881 </r>
       <r>    10.2848     6.0154   217.6684 </r>
       <r>    10.3647     4.3573   218.0163 </r>
       <r>    10.4445     4.3336   218.3623 </r>
       <r>    10.5244     5.5582   218.8061 </r>
       <r>    10.6042     7.4848   219.4036 </r>
       <r>    10.6840     9.0965   220.1299 </r>
       <r>    10.7639     9.3444   220.8759 </r>
       <r>    10.8437     8.7077   221.5712 </r>
       <r>    10.9235     8.5207   222.2515 </r>
       <r>    11.0034     8.5200   222.9317 </r>
       <r>    11.0832     7.6350   223.5413 </r>
       <r>    11.1631     6.8144   224.0853 </r>
       <r>    11.2429     8.1506   224.7361 </r>
       <r>    11.3227    11.3671   225.6436 </r>
       <r>    11.4026    13.2430   226.7009 </r>
       <r>    11.4824    11.3013   227.6032 </r>
       <r>    11.5623     7.0727   228.1679 </r>
       <r>    11.6421     4.2553   228.5076 </r>
       <r>    11.7219     4.4420   228.8623 </r>
       <r>    11.8018     6.1625   229.3543 </r>
       <r>    11.8816     7.0574   229.9178 </r>
       <r>    11.9615     5.8941   230.3883 </r>
       <r>    12.0413     3.4254   230.6618 </r>
       <r>    12.1211     1.4220   230.7754 </r>
       <r>    12.2010     0.6034   230.8235 </r>
       <r>    12.2808     0.4662   230.8608 </r>
       <r>    12.3607     0.7413   230.9199 </r>
       <r>    12.4405     1.5115   231.0406 </r>
       <r>    12.5203     2.2760   231.2223 </r>
       <r>    12.6002     2.2916   231.4053 </r>
       <r>    12.6800     1.7596   231.5458 </r>
       <r>    12.7599     1.5457   231.6692 </r>
       <r>    12.8397     1.7280   231.8071 </r>
       <r>    12.9195     1.5664   231.9322 </r>
       <r>    12.9994     0.8621   232.0010 </r>
       <r>    13.0792     0.1878   232.0160 </r>
       <r>    13.1591    -0.0808   232.0096 </r>
       <r>    13.2389    -0.0801   232.0032 </r>
       <r>    13.3187    -0.0312   232.0007 </r>
       <r>    13.3986    -0.0074   232.0001 </r>
       <r>    13.4784    -0.0012   232.0000 </r>
       <r>    13.5583    -0.0001   232.0000 </r>
       <r>    13.6381    -0.0000   232.0000 </r>
       <r>    13.7179    -0.0000   232.0000 </r>
       <r>    13.7978    -0.0000   232.0000 </r>
       <r>    13.8776    -0.0000   232.0000 </r>
       <r>    13.9575    -0.0000   232.0000 </r>
       <r>    14.0373    -0.0000   232.0000 </r>
       <r>    14.1171    -0.0000   232.0000 </r>
       <r>    14.1970     0.0000   232.0000 </r>
       <r>    14.2768     0.0000   232.0000 </r>
       <r>    14.3567     0.0000   232.0000 </r>
       <r>    14.4365     0.0000   232.0000 </r>
       <r>    14.5163     0.0000   232.0000 </r>
       <r>    14.5962     0.0000   232.0000 </r>
       <r>    14.6760     0.0000   232.0000 </r>
       <r>    14.7558     0.0000   232.0000 </r>
       <r>    14.8357     0.0000   232.0000 </r>
      </set>
     </set>
    </array>
   </total>
  </dos>
 </calculation>
 <structure name="finalpos" >
  <crystal>
   <varray name="basis" >
    <v>       5.13359547       0.00000000       0.00000000 </v>
    <v>       2.56679773       4.44582409       0.00000000 </v>
    <v>       0.00000000       0.00000000      29.67047119 </v>
   </varray>
   <i name="volume">    677.17101477 </i>
   <varray name="rec_basis" >
    <v>       0.19479525      -0.11246509       0.00000000 </v>
    <v>       0.00000000       0.22493018       0.00000000 </v>
    <v>       0.00000000       0.00000000       0.03370354 </v>
   </varray>
  </crystal>
  <varray name="positions" >
   <v>       0.00143553      -0.00276383      -0.00147403 </v>
   <v>       0.00139310       0.49721381      -0.00148382 </v>
   <v>       0.50132830      -0.00276383      -0.00147403 </v>
   <v>       0.50135781       0.49728439      -0.00145901 </v>
   <v>       0.16851162       0.16297677       0.06779636 </v>
   <v>       0.16851380       0.66292858       0.06777014 </v>
   <v>       0.66852223       0.16295554       0.06776072 </v>
   <v>       0.66855762       0.66292858       0.06777014 </v>
   <v>       0.33591744       0.32823480       0.13560204 </v>
   <v>       0.33593514       0.82812971       0.13558993 </v>
   <v>       0.83584776       0.32823480       0.13560204 </v>
   <v>       0.83592106       0.82815788       0.13558221 </v>
   <v>       0.00363305      -0.00730321       0.20389002 </v>
   <v>       0.00368471       0.49263058       0.20390452 </v>
   <v>       0.50367016      -0.00730321       0.20389002 </v>
   <v>       0.50367931       0.49264137       0.20390703 </v>
   <v>       0.17077750       0.15844499       0.27216695 </v>
   <v>       0.17073264       0.65840139       0.27211349 </v>
   <v>       0.67086840       0.15826319       0.27215207 </v>
   <v>       0.67086596       0.65840139       0.27211349 </v>
   <v>       0.33749507       0.32519219       0.34045255 </v>
   <v>       0.33749171       0.82501658       0.34041722 </v>
   <v>       0.83731273       0.32519219       0.34045255 </v>
   <v>       0.83747579       0.82504841       0.34049201 </v>
   <v>       0.00433724      -0.00857611       0.40828080 </v>
   <v>       0.00430377       0.49139246       0.40824567 </v>
   <v>       0.50423887      -0.00857611       0.40828080 </v>
   <v>       0.50424788       0.49150424       0.40827670 </v>
   <v>       0.17044586       0.15910828       0.47737256 </v>
   <v>       0.17068884       0.65858270       0.47745232 </v>
   <v>       0.67063279       0.15873441       0.47748965 </v>
   <v>       0.67072846       0.65858270       0.47745232 </v>
   <v>       0.25556033       0.98887935       0.56521908 </v>
   <v>       0.22332186       0.05335627       0.58879573 </v>
  </varray>
 </structure>
</modeling>
