unknown system                          
           1
     5.133595    0.000000    0.000000
     2.566798    4.445824    0.000000
     0.000000    0.000000   29.670471
   Cu   H 
    32     2
Direct configuration=     1
   0.00000000  0.00000000  0.00000000
   1.00000000  0.50000000  0.00000000
   0.50000000  0.00000000  0.00000000
   0.50000000  0.50000000  0.00000000
   0.16666667  0.16666667  0.07063526
   0.16666667  0.66666667  0.07063526
   0.66666667  0.16666667  0.07063526
   0.66666667  0.66666667  0.07063526
   0.33333333  0.33333333  0.13847021
   0.33333333  0.83333333  0.13847021
   0.83333333  0.33333333  0.13847021
   0.83333333  0.83333333  0.13847021
   0.00000000  0.00000000  0.20667428
   1.00000000  0.50000000  0.20667428
   0.50000000  0.00000000  0.20667428
   0.50000000  0.50000000  0.20667428
   0.16666667  0.16666667  0.27488859
   0.16666667  0.66666667  0.27488859
   0.66666667  0.16666667  0.27488859
   0.66666667  0.66666667  0.27488859
   0.33333333  0.33333333  0.34319917
   0.33333333  0.83333333  0.34319917
   0.83333333  0.33333333  0.34319917
   0.83333333  0.83333333  0.34319917
   0.00000000  0.00000000  0.41105828
   1.00000000  0.50000000  0.41105828
   0.50000000  0.00000000  0.41105828
   0.50000000  0.50000000  0.41105828
   0.16666667  0.16666667  0.48054462
   0.16666667  0.66666667  0.48054462
   0.66666667  0.16666667  0.48054462
   0.66666667  0.66666667  0.48054462
   0.33333333  0.83333333  0.53425930
   0.24943438  0.00113125  0.53425930
Direct configuration=     2
  -0.00027086  0.00018444  0.00025003
   0.00002640  0.49994721  0.00021172
   0.50008642  0.00018444  0.00025003
   0.50016497  0.49967006  0.00022977
   0.16665930  0.16668141  0.07044823
   0.16663624  0.66669423  0.07041451
   0.66668307  0.16663387  0.07042719
   0.66666953  0.66669423  0.07041451
   0.33329300  0.33344706  0.13845040
   0.33340585  0.83318831  0.13841508
   0.83325994  0.33344706  0.13845040
   0.83336359  0.83327282  0.13846310
  -0.00016512  0.00010535  0.20670564
   0.99999466  0.50001069  0.20662101
   0.50005976  0.00010535  0.20670564
   0.50012860  0.49974281  0.20670647
   0.16635165  0.16729670  0.27496148
   0.16646231  0.66630040  0.27491184
   0.66660582  0.16678837  0.27486492
   0.66723729  0.66630040  0.27491184
   0.33327345  0.33360109  0.34322167
   0.33357265  0.83285471  0.34310917
   0.83312546  0.33360109  0.34322167
   0.83341206  0.83317588  0.34322780
   0.00045796 -0.00018294  0.41110996
   0.00002175  0.49995649  0.41133034
   0.49972498 -0.00018294  0.41110996
   0.49981175  0.50037651  0.41118867
   0.16474350  0.17051300  0.47991568
   0.16558032  0.66349660  0.48004257
   0.66594655  0.16810691  0.48023238
   0.67092308  0.66349660  0.48004257
   0.34218829  0.81562343  0.53443084
   0.24000019  0.01999962  0.53540312
Direct configuration=     3
  -0.00017305  0.00011784  0.00015974
   0.00001686  0.49996627  0.00013526
   0.50005521  0.00011784  0.00015974
   0.50010539  0.49978921  0.00014680
   0.16666196  0.16667609  0.07051577
   0.16664723  0.66668428  0.07049423
   0.66667714  0.16664571  0.07050233
   0.66666849  0.66668428  0.07049423
   0.33330756  0.33340599  0.13845755
   0.33337966  0.83324068  0.13843499
   0.83328645  0.33340599  0.13845755
   0.83335266  0.83329467  0.13846567
  -0.00010549  0.00006731  0.20669432
   0.99999659  0.50000683  0.20664025
   0.50003818  0.00006731  0.20669432
   0.50008216  0.49983569  0.20669484
   0.16646541  0.16706918  0.27493516
   0.16653611  0.66643267  0.27490345
   0.66662779  0.16674442  0.27487347
   0.66703122  0.66643267  0.27490345
   0.33329508  0.33350440  0.34321354
   0.33348622  0.83302755  0.34314167
   0.83320053  0.33350440  0.34321354
   0.83338363  0.83323274  0.34321746
   0.00029258 -0.00011688  0.41109130
   0.00001390  0.49997221  0.41123209
   0.49982430 -0.00011688  0.41109130
   0.49987973  0.50024054  0.41114158
   0.16543801  0.16912397  0.48014281
   0.16597263  0.66464141  0.48022388
   0.66620660  0.16758679  0.48034514
   0.66938596  0.66464141  0.48022388
   0.33899050  0.82201901  0.53436889
   0.24340716  0.01318568  0.53499005
Direct configuration=     4
  -0.00016489  0.00011228  0.00015220
   0.00001607  0.49996786  0.00012889
   0.50005261  0.00011228  0.00015220
   0.50010042  0.49979915  0.00013987
   0.16666218  0.16667564  0.07052141
   0.16664815  0.66668345  0.07050088
   0.66667665  0.16664670  0.07050860
   0.66666841  0.66668345  0.07050088
   0.33330878  0.33340256  0.13845815
   0.33337748  0.83324505  0.13843665
   0.83328866  0.33340256  0.13845815
   0.83335175  0.83329649  0.13846588
  -0.00010051  0.00006413  0.20669337
   0.99999675  0.50000650  0.20664185
   0.50003638  0.00006413  0.20669337
   0.50007828  0.49984344  0.20669387
   0.16647490  0.16705020  0.27493296
   0.16654226  0.66644371  0.27490275
   0.66662962  0.16674075  0.27487418
   0.66701403  0.66644371  0.27490275
   0.33329688  0.33349633  0.34321287
   0.33347901  0.83304197  0.34314438
   0.83320679  0.33349633  0.34321287
   0.83338126  0.83323748  0.34321660
   0.00027878 -0.00011137  0.41108974
   0.00001324  0.49997352  0.41122389
   0.49983258 -0.00011137  0.41108974
   0.49988540  0.50022920  0.41113766
   0.16549595  0.16900810  0.48016176
   0.16600536  0.66473691  0.48023900
   0.66622830  0.16754341  0.48035454
   0.66925774  0.66473691  0.48023900
   0.33872374  0.82255251  0.53436373
   0.24369136  0.01261728  0.53495560
Direct configuration=     5
  -0.00015461  0.00010528  0.00014272
   0.00001507  0.49996987  0.00012085
   0.50004933  0.00010528  0.00014272
   0.50009416  0.49981167  0.00013116
   0.16666246  0.16667508  0.07052850
   0.16664930  0.66668240  0.07050926
   0.66667603  0.16664794  0.07051649
   0.66666830  0.66668240  0.07050926
   0.33331031  0.33339825  0.13845890
   0.33337472  0.83325055  0.13843875
   0.83329144  0.33339825  0.13845890
   0.83335061  0.83329879  0.13846615
  -0.00009425  0.00006014  0.20669218
   0.99999695  0.50000610  0.20664387
   0.50003411  0.00006014  0.20669218
   0.50007340  0.49985319  0.20669265
   0.16648685  0.16702629  0.27493019
   0.16655002  0.66645760  0.27490186
   0.66663193  0.16673613  0.27487508
   0.66699238  0.66645760  0.27490186
   0.33329915  0.33348617  0.34321201
   0.33346994  0.83306013  0.34314780
   0.83321468  0.33348617  0.34321201
   0.83337827  0.83324346  0.34321551
   0.00026141 -0.00010443  0.41108778
   0.00001242  0.49997517  0.41121357
   0.49984302 -0.00010443  0.41108778
   0.49989254  0.50021491  0.41113271
   0.16556891  0.16886218  0.48018562
   0.16604657  0.66485717  0.48025805
   0.66625562  0.16748877  0.48036639
   0.66909626  0.66485717  0.48025805
   0.33838780  0.82322440  0.53435722
   0.24404928  0.01190144  0.53491220
Direct configuration=     6
  -0.00037731  0.00026608  0.00035648
   0.00003873  0.49992253  0.00029459
   0.50011124  0.00026608  0.00035648
   0.50023448  0.49953104  0.00032155
   0.16665555  0.16668891  0.07038857
   0.16662890  0.66670874  0.07033613
   0.66668551  0.16662897  0.07036253
   0.66666236  0.66670874  0.07033613
   0.33328034  0.33348096  0.13841871
   0.33343372  0.83313256  0.13837704
   0.83323869  0.33348096  0.13841871
   0.83336784  0.83326432  0.13843559
  -0.00016512  0.00013321  0.20672206
   0.00000232  0.49999536  0.20659871
   0.50003191  0.00013321  0.20672206
   0.50016220  0.49967560  0.20671937
   0.16623267  0.16753467  0.27498863
   0.16638284  0.66616761  0.27491104
   0.66657610  0.16684779  0.27486763
   0.66744956  0.66616761  0.27491104
   0.33321339  0.33371676  0.34325201
   0.33367883  0.83264234  0.34308437
   0.83306984  0.33371676  0.34325201
   0.83345335  0.83309330  0.34324995
   0.00061267 -0.00029540  0.41109870
  -0.00000636  0.50001271  0.41136021
   0.49968273 -0.00029540  0.41109870
   0.49974201  0.50051597  0.41119803
   0.16460380  0.17079239  0.47989240
   0.16554854  0.66267354  0.47993183
   0.66567357  0.16865286  0.48009198
   0.67177793  0.66267354  0.47993183
   0.33753743  0.82492515  0.53434835
   0.24421412  0.01157177  0.53576686
Direct configuration=     7
  -0.00085762  0.00061286  0.00081749
   0.00008978  0.49982044  0.00066930
   0.50024476  0.00061286  0.00081749
   0.50053709  0.49892582  0.00073217
   0.16664064  0.16671872  0.07008678
   0.16658489  0.66676555  0.06996276
   0.66670597  0.16658806  0.07003048
   0.66664956  0.66676555  0.06996276
   0.33321572  0.33365935  0.13833202
   0.33356096  0.83287808  0.13824396
   0.83312493  0.33365935  0.13833202
   0.83340501  0.83318999  0.13836966
  -0.00031797  0.00029081  0.20678649
   0.00001389  0.49997221  0.20650132
   0.50002716  0.00029081  0.20678649
   0.50035371  0.49929258  0.20677698
   0.16568447  0.16863107  0.27511465
   0.16602228  0.66554218  0.27493082
   0.66645570  0.16708861  0.27485156
   0.66843554  0.66554218  0.27493082
   0.33302844  0.33421408  0.34333828
   0.33412935  0.83174130  0.34294759
   0.83275748  0.33421408  0.34333828
   0.83361528  0.83276944  0.34332420
   0.00137024 -0.00070726  0.41112226
  -0.00004684  0.50009369  0.41167645
   0.49933703 -0.00070726  0.41112226
   0.49941736  0.50116527  0.41133892
   0.16252236  0.17495527  0.47926000
   0.16447443  0.65796409  0.47922827
   0.66441828  0.17116345  0.47950015
   0.67756148  0.65796409  0.47922827
   0.33570343  0.82859314  0.53432921
   0.24456962  0.01086077  0.53761011
Direct configuration=     8
  -0.00086110  0.00067025  0.00098923
   0.00010644  0.49978711  0.00079571
   0.50019085  0.00067025  0.00098923
   0.50057010  0.49885981  0.00086861
   0.16661376  0.16677248  0.07013488
   0.16656374  0.66678868  0.06996896
   0.66669881  0.16660237  0.07010505
   0.66664758  0.66678868  0.06996896
   0.33329503  0.33361991  0.13817944
   0.33357733  0.83284533  0.13811865
   0.83308506  0.33361991  0.13817944
   0.83333016  0.83333969  0.13821911
  -0.00005328  0.00022226  0.20678953
   0.00002355  0.49995290  0.20643718
   0.49983102  0.00022226  0.20678953
   0.50029434  0.49941132  0.20676155
   0.16574682  0.16850635  0.27514503
   0.16598936  0.66565335  0.27489270
   0.66647653  0.16704694  0.27491541
   0.66835729  0.66565335  0.27489270
   0.33296876  0.33418161  0.34346760
   0.33421148  0.83157705  0.34290907
   0.83284963  0.33418161  0.34346760
   0.83359254  0.83281492  0.34341752
   0.00172149 -0.00101050  0.41097905
  -0.00001285  0.50002569  0.41117180
   0.49928901 -0.00101050  0.41097905
   0.49925045  0.50149910  0.41112940
   0.16395303  0.17209395  0.47928479
   0.16473565  0.65781482  0.47891389
   0.66448957  0.17102086  0.47915981
   0.67744953  0.65781482  0.47891389
   0.33290876  0.83418247  0.53443838
   0.24554393  0.00891214  0.53902749
Direct configuration=     9
  -0.00086326  0.00070579  0.00109557
   0.00011676  0.49976647  0.00087399
   0.50015747  0.00070579  0.00109557
   0.50059053  0.49881894  0.00095309
   0.16659712  0.16680576  0.07016466
   0.16655064  0.66680300  0.06997280
   0.66669438  0.16661123  0.07015122
   0.66664636  0.66680300  0.06997280
   0.33334415  0.33359549  0.13808497
   0.33358747  0.83282505  0.13804106
   0.83306037  0.33359549  0.13808497
   0.83328381  0.83343238  0.13812589
   0.00011062  0.00017982  0.20679141
   0.00002953  0.49994094  0.20639746
   0.49970956  0.00017982  0.20679141
   0.50025758  0.49948484  0.20675200
   0.16578543  0.16842913  0.27516384
   0.16596898  0.66572218  0.27486909
   0.66648943  0.16702113  0.27495495
   0.66830884  0.66572218  0.27486909
   0.33293181  0.33416150  0.34354767
   0.33426233  0.83147534  0.34288522
   0.83290669  0.33416150  0.34354767
   0.83357846  0.83284307  0.34347530
   0.00193898 -0.00119826  0.41089038
   0.00000820  0.49998359  0.41085933
   0.49925928 -0.00119826  0.41089038
   0.49914710  0.50170581  0.41099967
   0.16483888  0.17032225  0.47930014
   0.16489739  0.65772240  0.47871923
   0.66453371  0.17093257  0.47894907
   0.67738021  0.65772240  0.47871923
   0.33117834  0.83764332  0.53450598
   0.24614722  0.00770557  0.53990512
Direct configuration=    10
  -0.00079258  0.00068792  0.00114455
   0.00012147  0.49975706  0.00090510
   0.50010466  0.00068792  0.00114455
   0.50057100  0.49885799  0.00098696
   0.16658151  0.16683698  0.07022207
   0.16654742  0.66679951  0.07001728
   0.66668413  0.16663173  0.07022240
   0.66665307  0.66679951  0.07001728
   0.33338750  0.33356172  0.13803077
   0.33358970  0.83282060  0.13800077
   0.83305078  0.33356172  0.13803077
   0.83324347  0.83351305  0.13807012
   0.00020341  0.00015530  0.20676200
   0.00003266  0.49993469  0.20635264
   0.49964130  0.00015530  0.20676200
   0.50024570  0.49950860  0.20671398
   0.16586154  0.16827693  0.27517077
   0.16598426  0.66580949  0.27485177
   0.66650909  0.16698182  0.27499927
   0.66820626  0.66580949  0.27485177
   0.33303455  0.33400479  0.34354980
   0.33425368  0.83149264  0.34284355
   0.83296066  0.33400479  0.34354980
   0.83349261  0.83301479  0.34346642
   0.00203787 -0.00127356  0.41079676
   0.00014648  0.49970704  0.41057954
   0.49923568 -0.00127356  0.41079676
   0.49914021  0.50171958  0.41084492
   0.16594609  0.16810782  0.47935568
   0.16511988  0.65795014  0.47854229
   0.66479766  0.17040468  0.47878875
   0.67692998  0.65795014  0.47854229
   0.33083677  0.83832647  0.53455253
   0.24507592  0.00984816  0.54093432
Direct configuration=    11
  -0.00058053  0.00063431  0.00129147
   0.00013558  0.49972884  0.00099841
   0.49994622  0.00063431  0.00129147
   0.50051242  0.49897517  0.00108856
   0.16653469  0.16693062  0.07039429
   0.16653776  0.66678902  0.07015073
   0.66665339  0.16669323  0.07043596
   0.66667322  0.66678902  0.07015073
   0.33351756  0.33346040  0.13786817
   0.33359638  0.83280724  0.13787990
   0.83302204  0.33346040  0.13786817
   0.83312246  0.83375507  0.13790283
   0.00048179  0.00008172  0.20667377
   0.00004204  0.49991592  0.20621817
   0.49943649  0.00008172  0.20667377
   0.50021005  0.49957990  0.20659993
   0.16608985  0.16782031  0.27519158
   0.16603008  0.66607141  0.27479979
   0.66656807  0.16686387  0.27513225
   0.66789850  0.66607141  0.27479979
   0.33334276  0.33353469  0.34355619
   0.33422774  0.83154452  0.34271854
   0.83312255  0.33353469  0.34355619
   0.83323503  0.83352994  0.34343978
   0.00233454 -0.00149943  0.41051590
   0.00056132  0.49887736  0.40974019
   0.49916489 -0.00149943  0.41051590
   0.49911955  0.50176090  0.41038069
   0.16926773  0.16146454  0.47952232
   0.16578735  0.65863337  0.47801148
   0.66558949  0.16882101  0.47830780
   0.67557928  0.65863337  0.47801148
   0.32981205  0.84037591  0.53469216
   0.24186203  0.01627594  0.54402190
Direct configuration=    12
  -0.00062038  0.00064438  0.00126386
   0.00013293  0.49973414  0.00098088
   0.49997600  0.00064438  0.00126386
   0.50052343  0.49895314  0.00106946
   0.16654349  0.16691302  0.07036192
   0.16653958  0.66679099  0.07012565
   0.66665917  0.16668167  0.07039582
   0.66666944  0.66679099  0.07012565
   0.33349312  0.33347944  0.13789873
   0.33359513  0.83280975  0.13790262
   0.83302744  0.33347944  0.13789873
   0.83314521  0.83370959  0.13793427
   0.00042947  0.00009555  0.20669036
   0.00004028  0.49991945  0.20624344
   0.49947498  0.00009555  0.20669036
   0.50021675  0.49956650  0.20662136
   0.16604694  0.16790612  0.27518767
   0.16602147  0.66602219  0.27480956
   0.66655698  0.16688604  0.27510726
   0.66795634  0.66602219  0.27480956
   0.33328483  0.33362304  0.34355499
   0.33423261  0.83153477  0.34274204
   0.83309213  0.33362304  0.34355499
   0.83328344  0.83343312  0.34344478
   0.00227879 -0.00145698  0.41056868
   0.00048335  0.49903329  0.40989794
   0.49917819 -0.00145698  0.41056868
   0.49912343  0.50175313  0.41046794
   0.16864345  0.16271310  0.47949100
   0.16566190  0.65850496  0.47811124
   0.66544067  0.16911865  0.47839819
   0.67583313  0.65850496  0.47811124
   0.33000464  0.83999073  0.53466592
   0.24246606  0.01506788  0.54344161
Direct configuration=    13
  -0.00050927  0.00060516  0.00130359
   0.00012951  0.49974098  0.00100630
   0.49990411  0.00060516  0.00130359
   0.50047892  0.49904216  0.00109703
   0.16652127  0.16695746  0.07042989
   0.16653716  0.66678088  0.07019019
   0.66663601  0.16672797  0.07046512
   0.66668196  0.66678088  0.07019019
   0.33349974  0.33347506  0.13789724
   0.33359857  0.83280285  0.13790569
   0.83302519  0.33347506  0.13789724
   0.83311847  0.83376306  0.13792932
   0.00040232  0.00012348  0.20663251
   0.00003527  0.49992946  0.20618935
   0.49947420  0.00012348  0.20663251
   0.50025957  0.49948086  0.20655978
   0.16610769  0.16778461  0.27516987
   0.16603999  0.66606459  0.27478312
   0.66656344  0.16687311  0.27512790
   0.66789542  0.66606459  0.27478312
   0.33354232  0.33335714  0.34342976
   0.33420459  0.83159082  0.34265039
   0.83310054  0.33335714  0.34342976
   0.83313422  0.83373155  0.34333910
   0.00229040 -0.00142719  0.41044632
   0.00080889  0.49838222  0.40971447
   0.49913680 -0.00142719  0.41044632
   0.49925093  0.50149813  0.41026825
   0.17000763  0.15998475  0.47962229
   0.16602102  0.65852014  0.47787891
   0.66585973  0.16828054  0.47821159
   0.67545885  0.65852014  0.47787891
   0.32812629  0.84374742  0.53488704
   0.24209263  0.01581475  0.54470361
Direct configuration=    14
  -0.00017594  0.00048751  0.00142278
   0.00011924  0.49976151  0.00108257
   0.49968843  0.00048751  0.00142278
   0.50034540  0.49930921  0.00117975
   0.16645461  0.16709078  0.07063380
   0.16652990  0.66675058  0.07038380
   0.66656656  0.16686688  0.07067303
   0.66671952  0.66675058  0.07038380
   0.33351962  0.33346192  0.13789276
   0.33360892  0.83278217  0.13791491
   0.83301846  0.33346192  0.13789276
   0.83303826  0.83392347  0.13791448
   0.00032088  0.00020728  0.20645896
   0.00002025  0.49995949  0.20602708
   0.49947184  0.00020728  0.20645896
   0.50038804  0.49922393  0.20637502
   0.16628996  0.16742008  0.27511649
   0.16609555  0.66619179  0.27470380
   0.66658283  0.16683434  0.27518984
   0.66771266  0.66619179  0.27470380
   0.33431479  0.33255943  0.34305406
   0.33412051  0.83175897  0.34237545
   0.83312577  0.33255943  0.34305406
   0.83268657  0.83462687  0.34302203
   0.00232522 -0.00133783  0.41007924
   0.00178551  0.49642898  0.40916406
   0.49901261 -0.00133783  0.41007924
   0.49963343  0.50073314  0.40966919
   0.17410015  0.15179971  0.48001616
   0.16709835  0.65856567  0.47718191
   0.66711691  0.16576619  0.47765179
   0.67433598  0.65856567  0.47718191
   0.32249125  0.85501751  0.53555040
   0.24097232  0.01805535  0.54848962
Direct configuration=    15
  -0.00014480  0.00046546  0.00144913
   0.00009673  0.49980653  0.00111665
   0.49967934  0.00046546  0.00144913
   0.50031870  0.49936261  0.00121499
   0.16644489  0.16711023  0.07062300
   0.16651573  0.66674774  0.07039148
   0.66654375  0.16691250  0.07062213
   0.66673653  0.66674774  0.07039148
   0.33342627  0.33354381  0.13801092
   0.33361755  0.83276489  0.13801474
   0.83302992  0.33354381  0.13801092
   0.83307358  0.83385284  0.13802901
   0.00009840  0.00027747  0.20644285
  -0.00000620  0.50001241  0.20604554
   0.49962414  0.00027747  0.20644285
   0.50048515  0.49902970  0.20637332
   0.16625640  0.16748721  0.27494625
   0.16607589  0.66607197  0.27458516
   0.66657269  0.16685463  0.27497370
   0.66785214  0.66607197  0.27458516
   0.33433785  0.33252069  0.34275930
   0.33413261  0.83173478  0.34224239
   0.83314146  0.33252069  0.34275930
   0.83278647  0.83442706  0.34283899
   0.00227309 -0.00127613  0.40996446
   0.00226633  0.49546733  0.40933578
   0.49900305 -0.00127613  0.40996446
   0.49999719  0.50000562  0.40952065
   0.17445766  0.15108468  0.48012964
   0.16749296  0.65707540  0.47694743
   0.66743459  0.16513083  0.47751663
   0.67543165  0.65707540  0.47694743
   0.31803305  0.86393391  0.53622139
   0.24234965  0.01530070  0.54953396
Direct configuration=    16
  -0.00013646  0.00045955  0.00145619
   0.00009070  0.49981860  0.00112579
   0.49967691  0.00045955  0.00145619
   0.50031154  0.49937692  0.00122444
   0.16644228  0.16711544  0.07062011
   0.16651193  0.66674698  0.07039353
   0.66653764  0.16692473  0.07060849
   0.66674109  0.66674698  0.07039353
   0.33340125  0.33356576  0.13804259
   0.33361987  0.83276027  0.13804150
   0.83303299  0.33356576  0.13804259
   0.83308305  0.83383391  0.13805971
   0.00003878  0.00029627  0.20643853
  -0.00001329  0.50002659  0.20605049
   0.49966495  0.00029627  0.20643853
   0.50051118  0.49897765  0.20637286
   0.16624740  0.16750520  0.27490063
   0.16607062  0.66603986  0.27455336
   0.66656997  0.16686006  0.27491578
   0.66788952  0.66603986  0.27455336
   0.33434403  0.33251031  0.34268031
   0.33413585  0.83172829  0.34220674
   0.83314566  0.33251031  0.34268031
   0.83281324  0.83437351  0.34278993
   0.00225912 -0.00125960  0.40993370
   0.00239519  0.49520962  0.40938180
   0.49900048 -0.00125960  0.40993370
   0.50009468  0.49981065  0.40948084
   0.17455347  0.15089305  0.48016005
   0.16759871  0.65667601  0.47688460
   0.66751972  0.16496056  0.47748041
   0.67572528  0.65667601  0.47688460
   0.31683828  0.86632345  0.53640121
   0.24271877  0.01456247  0.54981384
Direct configuration=    17
  -0.00018574  0.00044655  0.00143799
   0.00007012  0.49985977  0.00113947
   0.49973918  0.00044655  0.00143799
   0.50031720  0.49936560  0.00123482
   0.16646088  0.16707824  0.07056894
   0.16649976  0.66674660  0.07036756
   0.66653993  0.16692014  0.07051821
   0.66675364  0.66674660  0.07036756
   0.33332925  0.33361878  0.13815061
   0.33361912  0.83276176  0.13813546
   0.83305197  0.33361878  0.13815061
   0.83313003  0.83373993  0.13816409
  -0.00007664  0.00026903  0.20645821
  -0.00003410  0.50006820  0.20611110
   0.49980761  0.00026903  0.20645821
   0.50052599  0.49894803  0.20641314
   0.16623942  0.16752116  0.27467236
   0.16604999  0.66593902  0.27440866
   0.66660582  0.16678836  0.27460665
   0.66801099  0.66593902  0.27440866
   0.33401088  0.33270482  0.34246766
   0.33416661  0.83166678  0.34212116
   0.83328430  0.33270482  0.34246766
   0.83316262  0.83367476  0.34269466
   0.00231691 -0.00141356  0.40987008
   0.00275005  0.49449990  0.40960435
   0.49909665 -0.00141356  0.40987008
   0.50044121  0.49911758  0.40940794
   0.17378347  0.15243307  0.48008978
   0.16789104  0.65478277  0.47679437
   0.66768515  0.16462970  0.47748684
   0.67732619  0.65478277  0.47679437
   0.31531099  0.86937802  0.53673056
   0.24175390  0.01649221  0.55079044
Direct configuration=    18
  -0.00031344  0.00041286  0.00139083
   0.00001677  0.49996646  0.00117493
   0.49990058  0.00041286  0.00139083
   0.50033187  0.49933626  0.00126172
   0.16650909  0.16698183  0.07043634
   0.16646821  0.66674563  0.07030024
   0.66654587  0.16690826  0.07028422
   0.66678616  0.66674563  0.07030024
   0.33314266  0.33375619  0.13843056
   0.33361719  0.83276562  0.13837899
   0.83310115  0.33375619  0.13843056
   0.83325181  0.83349639  0.13843462
  -0.00037575  0.00019842  0.20650920
  -0.00008802  0.50017605  0.20626819
   0.50017733  0.00019842  0.20650920
   0.50056437  0.49887127  0.20651751
   0.16621874  0.16756253  0.27408078
   0.16599652  0.66567769  0.27403366
   0.66669873  0.16660254  0.27380553
   0.66832578  0.66567769  0.27403366
   0.33314749  0.33320890  0.34191655
   0.33424632  0.83150736  0.34189938
   0.83364360  0.33320890  0.34191655
   0.83406805  0.83186390  0.34244777
   0.00246667 -0.00181255  0.40970518
   0.00366968  0.49266063  0.41018110
   0.49934587 -0.00181255  0.40970518
   0.50133928  0.49732143  0.40921900
   0.17178793  0.15642415  0.47990767
   0.16864863  0.64987627  0.47656055
   0.66811387  0.16377227  0.47750351
   0.68147510  0.64987627  0.47656055
   0.31135290  0.87729420  0.53758411
   0.23925336  0.02149328  0.55332136
Direct configuration=    19
  -0.00026765  0.00042494  0.00140774
   0.00003590  0.49992820  0.00116221
   0.49984271  0.00042494  0.00140774
   0.50032661  0.49934678  0.00125207
   0.16649180  0.16701640  0.07048389
   0.16647952  0.66674598  0.07032438
   0.66654374  0.16691252  0.07036812
   0.66677450  0.66674598  0.07032438
   0.33320957  0.33370692  0.13833017
   0.33361788  0.83276423  0.13829167
   0.83308352  0.33370692  0.13833017
   0.83320814  0.83358372  0.13833761
  -0.00026850  0.00022374  0.20649091
  -0.00006869  0.50013738  0.20621186
   0.50004476  0.00022374  0.20649091
   0.50055060  0.49889879  0.20648009
   0.16622615  0.16754769  0.27429291
   0.16601569  0.66577140  0.27416813
   0.66666542  0.16666917  0.27409279
   0.66821290  0.66577140  0.27416813
   0.33345709  0.33302815  0.34211417
   0.33421774  0.83156452  0.34197891
   0.83351477  0.33302815  0.34211417
   0.83374338  0.83251324  0.34253630
   0.00241297 -0.00166948  0.40976431
   0.00333992  0.49332016  0.40997429
   0.49925651 -0.00166948  0.40976431
   0.50101725  0.49796549  0.40928675
   0.17250349  0.15499303  0.47997297
   0.16837698  0.65163564  0.47664439
   0.66796014  0.16407973  0.47749753
   0.67998738  0.65163564  0.47664439
   0.31277219  0.87445562  0.53727804
   0.24015000  0.01970000  0.55241382
Direct configuration=    20
  -0.00029710  0.00040681  0.00133959
   0.00000331  0.49999338  0.00115982
   0.49989029  0.00040681  0.00133959
   0.50028800  0.49942401  0.00123698
   0.16652025  0.16695951  0.07049805
   0.16645805  0.66678764  0.07036629
   0.66654680  0.16690640  0.07037469
   0.66675431  0.66678764  0.07036629
   0.33322597  0.33370100  0.13836553
   0.33357450  0.83285101  0.13833842
   0.83307303  0.33370100  0.13836553
   0.83320090  0.83359820  0.13836485
  -0.00007397  0.00000970  0.20644972
  -0.00008921  0.50017842  0.20624012
   0.50006427  0.00000970  0.20644972
   0.50036462  0.49927077  0.20647149
   0.16638848  0.16722304  0.27405796
   0.16603705  0.66590372  0.27403523
   0.66681221  0.16637559  0.27385794
   0.66805923  0.66590372  0.27403523
   0.33314866  0.33305261  0.34192884
   0.33419361  0.83161277  0.34184182
   0.83379873  0.33305261  0.34192884
   0.83414153  0.83171694  0.34245277
   0.00274722 -0.00242253  0.40967836
   0.00378378  0.49243243  0.40985763
   0.49967531 -0.00242253  0.40967836
   0.50143895  0.49712211  0.40912160
   0.17193585  0.15612829  0.47981099
   0.16935934  0.65040533  0.47670562
   0.66856361  0.16287277  0.47756484
   0.68023533  0.65040533  0.47670562
   0.30998314  0.88003371  0.53799715
   0.23962832  0.02074335  0.55341478
Direct configuration=    21
  -0.00036866  0.00036275  0.00117400
  -0.00007588  0.50015176  0.00115401
   0.50000591  0.00036275  0.00117400
   0.50019418  0.49961164  0.00120031
   0.16658936  0.16682129  0.07053247
   0.16640588  0.66688885  0.07046811
   0.66655423  0.16689154  0.07039065
   0.66670528  0.66688885  0.07046811
   0.33326583  0.33368661  0.13845144
   0.33346908  0.83306185  0.13845201
   0.83304756  0.33368661  0.13845144
   0.83318331  0.83363339  0.13843105
   0.00039869 -0.00051036  0.20634962
  -0.00013908  0.50027816  0.20630879
   0.50011167 -0.00051036  0.20634962
   0.49991271  0.50017458  0.20645060
   0.16678290  0.16643421  0.27348711
   0.16608895  0.66622521  0.27371234
   0.66716887  0.16566226  0.27328728
   0.66768584  0.66622521  0.27371234
   0.33239926  0.33311204  0.34147852
   0.33413499  0.83173001  0.34150872
   0.83448869  0.33311204  0.34147852
   0.83510894  0.82978212  0.34224980
   0.00355938 -0.00425230  0.40946953
   0.00486227  0.49027545  0.40957416
   0.50069291 -0.00425230  0.40946953
   0.50246357  0.49507286  0.40872032
   0.17055663  0.15888674  0.47941743
   0.17174628  0.64741596  0.47685438
   0.67002992  0.15994015  0.47772837
   0.68083777  0.64741596  0.47685438
   0.30320638  0.89358724  0.53974441
   0.23836077  0.02327846  0.55584689
Direct configuration=    22
  -0.00034683  0.00037620  0.00122452
  -0.00005172  0.50010344  0.00115579
   0.49997063  0.00037620  0.00122452
   0.50022280  0.49955439  0.00121150
   0.16656827  0.16686346  0.07052197
   0.16642180  0.66685797  0.07043704
   0.66655196  0.16689608  0.07038578
   0.66672024  0.66685797  0.07043704
   0.33325367  0.33369100  0.13842523
   0.33350124  0.83299752  0.13841735
   0.83305533  0.33369100  0.13842523
   0.83318867  0.83362265  0.13841085
   0.00025448 -0.00035169  0.20638016
  -0.00012386  0.50024773  0.20628784
   0.50009721 -0.00035169  0.20638016
   0.50005059  0.49989883  0.20645697
   0.16666256  0.16667488  0.27366128
   0.16607312  0.66612712  0.27381085
   0.66706005  0.16587989  0.27346139
   0.66779976  0.66612712  0.27381085
   0.33262791  0.33309391  0.34161591
   0.33415288  0.83169424  0.34161035
   0.83427819  0.33309391  0.34161591
   0.83481378  0.83037243  0.34231172
   0.00331159 -0.00369403  0.40953324
   0.00453323  0.49093355  0.40966065
   0.50038244 -0.00369403  0.40953324
   0.50215096  0.49569809  0.40884275
   0.17097743  0.15804514  0.47953751
   0.17101802  0.64832802  0.47680899
   0.66958255  0.16083490  0.47767848
   0.68065396  0.64832802  0.47680899
   0.30527398  0.88945204  0.53921132
   0.23874750  0.02250500  0.55510485
Direct configuration=    23
  -0.00034970  0.00037022  0.00120122
  -0.00006122  0.50012244  0.00115533
   0.49997948  0.00037022  0.00120122
   0.50020512  0.49958976  0.00120621
   0.16657748  0.16684504  0.07053080
   0.16641620  0.66687397  0.07045419
   0.66655275  0.16689449  0.07039593
   0.66670984  0.66687397  0.07045419
   0.33326506  0.33368640  0.13842713
   0.33348554  0.83302892  0.13842144
   0.83304854  0.33368640  0.13842713
   0.83318396  0.83363208  0.13840928
   0.00031918 -0.00041971  0.20635359
  -0.00012721  0.50025442  0.20628354
   0.50010053 -0.00041971  0.20635359
   0.49998981  0.50002038  0.20644184
   0.16671939  0.16656122  0.27359829
   0.16608579  0.66617282  0.27377708
   0.66711053  0.16577895  0.27340965