  34  34   0   0
  0.1991679E+02  0.5133596E-09  0.5133596E-09  0.2967047E-08  0.5000000E-15
  1.000000000000000E-004
  CAR 
 unknown system                          
     14.84357926     -9.10466486  301      2.17691165      1.00000000
     -9.105  0.0000E+00  0.0000E+00  0.0000E+00  0.0000E+00
     -9.025  0.0000E+00  0.0000E+00  0.0000E+00  0.0000E+00
     -8.945  0.0000E+00  0.0000E+00  0.0000E+00  0.0000E+00
     -8.865  0.0000E+00  0.0000E+00  0.0000E+00  0.0000E+00
     -8.785  0.0000E+00  0.0000E+00  0.0000E+00  0.0000E+00
     -8.706 -0.5880E-30 -0.5880E-30 -0.4694E-31 -0.4694E-31
     -8.626 -0.2832E-27 -0.2832E-27 -0.2265E-28 -0.2265E-28
     -8.546 -0.9903E-25 -0.9903E-25 -0.7928E-26 -0.7928E-26
     -8.466 -0.2510E-22 -0.2510E-22 -0.2011E-23 -0.2011E-23
     -8.386 -0.4606E-20 -0.4606E-20 -0.3697E-21 -0.3697E-21
     -8.306 -0.6121E-18 -0.6121E-18 -0.4923E-19 -0.4923E-19
     -8.227 -0.5700E-16 -0.5700E-16 -0.4599E-17 -0.4599E-17
     -8.147 -0.3939E-14 -0.3939E-14 -0.3190E-15 -0.3190E-15
     -8.067 -0.1962E-12 -0.1962E-12 -0.1598E-13 -0.1598E-13
     -7.987 -0.7028E-11 -0.7028E-11 -0.5770E-12 -0.5770E-12
     -7.907 -0.1805E-09 -0.1805E-09 -0.1499E-10 -0.1499E-10
     -7.827 -0.3310E-08 -0.3310E-08 -0.2792E-09 -0.2792E-09
     -7.748 -0.4304E-07 -0.4304E-07 -0.3715E-08 -0.3715E-08
     -7.668 -0.3925E-06 -0.3925E-06 -0.3505E-07 -0.3505E-07
     -7.588 -0.2464E-05 -0.2464E-05 -0.2318E-06 -0.2318E-06
     -7.508 -0.1025E-04 -0.1025E-04 -0.1050E-05 -0.1050E-05
     -7.428 -0.2553E-04 -0.2553E-04 -0.3088E-05 -0.3088E-05
     -7.348 -0.2305E-04 -0.2305E-04 -0.4928E-05 -0.4928E-05
     -7.269  0.7003E-04  0.7003E-04  0.6624E-06  0.6624E-06
     -7.189  0.2956E-03  0.2956E-03  0.2426E-04  0.2426E-04
     -7.109  0.5202E-03  0.5202E-03  0.6579E-04  0.6579E-04
     -7.029  0.5199E-03  0.5199E-03  0.1073E-03  0.1073E-03
     -6.949  0.3062E-03  0.3062E-03  0.1317E-03  0.1317E-03
     -6.869  0.1678E-03  0.1678E-03  0.1451E-03  0.1451E-03
     -6.790  0.2902E-03  0.2902E-03  0.1683E-03  0.1683E-03
     -6.710  0.4940E-03  0.4940E-03  0.2077E-03  0.2077E-03
     -6.630  0.4581E-03  0.4581E-03  0.2443E-03  0.2443E-03
     -6.550  0.1459E-03  0.1459E-03  0.2559E-03  0.2559E-03
     -6.470 -0.4781E-04 -0.4781E-04  0.2521E-03  0.2521E-03
     -6.391  0.4747E-03  0.4747E-03  0.2900E-03  0.2900E-03
     -6.311  0.1885E-02  0.1885E-02  0.4405E-03  0.4405E-03
     -6.231  0.3266E-02  0.3266E-02  0.7012E-03  0.7012E-03
     -6.151  0.3349E-02  0.3349E-02  0.9685E-03  0.9685E-03
     -6.071  0.2319E-02  0.2319E-02  0.1154E-02  0.1154E-02
     -5.991  0.1777E-02  0.1777E-02  0.1295E-02  0.1295E-02
     -5.912  0.2502E-02  0.2502E-02  0.1495E-02  0.1495E-02
     -5.832  0.3323E-02  0.3323E-02  0.1760E-02  0.1760E-02
     -5.752  0.2828E-02  0.2828E-02  0.1986E-02  0.1986E-02
     -5.672  0.1313E-02  0.1313E-02  0.2091E-02  0.2091E-02
     -5.592  0.4569E-04  0.4569E-04  0.2095E-02  0.2095E-02
     -5.512 -0.3726E-03 -0.3726E-03  0.2065E-02  0.2065E-02
     -5.433  0.1257E-03  0.1257E-03  0.2075E-02  0.2075E-02
     -5.353  0.1614E-02  0.1614E-02  0.2204E-02  0.2204E-02
     -5.273  0.3416E-02  0.3416E-02  0.2476E-02  0.2476E-02
     -5.193  0.3970E-02  0.3970E-02  0.2793E-02  0.2793E-02
     -5.113  0.2702E-02  0.2702E-02  0.3009E-02  0.3009E-02
     -5.033  0.8688E-03  0.8688E-03  0.3078E-02  0.3078E-02
     -4.954 -0.2186E-03 -0.2186E-03  0.3061E-02  0.3061E-02
     -4.874 -0.3592E-03 -0.3592E-03  0.3032E-02  0.3032E-02
     -4.794  0.3312E-03  0.3312E-03  0.3059E-02  0.3059E-02
     -4.714  0.1784E-02  0.1784E-02  0.3201E-02  0.3201E-02
     -4.634  0.3427E-02  0.3427E-02  0.3475E-02  0.3475E-02
     -4.554  0.4604E-02  0.4604E-02  0.3842E-02  0.3842E-02
     -4.475  0.5430E-02  0.5430E-02  0.4276E-02  0.4276E-02
     -4.395  0.6032E-02  0.6032E-02  0.4757E-02  0.4757E-02
     -4.315  0.5689E-02  0.5689E-02  0.5211E-02  0.5211E-02
     -4.235  0.4032E-02  0.4032E-02  0.5533E-02  0.5533E-02
     -4.155  0.2310E-02  0.2310E-02  0.5718E-02  0.5718E-02
     -4.076  0.2052E-02  0.2052E-02  0.5881E-02  0.5881E-02
     -3.996  0.3188E-02  0.3188E-02  0.6136E-02  0.6136E-02
     -3.916  0.4940E-02  0.4940E-02  0.6530E-02  0.6530E-02
     -3.836  0.7165E-02  0.7165E-02  0.7102E-02  0.7102E-02
     -3.756  0.9162E-02  0.9162E-02  0.7834E-02  0.7834E-02
     -3.676  0.9370E-02  0.9370E-02  0.8582E-02  0.8582E-02
     -3.597  0.7860E-02  0.7860E-02  0.9209E-02  0.9209E-02
     -3.517  0.6664E-02  0.6664E-02  0.9741E-02  0.9741E-02
     -3.437  0.6674E-02  0.6674E-02  0.1027E-01  0.1027E-01
     -3.357  0.6697E-02  0.6697E-02  0.1081E-01  0.1081E-01
     -3.277  0.5834E-02  0.5834E-02  0.1127E-01  0.1127E-01
     -3.197  0.4536E-02  0.4536E-02  0.1164E-01  0.1164E-01
     -3.118  0.3641E-02  0.3641E-02  0.1193E-01  0.1193E-01
     -3.038  0.3957E-02  0.3957E-02  0.1224E-01  0.1224E-01
     -2.958  0.5671E-02  0.5671E-02  0.1270E-01  0.1270E-01
     -2.878  0.7799E-02  0.7799E-02  0.1332E-01  0.1332E-01
     -2.798  0.9982E-02  0.9982E-02  0.1411E-01  0.1411E-01
     -2.718  0.1367E-01  0.1367E-01  0.1521E-01  0.1521E-01
     -2.639  0.1961E-01  0.1961E-01  0.1677E-01  0.1677E-01
     -2.559  0.2625E-01  0.2625E-01  0.1887E-01  0.1887E-01
     -2.479  0.3131E-01  0.3131E-01  0.2137E-01  0.2137E-01
     -2.399  0.3275E-01  0.3275E-01  0.2398E-01  0.2398E-01
     -2.319  0.2970E-01  0.2970E-01  0.2635E-01  0.2635E-01
     -2.240  0.2473E-01  0.2473E-01  0.2833E-01  0.2833E-01
     -2.160  0.2263E-01  0.2263E-01  0.3013E-01  0.3013E-01
     -2.080  0.2589E-01  0.2589E-01  0.3220E-01  0.3220E-01
     -2.000  0.3322E-01  0.3322E-01  0.3485E-01  0.3485E-01
     -1.920  0.4140E-01  0.4140E-01  0.3815E-01  0.3815E-01
     -1.840  0.4689E-01  0.4689E-01  0.4190E-01  0.4190E-01
     -1.761  0.4798E-01  0.4798E-01  0.4573E-01  0.4573E-01
     -1.681  0.4540E-01  0.4540E-01  0.4935E-01  0.4935E-01
     -1.601  0.4081E-01  0.4081E-01  0.5261E-01  0.5261E-01
     -1.521  0.3671E-01  0.3671E-01  0.5554E-01  0.5554E-01
     -1.441  0.3530E-01  0.3530E-01  0.5836E-01  0.5836E-01
     -1.361  0.3709E-01  0.3709E-01  0.6132E-01  0.6132E-01
     -1.282  0.4254E-01  0.4254E-01  0.6472E-01  0.6472E-01
     -1.202  0.5131E-01  0.5131E-01  0.6881E-01  0.6881E-01
     -1.122  0.5920E-01  0.5920E-01  0.7354E-01  0.7354E-01
     -1.042  0.6192E-01  0.6192E-01  0.7848E-01  0.7848E-01
     -0.962  0.6242E-01  0.6242E-01  0.8346E-01  0.8346E-01
     -0.882  0.6736E-01  0.6736E-01  0.8884E-01  0.8884E-01
     -0.803  0.7585E-01  0.7585E-01  0.9489E-01  0.9489E-01
     -0.723  0.8057E-01  0.8057E-01  0.1013E+00  0.1013E+00
     -0.643  0.7886E-01  0.7886E-01  0.1076E+00  0.1076E+00
     -0.563  0.7449E-01  0.7449E-01  0.1136E+00  0.1136E+00
     -0.483  0.7108E-01  0.7108E-01  0.1192E+00  0.1192E+00
     -0.403  0.6927E-01  0.6927E-01  0.1248E+00  0.1248E+00
     -0.324  0.6855E-01  0.6855E-01  0.1302E+00  0.1302E+00
     -0.244  0.6764E-01  0.6764E-01  0.1356E+00  0.1356E+00
     -0.164  0.6506E-01  0.6506E-01  0.1408E+00  0.1408E+00
     -0.084  0.6222E-01  0.6222E-01  0.1458E+00  0.1458E+00
     -0.004  0.6126E-01  0.6126E-01  0.1507E+00  0.1507E+00
      0.075  0.6233E-01  0.6233E-01  0.1557E+00  0.1557E+00
      0.155  0.6759E-01  0.6759E-01  0.1611E+00  0.1611E+00
      0.235  0.7870E-01  0.7870E-01  0.1673E+00  0.1673E+00
      0.315  0.8954E-01  0.8954E-01  0.1745E+00  0.1745E+00
      0.395  0.9314E-01  0.9314E-01  0.1819E+00  0.1819E+00
      0.475  0.9225E-01  0.9225E-01  0.1893E+00  0.1893E+00
      0.554  0.9193E-01  0.9193E-01  0.1966E+00  0.1966E+00
      0.634  0.8730E-01  0.8730E-01  0.2036E+00  0.2036E+00
      0.714  0.6932E-01  0.6932E-01  0.2091E+00  0.2091E+00
      0.794  0.4028E-01  0.4028E-01  0.2124E+00  0.2124E+00
      0.874  0.1388E-01  0.1388E-01  0.2135E+00  0.2135E+00
      0.954  0.3870E-03  0.3870E-03  0.2135E+00  0.2135E+00
      1.033 -0.1489E-02 -0.1489E-02  0.2134E+00  0.2134E+00
      1.113  0.1122E-02  0.1122E-02  0.2135E+00  0.2135E+00
      1.193  0.3228E-02  0.3228E-02  0.2137E+00  0.2137E+00
      1.273  0.4135E-02  0.4135E-02  0.2140E+00  0.2140E+00
      1.353  0.5006E-02  0.5006E-02  0.2144E+00  0.2144E+00
      1.433  0.6068E-02  0.6068E-02  0.2149E+00  0.2149E+00
      1.512  0.6188E-02  0.6188E-02  0.2154E+00  0.2154E+00
      1.592  0.4551E-02  0.4551E-02  0.2158E+00  0.2158E+00
      1.672  0.2478E-02  0.2478E-02  0.2160E+00  0.2160E+00
      1.752  0.2763E-02  0.2763E-02  0.2162E+00  0.2162E+00
      1.832  0.6603E-02  0.6603E-02  0.2167E+00  0.2167E+00
      1.912  0.1180E-01  0.1180E-01  0.2177E+00  0.2177E+00
      1.991  0.1471E-01  0.1471E-01  0.2189E+00  0.2189E+00
      2.071  0.1409E-01  0.1409E-01  0.2200E+00  0.2200E+00
      2.151  0.1223E-01  0.1223E-01  0.2210E+00  0.2210E+00
      2.231  0.1129E-01  0.1129E-01  0.2219E+00  0.2219E+00
      2.311  0.9902E-02  0.9902E-02  0.2226E+00  0.2226E+00
      2.390  0.6471E-02  0.6471E-02  0.2232E+00  0.2232E+00
      2.470  0.3094E-02  0.3094E-02  0.2234E+00  0.2234E+00
      2.550  0.2720E-02  0.2720E-02  0.2236E+00  0.2236E+00
      2.630  0.5059E-02  0.5059E-02  0.2240E+00  0.2240E+00
      2.710  0.7661E-02  0.7661E-02  0.2246E+00  0.2246E+00
      2.790  0.8574E-02  0.8574E-02  0.2253E+00  0.2253E+00
      2.869  0.7346E-02  0.7346E-02  0.2259E+00  0.2259E+00
      2.949  0.5462E-02  0.5462E-02  0.2263E+00  0.2263E+00
      3.029  0.4738E-02  0.4738E-02  0.2267E+00  0.2267E+00
      3.109  0.4647E-02  0.4647E-02  0.2271E+00  0.2271E+00
      3.189  0.3779E-02  0.3779E-02  0.2274E+00  0.2274E+00
      3.269  0.2813E-02  0.2813E-02  0.2276E+00  0.2276E+00
      3.348  0.3361E-02  0.3361E-02  0.2279E+00  0.2279E+00
      3.428  0.5678E-02  0.5678E-02  0.2283E+00  0.2283E+00
      3.508  0.8905E-02  0.8905E-02  0.2291E+00  0.2291E+00
      3.588  0.1175E-01  0.1175E-01  0.2300E+00  0.2300E+00
      3.668  0.1258E-01  0.1258E-01  0.2310E+00  0.2310E+00
      3.748  0.1057E-01  0.1057E-01  0.2318E+00  0.2318E+00
      3.827  0.7046E-02  0.7046E-02  0.2324E+00  0.2324E+00
      3.907  0.4435E-02  0.4435E-02  0.2328E+00  0.2328E+00
      3.987  0.3410E-02  0.3410E-02  0.2330E+00  0.2330E+00
      4.067  0.2624E-02  0.2624E-02  0.2332E+00  0.2332E+00
      4.147  0.1307E-02  0.1307E-02  0.2333E+00  0.2333E+00
      4.227  0.9405E-04  0.9405E-04  0.2334E+00  0.2334E+00
      4.306 -0.5014E-03 -0.5014E-03  0.2333E+00  0.2333E+00
      4.386 -0.4092E-03 -0.4092E-03  0.2333E+00  0.2333E+00
      4.466  0.8778E-03  0.8778E-03  0.2333E+00  0.2333E+00
      4.546  0.3669E-02  0.3669E-02  0.2336E+00  0.2336E+00
      4.626  0.6466E-02  0.6466E-02  0.2342E+00  0.2342E+00
      4.705  0.7131E-02  0.7131E-02  0.2347E+00  0.2347E+00
      4.785  0.5807E-02  0.5807E-02  0.2352E+00  0.2352E+00
      4.865  0.4166E-02  0.4166E-02  0.2355E+00  0.2355E+00
      4.945  0.2709E-02  0.2709E-02  0.2357E+00  0.2357E+00
      5.025  0.1198E-02  0.1198E-02  0.2358E+00  0.2358E+00
      5.105 -0.3522E-04 -0.3522E-04  0.2358E+00  0.2358E+00
      5.184 -0.4900E-03 -0.4900E-03  0.2358E+00  0.2358E+00
      5.264  0.2640E-03  0.2640E-03  0.2358E+00  0.2358E+00
      5.344  0.2556E-02  0.2556E-02  0.2360E+00  0.2360E+00
      5.424  0.5612E-02  0.5612E-02  0.2365E+00  0.2365E+00
      5.504  0.7664E-02  0.7664E-02  0.2371E+00  0.2371E+00
      5.584  0.8279E-02  0.8279E-02  0.2377E+00  0.2377E+00
      5.663  0.8779E-02  0.8779E-02  0.2384E+00  0.2384E+00
      5.743  0.9418E-02  0.9418E-02  0.2392E+00  0.2392E+00
      5.823  0.8923E-02  0.8923E-02  0.2399E+00  0.2399E+00
      5.903  0.7091E-02  0.7091E-02  0.2405E+00  0.2405E+00
      5.983  0.4996E-02  0.4996E-02  0.2409E+00  0.2409E+00
      6.063  0.3250E-02  0.3250E-02  0.2411E+00  0.2411E+00
      6.142  0.2078E-02  0.2078E-02  0.2413E+00  0.2413E+00
      6.222  0.2346E-02  0.2346E-02  0.2415E+00  0.2415E+00
      6.302  0.4957E-02  0.4957E-02  0.2419E+00  0.2419E+00
      6.382  0.8610E-02  0.8610E-02  0.2426E+00  0.2426E+00
      6.462  0.1012E-01  0.1012E-01  0.2434E+00  0.2434E+00
      6.542  0.8552E-02  0.8552E-02  0.2441E+00  0.2441E+00
      6.621  0.6142E-02  0.6142E-02  0.2445E+00  0.2445E+00
      6.701  0.4521E-02  0.4521E-02  0.2449E+00  0.2449E+00
      6.781  0.3891E-02  0.3891E-02  0.2452E+00  0.2452E+00
      6.861  0.4650E-02  0.4650E-02  0.2456E+00  0.2456E+00
      6.941  0.6351E-02  0.6351E-02  0.2461E+00  0.2461E+00
      7.020  0.7508E-02  0.7508E-02  0.2467E+00  0.2467E+00
      7.100  0.8143E-02  0.8143E-02  0.2473E+00  0.2473E+00
      7.180  0.9225E-02  0.9225E-02  0.2481E+00  0.2481E+00
      7.260  0.1030E-01  0.1030E-01  0.2489E+00  0.2489E+00
      7.340  0.1064E-01  0.1064E-01  0.2498E+00  0.2498E+00
      7.420  0.1015E-01  0.1015E-01  0.2506E+00  0.2506E+00
      7.499  0.8258E-02  0.8258E-02  0.2512E+00  0.2512E+00
      7.579  0.5077E-02  0.5077E-02  0.2516E+00  0.2516E+00
      7.659  0.2863E-02  0.2863E-02  0.2519E+00  0.2519E+00
      7.739  0.3601E-02  0.3601E-02  0.2521E+00  0.2521E+00
      7.819  0.6715E-02  0.6715E-02  0.2527E+00  0.2527E+00
      7.899  0.9877E-02  0.9877E-02  0.2535E+00  0.2535E+00
      7.978  0.1107E-01  0.1107E-01  0.2544E+00  0.2544E+00
      8.058  0.9750E-02  0.9750E-02  0.2551E+00  0.2551E+00
      8.138  0.7065E-02  0.7065E-02  0.2557E+00  0.2557E+00
      8.218  0.5111E-02  0.5111E-02  0.2561E+00  0.2561E+00
      8.298  0.4906E-02  0.4906E-02  0.2565E+00  0.2565E+00
      8.378  0.5936E-02  0.5936E-02  0.2570E+00  0.2570E+00
      8.457  0.8032E-02  0.8032E-02  0.2576E+00  0.2576E+00
      8.537  0.1099E-01  0.1099E-01  0.2585E+00  0.2585E+00
      8.617  0.1271E-01  0.1271E-01  0.2595E+00  0.2595E+00
      8.697  0.1100E-01  0.1100E-01  0.2604E+00  0.2604E+00
      8.777  0.6901E-02  0.6901E-02  0.2609E+00  0.2609E+00
      8.857  0.3674E-02  0.3674E-02  0.2612E+00  0.2612E+00
      8.936  0.3127E-02  0.3127E-02  0.2615E+00  0.2615E+00
      9.016  0.4380E-02  0.4380E-02  0.2618E+00  0.2618E+00
      9.096  0.5732E-02  0.5732E-02  0.2623E+00  0.2623E+00
      9.176  0.6657E-02  0.6657E-02  0.2628E+00  0.2628E+00
      9.256  0.7931E-02  0.7931E-02  0.2634E+00  0.2634E+00
      9.335  0.9943E-02  0.9943E-02  0.2642E+00  0.2642E+00
      9.415  0.1138E-01  0.1138E-01  0.2651E+00  0.2651E+00
      9.495  0.1042E-01  0.1042E-01  0.2660E+00  0.2660E+00
      9.575  0.7355E-02  0.7355E-02  0.2666E+00  0.2666E+00
      9.655  0.4677E-02  0.4677E-02  0.2669E+00  0.2669E+00
      9.735  0.4278E-02  0.4278E-02  0.2673E+00  0.2673E+00
      9.814  0.5457E-02  0.5457E-02  0.2677E+00  0.2677E+00
      9.894  0.6755E-02  0.6755E-02  0.2683E+00  0.2683E+00
      9.974  0.8440E-02  0.8440E-02  0.2689E+00  0.2689E+00
     10.054  0.1087E-01  0.1087E-01  0.2698E+00  0.2698E+00
     10.134  0.1199E-01  0.1199E-01  0.2708E+00  0.2708E+00
     10.214  0.1010E-01  0.1010E-01  0.2716E+00  0.2716E+00
     10.293  0.7090E-02  0.7090E-02  0.2721E+00  0.2721E+00
     10.373  0.5676E-02  0.5676E-02  0.2726E+00  0.2726E+00
     10.453  0.6089E-02  0.6089E-02  0.2731E+00  0.2731E+00
     10.533  0.7384E-02  0.7384E-02  0.2737E+00  0.2737E+00
     10.613  0.9039E-02  0.9039E-02  0.2744E+00  0.2744E+00
     10.693  0.1029E-01  0.1029E-01  0.2752E+00  0.2752E+00
     10.772  0.1049E-01  0.1049E-01  0.2760E+00  0.2760E+00
     10.852  0.1048E-01  0.1048E-01  0.2769E+00  0.2769E+00
     10.932  0.1124E-01  0.1124E-01  0.2778E+00  0.2778E+00
     11.012  0.1161E-01  0.1161E-01  0.2787E+00  0.2787E+00
     11.092  0.1036E-01  0.1036E-01  0.2795E+00  0.2795E+00
     11.172  0.9077E-02  0.9077E-02  0.2802E+00  0.2802E+00
     11.251  0.1049E-01  0.1049E-01  0.2811E+00  0.2811E+00
     11.331  0.1412E-01  0.1412E-01  0.2822E+00  0.2822E+00
     11.411  0.1594E-01  0.1594E-01  0.2835E+00  0.2835E+00
     11.491  0.1318E-01  0.1318E-01  0.2845E+00  0.2845E+00
     11.571  0.8092E-02  0.8092E-02  0.2852E+00  0.2852E+00
     11.650  0.5108E-02  0.5108E-02  0.2856E+00  0.2856E+00
     11.730  0.5722E-02  0.5722E-02  0.2860E+00  0.2860E+00
     11.810  0.7977E-02  0.7977E-02  0.2867E+00  0.2867E+00
     11.890  0.9075E-02  0.9075E-02  0.2874E+00  0.2874E+00
     11.970  0.7540E-02  0.7540E-02  0.2880E+00  0.2880E+00
     12.050  0.4370E-02  0.4370E-02  0.2884E+00  0.2884E+00
     12.129  0.1799E-02  0.1799E-02  0.2885E+00  0.2885E+00
     12.209  0.6699E-03  0.6699E-03  0.2886E+00  0.2886E+00
     12.289  0.4678E-03  0.4678E-03  0.2886E+00  0.2886E+00
     12.369  0.1039E-02  0.1039E-02  0.2887E+00  0.2887E+00
     12.449  0.2292E-02  0.2292E-02  0.2889E+00  0.2889E+00
     12.529  0.3156E-02  0.3156E-02  0.2891E+00  0.2891E+00
     12.608  0.2711E-02  0.2711E-02  0.2893E+00  0.2893E+00
     12.688  0.1727E-02  0.1728E-02  0.2895E+00  0.2895E+00
     12.768  0.1555E-02  0.1555E-02  0.2896E+00  0.2896E+00
     12.848  0.2041E-02  0.2041E-02  0.2897E+00  0.2897E+00
     12.928  0.1991E-02  0.1991E-02  0.2899E+00  0.2899E+00
     13.008  0.1133E-02  0.1133E-02  0.2900E+00  0.2900E+00
     13.087  0.2628E-03  0.2628E-03  0.2900E+00  0.2900E+00
     13.167 -0.9534E-04 -0.9535E-04  0.2900E+00  0.2900E+00
     13.247 -0.1015E-03 -0.1015E-03  0.2900E+00  0.2900E+00
     13.327 -0.4038E-04 -0.4038E-04  0.2900E+00  0.2900E+00
     13.407 -0.9655E-05 -0.9654E-05  0.2900E+00  0.2900E+00
     13.487 -0.1530E-05 -0.1530E-05  0.2900E+00  0.2900E+00
     13.566 -0.1671E-06 -0.1670E-06  0.2900E+00  0.2900E+00
     13.646 -0.1279E-07 -0.1279E-07  0.2900E+00  0.2900E+00
     13.726 -0.6948E-09 -0.6946E-09  0.2900E+00  0.2900E+00
     13.806 -0.2694E-10 -0.2693E-10  0.2900E+00  0.2900E+00
     13.886 -0.7490E-12 -0.7487E-12  0.2900E+00  0.2900E+00
     13.965 -0.1498E-13 -0.1497E-13  0.2900E+00  0.2900E+00
     14.045 -0.2163E-15 -0.2163E-15  0.2900E+00  0.2900E+00
     14.125 -0.2318E-17 -0.2318E-17  0.2900E+00  0.2900E+00
     14.205  0.0000E+00  0.0000E+00  0.2900E+00  0.2900E+00
     14.285  0.0000E+00  0.0000E+00  0.2900E+00  0.2900E+00
     14.365  0.0000E+00  0.0000E+00  0.2900E+00  0.2900E+00
     14.444  0.0000E+00  0.0000E+00  0.2900E+00  0.2900E+00
     14.524  0.0000E+00  0.0000E+00  0.2900E+00  0.2900E+00
     14.604  0.0000E+00  0.0000E+00  0.2900E+00  0.2900E+00
     14.684  0.0000E+00  0.0000E+00  0.2900E+00  0.2900E+00
     14.764  0.0000E+00  0.0000E+00  0.2900E+00  0.2900E+00
     14.844  0.0000E+00  0.0000E+00  0.2900E+00  0.2900E+00
