   34   34  800    2
  0.1991679E+02  0.5133595E-09  0.5133595E-09  0.2967047E-08  0.5000000E-15
  1.000000000000000E-004
  CAR 
 unknown system                          
    354      4    232
 
  0.0000000E+00  0.0000000E+00  0.0000000E+00  0.1111111E+00
      1         -7.104665       -7.104665   1.000000   1.000000
      2         -6.709574       -6.709574   1.000000   1.000000
      3         -6.078114       -6.078114   1.000000   1.000000
      4         -5.240777       -5.240777   1.000000   1.000000
      5         -4.332249       -4.332249   1.000000   1.000000
      6         -3.680968       -3.680968   1.000000   1.000000
      7         -3.407320       -3.407320   1.000000   1.000000
      8         -3.008520       -3.008520   1.000000   1.000000
      9         -2.880968       -2.880968   1.000000   1.000000
     10         -2.879293       -2.879293   1.000000   1.000000
     11         -2.878589       -2.878589   1.000000   1.000000
     12         -2.876979       -2.876979   1.000000   1.000000
     13         -2.695167       -2.695167   1.000000   1.000000
     14         -2.694951       -2.694951   1.000000   1.000000
     15         -2.694768       -2.694768   1.000000   1.000000
     16         -2.673884       -2.673884   1.000000   1.000000
     17         -2.673872       -2.673872   1.000000   1.000000
     18         -2.672961       -2.672961   1.000000   1.000000
     19         -2.557503       -2.557503   1.000000   1.000000
     20         -2.556520       -2.556519   1.000000   1.000000
     21         -2.555455       -2.555455   1.000000   1.000000
     22         -2.417886       -2.417886   1.000000   1.000000
     23         -2.417781       -2.417781   1.000000   1.000000
     24         -2.417246       -2.417246   1.000000   1.000000
     25         -2.371779       -2.371779   1.000000   1.000000
     26         -2.370583       -2.370583   1.000000   1.000000
     27         -2.370443       -2.370443   1.000000   1.000000
     28         -2.222676       -2.222676   1.000000   1.000000
     29         -2.222204       -2.222204   1.000000   1.000000
     30         -2.222157       -2.222157   1.000000   1.000000
     31         -2.108854       -2.108854   1.000000   1.000000
     32         -2.107692       -2.107692   1.000000   1.000000
     33         -2.107361       -2.107361   1.000000   1.000000
     34         -2.107213       -2.107213   1.000000   1.000000
     35         -2.106886       -2.106886   1.000000   1.000000
     36         -2.105653       -2.105653   1.000000   1.000000
     37         -2.095944       -2.095944   1.000000   1.000000
     38         -2.095651       -2.095651   1.000000   1.000000
     39         -2.094974       -2.094974   1.000000   1.000000
     40         -1.920847       -1.920847   1.000000   1.000000
     41         -1.920714       -1.920714   1.000000   1.000000
     42         -1.919967       -1.919967   1.000000   1.000000
     43         -1.675502       -1.675502   1.000000   1.000000
     44         -1.674502       -1.674502   1.000000   1.000000
     45         -1.674438       -1.674438   1.000000   1.000000
     46         -1.361998       -1.361998   1.000000   1.000000
     47         -1.360811       -1.360811   1.000000   1.000000
     48         -1.360736       -1.360736   1.000000   1.000000
     49         -1.060459       -1.060459   1.000000   1.000000
     50         -1.060177       -1.060177   1.000000   1.000000
     51         -1.059579       -1.059579   1.000000   1.000000
     52         -0.954417       -0.954417   1.000000   1.000000
     53         -0.940442       -0.940442   1.000000   1.000000
     54         -0.913525       -0.913525   1.000000   1.000000
     55         -0.911580       -0.911580   1.000000   1.000000
     56         -0.911050       -0.911050   1.000000   1.000000
     57         -0.869307       -0.869307   1.000000   1.000000
     58         -0.868216       -0.868216   1.000000   1.000000
     59         -0.865782       -0.865782   1.000000   1.000000
     60         -0.860456       -0.860456   1.000000   1.000000
     61         -0.860388       -0.860388   1.000000   1.000000
     62         -0.858200       -0.858200   1.000000   1.000000
     63         -0.858189       -0.858189   1.000000   1.000000
     64         -0.804789       -0.804789   1.000000   1.000000
     65         -0.794250       -0.794250   1.000000   1.000000
     66         -0.790047       -0.790047   1.000000   1.000000
     67         -0.789922       -0.789922   1.000000   1.000000
     68         -0.773822       -0.773822   1.000000   1.000000
     69         -0.773078       -0.773078   1.000000   1.000000
     70         -0.769442       -0.769442   1.000000   1.000000
     71         -0.769411       -0.769411   1.000000   1.000000
     72         -0.768698       -0.768698   1.000000   1.000000
     73         -0.768306       -0.768306   1.000000   1.000000
     74         -0.765936       -0.765936   1.000000   1.000000
     75         -0.765298       -0.765298   1.000000   1.000000
     76         -0.764380       -0.764380   1.000000   1.000000
     77         -0.763698       -0.763698   1.000000   1.000000
     78         -0.763593       -0.763593   1.000000   1.000000
     79         -0.720467       -0.720467   1.000000   1.000000
     80         -0.720347       -0.720347   1.000000   1.000000
     81         -0.718027       -0.718027   1.000000   1.000000
     82         -0.679450       -0.679450   1.000000   1.000000
     83         -0.679056       -0.679056   1.000000   1.000000
     84         -0.667672       -0.667672   1.000000   1.000000
     85         -0.667202       -0.667202   1.000000   1.000000
     86         -0.666282       -0.666282   1.000000   1.000000
     87         -0.595267       -0.595267   1.000000   1.000000
     88         -0.595122       -0.595122   1.000000   1.000000
     89         -0.578001       -0.578001   1.000000   1.000000
     90         -0.577804       -0.577804   1.000000   1.000000
     91         -0.534679       -0.534679   1.000000   1.000000
     92         -0.532895       -0.532895   1.000000   1.000000
     93         -0.532200       -0.532200   1.000000   1.000000
     94         -0.451489       -0.451489   1.000000   1.000000
     95         -0.450130       -0.450130   1.000000   1.000000
     96         -0.448408       -0.448408   1.000000   1.000000
     97         -0.446801       -0.446801   1.000000   1.000000
     98         -0.243902       -0.243902   1.000000   1.000000
     99         -0.242085       -0.242085   1.000000   1.000000
    100         -0.241883       -0.241883   1.000000   1.000000
    101         -0.189087       -0.189087   1.000000   1.000000
    102         -0.189054       -0.189054   1.000000   1.000000
    103         -0.188397       -0.188397   1.000000   1.000000
    104         -0.010979       -0.010979   1.000000   1.000000
    105         -0.009152       -0.009152   1.000000   1.000000
    106         -0.005337       -0.005337   1.000000   1.000000
    107          0.000468        0.000468   1.000000   1.000000
    108          0.029036        0.029036   1.000000   1.000000
    109          0.029452        0.029452   1.000000   1.000000
    110          0.030874        0.030874   1.000000   1.000000
    111          0.034209        0.034209   1.000000   1.000000
    112          0.034875        0.034875   1.000000   1.000000
    113          0.040381        0.040381   1.000000   1.000000
    114          0.042413        0.042413   1.000000   1.000000
    115          0.043137        0.043137   1.000000   1.000000
    116          0.092816        0.092816   1.000000   1.000000
    117          0.092968        0.092968   1.000000   1.000000
    118          0.244986        0.244986   1.000000   1.000000
    119          0.246131        0.246131   1.000000   1.000000
    120          0.293044        0.293044   1.000000   1.000000
    121          0.293738        0.293738   1.000000   1.000000
    122          0.294600        0.294600   1.000000   1.000000
    123          0.324392        0.324392   1.000000   1.000000
    124          0.324649        0.324649   1.000000   1.000000
    125          0.324973        0.324973   1.000000   1.000000
    126          0.389638        0.389638   1.000000   1.000000
    127          0.397809        0.397809   1.000000   1.000000
    128          0.398463        0.398463   1.000000   1.000000
    129          0.487273        0.487273   1.000000   1.000000
    130          0.488372        0.488372   1.000000   1.000000
    131          0.488832        0.488832   1.000000   1.000000
    132          0.507979        0.507979   1.000000   1.000000
    133          0.509512        0.509512   1.000000   1.000000
    134          0.511842        0.511842   1.000000   1.000000
    135          0.531922        0.531922   1.000000   1.000000
    136          0.534757        0.534757   1.000000   1.000000
    137          0.561650        0.561650   1.000000   1.000000
    138          0.562415        0.562415   1.000000   1.000000
    139          0.562548        0.562548   1.000000   1.000000
    140          0.563525        0.563525   1.000000   1.000000
    141          0.564084        0.564084   1.000000   1.000000
    142          0.564787        0.564787   1.000000   1.000000
    143          0.588780        0.588780   1.000000   1.000000
    144          0.589594        0.589594   1.000000   1.000000
    145          0.589978        0.589978   1.000000   1.000000
    146          0.595087        0.595087   1.000000   1.000000
    147          0.596536        0.596536   1.000000   1.000000
    148          0.597055        0.597055   1.000000   1.000000
    149          0.613513        0.613513   1.000000   1.000000
    150          0.617517        0.617517   1.000000   1.000000
    151          0.618280        0.618280   1.000000   1.000000
    152          0.619054        0.619054   1.000000   1.000000
    153          0.619061        0.619061   1.000000   1.000000
    154          0.661235        0.661235   1.000000   1.000000
    155          0.661294        0.661294   1.000000   1.000000
    156          0.662722        0.662722   1.000000   1.000000
    157          0.669507        0.669507   1.000000   1.000000
    158          0.671481        0.671481   1.000000   1.000000
    159          0.671774        0.671774   1.000000   1.000000
    160          0.686748        0.686748   1.000000   1.000000
    161          0.688376        0.688376   1.000000   1.000000
    162          0.689511        0.689511   1.000000   1.000000
    163          0.710513        0.710513   1.000000   1.000000
    164          0.711865        0.711865   1.000000   1.000000
    165          0.712377        0.712377   1.000000   1.000000
    166          0.749829        0.749829   1.000000   1.000000
    167          0.751006        0.751006   1.000000   1.000000
    168          0.751362        0.751362   1.000000   1.000000
    169          1.489848        1.489848   1.000007   1.000007
    170          1.496697        1.496697   1.000008   1.000008
    171          1.496996        1.496996   1.000008   1.000008
    172          1.646829        1.646829   1.000576   1.000576
    173          1.990458        1.990458   1.016595   1.016595
    174          2.116639        2.116639   0.742647   0.742647
    175          2.120361        2.120361   0.729011   0.729011
    176          2.120632        2.120632   0.728007   0.728007
    177          2.656739        2.656739  -0.001796  -0.001796
    178          2.657782        2.657782  -0.001756  -0.001756
    179          2.659913        2.659913  -0.001679  -0.001679
    180          3.044913        3.044913  -0.000000  -0.000000
    181          3.046324        3.046324  -0.000000  -0.000000
    182          3.049810        3.049810  -0.000000  -0.000000
    183          3.304331        3.304331  -0.000000  -0.000000
    184          3.306059        3.306059  -0.000000  -0.000000
    185          3.312307        3.312307  -0.000000  -0.000000
    186          3.498335        3.498335  -0.000000  -0.000000
    187          3.499180        3.499180  -0.000000  -0.000000
    188          3.505546        3.505546  -0.000000  -0.000000
    189          3.655230        3.655230  -0.000000  -0.000000
    190          3.655674        3.655674  -0.000000  -0.000000
    191          3.667922        3.667922  -0.000000  -0.000000
    192          3.738195        3.738195  -0.000000  -0.000000
    193          3.738663        3.738663  -0.000000  -0.000000
    194          3.758029        3.758029  -0.000000  -0.000000
    195          6.118260        6.118260  -0.000000  -0.000000
    196          6.131360        6.131360  -0.000000  -0.000000
    197          6.139457        6.139457  -0.000000  -0.000000
    198          6.349994        6.349993  -0.000000  -0.000000
    199          6.535350        6.535349  -0.000000  -0.000000
    200          6.544163        6.544163  -0.000000  -0.000000
    201          6.560246        6.560246  -0.000000  -0.000000
    202          6.658638        6.658638  -0.000000  -0.000000
    203          7.081019        7.081019  -0.000000  -0.000000
    204          7.108903        7.108903  -0.000000  -0.000000
    205          7.135969        7.135969  -0.000000  -0.000000
    206          7.383657        7.383657  -0.000000  -0.000000
    207          7.654532        7.654532   0.000000   0.000000
    208          7.687014        7.687014   0.000000   0.000000
    209          7.691940        7.691940   0.000000   0.000000
    210          7.936343        7.936341   0.000000   0.000000
    211          8.415917        8.415917   0.000000   0.000000
    212          8.423215        8.423215   0.000000   0.000000
    213          8.486371        8.486371   0.000000   0.000000
    214          8.834984        8.834983   0.000000   0.000000
    215          9.335453        9.335451   0.000000   0.000000
    216          9.391301        9.391301   0.000000   0.000000
    217          9.419223        9.419223   0.000000   0.000000
    218          9.469750        9.469750   0.000000   0.000000
    219         10.056125       10.056125   0.000000   0.000000
    220         10.088330       10.088330   0.000000   0.000000
    221         10.117626       10.117626   0.000000   0.000000
    222         10.376720       10.376719   0.000000   0.000000
    223         10.610448       10.610448   0.000000   0.000000
    224         10.693987       10.693987   0.000000   0.000000
    225         10.846261       10.846261   0.000000   0.000000
    226         11.188636       11.188636   0.000000   0.000000
    227         11.233066       11.233066   0.000000   0.000000
    228         11.341731       11.341731   0.000000   0.000000
    229         11.453813       11.453813   0.000000   0.000000
    230         11.657982       11.657982   0.000000   0.000000
    231         11.800540       11.800540   0.000000   0.000000
    232         11.895262       11.895262   0.000000   0.000000
 
  0.3333333E+00  0.5551115E-16  0.0000000E+00  0.4444444E+00
      1         -6.234647       -6.234647   1.000000   1.000000
      2         -5.855333       -5.855333   1.000000   1.000000
      3         -5.251685       -5.251685   1.000000   1.000000
      4         -4.460516       -4.460516   1.000000   1.000000
      5         -4.011117       -4.011117   1.000000   1.000000
      6         -3.756965       -3.756965   1.000000   1.000000
      7         -3.694406       -3.694406   1.000000   1.000000
      8         -3.479694       -3.479694   1.000000   1.000000
      9         -3.369600       -3.369600   1.000000   1.000000
     10         -2.957672       -2.957672   1.000000   1.000000
     11         -2.841500       -2.841500   1.000000   1.000000
     12         -2.683209       -2.683209   1.000000   1.000000
     13         -2.681347       -2.681347   1.000000   1.000000
     14         -2.586234       -2.586234   1.000000   1.000000
     15         -2.534413       -2.534413   1.000000   1.000000
     16         -2.533109       -2.533109   1.000000   1.000000
     17         -2.472826       -2.472826   1.000000   1.000000
     18         -2.433446       -2.433446   1.000000   1.000000
     19         -2.431241       -2.431241   1.000000   1.000000
     20         -2.393708       -2.393708   1.000000   1.000000
     21         -2.385326       -2.385326   1.000000   1.000000
     22         -2.383938       -2.383938   1.000000   1.000000
     23         -2.271579       -2.271579   1.000000   1.000000
     24         -2.269228       -2.269228   1.000000   1.000000
     25         -2.268828       -2.268828   1.000000   1.000000
     26         -2.103780       -2.103780   1.000000   1.000000
     27         -2.102685       -2.102685   1.000000   1.000000
     28         -1.998949       -1.998949   1.000000   1.000000
     29         -1.993673       -1.993673   1.000000   1.000000
     30         -1.993135       -1.993135   1.000000   1.000000
     31         -1.990585       -1.990585   1.000000   1.000000
     32         -1.895296       -1.895296   1.000000   1.000000
     33         -1.893858       -1.893858   1.000000   1.000000
     34         -1.870218       -1.870218   1.000000   1.000000
     35         -1.869690       -1.869690   1.000000   1.000000
     36         -1.866128       -1.866128   1.000000   1.000000
     37         -1.837058       -1.837058   1.000000   1.000000
     38         -1.706878       -1.706878   1.000000   1.000000
     39         -1.706100       -1.706100   1.000000   1.000000
     40         -1.682132       -1.682132   1.000000   1.000000
     41         -1.676499       -1.676499   1.000000   1.000000
     42         -1.675328       -1.675328   1.000000   1.000000
     43         -1.511981       -1.511981   1.000000   1.000000
     44         -1.510644       -1.510644   1.000000   1.000000
     45         -1.505156       -1.505156   1.000000   1.000000
     46         -1.442904       -1.442904   1.000000   1.000000
     47         -1.441711       -1.441711   1.000000   1.000000
     48         -1.388229       -1.388229   1.000000   1.000000
     49         -1.322330       -1.322330   1.000000   1.000000
     50         -1.285627       -1.285627   1.000000   1.000000
     51         -1.283832       -1.283832   1.000000   1.000000
     52         -1.263537       -1.263537   1.000000   1.000000
     53         -1.231445       -1.231445   1.000000   1.000000
     54         -1.173206       -1.173206   1.000000   1.000000
     55         -1.172305       -1.172305   1.000000   1.000000
     56         -1.170349       -1.170349   1.000000   1.000000
     57         -1.143050       -1.143050   1.000000   1.000000
     58         -1.141105       -1.141105   1.000000   1.000000
     59         -1.110897       -1.110897   1.000000   1.000000
     60         -1.108611       -1.108611   1.000000   1.000000
     61         -1.087836       -1.087836   1.000000   1.000000
     62         -1.086177       -1.086177   1.000000   1.000000
     63         -1.075396       -1.075396   1.000000   1.000000
     64         -1.074194       -1.074194   1.000000   1.000000
     65         -1.026535       -1.026535   1.000000   1.000000
     66         -0.981631       -0.981631   1.000000   1.000000
     67         -0.979101       -0.979101   1.000000   1.000000
     68         -0.909584       -0.909584   1.000000   1.000000
     69         -0.878968       -0.878968   1.000000   1.000000
     70         -0.865560       -0.865560   1.000000   1.000000
     71         -0.841086       -0.841086   1.000000   1.000000
     72         -0.839282       -0.839282   1.000000   1.000000
     73         -0.829216       -0.829216   1.000000   1.000000
     74         -0.807602       -0.807602   1.000000   1.000000
     75         -0.799592       -0.799592   1.000000   1.000000
     76         -0.797895       -0.797895   1.000000   1.000000
     77         -0.764290       -0.764290   1.000000   1.000000
     78         -0.742364       -0.742364   1.000000   1.000000
     79         -0.709857       -0.709857   1.000000   1.000000
     80         -0.684381       -0.684381   1.000000   1.000000
     81         -0.680676       -0.680676   1.000000   1.000000
     82         -0.678035       -0.678035   1.000000   1.000000
     83         -0.655995       -0.655995   1.000000   1.000000
     84         -0.654904       -0.654904   1.000000   1.000000
     85         -0.649939       -0.649939   1.000000   1.000000
     86         -0.633575       -0.633575   1.000000   1.000000
     87         -0.628073       -0.628073   1.000000   1.000000
     88         -0.584039       -0.584039   1.000000   1.000000
     89         -0.582154       -0.582154   1.000000   1.000000
     90         -0.575156       -0.575156   1.000000   1.000000
     91         -0.571886       -0.571886   1.000000   1.000000
     92         -0.554472       -0.554472   1.000000   1.000000
     93         -0.512039       -0.512039   1.000000   1.000000
     94         -0.476470       -0.476470   1.000000   1.000000
     95         -0.468433       -0.468433   1.000000   1.000000
     96         -0.459493       -0.459493   1.000000   1.000000
     97         -0.458402       -0.458402   1.000000   1.000000
     98         -0.457515       -0.457515   1.000000   1.000000
     99         -0.453936       -0.453936   1.000000   1.000000
    100         -0.441435       -0.441435   1.000000   1.000000
    101         -0.432843       -0.432843   1.000000   1.000000
    102         -0.429902       -0.429902   1.000000   1.000000
    103         -0.352494       -0.352494   1.000000   1.000000
    104         -0.341304       -0.341304   1.000000   1.000000
    105         -0.339931       -0.339931   1.000000   1.000000
    106         -0.308481       -0.308481   1.000000   1.000000
    107         -0.282075       -0.282075   1.000000   1.000000
    108         -0.271417       -0.271417   1.000000   1.000000
    109         -0.260234       -0.260234   1.000000   1.000000
    110         -0.257328       -0.257328   1.000000   1.000000
    111         -0.246530       -0.246530   1.000000   1.000000
    112         -0.244509       -0.244509   1.000000   1.000000
    113         -0.238935       -0.238935   1.000000   1.000000
    114         -0.188198       -0.188198   1.000000   1.000000
    115         -0.176416       -0.176416   1.000000   1.000000
    116         -0.164452       -0.164452   1.000000   1.000000
    117         -0.118813       -0.118813   1.000000   1.000000
    118         -0.116317       -0.116317   1.000000   1.000000
    119         -0.074227       -0.074227   1.000000   1.000000
    120         -0.048943       -0.048943   1.000000   1.000000
    121         -0.041004       -0.041004   1.000000   1.000000
    122         -0.006266       -0.006266   1.000000   1.000000
    123          0.031366        0.031366   1.000000   1.000000
    124          0.033103        0.033103   1.000000   1.000000
    125          0.038819        0.038819   1.000000   1.000000
    126          0.085778        0.085778   1.000000   1.000000
    127          0.110034        0.110034   1.000000   1.000000
    128          0.164250        0.164250   1.000000   1.000000
    129          0.165101        0.165101   1.000000   1.000000
    130          0.172876        0.172876   1.000000   1.000000
    131          0.211983        0.211983   1.000000   1.000000
    132          0.221363        0.221363   1.000000   1.000000
    133          0.222918        0.222918   1.000000   1.000000
    134          0.234010        0.234010   1.000000   1.000000
    135          0.239586        0.239586   1.000000   1.000000
    136          0.240350        0.240350   1.000000   1.000000
    137          0.251786        0.251786   1.000000   1.000000
    138          0.255663        0.255663   1.000000   1.000000
    139          0.267015        0.267015   1.000000   1.000000
    140          0.269214        0.269214   1.000000   1.000000
    141          0.269668        0.269668   1.000000   1.000000
    142          0.292231        0.292231   1.000000   1.000000
    143          0.328845        0.328845   1.000000   1.000000
    144          0.330162        0.330162   1.000000   1.000000
    145          0.337903        0.337903   1.000000   1.000000
    146          0.354164        0.354164   1.000000   1.000000
    147          0.357518        0.357518   1.000000   1.000000
    148          0.383835        0.383835   1.000000   1.000000
    149          0.388869        0.388869   1.000000   1.000000
    150          0.412158        0.412158   1.000000   1.000000
    151          0.434537        0.434537   1.000000   1.000000
    152          0.445132        0.445132   1.000000   1.000000
    153          0.448234        0.448234   1.000000   1.000000
    154          0.467664        0.467664   1.000000   1.000000
    155          0.552014        0.552014   1.000000   1.000000
    156          0.554373        0.554373   1.000000   1.000000
    157          0.556176        0.556176   1.000000   1.000000
    158          0.585403        0.585403   1.000000   1.000000
    159          0.586905        0.586905   1.000000   1.000000
    160          0.598569        0.598569   1.000000   1.000000
    161          0.600149        0.600149   1.000000   1.000000
    162          0.617804        0.617804   1.000000   1.000000
    163          0.619361        0.619361   1.000000   1.000000
    164          0.640173        0.640173   1.000000   1.000000
    165          0.666925        0.666925   1.000000   1.000000
    166          0.667979        0.667979   1.000000   1.000000
    167          0.686328        0.686328   1.000000   1.000000
    168          0.687223        0.687223   1.000000   1.000000
    169          0.729554        0.729554   1.000000   1.000000
    170          0.731196        0.731196   1.000000   1.000000
    171          1.124558        1.124558   1.000000   1.000000
    172          1.497505        1.497505   1.000009   1.000009
    173          1.864903        1.864903   1.024915   1.024915
    174          1.866003        1.866003   1.025169   1.025169
    175          1.960732        1.960732   1.031614   1.031614
    176          2.018970        2.018970   0.987368   0.987368
    177          2.019701        2.019701   0.986393   0.986393
    178          2.277912        2.277912   0.127168   0.127168
    179          2.279703        2.279703   0.122332   0.122332
    180          2.605949        2.605949  -0.004864  -0.004864
    181          2.794847        2.794847  -0.000056  -0.000056
    182          2.797536        2.797536  -0.000052  -0.000052
    183          3.078358        3.078358  -0.000000  -0.000000
    184          3.593535        3.593535  -0.000000  -0.000000
    185          3.597427        3.597427  -0.000000  -0.000000
    186          3.732879        3.732879  -0.000000  -0.000000
    187          3.975037        3.975037  -0.000000  -0.000000
    188          4.621022        4.621022  -0.000000  -0.000000
    189          4.626155        4.626155  -0.000000  -0.000000
    190          5.481083        5.481083  -0.000000  -0.000000
    191          5.719126        5.719126  -0.000000  -0.000000
    192          5.726974        5.726974  -0.000000  -0.000000
    193          6.385305        6.385305  -0.000000  -0.000000
    194          6.396513        6.396513  -0.000000  -0.000000
    195          6.679287        6.679287  -0.000000  -0.000000
    196          6.931084        6.931084  -0.000000  -0.000000
    197          6.943474        6.943474  -0.000000  -0.000000
    198          7.171857        7.171856  -0.000000  -0.000000
    199          7.232631        7.232631  -0.000000  -0.000000
    200          7.417556        7.417556  -0.000000  -0.000000
    201          7.453130        7.453130  -0.000000  -0.000000
    202          7.855029        7.855028   0.000000   0.000000
    203          7.981136        7.981136   0.000000   0.000000
    204          8.048871        8.048870   0.000000   0.000000
    205          8.293523        8.293520   0.000000   0.000000
    206          8.526076        8.526076   0.000000   0.000000
    207          8.570471        8.570471   0.000000   0.000000
    208          8.646607        8.646607   0.000000   0.000000
    209          9.021162        9.021162   0.000000   0.000000
    210          9.126687        9.126686   0.000000   0.000000
    211          9.266435        9.266435   0.000000   0.000000
    212          9.395927        9.395926   0.000000   0.000000
    213          9.456810        9.456810   0.000000   0.000000
    214          9.777124        9.777123   0.000000   0.000000
    215         10.070073       10.070072   0.000000   0.000000
    216         10.085177       10.085176   0.000000   0.000000
    217         10.146694       10.146694   0.000000   0.000000
    218         10.327953       10.327952   0.000000   0.000000
    219         10.477636       10.477635   0.000000   0.000000
    220         10.645372       10.645372   0.000000   0.000000
    221         10.679309       10.679308   0.000000   0.000000
    222         10.806995       10.806995   0.000000   0.000000
    223         10.943215       10.943214   0.000000   0.000000
    224         10.997353       10.997353   0.000000   0.000000
    225         11.001409       11.001409   0.000000   0.000000
    226         11.148963       11.148963   0.000000   0.000000
    227         11.296932       11.296932   0.000000   0.000000
    228         11.353501       11.353501   0.000000   0.000000
    229         11.464308       11.464308   0.000000   0.000000
    230         11.727253       11.727253   0.000000   0.000000
    231         11.867190       11.867190   0.000000   0.000000