       N       E                     dE             d eps       ncg     rms          rms(c)
DAV:   1     0.344795400427E+04    0.34480E+04   -0.12523E+05  3712   0.193E+03
DAV:   2     0.486403699939E+03   -0.29616E+04   -0.28267E+04  3712   0.448E+02
DAV:   3    -0.927338791933E+02   -0.57914E+03   -0.52629E+03  3720   0.230E+02
DAV:   4    -0.138063446164E+03   -0.45330E+02   -0.43581E+02  4096   0.894E+01
DAV:   5    -0.139159299542E+03   -0.10959E+01   -0.10920E+01  4112   0.139E+01    0.525E+01
DAV:   6    -0.115175262456E+03    0.23984E+02   -0.30897E+02  4192   0.124E+02    0.272E+01
DAV:   7    -0.102811794811E+03    0.12363E+02   -0.78350E+01  4280   0.988E+01    0.168E+01
DAV:   8    -0.108875992566E+03   -0.60642E+01   -0.70614E+01  4832   0.129E+02    0.222E+01
DAV:   9    -0.992170106612E+02    0.96590E+01   -0.19879E+01  5304   0.653E+01    0.122E+01
DAV:  10    -0.100198529470E+03   -0.98152E+00   -0.60518E+00  5048   0.403E+01    0.114E+01
DAV:  11    -0.102303218657E+03   -0.21047E+01   -0.11010E+01  4544   0.494E+01    0.117E+01
DAV:  12    -0.101478748099E+03    0.82447E+00   -0.11888E+01  4464   0.560E+01    0.103E+01
DAV:  13    -0.102587998515E+03   -0.11093E+01   -0.53639E+00  6024   0.365E+01    0.787E+00
DAV:  14    -0.105303599814E+03   -0.27156E+01   -0.57711E+00  5864   0.344E+01    0.712E+00
DAV:  15    -0.109321361430E+03   -0.40178E+01   -0.32085E+00  4952   0.218E+01    0.443E+00
DAV:  16    -0.112274240876E+03   -0.29529E+01   -0.31613E+00  4592   0.205E+01    0.289E+00
DAV:  17    -0.113911586649E+03   -0.16373E+01   -0.16671E+00  4824   0.133E+01    0.244E+00
DAV:  18    -0.114824820830E+03   -0.91323E+00   -0.98540E-01  4392   0.106E+01    0.204E+00
DAV:  19    -0.115626573762E+03   -0.80175E+00   -0.61029E-01  4488   0.658E+00    0.179E+00
DAV:  20    -0.116529485235E+03   -0.90291E+00   -0.57497E-01  4928   0.603E+00    0.154E+00
DAV:  21    -0.117390414901E+03   -0.86093E+00   -0.69377E-01  5216   0.810E+00    0.165E+00
DAV:  22    -0.117678081852E+03   -0.28767E+00   -0.22020E-01  4872   0.563E+00    0.116E+00
DAV:  23    -0.118147589068E+03   -0.46951E+00   -0.21032E-01  4808   0.329E+00    0.101E+00
DAV:  24    -0.118725951514E+03   -0.57836E+00   -0.18412E-01  4632   0.377E+00    0.708E-01
DAV:  25    -0.119779316941E+03   -0.10534E+01   -0.12421E-01  5080   0.295E+00    0.581E-01
DAV:  26    -0.120529861908E+03   -0.75054E+00   -0.55365E-02  4464   0.257E+00    0.336E-01
DAV:  27    -0.120723708520E+03   -0.19385E+00   -0.18886E-02  4240   0.190E+00    0.213E-01
DAV:  28    -0.120767405173E+03   -0.43697E-01   -0.56934E-03  4168   0.806E-01    0.141E-01
DAV:  29    -0.120774549109E+03   -0.71439E-02   -0.36333E-03  4104   0.640E-01    0.103E-01
DAV:  30    -0.120782883550E+03   -0.83344E-02   -0.87190E-04  3552   0.371E-01    0.924E-02
DAV:  31    -0.120785103590E+03   -0.22200E-02   -0.51712E-04  2864   0.305E-01    0.644E-02
DAV:  32    -0.120784849361E+03    0.25423E-03   -0.43975E-04  2536   0.302E-01    0.394E-02
DAV:  33    -0.120784971315E+03   -0.12195E-03   -0.10917E-04  2544   0.810E-02
   1 F= -.13479982E+03 E0= -.13479566E+03  d E =-.134800E+03  mag=     0.0036
       N       E                     dE             d eps       ncg     rms          rms(c)
DAV:   1    -0.120758590200E+03    0.26259E-01   -0.11233E+01  3928   0.676E+00    0.763E-01
DAV:   2    -0.120780010091E+03   -0.21420E-01   -0.30965E-01  5360   0.277E+00    0.623E-01
DAV:   3    -0.120809548385E+03   -0.29538E-01   -0.15733E-01  4656   0.688E+00    0.113E+00
DAV:   4    -0.120784494608E+03    0.25054E-01   -0.21655E-01  4648   0.769E+00    0.591E-01
DAV:   5    -0.120782143507E+03    0.23511E-02   -0.36633E-02  6192   0.446E+00    0.483E-01
DAV:   6    -0.120778049434E+03    0.40941E-02   -0.22163E-02  5664   0.400E+00    0.283E-01
DAV:   7    -0.120776290573E+03    0.17589E-02   -0.68595E-03  6304   0.188E+00    0.109E-01
DAV:   8    -0.120776282212E+03    0.83605E-05   -0.23996E-03  4352   0.757E-01    0.497E-02
DAV:   9    -0.120776428904E+03   -0.14669E-03   -0.12859E-03  3656   0.298E-01
   2 F= -.13481920E+03 E0= -.13481451E+03  d E =-.193827E-01  mag=     0.0023
       N       E                     dE             d eps       ncg     rms          rms(c)
DAV:   1    -0.120809290561E+03   -0.33008E-01   -0.23988E+00  3888   0.313E+00    0.314E-01
DAV:   2    -0.120814513680E+03   -0.52231E-02   -0.67693E-02  5208   0.916E-01    0.255E-01
DAV:   3    -0.120816350758E+03   -0.18371E-02   -0.11116E-02  4760   0.191E+00    0.341E-01
DAV:   4    -0.120817092485E+03   -0.74173E-03   -0.34016E-02  4392   0.303E+00    0.341E-01
DAV:   5    -0.120816428684E+03    0.66380E-03   -0.24873E-02  3544   0.274E+00    0.295E-01
DAV:   6    -0.120814186483E+03    0.22422E-02   -0.54887E-03  3104   0.195E+00    0.101E-01
DAV:   7    -0.120813983725E+03    0.20276E-03   -0.90377E-04  3616   0.629E-01    0.320E-02
DAV:   8    -0.120814037939E+03   -0.54214E-04   -0.50999E-04  2976   0.221E-01
   3 F= -.13483622E+03 E0= -.13483185E+03  d E =-.364014E-01  mag=     0.0016
       N       E                     dE             d eps       ncg     rms          rms(c)
DAV:   1    -0.120819375091E+03   -0.53914E-02   -0.69471E+00  4088   0.549E+00    0.215E-01
DAV:   2    -0.120833299763E+03   -0.13925E-01   -0.13738E-01  5416   0.202E+00    0.336E-01
DAV:   3    -0.120833225511E+03    0.74252E-04   -0.18196E-02  4200   0.235E+00    0.283E-01
DAV:   4    -0.120833019801E+03    0.20571E-03   -0.72419E-03  4216   0.160E+00    0.213E-01
DAV:   5    -0.120832674542E+03    0.34526E-03   -0.61432E-03  3992   0.129E+00    0.180E-01
DAV:   6    -0.120832315320E+03    0.35922E-03   -0.20755E-03  3392   0.775E-01    0.130E-01
DAV:   7    -0.120832302797E+03    0.12523E-04   -0.17865E-03  4264   0.648E-01
   4 F= -.13485922E+03 E0= -.13485430E+03  d E =-.229993E-01  mag=     0.0011
       N       E                     dE             d eps       ncg     rms          rms(c)
DAV:   1    -0.120819300318E+03    0.13015E-01   -0.10608E+01  4104   0.683E+00    0.281E-01
DAV:   2    -0.120841575173E+03   -0.22275E-01   -0.22829E-01  5464   0.244E+00    0.406E-01
DAV:   3    -0.120846544703E+03   -0.49695E-02   -0.62680E-02  4248   0.415E+00    0.559E-01
DAV:   4    -0.120840045909E+03    0.64988E-02   -0.29121E-02  4344   0.284E+00    0.204E-01
DAV:   5    -0.120840256774E+03   -0.21086E-03   -0.37615E-03  5184   0.108E+00    0.208E-01
DAV:   6    -0.120840023865E+03    0.23291E-03   -0.29661E-03  4288   0.114E+00    0.168E-01
DAV:   7    -0.120839831498E+03    0.19237E-03   -0.28374E-03  4048   0.107E+00    0.103E-01
DAV:   8    -0.120839833334E+03   -0.18360E-05   -0.13987E-03  4008   0.561E-01
   5 F= -.13487281E+03 E0= -.13486721E+03  d E =-.365885E-01  mag=     0.0008
       N       E                     dE             d eps       ncg     rms          rms(c)
DAV:   1    -0.120837459815E+03    0.23717E-02   -0.72431E-01  4144   0.182E+00    0.739E-02
DAV:   2    -0.120840851595E+03   -0.33918E-02   -0.20606E-02  6720   0.170E+00    0.286E-01
DAV:   3    -0.120838985473E+03    0.18661E-02   -0.12394E-02  5712   0.173E+00    0.863E-02
DAV:   4    -0.120838984352E+03    0.11208E-05   -0.13880E-03  3320   0.662E-01
   6 F= -.13487358E+03 E0= -.13486804E+03  d E =-.373671E-01  mag=     0.0007
       N       E                     dE             d eps       ncg     rms          rms(c)
DAV:   1    -0.120839499323E+03   -0.51385E-03   -0.32194E+00  3784   0.387E+00    0.225E-01
DAV:   2    -0.120846447025E+03   -0.69477E-02   -0.77825E-02  5264   0.127E+00    0.250E-01
DAV:   3    -0.120846395750E+03    0.51275E-04   -0.48114E-03  4296   0.116E+00    0.202E-01
DAV:   4    -0.120846850821E+03   -0.45507E-03   -0.45806E-03  3944   0.143E+00    0.222E-01
DAV:   5    -0.120848095081E+03   -0.12443E-02   -0.15285E-02  2648   0.209E+00    0.302E-01
DAV:   6    -0.120846401751E+03    0.16933E-02   -0.12140E-02  2752   0.200E+00    0.162E-01
DAV:   7    -0.120845712852E+03    0.68890E-03   -0.13251E-03  2712   0.908E-01    0.411E-02
DAV:   8    -0.120845766610E+03   -0.53758E-04   -0.77739E-04  3464   0.253E-01
   7 F= -.13488618E+03 E0= -.13488053E+03  d E =-.125943E-01  mag=     0.0005
       N       E                     dE             d eps       ncg     rms          rms(c)
DAV:   1    -0.120842925450E+03    0.27874E-02   -0.81699E-01  3864   0.194E+00    0.108E-01
DAV:   2    -0.120844769527E+03   -0.18441E-02   -0.20335E-02  5184   0.538E-01    0.106E-01
DAV:   3    -0.120844859847E+03   -0.90320E-04   -0.12450E-03  3848   0.648E-01
   8 F= -.13488856E+03 E0= -.13488290E+03  d E =-.149740E-01  mag=     0.0005
       N       E                     dE             d eps       ncg     rms          rms(c)
DAV:   1    -0.120847330797E+03   -0.25613E-02   -0.58100E-01  4144   0.183E+00    0.137E-01
DAV:   2    -0.120879701865E+03   -0.32371E-01   -0.12733E-01  6288   0.590E+00    0.996E-01
DAV:   3    -0.120847876761E+03    0.31825E-01   -0.10322E-01  6312   0.505E+00    0.104E-01
DAV:   4    -0.120848375776E+03   -0.49901E-03   -0.35280E-03  5944   0.810E-01    0.136E-01
DAV:   5    -0.120848162948E+03    0.21283E-03   -0.17799E-03  4104   0.743E-01    0.619E-02
DAV:   6    -0.120848195143E+03   -0.32195E-04   -0.59485E-04  2824   0.451E-01
   9 F= -.13489520E+03 E0= -.13488958E+03  d E =-.664284E-02  mag=     0.0003
       N       E                     dE             d eps       ncg     rms          rms(c)
DAV:   1    -0.120842412977E+03    0.57500E-02   -0.51528E+00  3800   0.488E+00    0.227E-01
DAV:   2    -0.120854067055E+03   -0.11654E-01   -0.12154E-01  5328   0.163E+00    0.288E-01
DAV:   3    -0.120853998183E+03    0.68871E-04   -0.73101E-03  4048   0.129E+00    0.230E-01
DAV:   4    -0.120854127648E+03   -0.12946E-03   -0.34191E-03  4016   0.117E+00    0.224E-01
DAV:   5    -0.120854801792E+03   -0.67414E-03   -0.86004E-03  3240   0.164E+00    0.253E-01
DAV:   6    -0.120854225934E+03    0.57586E-03   -0.87095E-03  2800   0.173E+00    0.212E-01
DAV:   7    -0.120853283976E+03    0.94196E-03   -0.25031E-03  2776   0.112E+00    0.766E-02
DAV:   8    -0.120853333350E+03   -0.49375E-04   -0.12732E-03  4096   0.378E-01
  10 F= -.13491047E+03 E0= -.13490480E+03  d E =-.219104E-01  mag=     0.0002
       N       E                     dE             d eps       ncg     rms          rms(c)
DAV:   1    -0.120793785348E+03    0.59499E-01   -0.20669E+01  3744   0.976E+00    0.467E-01
DAV:   2    -0.120849548971E+03   -0.55764E-01   -0.52488E-01  5984   0.487E+00    0.841E-01
DAV:   3    -0.120847671255E+03    0.18777E-02   -0.12865E-01  4816   0.581E+00    0.629E-01
DAV:   4    -0.120840040124E+03    0.76311E-02   -0.31690E-02  4600   0.305E+00    0.393E-01
DAV:   5    -0.120840127346E+03   -0.87222E-04   -0.85465E-03  4536   0.148E+00    0.375E-01
DAV:   6    -0.120839605339E+03    0.52201E-03   -0.11142E-02  4208   0.164E+00    0.245E-01
DAV:   7    -0.120840372249E+03   -0.76691E-03   -0.78394E-03  4464   0.218E+00    0.273E-01
DAV:   8    -0.120838888040E+03    0.14842E-02   -0.35979E-03  4688   0.141E+00    0.834E-02
DAV:   9    -0.120838784390E+03    0.10365E-03   -0.11743E-03  3072   0.543E-01
  11 F= -.13491740E+03 E0= -.13491171E+03  d E =-.288376E-01  mag=     0.0002
       N       E                     dE             d eps       ncg     rms          rms(c)
DAV:   1    -0.120842795518E+03   -0.39075E-02   -0.26558E+00  3792   0.350E+00    0.161E-01
DAV:   2    -0.120848746930E+03   -0.59514E-02   -0.58562E-02  5488   0.137E+00    0.254E-01
DAV:   3    -0.120848489069E+03    0.25786E-03   -0.91811E-03  4200   0.161E+00    0.202E-01
DAV:   4    -0.120848103868E+03    0.38520E-03   -0.29827E-03  3960   0.930E-01    0.149E-01
DAV:   5    -0.120848188321E+03   -0.84453E-04   -0.10377E-03  3112   0.753E-01
  12 F= -.13491886E+03 E0= -.13491328E+03  d E =-.303065E-01  mag=     0.0001
       N       E                     dE             d eps       ncg     rms          rms(c)
DAV:   1    -0.120848699656E+03   -0.59579E-03   -0.15621E+00  3800   0.289E+00    0.169E-01
DAV:   2    -0.120858028864E+03   -0.93292E-02   -0.51897E-02  6440   0.312E+00    0.438E-01
DAV:   3    -0.120853796705E+03    0.42322E-02   -0.23218E-02  6432   0.304E+00    0.250E-01
DAV:   4    -0.120853222074E+03    0.57463E-03   -0.11597E-02  4224   0.189E+00    0.213E-01
DAV:   5    -0.120852563769E+03    0.65831E-03   -0.28676E-03  3984   0.952E-01    0.101E-01
DAV:   6    -0.120852572431E+03   -0.86617E-05   -0.11280E-03  3888   0.407E-01
  13 F= -.13492866E+03 E0= -.13492256E+03  d E =-.979899E-02  mag=     0.0001
       N       E                     dE             d eps       ncg     rms          rms(c)
DAV:   1    -0.120831017931E+03    0.21546E-01   -0.14107E+01  3728   0.798E+00    0.496E-01
DAV:   2    -0.120864142815E+03   -0.33125E-01   -0.37113E-01  5160   0.242E+00    0.523E-01
DAV:   3    -0.120868101101E+03   -0.39583E-02   -0.34131E-02  4400   0.331E+00    0.566E-01
DAV:   4    -0.120863592689E+03    0.45084E-02   -0.41067E-02  5056   0.362E+00    0.412E-01
DAV:   5    -0.120867782530E+03   -0.41898E-02   -0.25442E-02  4984   0.344E+00    0.540E-01
DAV:   6    -0.120862378207E+03    0.54043E-02   -0.13886E-02  5736   0.358E+00    0.259E-01
DAV:   7    -0.120860438334E+03    0.19399E-02   -0.54465E-03  6112   0.164E+00    0.772E-02
DAV:   8    -0.120860413473E+03    0.24861E-04   -0.13769E-03  3952   0.471E-01
  14 F= -.13495337E+03 E0= -.13494665E+03  d E =-.345041E-01  mag=     0.0001
       N       E                     dE             d eps       ncg     rms          rms(c)
DAV:   1    -0.120723683876E+03    0.13675E+00   -0.56883E+01  3728   0.161E+01    0.105E+00
DAV:   2    -0.120862967852E+03   -0.13928E+00   -0.15545E+00  5152   0.545E+00    0.112E+00
DAV:   3    -0.120863579895E+03   -0.61204E-03   -0.77712E-02  4360   0.598E+00    0.997E-01
DAV:   4    -0.120860061554E+03    0.35183E-02   -0.72667E-02  4784   0.585E+00    0.845E-01
DAV:   5    -0.120896667940E+03   -0.36606E-01   -0.19661E-01  5536   0.883E+00    0.130E+00
DAV:   6    -0.120851386808E+03    0.45281E-01   -0.15680E-01  5616   0.839E+00    0.522E-01
DAV:   7    -0.120845665853E+03    0.57210E-02   -0.19420E-02  6880   0.367E+00    0.214E-01
DAV:   8    -0.120845200728E+03    0.46512E-03   -0.65202E-03  5208   0.136E+00    0.149E-01
DAV:   9    -0.120845205786E+03   -0.50576E-05   -0.41924E-03  4112   0.779E-01    0.642E-02
DAV:  10    -0.120845245579E+03   -0.39793E-04   -0.10928E-03  3720   0.451E-01
  15 F= -.13497335E+03 E0= -.13496571E+03  d E =-.544877E-01  mag=     0.0000
       N       E                     dE             d eps       ncg     rms          rms(c)
DAV:   1    -0.120845728488E+03   -0.52270E-03   -0.40376E-01  3776   0.136E+00    0.100E-01
DAV:   2    -0.120846837947E+03   -0.11095E-02   -0.10756E-02  5744   0.728E-01    0.131E-01
DAV:   3    -0.120846701340E+03    0.13661E-03   -0.76889E-04  3064   0.764E-01
  16 F= -.13497775E+03 E0= -.13497002E+03  d E =-.439529E-02  mag=     0.0000
       N       E                     dE             d eps       ncg     rms          rms(c)
DAV:   1    -0.120842212536E+03    0.46254E-02   -0.36159E+00  3728   0.401E+00    0.319E-01
DAV:   2    -0.120852348289E+03   -0.10136E-01   -0.91996E-02  6384   0.217E+00    0.408E-01
DAV:   3    -0.120850711092E+03    0.16372E-02   -0.25560E-02  5576   0.308E+00    0.345E-01
DAV:   4    -0.120849122624E+03    0.15885E-02   -0.49943E-03  4088   0.126E+00    0.203E-01
DAV:   5    -0.120851745726E+03   -0.26231E-02   -0.48093E-03  4352   0.232E+00    0.349E-01
DAV:   6    -0.120849227690E+03    0.25180E-02   -0.48985E-03  4560   0.224E+00    0.146E-01
DAV:   7    -0.120848772358E+03    0.45533E-03   -0.15180E-03  4232   0.995E-01    0.376E-02
DAV:   8    -0.120848834722E+03   -0.62364E-04   -0.11408E-03  3568   0.276E-01
  17 F= -.13498860E+03 E0= -.13498073E+03  d E =-.152485E-01  mag=     0.0000
       N       E                     dE             d eps       ncg     rms          rms(c)
DAV:   1    -0.120814063966E+03    0.34708E-01   -0.14391E+01  3728   0.798E+00    0.534E-01
DAV:   2    -0.120850794915E+03   -0.36731E-01   -0.39638E-01  5168   0.263E+00    0.590E-01
DAV:   3    -0.120853420544E+03   -0.26256E-02   -0.29788E-02  4360   0.379E+00    0.628E-01
DAV:   4    -0.120851188072E+03    0.22325E-02   -0.29692E-02  4416   0.360E+00    0.490E-01
DAV:   5    -0.120850442005E+03    0.74607E-03   -0.19902E-02  4768   0.349E+00    0.467E-01
DAV:   6    -0.120846663514E+03    0.37785E-02   -0.10707E-02  6936   0.251E+00    0.166E-01
DAV:   7    -0.120846129187E+03    0.53433E-03   -0.42359E-03  5832   0.117E+00    0.102E-01
DAV:   8    -0.120846137719E+03   -0.85324E-05   -0.13895E-03  3840   0.460E-01
  18 F= -.13500274E+03 E0= -.13499483E+03  d E =-.293913E-01  mag=     0.0000
       N       E                     dE             d eps       ncg     rms          rms(c)
DAV:   1    -0.120688438426E+03    0.15769E+00   -0.57596E+01  3744   0.161E+01    0.110E+00
DAV:   2    -0.120836416112E+03   -0.14798E+00   -0.15866E+00  5296   0.663E+00    0.126E+00
DAV:   3    -0.120859199736E+03   -0.22784E-01   -0.15145E-01  4496   0.946E+00    0.131E+00
DAV:   4    -0.120831838662E+03    0.27361E-01   -0.13519E-01  4864   0.834E+00    0.992E-01
DAV:   5    -0.120827976873E+03    0.38618E-02   -0.44305E-02  5336   0.638E+00    0.901E-01
DAV:   6    -0.120816839642E+03    0.11137E-01   -0.25978E-02  5624   0.520E+00    0.516E-01
DAV:   7    -0.120813477226E+03    0.33624E-02   -0.19598E-02  4680   0.337E+00    0.217E-01
DAV:   8    -0.120812837103E+03    0.64012E-03   -0.93464E-03  5064   0.128E+00    0.790E-02
DAV:   9    -0.120813163444E+03   -0.32634E-03   -0.36749E-03  4032   0.590E-01    0.635E-02
DAV:  10    -0.120813350013E+03   -0.18657E-03   -0.20232E-03  3936   0.530E-01    0.595E-02
DAV:  11    -0.120813341408E+03    0.86043E-05   -0.27896E-04  2400   0.249E-01
  19 F= -.13500077E+03 E0= -.13499289E+03  d E =-.274187E-01  mag=     0.0000
       N       E                     dE             d eps       ncg     rms          rms(c)
DAV:   1    -0.120794665021E+03    0.18685E-01   -0.22700E+01  3744   0.100E+01    0.677E-01
DAV:   2    -0.120844275961E+03   -0.49611E-01   -0.55978E-01  5056   0.276E+00    0.651E-01
DAV:   3    -0.120853076942E+03   -0.88010E-02   -0.44778E-02  4400   0.486E+00    0.782E-01
DAV:   4    -0.120845949751E+03    0.71272E-02   -0.59874E-02  5392   0.552E+00    0.557E-01
DAV:   5    -0.120851895106E+03   -0.59454E-02   -0.30388E-02  4704   0.542E+00    0.722E-01
DAV:   6    -0.120839214186E+03    0.12681E-01   -0.12487E-02  5840   0.417E+00    0.245E-01
DAV:   7    -0.120838188053E+03    0.10261E-02   -0.67464E-03  5944   0.170E+00    0.116E-01
DAV:   8    -0.120838069133E+03    0.11892E-03   -0.23108E-03  4368   0.820E-01    0.772E-02
DAV:   9    -0.120838130434E+03   -0.61301E-04   -0.12598E-03  3776   0.351E-01
  20 F= -.13500664E+03 E0= -.13499863E+03  d E =-.332883E-01  mag=     0.0000
       N       E                     dE             d eps       ncg     rms          rms(c)
DAV:   1    -0.120845389573E+03   -0.73204E-02   -0.57681E-01  3744   0.164E+00    0.852E-02
DAV:   2    -0.120846632494E+03   -0.12429E-02   -0.13267E-02  5232   0.550E-01    0.101E-01
DAV:   3    -0.120846752095E+03   -0.11960E-03   -0.13505E-03  3600   0.776E-01
  21 F= -.13501619E+03 E0= -.13500810E+03  d E =-.955336E-02  mag=     0.0000
       N       E                     dE             d eps       ncg     rms          rms(c)
DAV:   1    -0.120856351954E+03   -0.97195E-02   -0.52178E+00  3744   0.493E+00    0.299E-01
DAV:   2    -0.120870633313E+03   -0.14281E-01   -0.12069E-01  6016   0.294E+00    0.480E-01
DAV:   3    -0.120867461758E+03    0.31716E-02   -0.27960E-02  4912   0.328E+00    0.319E-01
DAV:   4    -0.120866491790E+03    0.96997E-03   -0.64776E-03  4080   0.139E+00    0.217E-01
DAV:   5    -0.120867684297E+03   -0.11925E-02   -0.39931E-03  4352   0.189E+00    0.277E-01
DAV:   6    -0.120866724725E+03    0.95957E-03   -0.35956E-03  4368   0.203E+00    0.186E-01
DAV:   7    -0.120866085682E+03    0.63904E-03   -0.22750E-03  4560   0.109E+00    0.419E-02
DAV:   8    -0.120866171143E+03   -0.85461E-04   -0.13390E-03  3712   0.309E-01
  22 F= -.13503829E+03 E0= -.13502993E+03  d E =-.316450E-01  mag=     0.0000
       N       E                     dE             d eps       ncg     rms          rms(c)
DAV:   1    -0.120836524026E+03    0.29562E-01   -0.20841E+01  3744   0.980E+00    0.510E-01
DAV:   2    -0.120884744018E+03   -0.48220E-01   -0.51723E-01  5152   0.331E+00    0.598E-01
DAV:   3    -0.120887371511E+03   -0.26275E-02   -0.32535E-02  4256   0.390E+00    0.577E-01
DAV:   4    -0.120885940344E+03    0.14312E-02   -0.28323E-02  4680   0.388E+00    0.527E-01
DAV:   5    -0.120884493436E+03    0.14469E-02   -0.15556E-02  4800   0.316E+00    0.447E-01
DAV:   6    -0.120882130221E+03    0.23632E-02   -0.65014E-03  6816   0.275E+00    0.285E-01
DAV:   7    -0.120880626799E+03    0.15034E-02   -0.52716E-03  5632   0.194E+00    0.131E-01
DAV:   8    -0.120880542894E+03    0.83905E-04   -0.23702E-03  4424   0.784E-01    0.943E-02
DAV:   9    -0.120880571963E+03   -0.29068E-04   -0.14216E-03  3760   0.360E-01
  23 F= -.13505753E+03 E0= -.13504883E+03  d E =-.508883E-01  mag=     0.0000
       N       E                     dE             d eps       ncg     rms          rms(c)
DAV:   1    -0.120888599490E+03   -0.80566E-02   -0.11889E+00  3840   0.237E+00    0.109E-01
DAV:   2    -0.120891303196E+03   -0.27037E-02   -0.24699E-02  5824   0.111E+00    0.185E-01
DAV:   3    -0.120890973606E+03    0.32959E-03   -0.23411E-03  4176   0.104E+00    0.108E-01
DAV:   4    -0.120891123856E+03   -0.15025E-03   -0.11845E-03  3416   0.736E-01
  24 F= -.13506508E+03 E0= -.13505621E+03  d E =-.755591E-02  mag=     0.0000
       N       E                     dE             d eps       ncg     rms          rms(c)
DAV:   1    -0.120893444104E+03   -0.24705E-02   -0.91860E+00  3856   0.654E+00    0.346E-01
DAV:   2    -0.120912343536E+03   -0.18899E-01   -0.19388E-01  5488   0.241E+00    0.449E-01
DAV:   3    -0.120913412497E+03   -0.10690E-02   -0.28219E-02  4304   0.339E+00    0.475E-01
DAV:   4    -0.120910576857E+03    0.28356E-02   -0.10878E-02  4304   0.231E+00    0.273E-01
DAV:   5    -0.120911552085E+03   -0.97523E-03   -0.45810E-03  5120   0.199E+00    0.328E-01
DAV:   6    -0.120910522746E+03    0.10293E-02   -0.45024E-03  4944   0.234E+00    0.237E-01
DAV:   7    -0.120909410956E+03    0.11118E-02   -0.33645E-03  5520   0.140E+00    0.645E-02
DAV:   8    -0.120909451584E+03   -0.40629E-04   -0.15651E-03  4208   0.482E-01
  25 F= -.13507531E+03 E0= -.13506638E+03  d E =-.177764E-01  mag=     0.0000
       N       E                     dE             d eps       ncg     rms          rms(c)
DAV:   1    -0.120916305274E+03   -0.68943E-02   -0.91674E-01  3888   0.206E+00    0.111E-01
DAV:   2    -0.120918114121E+03   -0.18088E-02   -0.19447E-02  5328   0.643E-01    0.115E-01
DAV:   3    -0.120918593643E+03   -0.47952E-03   -0.24115E-03  4064   0.110E+00    0.162E-01
DAV:   4    -0.120918091178E+03    0.50246E-03   -0.20646E-03  2560   0.101E+00    0.870E-02
DAV:   5    -0.120918163940E+03   -0.72762E-04   -0.48210E-04  2512   0.650E-01
  26 F= -.13508116E+03 E0= -.13507231E+03  d E =-.585457E-02  mag=     0.0000
       N       E                     dE             d eps       ncg     rms          rms(c)
DAV:   1    -0.120921981641E+03   -0.38905E-02   -0.11614E+00  3920   0.242E+00    0.147E-01
DAV:   2    -0.120928944999E+03   -0.69634E-02   -0.28668E-02  6840   0.267E+00    0.427E-01
DAV:   3    -0.120924550700E+03    0.43943E-02   -0.15448E-02  6712   0.268E+00    0.190E-01
DAV:   4    -0.120924086986E+03    0.46371E-03   -0.36745E-03  4128   0.139E+00    0.144E-01
DAV:   5    -0.120923904673E+03    0.18231E-03   -0.17527E-03  3952   0.578E-01
  27 F= -.13508382E+03 E0= -.13507479E+03  d E =-.851904E-02  mag=     0.0000
       N       E                     dE             d eps       ncg     rms          rms(c)
DAV:   1    -0.120916657272E+03    0.74297E-02   -0.46112E+00  3872   0.467E+00    0.258E-01
DAV:   2    -0.120932898868E+03   -0.16242E-01   -0.10864E-01  6768   0.398E+00    0.592E-01
DAV:   3    -0.120925958638E+03    0.69402E-02   -0.39717E-02  6864   0.380E+00    0.292E-01
DAV:   4    -0.120925188202E+03    0.77044E-03   -0.70130E-03  4272   0.160E+00    0.220E-01
DAV:   5    -0.120925294524E+03   -0.10632E-03   -0.33656E-03  4272   0.133E+00    0.203E-01
DAV:   6    -0.120925077732E+03    0.21679E-03   -0.32704E-03  4336   0.141E+00    0.149E-01
DAV:   7    -0.120924807401E+03    0.27033E-03   -0.19758E-03  4448   0.906E-01    0.721E-02
DAV:   8    -0.120924817885E+03   -0.10484E-04   -0.74076E-04  3376   0.391E-01
  28 F= -.13507923E+03 E0= -.13507011E+03  d E =-.392218E-02  mag=     0.0000
       N       E                     dE             d eps       ncg     rms          rms(c)
DAV:   1    -0.120920909876E+03    0.38975E-02   -0.27088E+00  3824   0.352E+00    0.179E-01
DAV:   2    -0.120926568086E+03   -0.56582E-02   -0.52191E-02  5808   0.153E+00    0.270E-01
DAV:   3    -0.120926278877E+03    0.28921E-03   -0.10919E-02  4400   0.195E+00    0.241E-01
DAV:   4    -0.120925901959E+03    0.37692E-03   -0.44520E-03  4064   0.136E+00    0.172E-01
DAV:   5    -0.120925640076E+03    0.26188E-03   -0.16479E-03  3568   0.981E-01    0.136E-01
DAV:   6    -0.120925527598E+03    0.11248E-03   -0.12264E-03  4064   0.831E-01
  29 F= -.13508406E+03 E0= -.13507498E+03  d E =-.875868E-02  mag=     0.0000
       N       E                     dE             d eps       ncg     rms          rms(c)
DAV:   1    -0.120931138037E+03   -0.54980E-02   -0.12087E+00  3856   0.239E+00    0.121E-01
DAV:   2    -0.120944550669E+03   -0.13413E-01   -0.46993E-02  6952   0.378E+00    0.619E-01
DAV:   3    -0.120932935775E+03    0.11615E-01   -0.31188E-02  6896   0.344E+00    0.126E-01
DAV:   4    -0.120933116632E+03   -0.18086E-03   -0.25767E-03  5136   0.630E-01    0.106E-01
DAV:   5    -0.120933090354E+03    0.26278E-04   -0.83942E-04  3568   0.525E-01
  30 F= -.13508712E+03 E0= -.13507821E+03  d E =-.305898E-02  mag=     0.0000
       N       E                     dE             d eps       ncg     rms          rms(c)
DAV:   1    -0.120932548526E+03    0.56811E-03   -0.10891E+01  3840   0.701E+00    0.326E-01
DAV:   2    -0.120956858135E+03   -0.24310E-01   -0.22525E-01  6104   0.336E+00    0.576E-01
DAV:   3    -0.120954170789E+03    0.26873E-02   -0.47461E-02  5304   0.381E+00    0.388E-01
DAV:   4    -0.120952380037E+03    0.17908E-02   -0.12635E-02  4224   0.198E+00    0.295E-01
DAV:   5    -0.120952397264E+03   -0.17227E-04   -0.47152E-03  4352   0.155E+00    0.281E-01
DAV:   6    -0.120951587099E+03    0.81017E-03   -0.55526E-03  4480   0.159E+00    0.187E-01
DAV:   7    -0.120951320956E+03    0.26614E-03   -0.35940E-03  4792   0.108E+00    0.848E-02
DAV:   8    -0.120951318335E+03    0.26208E-05   -0.12933E-03  3904   0.524E-01
  31 F= -.13509191E+03 E0= -.13508316E+03  d E =-.785024E-02  mag=     0.0000
       N       E                     dE             d eps       ncg     rms          rms(c)
DAV:   1    -0.120957895823E+03   -0.65749E-02   -0.66340E-01  3904   0.177E+00    0.105E-01
DAV:   2    -0.120959901025E+03   -0.20052E-02   -0.15228E-02  6456   0.124E+00    0.199E-01
DAV:   3    -0.120959158396E+03    0.74263E-03   -0.28956E-03  4576   0.116E+00    0.820E-02
DAV:   4    -0.120959248065E+03   -0.89670E-04   -0.94455E-04  2800   0.481E-01
  32 F= -.13509614E+03 E0= -.13508765E+03  d E =-.422353E-02  mag=     0.0000
       N       E                     dE             d eps       ncg     rms          rms(c)
DAV:   1    -0.120960938671E+03   -0.17803E-02   -0.10967E-01  5568   0.109E+00    0.108E-01
DAV:   2    -0.120979896502E+03   -0.18958E-01   -0.69462E-02  4352   0.473E+00    0.784E-01
DAV:   3    -0.120960623304E+03    0.19273E-01   -0.58616E-02  3792   0.404E+00    0.611E-02
DAV:   4    -0.120961062279E+03   -0.43897E-03   -0.94070E-04  3080   0.757E-01    0.119E-01
DAV:   5    -0.120960812656E+03    0.24962E-03   -0.10477E-03  3136   0.729E-01    0.430E-02
DAV:   6    -0.120960809688E+03    0.29688E-05   -0.36909E-04  2400   0.310E-01
  33 F= -.13509628E+03 E0= -.13508782E+03  d E =-.436156E-02  mag=     0.0000
       N       E                     dE             d eps       ncg     rms          rms(c)
DAV:   1    -0.120965678491E+03   -0.48658E-02   -0.55616E-01  4016   0.160E+00    0.603E-02
DAV:   2    -0.120967070278E+03   -0.13918E-02   -0.11249E-02  6160   0.902E-01    0.142E-01
DAV:   3    -0.120966717732E+03    0.35255E-03   -0.16740E-03  4040   0.796E-01    0.573E-02
DAV:   4    -0.120966789178E+03   -0.71445E-04   -0.66497E-04  2416   0.392E-01
  34 F= -.13509945E+03 E0= -.13509111E+03  d E =-.317047E-02  mag=     0.0000
       N       E                     dE             d eps       ncg     rms          rms(c)
DAV:   1    -0.120971262178E+03   -0.45444E-02   -0.41115E+00  4000   0.436E+00    0.179E-01
DAV:   2    -0.120980538016E+03   -0.92758E-02   -0.83145E-02  6112   0.213E+00    0.350E-01
DAV:   3    -0.120979145788E+03    0.13922E-02   -0.15450E-02  4640   0.204E+00    0.226E-01
DAV:   4    -0.120979120872E+03    0.24916E-04   -0.71113E-03  4048   0.136E+00    0.192E-01
DAV:   5    -0.120978774353E+03    0.34652E-03   -0.30676E-03  4000   0.918E-01    0.150E-01
DAV:   6    -0.120978572081E+03    0.20227E-03   -0.18004E-03  4384   0.676E-01    0.113E-01
DAV:   7    -0.120978458197E+03    0.11388E-03   -0.12128E-03  4000   0.588E-01
  35 F= -.13510355E+03 E0= -.13509543E+03  d E =-.727028E-02  mag=     0.0000
       N       E                     dE             d eps       ncg     rms          rms(c)
DAV:   1    -0.120983424777E+03   -0.48527E-02   -0.43867E-01  4016   0.145E+00    0.581E-02
DAV:   2    -0.120984643032E+03   -0.12183E-02   -0.93348E-03  6272   0.910E-01    0.139E-01
DAV:   3    -0.120984341949E+03    0.30108E-03   -0.26960E-03  3904   0.927E-01    0.747E-02
DAV:   4    -0.120984315100E+03    0.26849E-04   -0.11147E-03  2560   0.544E-01
  36 F= -.13510623E+03 E0= -.13509823E+03  d E =-.268662E-02  mag=     0.0000
       N       E                     dE             d eps       ncg     rms          rms(c)
DAV:   1    -0.120989999806E+03   -0.56579E-02   -0.14958E+00  3968   0.263E+00    0.120E-01
DAV:   2    -0.120992867315E+03   -0.28675E-02   -0.29948E-02  5376   0.835E-01    0.158E-01
DAV:   3    -0.120992821702E+03    0.45613E-04   -0.29520E-03  4112   0.894E-01    0.127E-01
DAV:   4    -0.120992952539E+03   -0.13084E-03   -0.26409E-03  2720   0.887E-01    0.138E-01
DAV:   5    -0.120992699242E+03    0.25330E-03   -0.20116E-03  2496   0.817E-01    0.995E-02
DAV:   6    -0.120992560174E+03    0.13907E-03   -0.47179E-04  2496   0.468E-01
  37 F= -.13510870E+03 E0= -.13510084E+03  d E =-.515582E-02  mag=     0.0000
       N       E                     dE             d eps       ncg     rms          rms(c)
DAV:   1    -0.120997596145E+03   -0.48969E-02   -0.31927E-01  3944   0.128E+00    0.604E-02
DAV:   2    -0.120998286799E+03   -0.69065E-03   -0.71461E-03  5744   0.506E-01    0.745E-02
DAV:   3    -0.120998431839E+03   -0.14504E-03   -0.20738E-03  2800   0.799E-01    0.976E-02
DAV:   4    -0.120998267956E+03    0.16388E-03   -0.13428E-03  2400   0.596E-01
  38 F= -.13511080E+03 E0= -.13510313E+03  d E =-.209328E-02  mag=     0.0000
       N       E                     dE             d eps       ncg     rms          rms(c)
DAV:   1    -0.121004203729E+03   -0.57719E-02   -0.87101E-01  3888   0.202E+00    0.108E-01
DAV:   2    -0.121005761051E+03   -0.15573E-02   -0.17077E-02  5360   0.625E-01    0.119E-01
DAV:   3    -0.121005969960E+03   -0.20891E-03   -0.27786E-03  4080   0.939E-01    0.140E-01
DAV:   4    -0.121005783336E+03    0.18662E-03   -0.26147E-03  2528   0.846E-01    0.104E-01
DAV:   5    -0.121005671333E+03    0.11200E-03   -0.12217E-03  2544   0.654E-01
  39 F= -.13511231E+03 E0= -.13510492E+03  d E =-.360700E-02  mag=     0.0000
       N       E                     dE             d eps       ncg     rms          rms(c)
DAV:   1    -0.121010697408E+03   -0.49141E-02   -0.37194E-01  4000   0.140E+00    0.671E-02
DAV:   2    -0.121011949360E+03   -0.12520E-02   -0.70793E-03  6488   0.118E+00    0.169E-01
DAV:   3    -0.121011274254E+03    0.67511E-03   -0.24286E-03  4072   0.109E+00    0.687E-02
DAV:   4    -0.121011311525E+03   -0.37272E-04   -0.84662E-04  2640   0.421E-01
  40 F= -.13511375E+03 E0= -.13510633E+03  d E =-.144208E-02  mag=     0.0000
       N       E                     dE             d eps       ncg     rms          rms(c)
DAV:   1    -0.121022505611E+03   -0.11231E-01   -0.33307E+00  3904   0.394E+00    0.169E-01
DAV:   2    -0.121030810873E+03   -0.83053E-02   -0.68468E-02  6544   0.215E+00    0.359E-01
DAV:   3    -0.121028462442E+03    0.23484E-02   -0.20791E-02  5360   0.218E+00    0.215E-01
DAV:   4    -0.121028215153E+03    0.24729E-03   -0.43897E-03  4128   0.101E+00    0.168E-01
DAV:   5    -0.121028139615E+03    0.75538E-04   -0.21248E-03  3968   0.694E-01    0.144E-01
DAV:   6    -0.121028046101E+03    0.93515E-04   -0.10016E-03  3008   0.486E-01
  41 F= -.13511792E+03 E0= -.13511056E+03  d E =-.561288E-02  mag=     0.0000
       N       E                     dE             d eps       ncg     rms          rms(c)
DAV:   1    -0.121035306781E+03   -0.71672E-02   -0.13336E+01  3888   0.791E+00    0.298E-01
DAV:   2    -0.121064627304E+03   -0.29321E-01   -0.26667E-01  5936   0.334E+00    0.562E-01
DAV:   3    -0.121061493000E+03    0.31343E-02   -0.60646E-02  4832   0.374E+00    0.388E-01
DAV:   4    -0.121060381395E+03    0.11116E-02   -0.21708E-02  4432   0.228E+00    0.329E-01
DAV:   5    -0.121059661030E+03    0.72036E-03   -0.68010E-03  4608   0.139E+00    0.243E-01
DAV:   6    -0.121059405760E+03    0.25527E-03   -0.31648E-03  5072   0.942E-01    0.205E-01
DAV:   7    -0.121058906732E+03    0.49903E-03   -0.34739E-03  4320   0.120E+00    0.881E-02
DAV:   8    -0.121058795091E+03    0.11164E-03   -0.12126E-03  3776   0.523E-01
  42 F= -.13512368E+03 E0= -.13511693E+03  d E =-.113738E-01  mag=     0.0000
       N       E                     dE             d eps       ncg     rms          rms(c)
DAV:   1    -0.121016766418E+03    0.42140E-01   -0.53480E+01  3904   0.159E+01    0.595E-01
DAV:   2    -0.121131764039E+03   -0.11500E+00   -0.10617E+00  5888   0.618E+00    0.103E+00
DAV:   3    -0.121118252791E+03    0.13511E-01   -0.13685E-01  4512   0.627E+00    0.678E-01
DAV:   4    -0.121122514805E+03   -0.42620E-02   -0.89728E-02  4384   0.455E+00    0.777E-01
DAV:   5    -0.121115338115E+03    0.71767E-02   -0.50674E-02  4776   0.364E+00    0.492E-01
DAV:   6    -0.121113338428E+03    0.19997E-02   -0.21978E-02  6144   0.174E+00    0.339E-01
DAV:   7    -0.121111681806E+03    0.16566E-02   -0.12824E-02  4416   0.225E+00    0.220E-01
DAV:   8    -0.121111406105E+03    0.27570E-03   -0.41969E-03  4896   0.102E+00    0.123E-01
DAV:   9    -0.121111248605E+03    0.15750E-03   -0.29306E-03  3936   0.713E-01    0.474E-02
DAV:  10    -0.121111274817E+03   -0.26212E-04   -0.81122E-04  3200   0.305E-01
  43 F= -.13512676E+03 E0= -.13512068E+03  d E =-.144538E-01  mag=     0.0000
       N       E                     dE             d eps       ncg     rms          rms(c)
DAV:   1    -0.121121093713E+03   -0.98451E-02   -0.25906E+00  3920   0.342E+00    0.135E-01
DAV:   2    -0.121126116764E+03   -0.50231E-02   -0.51145E-02  5216   0.932E-01    0.167E-01
DAV:   3    -0.121126246070E+03   -0.12931E-03   -0.42809E-03  4128   0.108E+00    0.170E-01
DAV:   4    -0.121126092505E+03    0.15357E-03   -0.35947E-03  2960   0.981E-01    0.144E-01
DAV:   5    -0.121125965666E+03    0.12684E-03   -0.17231E-03  2640   0.749E-01
  44 F= -.13513021E+03 E0= -.13512401E+03  d E =-.345168E-02  mag=     0.0000
       N       E                     dE             d eps       ncg     rms          rms(c)
DAV:   1    -0.121134172935E+03   -0.80804E-02   -0.22996E+00  3952   0.328E+00    0.170E-01
DAV:   2    -0.121140073054E+03   -0.59001E-02   -0.47630E-02  6640   0.205E+00    0.334E-01
DAV:   3    -0.121138794509E+03    0.12785E-02   -0.20998E-02  5200   0.229E+00    0.239E-01
DAV:   4    -0.121138277942E+03    0.51657E-03   -0.83603E-03  4128   0.144E+00    0.181E-01
DAV:   5    -0.121137988022E+03    0.28992E-03   -0.24309E-03  3920   0.869E-01    0.121E-01
DAV:   6    -0.121137934322E+03    0.53700E-04   -0.13093E-03  3808   0.641E-01
  45 F= -.13513169E+03 E0= -.13512555E+03  d E =-.492752E-02  mag=     0.0000
       N       E                     dE             d eps       ncg     rms          rms(c)
DAV:   1    -0.121141643289E+03   -0.36553E-02   -0.91320E+00  3920   0.646E+00    0.247E-01
DAV:   2    -0.121159260245E+03   -0.17617E-01   -0.18261E-01  5136   0.170E+00    0.302E-01
DAV:   3    -0.121159368265E+03   -0.10802E-03   -0.91054E-03  4208   0.136E+00    0.281E-01
DAV:   4    -0.121159128635E+03    0.23963E-03   -0.93749E-03  4192   0.153E+00    0.250E-01
DAV:   5    -0.121158670837E+03    0.45780E-03   -0.39220E-03  2832   0.116E+00    0.202E-01
DAV:   6    -0.121159664916E+03   -0.99408E-03   -0.46979E-03  3536   0.160E+00    0.284E-01
DAV:   7    -0.121158045285E+03    0.16196E-02   -0.49623E-03  4432   0.168E+00    0.954E-02
DAV:   8    -0.121157972615E+03    0.72670E-04   -0.11996E-03  3968   0.540E-01
  46 F= -.13513098E+03 E0= -.13512503E+03  d E =-.422157E-02  mag=     0.0000
       N       E                     dE             d eps       ncg     rms          rms(c)
DAV:   1    -0.121140918904E+03    0.17126E-01   -0.33819E+00  3920   0.390E+00    0.162E-01
DAV:   2    -0.121147321574E+03   -0.64027E-02   -0.64046E-02  5648   0.153E+00    0.261E-01
DAV:   3    -0.121147032530E+03    0.28904E-03   -0.79462E-03  4336   0.148E+00    0.197E-01
DAV:   4    -0.121146912023E+03    0.12051E-03   -0.41883E-03  3904   0.100E+00    0.171E-01
DAV:   5    -0.121146773845E+03    0.13818E-03   -0.23481E-03  3280   0.789E-01    0.151E-01
DAV:   6    -0.121146606977E+03    0.16687E-03   -0.80772E-04  3040   0.603E-01
  47 F= -.13513220E+03 E0= -.13512584E+03  d E =-.543554E-02  mag=     0.0000
       N       E                     dE             d eps       ncg     rms          rms(c)
DAV:   1    -0.121157057173E+03   -0.10283E-01   -0.23193E+00  3904   0.323E+00    0.134E-01
DAV:   2    -0.121161381083E+03   -0.43239E-02   -0.44990E-02  5328   0.112E+00    0.203E-01
DAV:   3    -0.121161503452E+03   -0.12237E-03   -0.56155E-03  4096   0.115E+00    0.185E-01
DAV:   4    -0.121161138294E+03    0.36516E-03   -0.27547E-03  3616   0.809E-01    0.132E-01
DAV:   5    -0.121161111272E+03    0.27022E-04   -0.54396E-04  2560   0.443E-01
  48 F= -.13513579E+03 E0= -.13512971E+03  d E =-.359286E-02  mag=     0.0000
       N       E                     dE             d eps       ncg     rms          rms(c)
DAV:   1    -0.121166542721E+03   -0.54044E-02   -0.67374E-01  4032   0.193E+00    0.162E-01
DAV:   2    -0.121174667836E+03   -0.81251E-02   -0.27789E-02  6672   0.334E+00    0.521E-01
DAV:   3    -0.121167626610E+03    0.70412E-02   -0.18337E-02  5632   0.298E+00    0.157E-01
DAV:   4    -0.121167785163E+03   -0.15855E-03   -0.68725E-03  4008   0.124E+00    0.159E-01
DAV:   5    -0.121167388029E+03    0.39713E-03   -0.33745E-03  4336   0.895E-01    0.801E-02
DAV:   6    -0.121167397031E+03   -0.90014E-05   -0.10497E-03  3568   0.459E-01
  49 F= -.13513628E+03 E0= -.13513013E+03  d E =-.408423E-02  mag=    -0.0000
       N       E                     dE             d eps       ncg     rms          rms(c)
DAV:   1    -0.121168992810E+03   -0.16048E-02   -0.50950E-02  5296   0.628E-01    0.375E-02
DAV:   2    -0.121169250523E+03   -0.25771E-03   -0.14053E-03  3216   0.692E-01    0.103E-01
DAV:   3    -0.121169154122E+03    0.96401E-04   -0.20330E-03  2592   0.773E-01    0.721E-02
DAV:   4    -0.121169045426E+03    0.10870E-03   -0.79203E-04  2416   0.466E-01
  50 F= -.13513636E+03 E0= -.13513024E+03  d E =-.415935E-02  mag=    -0.0000
       N       E                     dE             d eps       ncg     rms          rms(c)
DAV:   1    -0.121172829505E+03   -0.36754E-02   -0.35085E-01  4000   0.126E+00    0.550E-02
DAV:   2    -0.121173552105E+03   -0.72260E-03   -0.72954E-03  5472   0.442E-01    0.848E-02
DAV:   3    -0.121173529589E+03    0.22516E-04   -0.11947E-03  3136   0.528E-01
  51 F= -.13513776E+03 E0= -.13513165E+03  d E =-.139788E-02  mag=    -0.0000
       N       E                     dE             d eps       ncg     rms          rms(c)
DAV:   1    -0.121179806757E+03   -0.62547E-02   -0.31576E+00  3952   0.377E+00    0.177E-01
DAV:   2    -0.121186199389E+03   -0.63926E-02   -0.61212E-02  5760   0.157E+00    0.297E-01
DAV:   3    -0.121185435890E+03    0.76350E-03   -0.69618E-03  4240   0.142E+00    0.175E-01
DAV:   4    -0.121185398374E+03    0.37517E-04   -0.20669E-03  4000   0.604E-01    0.164E-01
DAV:   5    -0.121186263859E+03   -0.86549E-03   -0.70406E-03  3480   0.135E+00    0.227E-01
DAV:   6    -0.121185377302E+03    0.88656E-03   -0.70404E-03  2752   0.139E+00    0.140E-01
DAV:   7    -0.121185003761E+03    0.37354E-03   -0.11471E-03  2864   0.722E-01    0.503E-02
DAV:   8    -0.121185063363E+03   -0.59601E-04   -0.87217E-04  3552   0.213E-01
  52 F= -.13514009E+03 E0= -.13513386E+03  d E =-.373680E-02  mag=    -0.0000
       N       E                     dE             d eps       ncg     rms          rms(c)
DAV:   1    -0.121187344311E+03   -0.23405E-02   -0.24524E-01  3984   0.106E+00    0.529E-02
DAV:   2    -0.121189707812E+03   -0.23635E-02   -0.12351E-02  5936   0.162E+00    0.273E-01
DAV:   3    -0.121187764715E+03    0.19431E-02   -0.99512E-03  3616   0.156E+00    0.656E-02
DAV:   4    -0.121187770347E+03   -0.56324E-05   -0.10776E-03  3344   0.423E-01
  53 F= -.13514026E+03 E0= -.13513387E+03  d E =-.389810E-02  mag=    -0.0000
       N       E                     dE             d eps       ncg     rms          rms(c)
DAV:   1    -0.121191055874E+03   -0.32912E-02   -0.97602E-01  3936   0.210E+00    0.977E-02
DAV:   2    -0.121192947619E+03   -0.18917E-02   -0.19951E-02  5312   0.669E-01    0.133E-01
DAV:   3    -0.121192908820E+03    0.38799E-04   -0.13475E-03  3768   0.576E-01
  54 F= -.13514033E+03 E0= -.13513388E+03  d E =-.396973E-02  mag=    -0.0000
       N       E                     dE             d eps       ncg     rms          rms(c)
DAV:   1    -0.121189636808E+03    0.33108E-02   -0.30067E-01  4512   0.132E+00    0.917E-02
DAV:   2    -0.121210255797E+03   -0.20619E-01   -0.93073E-02  4776   0.468E+00    0.817E-01
DAV:   3    -0.121189800961E+03    0.20455E-01   -0.78561E-02  4528   0.407E+00    0.359E-02
DAV:   4    -0.121190142470E+03   -0.34151E-03   -0.25478E-03  4752   0.448E-01    0.704E-02
DAV:   5    -0.121190096117E+03    0.46353E-04   -0.65364E-04  2576   0.489E-01
  55 F= -.13514033E+03 E0= -.13513393E+03  d E =-.397041E-02  mag=    -0.0000
       N       E                     dE             d eps       ncg     rms          rms(c)
DAV:   1    -0.121193804449E+03   -0.36620E-02   -0.64026E-01  3920   0.171E+00    0.738E-02
DAV:   2    -0.121195119551E+03   -0.13151E-02   -0.13305E-02  5360   0.593E-01    0.111E-01
DAV:   3    -0.121195071858E+03    0.47693E-04   -0.99912E-04  3600   0.545E-01
  56 F= -.13514136E+03 E0= -.13513488E+03  d E =-.102694E-02  mag=     0.0000
       N       E                     dE             d eps       ncg     rms          rms(c)
DAV:   1    -0.121195823657E+03   -0.70411E-03   -0.21282E-02  5440   0.491E-01    0.828E-02
DAV:   2    -0.121201448550E+03   -0.56249E-02   -0.25445E-02  3232   0.258E+00    0.450E-01
DAV:   3    -0.121195761334E+03    0.56872E-02   -0.24480E-02  2576   0.232E+00    0.595E-02
DAV:   4    -0.121195885004E+03   -0.12367E-03   -0.81469E-04  2560   0.628E-01
  57 F= -.13514148E+03 E0= -.13513519E+03  d E =-.115067E-02  mag=     0.0000
       N       E                     dE             d eps       ncg     rms          rms(c)
DAV:   1    -0.121196219024E+03   -0.45769E-03   -0.10263E-01  5312   0.864E-01    0.447E-02
DAV:   2    -0.121197317331E+03   -0.10983E-02   -0.50262E-03  2784   0.116E+00    0.204E-01
DAV:   3    -0.121196326178E+03    0.99115E-03   -0.52292E-03  2688   0.115E+00    0.680E-02
DAV:   4    -0.121196283311E+03    0.42867E-04   -0.49045E-04  2464   0.430E-01
  58 F= -.13514194E+03 E0= -.13513547E+03  d E =-.461451E-03  mag=     0.0000
       N       E                     dE             d eps       ncg     rms          rms(c)
DAV:   1    -0.121196174618E+03    0.15156E-03   -0.47336E-01  3872   0.150E+00    0.729E-02
DAV:   2    -0.121197643834E+03   -0.14692E-02   -0.12090E-02  6592   0.975E-01    0.166E-01
DAV:   3    -0.121197161533E+03    0.48230E-03   -0.43701E-03  4096   0.995E-01    0.836E-02
DAV:   4    -0.121197153974E+03    0.75586E-05   -0.86550E-04  2832   0.437E-01
  59 F= -.13514295E+03 E0= -.13513659E+03  d E =-.147288E-02  mag=     0.0000
       N       E                     dE             d eps       ncg     rms          rms(c)
DAV:   1    -0.121193391401E+03    0.37701E-02   -0.18842E+00  3856   0.299E+00    0.149E-01
DAV:   2    -0.121197358877E+03   -0.39675E-02   -0.40667E-02  5664   0.112E+00    0.209E-01
DAV:   3    -0.121197262874E+03    0.96003E-04   -0.71812E-03  4240   0.127E+00    0.178E-01
DAV:   4    -0.121197144072E+03    0.11880E-03   -0.30518E-03  3872   0.868E-01    0.149E-01
DAV:   5    -0.121197031965E+03    0.11211E-03   -0.14394E-03  2672   0.736E-01
  60 F= -.13514313E+03 E0= -.13513686E+03  d E =-.165122E-02  mag=     0.0000
       N       E                     dE             d eps       ncg     rms          rms(c)
DAV:   1    -0.121196776354E+03    0.36772E-03   -0.46812E-01  4624   0.168E+00    0.105E-01
DAV:   2    -0.121199168706E+03   -0.23924E-02   -0.12633E-02  5760   0.222E+00    0.277E-01
DAV:   3    -0.121198777490E+03    0.39122E-03   -0.19223E-02  4336   0.240E+00    0.254E-01
DAV:   4    -0.121197313095E+03    0.14644E-02   -0.75858E-03  3312   0.135E+00    0.845E-02
DAV:   5    -0.121197227289E+03    0.85805E-04   -0.75400E-04  2816   0.475E-01
  61 F= -.13514317E+03 E0= -.13513680E+03  d E =-.169377E-02  mag=     0.0000
       N       E                     dE             d eps       ncg     rms          rms(c)
DAV:   1    -0.121196228719E+03    0.10844E-02   -0.26752E-01  3808   0.112E+00    0.431E-02
DAV:   2    -0.121196833820E+03   -0.60510E-03   -0.59803E-03  5312   0.392E-01    0.594E-02
DAV:   3    -0.121196918260E+03   -0.84440E-04   -0.12931E-03  2592   0.588E-01
  62 F= -.13514417E+03 E0= -.13513779E+03  d E =-.992809E-03  mag=     0.0000
       N       E                     dE             d eps       ncg     rms          rms(c)
DAV:   1    -0.121195120471E+03    0.17133E-02   -0.42740E-01  3920   0.145E+00    0.786E-02
DAV:   2    -0.121196019185E+03   -0.89871E-03   -0.92589E-03  5488   0.544E-01    0.107E-01
DAV:   3    -0.121195990515E+03    0.28670E-04   -0.19839E-03  3392   0.672E-01
  63 F= -.13514489E+03 E0= -.13513859E+03  d E =-.171261E-02  mag=     0.0000
       N       E                     dE             d eps       ncg     rms          rms(c)
DAV:   1    -0.121190092396E+03    0.59268E-02   -0.17015E+00  3808   0.284E+00    0.159E-01
DAV:   2    -0.121194484419E+03   -0.43920E-02   -0.38637E-02  6464   0.158E+00    0.286E-01
DAV:   3    -0.121193207798E+03    0.12766E-02   -0.12323E-02  4544   0.165E+00    0.178E-01
DAV:   4    -0.121193153299E+03    0.54499E-04   -0.26956E-03  4112   0.803E-01    0.153E-01
DAV:   5    -0.121193070658E+03    0.82641E-04   -0.17890E-03  3936   0.791E-01
  64 F= -.13514528E+03 E0= -.13513908E+03  d E =-.211204E-02  mag=    -0.0000
       N       E                     dE             d eps       ncg     rms          rms(c)
DAV:   1    -0.121192478179E+03    0.67512E-03   -0.52480E-02  5488   0.101E+00    0.112E-01
DAV:   2    -0.121198002166E+03   -0.55240E-02   -0.23439E-02  4416   0.306E+00    0.443E-01
DAV:   3    -0.121193513936E+03    0.44882E-02   -0.36188E-02  3968   0.295E+00    0.220E-01
DAV:   4    -0.121192486984E+03    0.10270E-02   -0.56864E-03  2672   0.129E+00    0.946E-02
DAV:   5    -0.121192299844E+03    0.18714E-03   -0.68757E-04  2592   0.554E-01
  65 F= -.13514534E+03 E0= -.13513922E+03  d E =-.564075E-04  mag=    -0.0000
       N       E                     dE             d eps       ncg     rms          rms(c)
DAV:   1    -0.121192199889E+03    0.28710E-03   -0.61668E-03  5280   0.248E-01    0.319E-02
DAV:   2    -0.121192489085E+03   -0.28920E-03   -0.14293E-03  2464   0.621E-01    0.112E-01
DAV:   3    -0.121192239139E+03    0.24995E-03   -0.19451E-03  2496   0.701E-01    0.405E-02
DAV:   4    -0.121192204148E+03    0.34991E-04   -0.19770E-04  2384   0.295E-01
  66 F= -.13514550E+03 E0= -.13513937E+03  d E =-.214048E-03  mag=    -0.0000
       N       E                     dE             d eps       ncg     rms          rms(c)
DAV:   1    -0.121191820267E+03    0.41887E-03   -0.19468E-02  4832   0.343E-01    0.256E-02
DAV:   2    -0.121192097525E+03   -0.27726E-03   -0.84886E-04  2704   0.632E-01    0.104E-01
DAV:   3    -0.121191847681E+03    0.24984E-03   -0.79926E-04  2496   0.563E-01    0.361E-02
DAV:   4    -0.121191828359E+03    0.19322E-04   -0.23232E-04  2336   0.233E-01
  67 F= -.13514563E+03 E0= -.13513957E+03  d E =-.345885E-03  mag=    -0.0000
       N       E                     dE             d eps       ncg     rms          rms(c)
DAV:   1    -0.121190875504E+03    0.97218E-03   -0.78003E-02  3776   0.616E-01    0.359E-02
DAV:   2    -0.121191006370E+03   -0.13087E-03   -0.13591E-03  3984   0.287E-01
  68 F= -.13514583E+03 E0= -.13513978E+03  d E =-.542993E-03  mag=     0.0000
       N       E                     dE             d eps       ncg     rms          rms(c)
DAV:   1    -0.121191201875E+03   -0.32637E-03   -0.13448E-02  5552   0.409E-01    0.471E-02
DAV:   2    -0.121196136572E+03   -0.49347E-02   -0.22448E-02  2592   0.240E+00    0.410E-01
DAV:   3    -0.121191145935E+03    0.49906E-02   -0.19219E-02  2512   0.209E+00    0.231E-02
DAV:   4    -0.121191170658E+03   -0.24723E-04   -0.77255E-05  2304   0.199E-01
  69 F= -.13514608E+03 E0= -.13514001E+03  d E =-.256979E-03  mag=     0.0000
       N       E                     dE             d eps       ncg     rms          rms(c)
DAV:   1    -0.121191263088E+03   -0.11715E-03   -0.76164E-02  4128   0.629E-01    0.297E-02
DAV:   2    -0.121191629355E+03   -0.36627E-03   -0.13394E-03  3408   0.697E-01    0.116E-01
DAV:   3    -0.121191339619E+03    0.28974E-03   -0.98629E-04  2688   0.634E-01    0.284E-02
DAV:   4    -0.121191376035E+03   -0.36415E-04   -0.46886E-04  2368   0.305E-01
  70 F= -.13514652E+03 E0= -.13514044E+03  d E =-.689447E-03  mag=    -0.0000
       N       E                     dE             d eps       ncg     rms          rms(c)
DAV:   1    -0.121191445732E+03   -0.10611E-03   -0.19952E-02  5440   0.389E-01    0.279E-02
DAV:   2    -0.121191529424E+03   -0.83692E-04   -0.48702E-04  2432   0.364E-01
  71 F= -.13514678E+03 E0= -.13514079E+03  d E =-.954383E-03  mag=    -0.0000
       N       E                     dE             d eps       ncg     rms          rms(c)
DAV:   1    -0.121191324737E+03    0.12099E-03   -0.73189E-02  5376   0.710E-01    0.443E-02
DAV:   2    -0.121194096796E+03   -0.27721E-02   -0.12663E-02  2784   0.181E+00    0.312E-01
DAV:   3    -0.121191314448E+03    0.27823E-02   -0.11343E-02  2560   0.163E+00    0.283E-02
DAV:   4    -0.121191381540E+03   -0.67092E-04   -0.44011E-04  2528   0.321E-01
  72 F= -.13514686E+03 E0= -.13514083E+03  d E =-.103129E-02  mag=     0.0000
       N       E                     dE             d eps       ncg     rms          rms(c)
DAV:   1    -0.121191422507E+03   -0.10806E-03   -0.38453E-02  5440   0.528E-01    0.350E-02
DAV:   2    -0.121191593959E+03   -0.17145E-03   -0.81634E-04  2560   0.553E-01
  73 F= -.13514728E+03 E0= -.13514116E+03  d E =-.422219E-03  mag=     0.0000
       N       E                     dE             d eps       ncg     rms          rms(c)
DAV:   1    -0.121191325997E+03    0.96509E-04   -0.26126E-02  5488   0.654E-01    0.536E-02
DAV:   2    -0.121196676297E+03   -0.53503E-02   -0.24352E-02  2784   0.254E+00    0.426E-01
DAV:   3    -0.121191309022E+03    0.53673E-02   -0.21108E-02  2576   0.222E+00    0.518E-02
DAV:   4    -0.121191310722E+03   -0.16999E-05   -0.30384E-04  2320   0.356E-01
  74 F= -.13514718E+03 E0= -.13514099E+03  d E =-.318704E-03  mag=     0.0000
       N       E                     dE             d eps       ncg     rms          rms(c)
DAV:   1    -0.121191371216E+03   -0.62193E-04   -0.24385E-03  5008   0.329E-01    0.225E-02
DAV:   2    -0.121191519236E+03   -0.14802E-03   -0.52101E-04  2416   0.503E-01
  75 F= -.13514733E+03 E0= -.13514116E+03  d E =-.474746E-03  mag=     0.0000
       N       E                     dE             d eps       ncg     rms          rms(c)
DAV:   1    -0.121191289316E+03    0.81900E-04   -0.70237E-04  2528   0.467E-01    0.380E-02
DAV:   2    -0.121194400186E+03   -0.31109E-02   -0.13914E-02  2640   0.195E+00    0.329E-01
DAV:   3    -0.121191285068E+03    0.31151E-02   -0.13198E-02  2544   0.175E+00    0.320E-02
DAV:   4    -0.121191287764E+03   -0.26955E-05   -0.17555E-04  2288   0.221E-01
  76 F= -.13514714E+03 E0= -.13514103E+03  d E =-.282155E-03  mag=     0.0000
       N       E                     dE             d eps       ncg     rms          rms(c)
DAV:   1    -0.121191371744E+03   -0.86676E-04   -0.17971E-04  2480   0.160E-01    0.153E-02
DAV:   2    -0.121191438549E+03   -0.66805E-04   -0.29730E-04  2352   0.314E-01
  77 F= -.13514726E+03 E0= -.13514111E+03  d E =-.401070E-03  mag=    -0.0000
       N       E                     dE             d eps       ncg     rms          rms(c)
DAV:   1    -0.121191368441E+03    0.33031E-05   -0.45709E-04  2416   0.351E-01    0.258E-02
DAV:   2    -0.121193729723E+03   -0.23613E-02   -0.10603E-02  2608   0.166E+00    0.282E-01
DAV:   3    -0.121191351450E+03    0.23783E-02   -0.93044E-03  2512   0.147E+00    0.199E-02
DAV:   4    -0.121191355755E+03   -0.43047E-05   -0.54078E-05  2304   0.161E-01
  78 F= -.13514719E+03 E0= -.13514108E+03  d E =-.334187E-03  mag=    -0.0000
       N       E                     dE             d eps       ncg     rms          rms(c)
DAV:   1    -0.121191370970E+03   -0.19519E-04   -0.24615E-05  2336   0.933E-02    0.664E-03
DAV:   2    -0.121191379408E+03   -0.84379E-05   -0.41003E-05  2272   0.114E-01
  79 F= -.13514721E+03 E0= -.13514109E+03  d E =-.347066E-03  mag=    -0.0000
       N       E                     dE             d eps       ncg     rms          rms(c)
DAV:   1    -0.121191056774E+03    0.31420E-03   -0.32000E-02  4112   0.405E-01    0.152E-02
DAV:   2    -0.121191454586E+03   -0.39781E-03   -0.18354E-03  2656   0.677E-01    0.116E-01
DAV:   3    -0.121191064279E+03    0.39031E-03   -0.16069E-03  2560   0.627E-01    0.125E-02
DAV:   4    -0.121191088567E+03   -0.24288E-04   -0.24648E-04  2336   0.112E-01
  80 F= -.13514736E+03 E0= -.13514119E+03  d E =-.149555E-03  mag=    -0.0000
       N       E                     dE             d eps       ncg     rms          rms(c)
DAV:   1    -0.121190952229E+03    0.11205E-03   -0.10256E-02  4112   0.242E-01    0.159E-02
DAV:   2    -0.121191046411E+03   -0.94182E-04   -0.45515E-04  2384   0.351E-01
  81 F= -.13514755E+03 E0= -.13514138E+03  d E =-.346187E-03  mag=     0.0000
       N       E                     dE             d eps       ncg     rms          rms(c)
DAV:   1    -0.121190623912E+03    0.32832E-03   -0.38530E-02  5472   0.542E-01    0.274E-02
DAV:   2    -0.121190897275E+03   -0.27336E-03   -0.13155E-03  2640   0.576E-01    0.103E-01
DAV:   3    -0.121190628352E+03    0.26892E-03   -0.12636E-03  2560   0.559E-01    0.270E-02
DAV:   4    -0.121190638169E+03   -0.98175E-05   -0.15631E-04  2416   0.232E-01
  82 F= -.13514762E+03 E0= -.13514141E+03  d E =-.415983E-03  mag=     0.0000
       N       E                     dE             d eps       ncg     rms          rms(c)
DAV:   1    -0.121189642776E+03    0.98558E-03   -0.15075E-01  4016   0.843E-01    0.336E-02
DAV:   2    -0.121190057407E+03   -0.41463E-03   -0.32126E-03  5088   0.562E-01    0.943E-02
DAV:   3    -0.121189925414E+03    0.13199E-03   -0.17434E-03  2528   0.653E-01
  83 F= -.13514787E+03 E0= -.13514171E+03  d E =-.661113E-03  mag=     0.0000
       N       E                     dE             d eps       ncg     rms          rms(c)
DAV:   1    -0.121189646722E+03    0.41069E-03   -0.17467E-02  5440   0.385E-01    0.351E-02
DAV:   2    -0.121189803837E+03   -0.15712E-03   -0.78950E-04  2512   0.431E-01
  84 F= -.13514806E+03 E0= -.13514197E+03  d E =-.855314E-03  mag=     0.0000
       N       E                     dE             d eps       ncg     rms          rms(c)
DAV:   1    -0.121189031546E+03    0.61518E-03   -0.66705E-02  5504   0.747E-01    0.432E-02
DAV:   2    -0.121190241046E+03   -0.12095E-02   -0.55771E-03  2720   0.123E+00    0.210E-01
DAV:   3    -0.121189043415E+03    0.11976E-02   -0.55326E-03  2656   0.115E+00    0.367E-02
DAV:   4    -0.121189082718E+03   -0.39303E-04   -0.45791E-04  2432   0.373E-01
  85 F= -.13514797E+03 E0= -.13514186E+03  d E =-.766527E-03  mag=     0.0000
       N       E                     dE             d eps       ncg     rms          rms(c)
DAV:   1    -0.121188023060E+03    0.10204E-02   -0.10325E-01  3936   0.726E-01    0.324E-02
DAV:   2    -0.121188366640E+03   -0.34358E-03   -0.19605E-03  3168   0.572E-01    0.114E-01
DAV:   3    -0.121188174755E+03    0.19189E-03   -0.22738E-03  3664   0.628E-01    0.355E-02
DAV:   4    -0.121188198770E+03   -0.24015E-04   -0.34917E-04  2384   0.306E-01
  86 F= -.13514825E+03 E0= -.13514211E+03  d E =-.274347E-03  mag=     0.0000
