<?xml version="1.0" encoding="ISO-8859-1"?>
<modeling>
 <generator>
  <i name="program" type="string">vasp </i>
  <i name="version" type="string">6.3.2  </i>
  <i name="subversion" type="string">27Jun22 (build Aug 17 2022 15:43:34) complex                          parallel </i>
  <i name="platform" type="string">tv2STDVTST </i>
  <i name="date" type="string">2025 02 17 </i>
  <i name="time" type="string">21:25:37 </i>
 </generator>
 <incar>
  <i type="int" name="ISTART">     0</i>
  <i type="string" name="PREC">Normal</i>
  <i type="int" name="ISPIN">     2</i>
  <i type="int" name="ICHARG">     2</i>
  <i type="int" name="IBRION">     2</i>
  <i name="EDIFF">      0.00020000</i>
  <i name="EDIFFG">     -0.03000000</i>
  <i type="int" name="NSW">   800</i>
  <i type="int" name="ISIF">     2</i>
  <i type="int" name="ISYM">     1</i>
  <i name="ENCUT">    400.00000000</i>
  <i name="POTIM">      0.50000000</i>
  <i type="logical" name="LREAL"> F  </i>
  <i type="int" name="ISMEAR">     1</i>
  <i name="SIGMA">      0.20000000</i>
  <i type="logical" name="LWAVE"> F  </i>
  <i type="logical" name="LCHARG"> F  </i>
  <i type="string" name="GGA">PE</i>
  <i type="int" name="IVDW">    11</i>
 </incar>
 <primitive_cell>
  <structure name="primitive_cell" >
   <crystal>
    <varray name="basis" >
     <v>       5.13359547       0.00000000       0.00000000 </v>
     <v>       2.56679773       4.44582409       0.00000000 </v>
     <v>       0.00000000       0.00000000      29.67047119 </v>
    </varray>
    <i name="volume">    677.17101477 </i>
    <varray name="rec_basis" >
     <v>       0.19479525      -0.11246509       0.00000000 </v>
     <v>       0.00000000       0.22493018       0.00000000 </v>
     <v>       0.00000000       0.00000000       0.03370354 </v>
    </varray>
   </crystal>
   <varray name="positions" >
    <v>       0.00000000       0.00000000       0.00000000 </v>
    <v>       1.00000000       0.50000000       0.00000000 </v>
    <v>       0.50000000       0.00000000       0.00000000 </v>
    <v>       0.50000000       0.50000000       0.00000000 </v>
    <v>       0.16666667       0.16666667       0.07063526 </v>
    <v>       0.16666667       0.66666667       0.07063526 </v>
    <v>       0.66666667       0.16666667       0.07063526 </v>
    <v>       0.66666667       0.66666667       0.07063526 </v>
    <v>       0.33333333       0.33333333       0.13847021 </v>
    <v>       0.33333333       0.83333333       0.13847021 </v>
    <v>       0.83333333       0.33333333       0.13847021 </v>
    <v>       0.83333333       0.83333333       0.13847021 </v>
    <v>       0.00000000       0.00000000       0.20667428 </v>
    <v>       1.00000000       0.50000000       0.20667428 </v>
    <v>       0.50000000       0.00000000       0.20667428 </v>
    <v>       0.50000000       0.50000000       0.20667428 </v>
    <v>       0.16666667       0.16666667       0.27488859 </v>
    <v>       0.16666667       0.66666667       0.27488859 </v>
    <v>       0.66666667       0.16666667       0.27488859 </v>
    <v>       0.66666667       0.66666667       0.27488859 </v>
    <v>       0.33333333       0.33333333       0.34319917 </v>
    <v>       0.33333333       0.83333333       0.34319917 </v>
    <v>       0.83333333       0.33333333       0.34319917 </v>
    <v>       0.83333333       0.83333333       0.34319917 </v>
    <v>       0.00000000       0.00000000       0.41105828 </v>
    <v>       1.00000000       0.50000000       0.41105828 </v>
    <v>       0.50000000       0.00000000       0.41105828 </v>
    <v>       0.50000000       0.50000000       0.41105828 </v>
    <v>       0.16666667       0.16666667       0.48054462 </v>
    <v>       0.16666667       0.66666667       0.48054462 </v>
    <v>       0.66666667       0.16666667       0.48054462 </v>
    <v>       0.66666667       0.66666667       0.48054462 </v>
    <v>       0.33333333       0.83333333       0.53425930 </v>
    <v>       0.27400781       0.95198437       0.55203798 </v>
   </varray>
  </structure>
  <varray name="primitive_index" >
   <v type="int" >        1 </v>
   <v type="int" >        2 </v>
   <v type="int" >        3 </v>
   <v type="int" >        4 </v>
   <v type="int" >        5 </v>
   <v type="int" >        6 </v>
   <v type="int" >        7 </v>
   <v type="int" >        8 </v>
   <v type="int" >        9 </v>
   <v type="int" >       10 </v>
   <v type="int" >       11 </v>
   <v type="int" >       12 </v>
   <v type="int" >       13 </v>
   <v type="int" >       14 </v>
   <v type="int" >       15 </v>
   <v type="int" >       16 </v>
   <v type="int" >       17 </v>
   <v type="int" >       18 </v>
   <v type="int" >       19 </v>
   <v type="int" >       20 </v>
   <v type="int" >       21 </v>
   <v type="int" >       22 </v>
   <v type="int" >       23 </v>
   <v type="int" >       24 </v>
   <v type="int" >       25 </v>
   <v type="int" >       26 </v>
   <v type="int" >       27 </v>
   <v type="int" >       28 </v>
   <v type="int" >       29 </v>
   <v type="int" >       30 </v>
   <v type="int" >       31 </v>
   <v type="int" >       32 </v>
   <v type="int" >       33 </v>
   <v type="int" >       34 </v>
  </varray>
 </primitive_cell>
 <kpoints>
  <generation param="Monkhorst-Pack">
   <v type="int" name="divisions">       3        3        1 </v>
   <v name="usershift">      0.00000000       0.00000000       0.00000000 </v>
   <v name="genvec1">      0.33333333       0.00000000       0.00000000 </v>
   <v name="genvec2">      0.00000000       0.33333333       0.00000000 </v>
   <v name="genvec3">      0.00000000       0.00000000       1.00000000 </v>
   <v name="shift">      0.00000000       0.00000000       0.00000000 </v>
  </generation>
  <varray name="kpointlist" >
   <v>       0.00000000       0.00000000       0.00000000 </v>
   <v>       0.33333333       0.00000000       0.00000000 </v>
   <v>       0.00000000       0.33333333       0.00000000 </v>
   <v>      -0.33333333       0.33333333       0.00000000 </v>
  </varray>
  <varray name="weights" >
   <v>       0.11111111 </v>
   <v>       0.44444444 </v>
   <v>       0.22222222 </v>
   <v>       0.22222222 </v>
  </varray>
 </kpoints>
 <parameters>
  <separator name="general" >
   <i type="string" name="SYSTEM">unknown system</i>
   <i type="logical" name="LCOMPAT"> F  </i>
  </separator>
  <separator name="electronic" >
   <i type="string" name="PREC">normal</i>
   <i name="ENMAX">    400.00000000</i>
   <i name="ENAUG">    586.98000000</i>
   <i name="EDIFF">      0.00020000</i>
   <i type="int" name="IALGO">    38</i>
   <i type="int" name="IWAVPR">    11</i>
   <i type="int" name="NBANDS">   232</i>
   <i type="int" name="NBANDSLOW">    -1</i>
   <i type="int" name="NBANDSHIGH">    -1</i>
   <i name="NELECT">    354.00000000</i>
   <i type="int" name="TURBO">     0</i>
   <i type="int" name="IRESTART">     0</i>
   <i type="int" name="NREBOOT">     0</i>
   <i type="int" name="NMIN">     0</i>
   <i name="EREF">      0.00000000</i>
   <separator name="electronic smearing" >
    <i type="int" name="ISMEAR">     1</i>
    <i name="SIGMA">      0.20000000</i>
    <i name="KSPACING">      0.50000000</i>
    <i type="logical" name="KGAMMA"> T  </i>
    <i type="logical" name="KBLOWUP"> T  </i>
   </separator>
   <separator name="electronic projectors" >
    <i type="logical" name="LREAL"> F  </i>
    <v name="ROPT">      0.00000000      0.00000000</v>
    <i type="int" name="LMAXPAW">  -100</i>
    <i type="int" name="LMAXMIX">     2</i>
    <i type="logical" name="NLSPLINE"> F  </i>
   </separator>
   <separator name="electronic startup" >
    <i type="int" name="ISTART">     0</i>
    <i type="int" name="ICHARG">     2</i>
    <i type="int" name="INIWAV">     1</i>
   </separator>
   <separator name="electronic spin" >
    <i type="int" name="ISPIN">     2</i>
    <i type="logical" name="LNONCOLLINEAR"> F  </i>
    <v name="MAGMOM">      1.00000000      1.00000000      1.00000000      1.00000000      1.00000000      1.00000000      1.00000000      1.00000000      1.00000000      1.00000000      1.00000000      1.00000000      1.00000000      1.00000000      1.00000000      1.00000000      1.00000000      1.00000000      1.00000000      1.00000000
      1.00000000      1.00000000      1.00000000      1.00000000      1.00000000      1.00000000      1.00000000      1.00000000      1.00000000      1.00000000      1.00000000      1.00000000      1.00000000      1.00000000</v>
    <i name="NUPDOWN">     -1.00000000</i>
    <i type="logical" name="LSORBIT"> F  </i>
    <v name="SAXIS">      0.00000000      0.00000000      1.00000000</v>
    <i type="logical" name="LSPIRAL"> F  </i>
    <v name="QSPIRAL">      0.00000000      0.00000000      0.00000000</v>
    <i type="logical" name="LZEROZ"> F  </i>
   </separator>
   <separator name="electronic exchange-correlation" >
    <i type="logical" name="LASPH"> F  </i>
    <i type="logical" name="LMETAGGA"> F  </i>
   </separator>
   <separator name="electronic convergence" >
    <i type="int" name="NELM">    60</i>
    <i type="int" name="NELMDL">    -5</i>
    <i type="int" name="NELMIN">     2</i>
    <i name="ENINI">    400.00000000</i>
    <separator name="electronic convergence detail" >
     <i type="logical" name="LDIAG"> T  </i>
     <i type="logical" name="LSUBROT"> F  </i>
     <i name="WEIMIN">      0.00100000</i>
     <i name="EBREAK">      0.00000022</i>
     <i name="DEPER">      0.30000000</i>
     <i type="int" name="NRMM">     4</i>
     <i name="TIME">      0.40000000</i>
    </separator>
   </separator>
   <separator name="electronic mixer" >
    <i name="AMIX">      0.40000000</i>
    <i name="BMIX">      1.00000000</i>
    <i name="AMIN">      0.10000000</i>
    <i name="AMIX_MAG">      1.60000000</i>
    <i name="BMIX_MAG">      1.00000000</i>
    <separator name="electronic mixer details" >
     <i type="int" name="IMIX">     4</i>
     <i type="logical" name="MIXFIRST"> F  </i>
     <i type="int" name="MAXMIX">   -45</i>
     <i name="WC">    100.00000000</i>
     <i type="int" name="INIMIX">     1</i>
     <i type="int" name="MIXPRE">     1</i>
     <i type="int" name="MREMOVE">     5</i>
    </separator>
   </separator>
   <separator name="electronic dipolcorrection" >
    <i type="logical" name="LDIPOL"> F  </i>
    <i type="logical" name="LMONO"> F  </i>
    <i type="int" name="IDIPOL">     0</i>
    <i name="EPSILON">      1.00000000</i>
    <v name="DIPOL">   -100.00000000   -100.00000000   -100.00000000</v>
    <i name="EFIELD">      0.00000000</i>
   </separator>
  </separator>
  <separator name="grids" >
   <i type="int" name="NGX">    28</i>
   <i type="int" name="NGY">    28</i>
   <i type="int" name="NGZ">   150</i>
   <i type="int" name="NGXF">    56</i>
   <i type="int" name="NGYF">    56</i>
   <i type="int" name="NGZF">   300</i>
   <i type="logical" name="ADDGRID"> F  </i>
  </separator>
  <separator name="ionic" >
   <i type="int" name="NSW">   800</i>
   <i type="int" name="IBRION">     2</i>
   <i type="int" name="MDALGO">     0</i>
   <i type="int" name="ISIF">     2</i>
   <i name="PSTRESS">      0.00000000</i>
   <i name="EDIFFG">     -0.03000000</i>
   <i type="int" name="NFREE">     1</i>
   <i name="POTIM">      0.50000000</i>
   <i name="SMASS">     -3.00000000</i>
   <i name="SCALEE">      1.00000000</i>
  </separator>
  <separator name="ionic md" >
   <i name="TEBEG">      0.00010000</i>
   <i name="TEEND">      0.00010000</i>
   <i type="int" name="NBLOCK">     1</i>
   <i type="int" name="KBLOCK">   800</i>
   <i type="int" name="NPACO">   256</i>
   <i name="APACO">     10.00000000</i>
  </separator>
  <separator name="symmetry" >
   <i type="int" name="ISYM">     1</i>
   <i name="SYMPREC">      0.00001000</i>
  </separator>
  <separator name="dos" >
   <i type="int" name="LORBIT">     0</i>
   <v name="RWIGS">     -1.00000000     -1.00000000</v>
   <i type="int" name="NEDOS">   301</i>
   <i name="EMIN">     10.00000000</i>
   <i name="EMAX">    -10.00000000</i>
   <i name="EFERMI">      0.00000000</i>
  </separator>
  <separator name="writing" >
   <i type="int" name="NWRITE">     2</i>
   <i type="logical" name="LWAVE"> F  </i>
   <i type="logical" name="LDOWNSAMPLE"> F  </i>
   <i type="logical" name="LCHARG"> F  </i>
   <i type="logical" name="LPARD"> F  </i>
   <i type="logical" name="LVTOT"> F  </i>
   <i type="logical" name="LVHAR"> F  </i>
   <i type="logical" name="LELF"> F  </i>
   <i type="logical" name="LOPTICS"> F  </i>
   <v name="STM">      0.00000000      0.00000000      0.00000000      0.00000000      0.00000000      0.00000000      0.00000000</v>
  </separator>
  <separator name="performance" >
   <i type="int" name="NPAR">     4</i>
   <i type="int" name="NSIM">     4</i>
   <i type="int" name="NBLK">    -1</i>
   <i type="logical" name="LPLANE"> T  </i>
   <i type="logical" name="LSCALAPACK"> T  </i>
   <i type="logical" name="LSCAAWARE"> F  </i>
   <i type="logical" name="LSCALU"> F  </i>
   <i type="logical" name="LASYNC"> F  </i>
   <i type="logical" name="LORBITALREAL"> F  </i>
  </separator>
  <separator name="miscellaneous" >
   <i type="int" name="IDIOT">     3</i>
   <i type="int" name="PHON_NSTRUCT">    -1</i>
   <i type="logical" name="LMUSIC"> F  </i>
   <v name="POMASS">     63.54600000      1.00000000</v>
   <v name="DARWINR">      0.00000000      0.00000000</v>
   <v name="DARWINV">      1.00000000      1.00000000</v>
   <i type="logical" name="LCORR"> T  </i>
  </separator>
  <i type="logical" name="GGA_COMPAT"> T  </i>
  <i type="logical" name="LBERRY"> F  </i>
  <i type="int" name="ICORELEVEL">     0</i>
  <i type="logical" name="LDAU"> F  </i>
  <i type="int" name="I_CONSTRAINED_M">     0</i>
  <separator name="electronic exchange-correlation" >
   <i type="string" name="GGA">PE</i>
   <i type="int" name="VOSKOWN">     0</i>
   <i type="logical" name="LHFCALC"> F  </i>
   <i type="string" name="PRECFOCK"></i>
   <i type="logical" name="LSYMGRAD"> F  </i>
   <i type="logical" name="LHFONE"> F  </i>
   <i type="logical" name="LRHFCALC"> F  </i>
   <i type="logical" name="LTHOMAS"> F  </i>
   <i type="logical" name="LMODELHF"> F  </i>
   <i type="logical" name="LFOCKACE"> F  </i>
   <i name="ENCUT4O">     -1.00000000</i>
   <i type="int" name="EXXOEP">     0</i>
   <i type="int" name="FOURORBIT">     0</i>
   <i name="AEXX">      0.00000000</i>
   <i name="HFALPHA">      0.00000000</i>
   <i name="MCALPHA">      0.00000000</i>
   <i name="ALDAX">      1.00000000</i>
   <i name="AGGAX">      1.00000000</i>
   <i name="ALDAC">      1.00000000</i>
   <i name="AGGAC">      1.00000000</i>
   <i type="int" name="NKREDX">     1</i>
   <i type="int" name="NKREDY">     1</i>
   <i type="int" name="NKREDZ">     1</i>
   <i type="logical" name="SHIFTRED"> F  </i>
   <i type="logical" name="ODDONLY"> F  </i>
   <i type="logical" name="EVENONLY"> F  </i>
   <i type="int" name="LMAXFOCK">     0</i>
   <i type="int" name="NMAXFOCKAE">     0</i>
   <i type="logical" name="LFOCKAEDFT"> F  </i>
   <i name="HFSCREEN">      0.00000000</i>
   <i name="HFSCREENC">      0.00000000</i>
   <i type="int" name="NBANDSGWLOW">     0</i>
  </separator>
  <separator name="vdW DFT" >
   <i type="logical" name="LUSE_VDW"> F  </i>
   <i name="Zab_VDW">     -0.84910000</i>
   <i name="PARAM1">      0.12340000</i>
   <i name="PARAM2">      1.00000000</i>
   <i name="PARAM3">      0.00000000</i>
  </separator>
  <separator name="model GW" >
   <i type="int" name="MODEL_GW">     0</i>
   <i name="MODEL_EPS0">     11.95007673</i>
   <i name="MODEL_ALPHA">      1.00000000</i>
  </separator>
  <separator name="linear response parameters" >
   <i type="logical" name="LEPSILON"> F  </i>
   <i type="logical" name="LRPA"> F  </i>
   <i type="logical" name="LNABLA"> F  </i>
   <i type="logical" name="LVEL"> F  </i>
   <i name="CSHIFT">      0.10000000</i>
   <i name="OMEGAMAX">     -1.00000000</i>
   <i name="DEG_THRESHOLD">      0.00200000</i>
   <i name="RTIME">     -0.10000000</i>
   <i name="WPLASMAI">      0.00000000</i>
   <v name="DFIELD">      0.00000000      0.00000000      0.00000000</v>
   <v name="WPLASMA">      0.00000000      0.00000000      0.00000000      0.00000000      0.00000000      0.00000000      0.00000000      0.00000000      0.00000000</v>
  </separator>
  <separator name="orbital magnetization" >
   <i type="logical" name="NUCIND"> F  </i>
   <v name="MAGPOS">      0.00000000      0.00000000      0.00000000</v>
   <i type="logical" name="LNICSALL"> T  </i>
   <i type="logical" name="ORBITALMAG"> F  </i>
   <i type="logical" name="LMAGBLOCH"> F  </i>
   <i type="logical" name="LCHIMAG"> F  </i>
   <i type="logical" name="LGAUGE"> T  </i>
   <i type="int" name="MAGATOM">     0</i>
   <v name="MAGDIPOL">      0.00000000      0.00000000      0.00000000</v>
   <v name="AVECCONST">      0.00000000      0.00000000      0.00000000</v>
  </separator>
  <separator name="response functions" >
   <i type="logical" name="LFINITE_TEMPERATURE"> F  </i>
   <i type="logical" name="LADDER"> F  </i>
   <i type="logical" name="LRPAFORCE"> F  </i>
   <i type="logical" name="LFXC"> F  </i>
   <i type="logical" name="LHARTREE"> T  </i>
   <i type="int" name="IBSE">     0</i>
   <v type="int" name="KPOINT">    -1     0     0     0</v>
   <i type="logical" name="LTCTC"> F  </i>
   <i type="logical" name="LTCTE"> F  </i>
   <i type="logical" name="LTETE"> F  </i>
   <i type="logical" name="LTRIPLET"> F  </i>
   <i type="logical" name="LFXCEPS"> F  </i>
   <i type="logical" name="LFXHEG"> F  </i>
   <i type="int" name="NATURALO">     2</i>
   <i type="logical" name="LHOLEGF"> F  </i>
   <i type="logical" name="L2ORDER"> F  </i>
   <i type="logical" name="LDMP1"> F  </i>
   <i type="logical" name="LMP2LT"> F  </i>
   <i type="logical" name="LSMP2LT"> F  </i>
   <i type="logical" name="LGWLF"> F  </i>
   <i name="ENCUTGW">     -2.00000000</i>
   <i name="ENCUTGWSOFT">     -2.00000000</i>
   <i name="ENCUTLF">     -1.00000000</i>
   <i type="logical" name="LESF_SPLINES"> F  </i>
   <i type="int" name="LMAXMP2">    -1</i>
   <i name="SCISSOR">      0.00000000</i>
   <i type="int" name="NOMEGA">     0</i>
   <i type="int" name="NOMEGAR">     0</i>
   <i type="int" name="NBANDSGW">    -1</i>
   <i type="int" name="NBANDSO">    -1</i>
   <i type="int" name="NBANDSV">    -1</i>
   <i type="int" name="NELMGW">     1</i>
   <i type="int" name="NELMHF">     1</i>
   <i type="int" name="DIM">     3</i>
   <i type="int" name="IESPILON">     4</i>
   <i type="int" name="ANTIRES">     0</i>
   <i name="OMEGAMAX">    -30.00000000</i>
   <i name="OMEGAMIN">    -30.00000000</i>
   <i name="OMEGATL">   -200.00000000</i>
   <i type="int" name="OMEGAGRID">     0</i>
   <i name="CSHIFT">     -0.10000000</i>
   <i type="logical" name="LSELFENERGY"> F  </i>
   <i type="logical" name="LSPECTRAL"> F  </i>
   <i type="logical" name="LSPECTRALGW"> F  </i>
   <i type="logical" name="LSINGLES"> F  </i>
   <i type="logical" name="LFERMIGW"> F  </i>
   <i type="logical" name="ODDONLYGW"> F  </i>
   <i type="logical" name="EVENONLYGW"> F  </i>
   <i type="int" name="NKREDLFX">     1</i>
   <i type="int" name="NKREDLFY">     1</i>
   <i type="int" name="NKREDLFZ">     1</i>
   <i type="int" name="MAXMEM">  2800</i>
   <i type="int" name="TELESCOPE">     0</i>
   <i type="int" name="NTAUPAR">    -1</i>
   <i type="int" name="NOMEGAPAR">    -1</i>
   <i name="DAMP_NEWTON">      0.80000001</i>
   <i name="LAMBDA">      1.00000000</i>
  </separator>
  <separator name="External order field" >
   <i name="OFIELD_KAPPA">      0.00000000</i>
   <v name="OFIELD_K">      0.00000000      0.00000000      0.00000000</v>
   <i name="OFIELD_Q6_NEAR">      0.00000000</i>
   <i name="OFIELD_Q6_FAR">      0.00000000</i>
   <i name="OFIELD_A">      0.00000000</i>
  </separator>
  <separator name="optional k-points parameters" >
   <i type="int" name="KPOINTS_OPT_MODE">     1</i>
   <i type="logical" name="LKPOINTS_OPT"> F  </i>
  </separator>
 </parameters>
 <atominfo>
  <atoms>      34 </atoms>
  <types>       2 </types>
  <array name="atoms" >
   <dimension dim="1">ion</dimension>
   <field type="string">element</field>
   <field type="int">atomtype</field>
   <set>
    <rc><c>Cu</c><c>   1</c></rc>
    <rc><c>Cu</c><c>   1</c></rc>
    <rc><c>Cu</c><c>   1</c></rc>
    <rc><c>Cu</c><c>   1</c></rc>
    <rc><c>Cu</c><c>   1</c></rc>
    <rc><c>Cu</c><c>   1</c></rc>
    <rc><c>Cu</c><c>   1</c></rc>
    <rc><c>Cu</c><c>   1</c></rc>
    <rc><c>Cu</c><c>   1</c></rc>
    <rc><c>Cu</c><c>   1</c></rc>
    <rc><c>Cu</c><c>   1</c></rc>
    <rc><c>Cu</c><c>   1</c></rc>
    <rc><c>Cu</c><c>   1</c></rc>
    <rc><c>Cu</c><c>   1</c></rc>
    <rc><c>Cu</c><c>   1</c></rc>
    <rc><c>Cu</c><c>   1</c></rc>
    <rc><c>Cu</c><c>   1</c></rc>
    <rc><c>Cu</c><c>   1</c></rc>
    <rc><c>Cu</c><c>   1</c></rc>
    <rc><c>Cu</c><c>   1</c></rc>
    <rc><c>Cu</c><c>   1</c></rc>
    <rc><c>Cu</c><c>   1</c></rc>
    <rc><c>Cu</c><c>   1</c></rc>
    <rc><c>Cu</c><c>   1</c></rc>
    <rc><c>Cu</c><c>   1</c></rc>
    <rc><c>Cu</c><c>   1</c></rc>
    <rc><c>Cu</c><c>   1</c></rc>
    <rc><c>Cu</c><c>   1</c></rc>
    <rc><c>Cu</c><c>   1</c></rc>
    <rc><c>Cu</c><c>   1</c></rc>
    <rc><c>Cu</c><c>   1</c></rc>
    <rc><c>Cu</c><c>   1</c></rc>
    <rc><c>H </c><c>   2</c></rc>
    <rc><c>H </c><c>   2</c></rc>
   </set>
  </array>
  <array name="atomtypes" >
   <dimension dim="1">type</dimension>
   <field type="int">atomspertype</field>
   <field type="string">element</field>
   <field>mass</field>
   <field>valence</field>
   <field type="string">pseudopotential</field>
   <set>
    <rc><c>  32</c><c>Cu</c><c>     63.54600000</c><c>     11.00000000</c><c>  PAW_PBE Cu 22Jun2005                  </c></rc>
    <rc><c>   2</c><c>H </c><c>      1.00000000</c><c>      1.00000000</c><c>  PAW_PBE H 15Jun2001                   </c></rc>
   </set>
  </array>
 </atominfo>
 <structure name="initialpos" >
  <crystal>
   <varray name="basis" >
    <v>       5.13359547       0.00000000       0.00000000 </v>
    <v>       2.56679773       4.44582409       0.00000000 </v>
    <v>       0.00000000       0.00000000      29.67047119 </v>
   </varray>
   <i name="volume">    677.17101477 </i>
   <varray name="rec_basis" >
    <v>       0.19479525      -0.11246509       0.00000000 </v>
    <v>       0.00000000       0.22493018       0.00000000 </v>
    <v>       0.00000000       0.00000000       0.03370354 </v>
   </varray>
  </crystal>
  <varray name="positions" >
   <v>       0.00000000       0.00000000       0.00000000 </v>
   <v>       1.00000000       0.50000000       0.00000000 </v>
   <v>       0.50000000       0.00000000       0.00000000 </v>
   <v>       0.50000000       0.50000000       0.00000000 </v>
   <v>       0.16666667       0.16666667       0.07063526 </v>
   <v>       0.16666667       0.66666667       0.07063526 </v>
   <v>       0.66666667       0.16666667       0.07063526 </v>
   <v>       0.66666667       0.66666667       0.07063526 </v>
   <v>       0.33333333       0.33333333       0.13847021 </v>
   <v>       0.33333333       0.83333333       0.13847021 </v>
   <v>       0.83333333       0.33333333       0.13847021 </v>
   <v>       0.83333333       0.83333333       0.13847021 </v>
   <v>       0.00000000       0.00000000       0.20667428 </v>
   <v>       1.00000000       0.50000000       0.20667428 </v>
   <v>       0.50000000       0.00000000       0.20667428 </v>
   <v>       0.50000000       0.50000000       0.20667428 </v>
   <v>       0.16666667       0.16666667       0.27488859 </v>
   <v>       0.16666667       0.66666667       0.27488859 </v>
   <v>       0.66666667       0.16666667       0.27488859 </v>
   <v>       0.66666667       0.66666667       0.27488859 </v>
   <v>       0.33333333       0.33333333       0.34319917 </v>
   <v>       0.33333333       0.83333333       0.34319917 </v>
   <v>       0.83333333       0.33333333       0.34319917 </v>
   <v>       0.83333333       0.83333333       0.34319917 </v>
   <v>       0.00000000       0.00000000       0.41105828 </v>
   <v>       1.00000000       0.50000000       0.41105828 </v>
   <v>       0.50000000       0.00000000       0.41105828 </v>
   <v>       0.50000000       0.50000000       0.41105828 </v>
   <v>       0.16666667       0.16666667       0.48054462 </v>
   <v>       0.16666667       0.66666667       0.48054462 </v>
   <v>       0.66666667       0.16666667       0.48054462 </v>
   <v>       0.66666667       0.66666667       0.48054462 </v>
   <v>       0.33333333       0.83333333       0.53425930 </v>
   <v>       0.27400781       0.95198437       0.55203798 </v>
  </varray>
 </structure>
 <calculation>
  <scstep>
   <time name="dav">    5.95    6.00</time>
   <time name="total">    6.03    6.08</time>
   <energy>
    <i name="alphaZ">   1114.72537883 </i>
    <i name="ewald"> 216278.00146636 </i>
    <i name="hartreedc">-260309.53504243 </i>
    <i name="XCdc">   1471.93883653 </i>
    <i name="pawpsdc">  39302.70853331 </i>
    <i name="pawaedc"> -42689.07521165 </i>
    <i name="eentropy">     -0.01116904 </i>
    <i name="bandstr">   3743.59946065 </i>
    <i name="atom">  44535.60175172 </i>
    <i name="e_fr_energy">   3447.95400427 </i>
    <i name="e_wo_entrp">   3447.96517331 </i>
    <i name="e_0_energy">   3447.95772728 </i>
   </energy>
  </scstep>
  <scstep>
   <time name="dav">    5.90    5.95</time>
   <time name="total">    5.90    5.95</time>
   <energy>
    <i name="e_fr_energy">    486.40369994 </i>
    <i name="e_wo_entrp">    486.39716717 </i>
    <i name="e_0_energy">    486.40152235 </i>
   </energy>
  </scstep>
  <scstep>
   <time name="dav">    5.90    5.95</time>
   <time name="total">    5.90    5.95</time>
   <energy>
    <i name="e_fr_energy">    -92.73387919 </i>
    <i name="e_wo_entrp">    -92.74346495 </i>
    <i name="e_0_energy">    -92.73707445 </i>
   </energy>
  </scstep>
  <scstep>
   <time name="dav">    6.33    6.39</time>
   <time name="total">    6.34    6.39</time>
   <energy>
    <i name="e_fr_energy">   -138.06344616 </i>
    <i name="e_wo_entrp">   -138.08792977 </i>
    <i name="e_0_energy">   -138.07160737 </i>
   </energy>
  </scstep>
  <scstep>
   <time name="dav">    6.36    6.41</time>
   <time name="total">    6.76    6.82</time>
   <energy>
    <i name="e_fr_energy">   -139.15929954 </i>
    <i name="e_wo_entrp">   -139.18569892 </i>
    <i name="e_0_energy">   -139.16809933 </i>
   </energy>
  </scstep>
  <scstep>
   <time name="dav">    6.42    6.48</time>
   <time name="total">    6.88    6.94</time>
   <energy>
    <i name="e_fr_energy">   -115.17526246 </i>
    <i name="e_wo_entrp">   -115.13202938 </i>
    <i name="e_0_energy">   -115.16085143 </i>
   </energy>
  </scstep>
  <scstep>
   <time name="dav">    6.54    6.60</time>
   <time name="total">    6.99    7.05</time>
   <energy>
    <i name="e_fr_energy">   -102.81179481 </i>
    <i name="e_wo_entrp">   -102.80118467 </i>
    <i name="e_0_energy">   -102.80825810 </i>
   </energy>
  </scstep>
  <scstep>
   <time name="dav">    7.18    7.24</time>
   <time name="total">    7.63    7.69</time>
   <energy>
    <i name="e_fr_energy">   -108.87599257 </i>
    <i name="e_wo_entrp">   -108.91495398 </i>
    <i name="e_0_energy">   -108.88897971 </i>
   </energy>
  </scstep>
  <scstep>
   <time name="dav">    7.76    7.83</time>
   <time name="total">    8.21    8.27</time>
   <energy>
    <i name="e_fr_energy">    -99.21701066 </i>
    <i name="e_wo_entrp">    -99.16721431 </i>
    <i name="e_0_energy">    -99.20041188 </i>
   </energy>
  </scstep>
  <scstep>
   <time name="dav">    7.44    7.50</time>
   <time name="total">    7.88    7.94</time>
   <energy>
    <i name="e_fr_energy">   -100.19852947 </i>
    <i name="e_wo_entrp">   -100.22085894 </i>
    <i name="e_0_energy">   -100.20597263 </i>
   </energy>
  </scstep>
  <scstep>
   <time name="dav">    6.84    6.90</time>
   <time name="total">    7.28    7.34</time>
   <energy>
    <i name="e_fr_energy">   -102.30321866 </i>
    <i name="e_wo_entrp">   -102.37030850 </i>
    <i name="e_0_energy">   -102.32558194 </i>
   </energy>
  </scstep>
  <scstep>
   <time name="dav">    6.79    6.84</time>
   <time name="total">    7.26    7.31</time>
   <energy>
    <i name="e_fr_energy">   -101.47874810 </i>
    <i name="e_wo_entrp">   -101.49018588 </i>
    <i name="e_0_energy">   -101.48256069 </i>
   </energy>
  </scstep>
  <scstep>
   <time name="dav">    8.57    8.65</time>
   <time name="total">    9.03    9.10</time>
   <energy>
    <i name="e_fr_energy">   -102.58799852 </i>
    <i name="e_wo_entrp">   -102.62699528 </i>
    <i name="e_0_energy">   -102.60099744 </i>
   </energy>
  </scstep>
  <scstep>
   <time name="dav">    8.41    8.48</time>
   <time name="total">    8.85    8.92</time>
   <energy>
    <i name="e_fr_energy">   -105.30359981 </i>
    <i name="e_wo_entrp">   -105.30690636 </i>
    <i name="e_0_energy">   -105.30470200 </i>
   </energy>
  </scstep>
  <scstep>
   <time name="dav">    7.28    7.34</time>
   <time name="total">    7.72    7.78</time>
   <energy>
    <i name="e_fr_energy">   -109.32136143 </i>
    <i name="e_wo_entrp">   -109.32718021 </i>
    <i name="e_0_energy">   -109.32330102 </i>
   </energy>
  </scstep>
  <scstep>
   <time name="dav">    6.85    6.91</time>
   <time name="total">    7.30    7.37</time>
   <energy>
    <i name="e_fr_energy">   -112.27424088 </i>
    <i name="e_wo_entrp">   -112.27391309 </i>
    <i name="e_0_energy">   -112.27413161 </i>
   </energy>
  </scstep>
  <scstep>
   <time name="dav">    7.12    7.18</time>
   <time name="total">    7.58    7.64</time>
   <energy>
    <i name="e_fr_energy">   -113.91158665 </i>
    <i name="e_wo_entrp">   -113.89208854 </i>
    <i name="e_0_energy">   -113.90508728 </i>
   </energy>
  </scstep>
  <scstep>
   <time name="dav">    6.61    6.67</time>
   <time name="total">    7.05    7.11</time>
   <energy>
    <i name="e_fr_energy">   -114.82482083 </i>
    <i name="e_wo_entrp">   -114.80543703 </i>
    <i name="e_0_energy">   -114.81835956 </i>
   </energy>
  </scstep>
  <scstep>
   <time name="dav">    6.74    6.79</time>
   <time name="total">    7.19    7.25</time>
   <energy>
    <i name="e_fr_energy">   -115.62657376 </i>
    <i name="e_wo_entrp">   -115.60249845 </i>
    <i name="e_0_energy">   -115.61854866 </i>
   </energy>
  </scstep>
  <scstep>
   <time name="dav">    7.27    7.33</time>
   <time name="total">    7.72    7.79</time>
   <energy>
    <i name="e_fr_energy">   -116.52948523 </i>
    <i name="e_wo_entrp">   -116.50236234 </i>
    <i name="e_0_energy">   -116.52044427 </i>
   </energy>
  </scstep>
  <scstep>
   <time name="dav">    7.59    7.66</time>
   <time name="total">    8.04    8.11</time>
   <energy>
    <i name="e_fr_energy">   -117.39041490 </i>
    <i name="e_wo_entrp">   -117.37234545 </i>
    <i name="e_0_energy">   -117.38439175 </i>
   </energy>
  </scstep>
  <scstep>
   <time name="dav">    7.17    7.23</time>
   <time name="total">    7.61    7.68</time>
   <energy>
    <i name="e_fr_energy">   -117.67808185 </i>
    <i name="e_wo_entrp">   -117.65771702 </i>
    <i name="e_0_energy">   -117.67129357 </i>
   </energy>
  </scstep>
  <scstep>
   <time name="dav">    7.10    7.16</time>
   <time name="total">    7.55    7.61</time>
   <energy>
    <i name="e_fr_energy">   -118.14758907 </i>
    <i name="e_wo_entrp">   -118.13335333 </i>
    <i name="e_0_energy">   -118.14284382 </i>
   </energy>
  </scstep>
  <scstep>
   <time name="dav">    6.90    6.96</time>
   <time name="total">    7.34    7.40</time>
   <energy>
    <i name="e_fr_energy">   -118.72595151 </i>
    <i name="e_wo_entrp">   -118.71145062 </i>
    <i name="e_0_energy">   -118.72111788 </i>
   </energy>
  </scstep>
  <scstep>
   <time name="dav">    7.42    7.48</time>
   <time name="total">    7.86    7.93</time>
   <energy>
    <i name="e_fr_energy">   -119.77931694 </i>
    <i name="e_wo_entrp">   -119.76586213 </i>
    <i name="e_0_energy">   -119.77483200 </i>
   </energy>
  </scstep>
  <scstep>
   <time name="dav">    6.70    6.76</time>
   <time name="total">    7.15    7.21</time>
   <energy>
    <i name="e_fr_energy">   -120.52986191 </i>
    <i name="e_wo_entrp">   -120.51763087 </i>
    <i name="e_0_energy">   -120.52578490 </i>
   </energy>
  </scstep>
  <scstep>
   <time name="dav">    6.44    6.49</time>
   <time name="total">    6.88    6.93</time>
   <energy>
    <i name="e_fr_energy">   -120.72370852 </i>
    <i name="e_wo_entrp">   -120.71083121 </i>
    <i name="e_0_energy">   -120.71941608 </i>
   </energy>
  </scstep>
  <scstep>
   <time name="dav">    6.37    6.42</time>
   <time name="total">    6.82    6.88</time>
   <energy>
    <i name="e_fr_energy">   -120.76740517 </i>
    <i name="e_wo_entrp">   -120.75407639 </i>
    <i name="e_0_energy">   -120.76296225 </i>
   </energy>
  </scstep>
  <scstep>
   <time name="dav">    6.28    6.33</time>
   <time name="total">    6.72    6.78</time>
   <energy>
    <i name="e_fr_energy">   -120.77454911 </i>
    <i name="e_wo_entrp">   -120.76227086 </i>
    <i name="e_0_energy">   -120.77045636 </i>
   </energy>
  </scstep>
  <scstep>
   <time name="dav">    5.65    5.69</time>
   <time name="total">    6.10    6.15</time>
   <energy>
    <i name="e_fr_energy">   -120.78288355 </i>
    <i name="e_wo_entrp">   -120.77046692 </i>
    <i name="e_0_energy">   -120.77874467 </i>
   </energy>
  </scstep>
  <scstep>
   <time name="dav">    4.87    4.90</time>
   <time name="total">    5.31    5.36</time>
   <energy>
    <i name="e_fr_energy">   -120.78510359 </i>
    <i name="e_wo_entrp">   -120.77269467 </i>
    <i name="e_0_energy">   -120.78096728 </i>
   </energy>
  </scstep>
  <scstep>
   <time name="dav">    4.48    4.52</time>
   <time name="total">    4.94    4.97</time>
   <energy>
    <i name="e_fr_energy">   -120.78484936 </i>
    <i name="e_wo_entrp">   -120.77236789 </i>
    <i name="e_0_energy">   -120.78068887 </i>
   </energy>
  </scstep>
  <scstep>
   <time name="dav">    4.52    4.55</time>
   <time name="total">    4.59    4.63</time>
   <energy>
    <i name="alphaZ">   1114.72537883 </i>
    <i name="ewald"> 216278.00146636 </i>
    <i name="hartreedc">-259809.12717356 </i>
    <i name="XCdc">   1433.80733034 </i>
    <i name="pawpsdc">  42127.97861076 </i>
    <i name="pawaedc"> -45579.78792679 </i>
    <i name="eentropy">     -0.01247712 </i>
    <i name="bandstr">   -221.97193187 </i>
    <i name="atom">  44535.60175172 </i>
    <i name="e_fr_energy">   -120.78497131 </i>
    <i name="e_wo_entrp">   -120.77249419 </i>
    <i name="e_0_energy">   -120.78081227 </i>
   </energy>
  </scstep>
  <structure>
   <crystal>
    <varray name="basis" >
     <v>       5.13359547       0.00000000       0.00000000 </v>
     <v>       2.56679773       4.44582409       0.00000000 </v>
     <v>       0.00000000       0.00000000      29.67047119 </v>
    </varray>
    <i name="volume">    677.17101477 </i>
    <varray name="rec_basis" >
     <v>       0.19479525      -0.11246509       0.00000000 </v>
     <v>       0.00000000       0.22493018       0.00000000 </v>
     <v>       0.00000000       0.00000000       0.03370354 </v>
    </varray>
   </crystal>
   <varray name="positions" >
    <v>       0.00000000       0.00000000       0.00000000 </v>
    <v>       1.00000000       0.50000000       0.00000000 </v>
    <v>       0.50000000       0.00000000       0.00000000 </v>
    <v>       0.50000000       0.50000000       0.00000000 </v>
    <v>       0.16666667       0.16666667       0.07063526 </v>
    <v>       0.16666667       0.66666667       0.07063526 </v>
    <v>       0.66666667       0.16666667       0.07063526 </v>
    <v>       0.66666667       0.66666667       0.07063526 </v>
    <v>       0.33333333       0.33333333       0.13847021 </v>
    <v>       0.33333333       0.83333333       0.13847021 </v>
    <v>       0.83333333       0.33333333       0.13847021 </v>
    <v>       0.83333333       0.83333333       0.13847021 </v>
    <v>       0.00000000       0.00000000       0.20667428 </v>
    <v>       1.00000000       0.50000000       0.20667428 </v>
    <v>       0.50000000       0.00000000       0.20667428 </v>
    <v>       0.50000000       0.50000000       0.20667428 </v>
    <v>       0.16666667       0.16666667       0.27488859 </v>
    <v>       0.16666667       0.66666667       0.27488859 </v>
    <v>       0.66666667       0.16666667       0.27488859 </v>
    <v>       0.66666667       0.66666667       0.27488859 </v>
    <v>       0.33333333       0.33333333       0.34319917 </v>
    <v>       0.33333333       0.83333333       0.34319917 </v>
    <v>       0.83333333       0.33333333       0.34319917 </v>
    <v>       0.83333333       0.83333333       0.34319917 </v>
    <v>       0.00000000       0.00000000       0.41105828 </v>
    <v>       1.00000000       0.50000000       0.41105828 </v>
    <v>       0.50000000       0.00000000       0.41105828 </v>
    <v>       0.50000000       0.50000000       0.41105828 </v>
    <v>       0.16666667       0.16666667       0.48054462 </v>
    <v>       0.16666667       0.66666667       0.48054462 </v>
    <v>       0.66666667       0.16666667       0.48054462 </v>
    <v>       0.66666667       0.66666667       0.48054462 </v>
    <v>       0.33333333       0.83333333       0.53425930 </v>
    <v>       0.27400781       0.95198437       0.55203798 </v>
   </varray>
  </structure>
  <varray name="forces" >
   <v>      -0.01329008       0.01095015       0.14955240 </v>
   <v>      -0.00000000      -0.00297519       0.13777608 </v>
   <v>       0.01329008       0.01095015       0.14955240 </v>
   <v>      -0.00000000      -0.02058564       0.14545403 </v>
   <v>      -0.00000000       0.00509665      -0.12484637 </v>
   <v>      -0.00539859      -0.00070238      -0.13930749 </v>
   <v>      -0.00000000      -0.00228753      -0.13437687 </v>
   <v>       0.00539859      -0.00070238      -0.13930749 </v>
   <v>       0.00622966       0.00777403      -0.00980250 </v>
   <v>      -0.00000000      -0.01185012      -0.02843626 </v>
   <v>      -0.00622966       0.00777403      -0.00980250 </v>
   <v>      -0.00000000      -0.00139444      -0.00534201 </v>
   <v>      -0.01228292       0.00635459       0.01808866 </v>
   <v>      -0.00000000       0.00326715      -0.02917777 </v>
   <v>       0.01228292       0.00635459       0.01808866 </v>
   <v>      -0.00000000      -0.01677084       0.02049784 </v>
   <v>      -0.00000000       0.04269079       0.03159260 </v>
   <v>      -0.03372740      -0.02405747       0.00958975 </v>
   <v>      -0.00000000       0.00463813      -0.02528863 </v>
   <v>       0.03372740      -0.02405747       0.00958975 </v>
   <v>       0.00945047       0.01588857       0.03188960 </v>
   <v>      -0.00000000      -0.03014567      -0.04680881 </v>
   <v>      -0.00945047       0.01588857       0.03188960 </v>
   <v>      -0.00000000      -0.00725482       0.04472128 </v>
   <v>       0.03416502      -0.01422841       0.04503407 </v>
   <v>      -0.00000000      -0.00748215       0.09875269 </v>
   <v>      -0.03416502      -0.01422841       0.04503407 </v>
   <v>       0.00000000       0.02994278       0.06534706 </v>
   <v>       0.00000000       0.19871237      -0.15738928 </v>
   <v>      -0.21882485      -0.19197494      -0.30908711 </v>
   <v>      -0.00000000       0.07613809      -0.14739350 </v>
   <v>       0.21882485      -0.19197494      -0.30908711 </v>
   <v>      -0.00000000      -0.71205503      -0.46443369 </v>
   <v>      -0.00000000       0.83230723       1.02743690 </v>
  </varray>
  <varray name="stress" >
   <v>     -32.00211041       0.00000000       0.00000000 </v>
   <v>       0.00000000     -31.81154701       1.52567611 </v>
   <v>       0.00000000       1.52568182      -7.41818688 </v>
  </varray>
  <energy>
   <i name="e_fr_energy">   -134.79981560 </i>
   <i name="e_wo_entrp">   -134.78733848 </i>
   <i name="e_0_energy">   -134.79565656 </i>
  </energy>
  <time name="totalsc">  243.93  245.92</time>
 </calculation>
 <calculation>
  <scstep>
   <time name="dav">    6.08    6.13</time>
   <time name="total">    6.53    6.59</time>
   <energy>
    <i name="alphaZ">   1114.72537883 </i>
    <i name="ewald"> 216517.22331631 </i>
    <i name="hartreedc">-260048.66804888 </i>
    <i name="XCdc">   1433.79797548 </i>
    <i name="pawpsdc">  42128.20970101 </i>
    <i name="pawaedc"> -45580.07069582 </i>
    <i name="eentropy">     -0.01431847 </i>
    <i name="bandstr">   -221.56365038 </i>
    <i name="atom">  44535.60175172 </i>
    <i name="e_fr_energy">   -120.75859020 </i>
    <i name="e_wo_entrp">   -120.74427173 </i>
    <i name="e_0_energy">   -120.75381738 </i>
   </energy>
  </scstep>
  <scstep>
   <time name="dav">    7.74    7.81</time>
   <time name="total">    8.20    8.27</time>
   <energy>
    <i name="e_fr_energy">   -120.78001009 </i>
    <i name="e_wo_entrp">   -120.76563678 </i>
    <i name="e_0_energy">   -120.77521899 </i>
   </energy>
  </scstep>
  <scstep>
   <time name="dav">    6.93    6.99</time>
   <time name="total">    7.39    7.45</time>
   <energy>
    <i name="e_fr_energy">   -120.80954839 </i>
    <i name="e_wo_entrp">   -120.79528940 </i>
    <i name="e_0_energy">   -120.80479539 </i>
   </energy>
  </scstep>
  <scstep>
   <time name="dav">    6.93    6.99</time>
   <time name="total">    7.39    7.45</time>
   <energy>
    <i name="e_fr_energy">   -120.78449461 </i>
    <i name="e_wo_entrp">   -120.77075814 </i>
    <i name="e_0_energy">   -120.77991579 </i>
   </energy>
  </scstep>
  <scstep>
   <time name="dav">    8.74    8.81</time>
   <time name="total">    9.19    9.27</time>
   <energy>
    <i name="e_fr_energy">   -120.78214351 </i>
    <i name="e_wo_entrp">   -120.76768568 </i>
    <i name="e_0_energy">   -120.77732423 </i>
   </energy>
  </scstep>
  <scstep>
   <time name="dav">    8.12    8.19</time>
   <time name="total">    8.57    8.65</time>
   <energy>
    <i name="e_fr_energy">   -120.77804943 </i>
    <i name="e_wo_entrp">   -120.76478157 </i>
    <i name="e_0_energy">   -120.77362681 </i>
   </energy>
  </scstep>
  <scstep>
   <time name="dav">    8.86    8.94</time>
   <time name="total">    9.30    9.39</time>
   <energy>
    <i name="e_fr_energy">   -120.77629057 </i>
    <i name="e_wo_entrp">   -120.76212362 </i>
    <i name="e_0_energy">   -120.77156826 </i>
   </energy>
  </scstep>
  <scstep>
   <time name="dav">    6.59    6.64</time>
   <time name="total">    7.04    7.11</time>
   <energy>
    <i name="e_fr_energy">   -120.77628221 </i>
    <i name="e_wo_entrp">   -120.76230965 </i>
    <i name="e_0_energy">   -120.77162469 </i>
   </energy>
  </scstep>
  <scstep>
   <time name="dav">    5.77    5.81</time>
   <time name="total">    5.85    5.91</time>
   <energy>
    <i name="alphaZ">   1114.72537883 </i>
    <i name="ewald"> 216517.22331631 </i>
    <i name="hartreedc">-260043.11393010 </i>
    <i name="XCdc">   1433.64463959 </i>
    <i name="pawpsdc">  42132.04453758 </i>
    <i name="pawaedc"> -45584.06953365 </i>
    <i name="eentropy">     -0.01406157 </i>
    <i name="bandstr">   -226.81852762 </i>
    <i name="atom">  44535.60175172 </i>
    <i name="e_fr_energy">   -120.77642890 </i>
    <i name="e_wo_entrp">   -120.76236733 </i>
    <i name="e_0_energy">   -120.77174171 </i>
   </energy>
  </scstep>
  <structure>
   <crystal>
    <varray name="basis" >
     <v>       5.13359547       0.00000000       0.00000000 </v>
     <v>       2.56679773       4.44582409       0.00000000 </v>
     <v>       0.00000000       0.00000000      29.67047119 </v>
    </varray>
    <i name="volume">    677.17101477 </i>
    <varray name="rec_basis" >
     <v>       0.19479525      -0.11246509       0.00000000 </v>
     <v>       0.00000000       0.22493018       0.00000000 </v>
     <v>       0.00000000       0.00000000       0.03370354 </v>
    </varray>
   </crystal>
   <varray name="positions" >
    <v>      -0.00018430       0.00011882       0.00024316 </v>
    <v>       0.00001614       0.49996772       0.00022402 </v>
    <v>       0.50006548       0.00011882       0.00024316 </v>
    <v>       0.50011169       0.49977662       0.00023650 </v>
    <v>       0.16663901       0.16672197       0.07043227 </v>
    <v>       0.16661974       0.66665904       0.07040876 </v>
    <v>       0.66667908       0.16664184       0.07041677 </v>
    <v>       0.66672121       0.66665904       0.07040876 </v>
    <v>       0.33334970       0.33341769       0.13845427 </v>
    <v>       0.33339763       0.83320474       0.13842398 </v>
    <v>       0.83323261       0.33341769       0.13845427 </v>
    <v>       0.83334090       0.83331820       0.13846153 </v>
    <v>      -0.00014991       0.00006896       0.20670369 </v>
    <v>       0.99998227       0.50003545       0.20662684 </v>
    <v>       0.50008095       0.00006896       0.20670369 </v>
    <v>       0.50009099       0.49981802       0.20670761 </v>
    <v>       0.16643504       0.16712991       0.27493996 </v>
    <v>       0.16648024       0.66640561       0.27490418 </v>
    <v>       0.66664150       0.16671700       0.27484747 </v>
    <v>       0.66711414       0.66640561       0.27490418 </v>
    <v>       0.33333594       0.33350574       0.34325102 </v>
    <v>       0.33349689       0.83300622       0.34312306 </v>
    <v>       0.83315832       0.33350574       0.34325102 </v>
    <v>       0.83337270       0.83325461       0.34327189 </v>
    <v>       0.00039826      -0.00015440       0.41113150 </v>
    <v>       0.00004060       0.49991881       0.41121885 </v>
    <v>       0.49975613      -0.00015440       0.41113150 </v>
    <v>       0.49983754       0.50032492       0.41116453 </v>
    <v>       0.16558853       0.16882294       0.48028871 </v>
    <v>       0.16565186       0.66458350       0.48004206 </v>
    <v>       0.66625357       0.16749286       0.48030496 </v>
    <v>       0.66976464       0.66458350       0.48004206 </v>
    <v>       0.33719667       0.82560666       0.53350416 </v>
    <v>       0.26949203       0.96101593       0.55370854 </v>
   </varray>
  </structure>
  <varray name="forces" >
   <v>      -0.00604939       0.00664974       0.09643642 </v>
   <v>       0.00000000      -0.00242981       0.08503141 </v>
   <v>       0.00604939       0.00664974       0.09643642 </v>
   <v>       0.00000000      -0.01203132       0.09142812 </v>
   <v>       0.00000000       0.00253409      -0.05029655 </v>
   <v>      -0.00256171       0.00045941      -0.06449602 </v>
   <v>       0.00000000      -0.00145573      -0.05501652 </v>
   <v>       0.00256171       0.00045941      -0.06449602 </v>
   <v>       0.00427995       0.00347546      -0.03261490 </v>
   <v>       0.00000000      -0.00689969      -0.03644176 </v>
   <v>      -0.00427995       0.00347546      -0.03261490 </v>
   <v>       0.00000000       0.00161365      -0.03053764 </v>
   <v>       0.00172870       0.00096841       0.00916743 </v>
   <v>       0.00000000       0.00025868      -0.01925833 </v>
   <v>      -0.00172870       0.00096841       0.00916743 </v>
   <v>       0.00000000      -0.00356305       0.01048301 </v>
   <v>       0.00000000       0.02082515       0.01941919 </v>
   <v>      -0.01798117      -0.01109280      -0.00090957 </v>
   <v>       0.00000000       0.00160796      -0.00029317 </v>
   <v>       0.01798117      -0.01109280      -0.00090957 </v>
   <v>       0.00460196       0.00931964       0.03572322 </v>
   <v>      -0.00000000      -0.02085667      -0.01602415 </v>
   <v>      -0.00460196       0.00931964       0.03572322 </v>
   <v>       0.00000000      -0.00317483       0.04295452 </v>
   <v>       0.02142378      -0.00594536       0.00093707 </v>
   <v>       0.00000000      -0.01307708      -0.00451114 </v>
   <v>      -0.02142378      -0.00594536       0.00093707 </v>
   <v>       0.00000000       0.01243260       0.00029364 </v>
   <v>       0.00000000       0.02276074      -0.02887912 </v>
   <v>      -0.07155295      -0.08442571      -0.17213331 </v>
   <v>       0.00000000       0.04569903      -0.11301855 </v>
   <v>       0.07155295      -0.08442571      -0.17213331 </v>
   <v>       0.00000000       0.61872243       0.74924001 </v>
   <v>      -0.00000000      -0.50178371      -0.38879367 </v>
  </varray>
  <varray name="stress" >
   <v>     -31.10116298       0.00000000       0.00000000 </v>
   <v>       0.00000000     -32.66214353      -0.20003720 </v>
   <v>       0.00000000      -0.20003156      -8.58886206 </v>
  </varray>
  <energy>
   <i name="e_fr_energy">   -134.81919825 </i>
   <i name="e_wo_entrp">   -134.80513668 </i>
   <i name="e_0_energy">   -134.81451106 </i>
  </energy>
  <time name="totalsc">   81.06   81.83</time>
 </calculation>
 <calculation>
  <scstep>
   <time name="dav">    6.02    6.08</time>
   <time name="total">    6.48    6.54</time>
   <energy>
    <i name="alphaZ">   1114.72537883 </i>
    <i name="ewald"> 216405.53764478 </i>
    <i name="hartreedc">-259930.92837820 </i>
    <i name="XCdc">   1433.64670874 </i>
    <i name="pawpsdc">  42132.22640846 </i>
    <i name="pawaedc"> -45584.25845946 </i>
    <i name="eentropy">     -0.01299512 </i>
    <i name="bandstr">   -227.34735031 </i>
    <i name="atom">  44535.60175172 </i>
    <i name="e_fr_energy">   -120.80929056 </i>
    <i name="e_wo_entrp">   -120.79629544 </i>
    <i name="e_0_energy">   -120.80495885 </i>
   </energy>
  </scstep>
  <scstep>
   <time name="dav">    7.55    7.62</time>
   <time name="total">    8.00    8.06</time>
   <energy>
    <i name="e_fr_energy">   -120.81451368 </i>
    <i name="e_wo_entrp">   -120.80099601 </i>
    <i name="e_0_energy">   -120.81000779 </i>
   </energy>
  </scstep>
  <scstep>
   <time name="dav">    7.05    7.11</time>
   <time name="total">    7.51    7.57</time>
   <energy>
    <i name="e_fr_energy">   -120.81635076 </i>
    <i name="e_wo_entrp">   -120.80285947 </i>
    <i name="e_0_energy">   -120.81185366 </i>
   </energy>
  </scstep>
  <scstep>
   <time name="dav">    6.61    6.66</time>
   <time name="total">    7.06    7.12</time>
   <energy>
    <i name="e_fr_energy">   -120.81709249 </i>
    <i name="e_wo_entrp">   -120.80423478 </i>
    <i name="e_0_energy">   -120.81280658 </i>
   </energy>
  </scstep>
  <scstep>
   <time name="dav">    5.65    5.70</time>
   <time name="total">    6.10    6.15</time>
   <energy>
    <i name="e_fr_energy">   -120.81642868 </i>
    <i name="e_wo_entrp">   -120.80407470 </i>
    <i name="e_0_energy">   -120.81231069 </i>
   </energy>
  </scstep>
  <scstep>
   <time name="dav">    5.14    5.19</time>
   <time name="total">    5.60    5.64</time>
   <energy>
    <i name="e_fr_energy">   -120.81418648 </i>
    <i name="e_wo_entrp">   -120.80070250 </i>
    <i name="e_0_energy">   -120.80969182 </i>
   </energy>
  </scstep>
  <scstep>
   <time name="dav">    5.73    5.78</time>
   <time name="total">    6.18    6.23</time>
   <energy>
    <i name="e_fr_energy">   -120.81398372 </i>
    <i name="e_wo_entrp">   -120.80057009 </i>
    <i name="e_0_energy">   -120.80951251 </i>
   </energy>
  </scstep>
  <scstep>
   <time name="dav">    4.99    5.03</time>
   <time name="total">    5.07    5.11</time>
   <energy>
    <i name="alphaZ">   1114.72537883 </i>
    <i name="ewald"> 216405.53764478 </i>
    <i name="hartreedc">-259931.37645634 </i>
    <i name="XCdc">   1433.70938410 </i>
    <i name="pawpsdc">  42130.53336858 </i>
    <i name="pawaedc"> -45582.51370478 </i>
    <i name="eentropy">     -0.01310108 </i>
    <i name="bandstr">   -227.01830376 </i>
    <i name="atom">  44535.60175172 </i>
    <i name="e_fr_energy">   -120.81403794 </i>
    <i name="e_wo_entrp">   -120.80093686 </i>
    <i name="e_0_energy">   -120.80967091 </i>
   </energy>
  </scstep>
  <structure>
   <crystal>
    <varray name="basis" >
     <v>       5.13359547       0.00000000       0.00000000 </v>
     <v>       2.56679773       4.44582409       0.00000000 </v>
     <v>       0.00000000       0.00000000      29.67047119 </v>
    </varray>
    <i name="volume">    677.17101477 </i>
    <varray name="rec_basis" >
     <v>       0.19479525      -0.11246509       0.00000000 </v>
     <v>       0.00000000       0.22493018       0.00000000 </v>
     <v>       0.00000000       0.00000000       0.03370354 </v>
    </varray>
   </crystal>
   <varray name="positions" >
    <v>      -0.00009848       0.00006349       0.00012993 </v>
    <v>       0.00000863       0.49998275       0.00011970 </v>
    <v>       0.50003499       0.00006349       0.00012993 </v>
    <v>       0.50005968       0.49988064       0.00012637 </v>
    <v>       0.16665189       0.16669622       0.07052679 </v>
    <v>       0.16664159       0.66666259       0.07051423 </v>
    <v>       0.66667330       0.16665340       0.07051851 </v>
    <v>       0.66669581       0.66666259       0.07051423 </v>
    <v>       0.33334208       0.33337841       0.13846170 </v>
    <v>       0.33336769       0.83326462       0.13844551 </v>
    <v>       0.83327951       0.33337841       0.13846170 </v>
    <v>       0.83333738       0.83332525       0.13846557 </v>
    <v>      -0.00008010       0.00003685       0.20668999 </v>
    <v>       0.99999053       0.50001894       0.20664893 </v>
    <v>       0.50004326       0.00003685       0.20668999 </v>
    <v>       0.50004862       0.49990276       0.20669209 </v>
    <v>       0.16654290       0.16691420       0.27491604 </v>
    <v>       0.16656705       0.66652717       0.27489692 </v>
    <v>       0.66665322       0.16669356       0.27486662 </v>
    <v>       0.66690578       0.66652717       0.27489692 </v>
    <v>       0.33333473       0.33342546       0.34322688 </v>
    <v>       0.33342073       0.83315854       0.34315850 </v>
    <v>       0.83323981       0.33342546       0.34322688 </v>
    <v>       0.83335437       0.83329127       0.34323803 </v>
    <v>       0.00021281      -0.00008250       0.41109741 </v>
    <v>       0.00002169       0.49995662       0.41114408 </v>
    <v>       0.49986969      -0.00008250       0.41109741 </v>
    <v>       0.49991319       0.50017362       0.41111505 </v>
    <v>       0.16609057       0.16781887       0.48040787 </v>
    <v>       0.16612440       0.66555353       0.48027608 </v>
    <v>       0.66644593       0.16710814       0.48041656 </v>
    <v>       0.66832206       0.66555353       0.48027608 </v>
    <v>       0.33539770       0.82920460       0.53385579 </v>
    <v>       0.27159482       0.95681037       0.55293064 </v>
   </varray>
  </structure>
  <varray name="forces" >
   <v>      -0.01081861       0.00974386       0.13128289 </v>
   <v>      -0.00000000      -0.00280003       0.11878675 </v>
   <v>       0.01081861       0.00974386       0.13128289 </v>
   <v>       0.00000000      -0.01776046       0.12642733 </v>
   <v>      -0.00000000       0.00420589      -0.09819480 </v>
   <v>      -0.00433025      -0.00005490      -0.11339180 </v>
   <v>      -0.00000000      -0.00192184      -0.10592201 </v>
   <v>       0.00433025      -0.00005490      -0.11339180 </v>
   <v>       0.00583071       0.00620569      -0.02248981 </v>
   <v>      -0.00000000      -0.01010938      -0.03520686 </v>
   <v>      -0.00583071       0.00620569      -0.02248981 </v>
   <v>      -0.00000000       0.00024622      -0.01875957 </v>
   <v>      -0.00631991       0.00432917       0.01794759 </v>
   <v>      -0.00000000       0.00208430      -0.02356003 </v>
   <v>       0.00631991       0.00432917       0.01794759 </v>
   <v>      -0.00000000      -0.01165098       0.02011573 </v>
   <v>      -0.00000000       0.03502742       0.02819743 </v>
   <v>      -0.02845037      -0.01933251       0.00486422 </v>
   <v>      -0.00000000       0.00349185      -0.01482982 </v>
   <v>       0.02845037      -0.01933251       0.00486422 </v>
   <v>       0.00793814       0.01361799       0.03820779 </v>
   <v>       0.00000000      -0.02750169      -0.03174640 </v>
   <v>      -0.00793814       0.01361799       0.03820779 </v>
   <v>      -0.00000000      -0.00525870       0.04919946 </v>
   <v>       0.02974763      -0.01037375       0.02688619 </v>
   <v>      -0.00000000      -0.01083455       0.05490299 </v>
   <v>      -0.02974763      -0.01037375       0.02688619 </v>
   <v>      -0.00000000       0.02230622       0.03854140 </v>
   <v>      -0.00000000       0.11234487      -0.09060349 </v>
   <v>      -0.15004765      -0.14245844      -0.24710833 </v>
   <v>      -0.00000000       0.06432319      -0.13794794 </v>
   <v>       0.15004765      -0.14245844      -0.24710833 </v>
   <v>      -0.00000000       0.25763018       0.43662412 </v>
   <v>      -0.00000000      -0.13717672       0.01157821 </v>
  </varray>
  <varray name="stress" >
   <v>     -31.29564926       0.00000000       0.00000000 </v>
   <v>       0.00000000     -32.33081874       0.32088513 </v>
   <v>       0.00000000       0.32089082      -8.05408293 </v>
  </varray>
  <energy>
   <i name="e_fr_energy">   -134.83621700 </i>
   <i name="e_wo_entrp">   -134.82311592 </i>
   <i name="e_0_energy">   -134.83184997 </i>
  </energy>
  <time name="totalsc">   63.54   64.11</time>
 </calculation>
 <calculation>
  <scstep>
   <time name="dav">    6.28    6.33</time>
   <time name="total">    6.74    6.80</time>
   <energy>
    <i name="alphaZ">   1114.72537883 </i>
    <i name="ewald"> 216632.16885065 </i>
    <i name="hartreedc">-260157.54270730 </i>
    <i name="XCdc">   1433.78613711 </i>
    <i name="pawpsdc">  42130.54401672 </i>
    <i name="pawaedc"> -45582.52239650 </i>
    <i name="eentropy">     -0.01504992 </i>
    <i name="bandstr">   -227.56535640 </i>
    <i name="atom">  44535.60175172 </i>
    <i name="e_fr_energy">   -120.81937509 </i>
    <i name="e_wo_entrp">   -120.80432517 </i>
    <i name="e_0_energy">   -120.81435845 </i>
   </energy>
  </scstep>
  <scstep>
   <time name="dav">    7.81    7.87</time>
   <time name="total">    8.26    8.33</time>
   <energy>
    <i name="e_fr_energy">   -120.83329976 </i>
    <i name="e_wo_entrp">   -120.81793473 </i>
    <i name="e_0_energy">   -120.82817809 </i>
   </energy>
  </scstep>
  <scstep>
   <time name="dav">    6.37    6.42</time>
   <time name="total">    6.81    6.86</time>
   <energy>
    <i name="e_fr_energy">   -120.83322551 </i>
    <i name="e_wo_entrp">   -120.81862453 </i>
    <i name="e_0_energy">   -120.82835852 </i>
   </energy>
  </scstep>
  <scstep>
   <time name="dav">    6.39    6.45</time>
   <time name="total">    6.84    6.90</time>
   <energy>
    <i name="e_fr_energy">   -120.83301980 </i>
    <i name="e_wo_entrp">   -120.81824695 </i>
    <i name="e_0_energy">   -120.82809552 </i>
   </energy>
  </scstep>
  <scstep>
   <time name="dav">    6.13    6.18</time>
   <time name="total">    6.57    6.62</time>
   <energy>
    <i name="e_fr_energy">   -120.83267454 </i>
    <i name="e_wo_entrp">   -120.81769356 </i>
    <i name="e_0_energy">   -120.82768088 </i>
   </energy>
  </scstep>
  <scstep>
   <time name="dav">    5.47    5.52</time>
   <time name="total">    5.92    5.97</time>
   <energy>
    <i name="e_fr_energy">   -120.83231532 </i>
    <i name="e_wo_entrp">   -120.81765663 </i>
    <i name="e_0_energy">   -120.82742909 </i>
   </energy>
  </scstep>
  <scstep>
   <time name="dav">    6.47    6.52</time>
   <time name="total">    6.54    6.60</time>
   <energy>
    <i name="alphaZ">   1114.72537883 </i>
    <i name="ewald"> 216632.16885065 </i>
    <i name="hartreedc">-260155.84852769 </i>
    <i name="XCdc">   1433.77440355 </i>
    <i name="pawpsdc">  42139.67240180 </i>
    <i name="pawaedc"> -45591.85053404 </i>
    <i name="eentropy">     -0.01475875 </i>
    <i name="bandstr">   -229.06126887 </i>
    <i name="atom">  44535.60175172 </i>
    <i name="e_fr_energy">   -120.83230280 </i>
    <i name="e_wo_entrp">   -120.81754405 </i>
    <i name="e_0_energy">   -120.82738322 </i>
   </energy>
  </scstep>
  <structure>
   <crystal>
    <varray name="basis" >
     <v>       5.13359547       0.00000000       0.00000000 </v>
     <v>       2.56679773       4.44582409       0.00000000 </v>
     <v>       0.00000000       0.00000000      29.67047119 </v>
    </varray>
    <i name="volume">    677.17101477 </i>
    <varray name="rec_basis" >
     <v>       0.19479525      -0.11246509       0.00000000 </v>
     <v>       0.00000000       0.22493018       0.00000000 </v>
     <v>       0.00000000       0.00000000       0.03370354 </v>
    </varray>
   </crystal>
   <varray name="positions" >
    <v>      -0.00027368       0.00018198       0.00036977 </v>
    <v>       0.00002547       0.49994905       0.00033747 </v>
    <v>       0.50009170       0.00018198       0.00036977 </v>
    <v>       0.50016831       0.49966337       0.00035778 </v>
    <v>       0.16662594       0.16674813       0.07034339 </v>
    <v>       0.16659603       0.66666060       0.07030394 </v>
    <v>       0.66668512       0.16662977       0.07032077 </v>
    <v>       0.66674336       0.66666060       0.07030394 </v>
    <v>       0.33336435       0.33345552       0.13842550 </v>
    <v>       0.33342966       0.83314068       0.13838480 </v>
    <v>       0.83318013       0.33345552       0.13842550 </v>
    <v>       0.83333760       0.83332479       0.13843626 </v>
    <v>      -0.00018378       0.00009257       0.20672205 </v>
    <v>       0.99997690       0.50004620       0.20660516 </v>
    <v>       0.50009121       0.00009257       0.20672205 </v>
    <v>       0.50012326       0.49975349       0.20672809 </v>
    <v>       0.16632649       0.16734702       0.27496739 </v>
    <v>       0.16638425       0.66628727       0.27490706 </v>
    <v>       0.66663125       0.16673750       0.27483693 </v>
    <v>       0.66732848       0.66628727       0.27490706 </v>
    <v>       0.33333587       0.33359227       0.34329308 </v>
    <v>       0.33358716       0.83282568       0.34309721 </v>
    <v>       0.83307187       0.33359227       0.34329308 </v>
    <v>       0.83338773       0.83322454       0.34332440 </v>
    <v>       0.00059313      -0.00021396       0.41115098 </v>
    <v>       0.00008272       0.49983455       0.41125558 </v>
    <v>       0.49962083      -0.00021396       0.41115098 </v>
    <v>       0.49977253       0.50045493       0.41119210 </v>
    <v>       0.16533270       0.16933460       0.48022560 </v>
    <v>       0.16535356       0.66375537       0.47981611 </v>
    <v>       0.66605086       0.16789829       0.48016756 </v>
    <v>       0.67089107       0.66375537       0.47981611 </v>
    <v>       0.33486499       0.83027002       0.53435596 </v>
    <v>       0.27141074       0.95717851       0.55326550 </v>
   </varray>
  </structure>
  <varray name="forces" >
   <v>      -0.00248204       0.00352781       0.07098978 </v>
   <v>       0.00000000      -0.00209756       0.06262807 </v>
   <v>       0.00248204       0.00352781       0.07098978 </v>
   <v>       0.00000000      -0.00703365       0.06779725 </v>
   <v>       0.00000000       0.00119266      -0.01804868 </v>
   <v>      -0.00111137       0.00030650      -0.02850481 </v>
   <v>       0.00000000      -0.00080733      -0.01889350 </v>
   <v>       0.00111137       0.00030650      -0.02850481 </v>
   <v>       0.00266222       0.00032233      -0.03770020 </v>
   <v>       0.00000000      -0.00277097      -0.03760693 </v>
   <v>      -0.00266222       0.00032233      -0.03770020 </v>
   <v>       0.00000000       0.00296104      -0.03792945 </v>
   <v>       0.00582875      -0.00071038       0.00220476 </v>
   <v>       0.00000000      -0.00130132      -0.01848220 </v>
   <v>      -0.00582875      -0.00071038       0.00220476 </v>
   <v>       0.00000000       0.00099677       0.00154898 </v>
   <v>       0.00000000       0.00878354       0.01469927 </v>
   <v>      -0.00968875      -0.00461590       0.00195780 </v>
   <v>       0.00000000      -0.00121951       0.01192683 </v>
   <v>       0.00968875      -0.00461590       0.00195780 </v>
   <v>       0.00161364       0.00109470       0.02681295 </v>
   <v>      -0.00000000      -0.00918735      -0.01264106 </v>
   <v>      -0.00161364       0.00109470       0.02681295 </v>
   <v>       0.00000000       0.00103348       0.02923308 </v>
   <v>       0.01620016      -0.00361752      -0.01758256 </v>
   <v>       0.00000000      -0.01629836      -0.05799568 </v>
   <v>      -0.01620016      -0.00361752      -0.01758256 </v>
   <v>      -0.00000000       0.00835554      -0.02989541 </v>
   <v>       0.00000000      -0.01170914      -0.04772229 </v>
   <v>      -0.03936135      -0.04738040      -0.14465614 </v>
   <v>       0.00000000       0.01881031      -0.08917068 </v>
   <v>       0.03936135      -0.04738040      -0.14465614 </v>
   <v>       0.00000000       0.22550615       0.39405305 </v>
   <v>       0.00000000      -0.11306856       0.03945615 </v>
  </varray>
  <varray name="stress" >
   <v>     -29.72715372       0.00000000       0.00000000 </v>
   <v>       0.00000000     -30.70909422       0.34587778 </v>
   <v>       0.00000000       0.34588343      -5.83569839 </v>
  </varray>
  <energy>
   <i name="e_fr_energy">   -134.85921629 </i>
   <i name="e_wo_entrp">   -134.84445754 </i>
   <i name="e_0_energy">   -134.85429671 </i>
  </energy>
  <time name="totalsc">   59.23   59.75</time>
 </calculation>
 <calculation>
  <scstep>
   <time name="dav">    6.26    6.32</time>
   <time name="total">    6.72    6.78</time>
   <energy>
    <i name="alphaZ">   1114.72537883 </i>
    <i name="ewald"> 216913.37114688 </i>
    <i name="hartreedc">-260436.63219986 </i>
    <i name="XCdc">   1433.87796193 </i>
    <i name="pawpsdc">  42140.42089745 </i>
    <i name="pawaedc"> -45592.63564133 </i>
    <i name="eentropy">     -0.01711549 </i>
    <i name="bandstr">   -229.53148045 </i>
    <i name="atom">  44535.60175172 </i>
    <i name="e_fr_energy">   -120.81930032 </i>
    <i name="e_wo_entrp">   -120.80218483 </i>
    <i name="e_0_energy">   -120.81359515 </i>
   </energy>
  </scstep>
  <scstep>
   <time name="dav">    7.86    7.92</time>
   <time name="total">    8.30    8.37</time>
   <energy>
    <i name="e_fr_energy">   -120.84157517 </i>
    <i name="e_wo_entrp">   -120.82557966 </i>
    <i name="e_0_energy">   -120.83624334 </i>
   </energy>
  </scstep>
  <scstep>
   <time name="dav">    6.43    6.48</time>
   <time name="total">    6.89    6.94</time>
   <energy>
    <i name="e_fr_energy">   -120.84654470 </i>
    <i name="e_wo_entrp">   -120.82918060 </i>
    <i name="e_0_energy">   -120.84075667 </i>
   </energy>
  </scstep>
  <scstep>
   <time name="dav">    6.55    6.60</time>
   <time name="total">    6.99    7.05</time>
   <energy>
    <i name="e_fr_energy">   -120.84004591 </i>
    <i name="e_wo_entrp">   -120.82377944 </i>
    <i name="e_0_energy">   -120.83462375 </i>
   </energy>
  </scstep>
  <scstep>
   <time name="dav">    7.56    7.62</time>
   <time name="total">    8.01    8.07</time>
   <energy>
    <i name="e_fr_energy">   -120.84025677 </i>
    <i name="e_wo_entrp">   -120.82353883 </i>
    <i name="e_0_energy">   -120.83468413 </i>
   </energy>
  </scstep>
  <scstep>
   <time name="dav">    6.48    6.54</time>
   <time name="total">    6.94    7.00</time>
   <energy>
    <i name="e_fr_energy">   -120.84002387 </i>
    <i name="e_wo_entrp">   -120.82385285 </i>
    <i name="e_0_energy">   -120.83463353 </i>
   </energy>
  </scstep>
  <scstep>
   <time name="dav">    6.22    6.27</time>
   <time name="total">    6.66    6.72</time>
   <energy>
    <i name="e_fr_energy">   -120.83983150 </i>
    <i name="e_wo_entrp">   -120.82330407 </i>
    <i name="e_0_energy">   -120.83432236 </i>
   </energy>
  </scstep>
  <scstep>
   <time name="dav">    6.16    6.21</time>
   <time name="total">    6.24    6.29</time>
   <energy>
    <i name="alphaZ">   1114.72537883 </i>
    <i name="ewald"> 216913.37114688 </i>
    <i name="hartreedc">-260436.08438279 </i>
    <i name="XCdc">   1433.85862076 </i>
    <i name="pawpsdc">  42155.28852783 </i>
    <i name="pawaedc"> -45607.73558043 </i>
    <i name="eentropy">     -0.01677739 </i>
    <i name="bandstr">   -229.84851874 </i>
    <i name="atom">  44535.60175172 </i>
    <i name="e_fr_energy">   -120.83983333 </i>
    <i name="e_wo_entrp">   -120.82305594 </i>
    <i name="e_0_energy">   -120.83424087 </i>
   </energy>
  </scstep>
  <structure>
   <crystal>
    <varray name="basis" >
     <v>       5.13359547       0.00000000       0.00000000 </v>
     <v>       2.56679773       4.44582409       0.00000000 </v>
     <v>       0.00000000       0.00000000      29.67047119 </v>
    </varray>
    <i name="volume">    677.17101477 </i>
    <varray name="rec_basis" >
     <v>       0.19479525      -0.11246509       0.00000000 </v>
     <v>       0.00000000       0.22493018       0.00000000 </v>
     <v>       0.00000000       0.00000000       0.03370354 </v>
    </varray>
   </crystal>
   <varray name="positions" >
    <v>      -0.00048984       0.00032817       0.00066567 </v>
    <v>       0.00004626       0.49990748       0.00060615 </v>
    <v>       0.50016167       0.00032817       0.00066567 </v>
    <v>       0.50030234       0.49939531       0.00064329 </v>
    <v>       0.16659391       0.16681217       0.07011711 </v>
    <v>       0.16653983       0.66665815       0.07004450 </v>
    <v>       0.66669970       0.16660061       0.07007679 </v>
    <v>       0.66680203       0.66665815       0.07004450 </v>
    <v>       0.33339182       0.33355067       0.13838085 </v>
    <v>       0.33350612       0.83298776       0.13830990 </v>
    <v>       0.83305751       0.33355067       0.13838085 </v>
    <v>       0.83333788       0.83332423       0.13840009 </v>
    <v>      -0.00031169       0.00016131       0.20676161 </v>
    <v>       0.99996009       0.50007983       0.20655117 </v>
    <v>       0.50015038       0.00016131       0.20676161 </v>
    <v>       0.50021534       0.49956932       0.20677251 </v>
    <v>       0.16605950       0.16788101       0.27503074 </v>
    <v>       0.16615871       0.66599128       0.27491957 </v>
    <v>       0.66660415       0.16679170       0.27480030 </v>
    <v>       0.66785000       0.66599128       0.27491957 </v>
    <v>       0.33333727       0.33379807       0.34337476 </v>
    <v>       0.33379250       0.83241500       0.34302160 </v>
    <v>       0.83286466       0.33379807       0.34337476 </v>
    <v>       0.83342889       0.83314222       0.34343097 </v>
    <v>       0.00106235      -0.00037614       0.41121708 </v>
    <v>       0.00015802       0.49968395       0.41139314 </v>
    <v>       0.49931379      -0.00037614       0.41121708 </v>
    <v>       0.49959899       0.50080201       0.41128715 </v>
    <v>       0.16439768       0.17120465       0.48000071 </v>
    <v>       0.16440251       0.66153687       0.47924862 </v>
    <v>       0.66556343       0.16887314       0.47986036 </v>
    <v>       0.67406062       0.66153687       0.47924862 </v>
    <v>       0.33420775       0.83158450       0.53497304 </v>
    <v>       0.27118364       0.95763272       0.55367863 </v>
   </varray>
  </structure>
  <varray name="forces" >
   <v>       0.00584690      -0.00195751       0.01358670 </v>
   <v>       0.00000000      -0.00112354       0.00847376 </v>
   <v>      -0.00584690      -0.00195751       0.01358670 </v>
   <v>       0.00000000       0.00401912       0.01132149 </v>
   <v>       0.00000000      -0.00113916       0.06227137 </v>
   <v>       0.00207465       0.00121345       0.05626274 </v>
   <v>       0.00000000       0.00080169       0.06984361 </v>
   <v>      -0.00207465       0.00121345       0.05626274 </v>
   <v>      -0.00033096      -0.00502151      -0.05994804 </v>
   <v>       0.00000000       0.00500265      -0.04701269 </v>
   <v>       0.00033096      -0.00502151      -0.05994804 </v>
   <v>       0.00000000       0.00664751      -0.06407654 </v>
   <v>       0.01843252      -0.00526223      -0.00918517 </v>
   <v>       0.00000000      -0.00401323      -0.01182881 </v>
   <v>      -0.01843252      -0.00526223      -0.00918517 </v>
   <v>       0.00000000       0.01391149      -0.01258731 </v>
   <v>       0.00000000      -0.01554741       0.00597997 </v>
   <v>       0.00759857       0.00980573       0.00282153 </v>
   <v>       0.00000000      -0.00548775       0.04151706 </v>
   <v>      -0.00759857       0.00980573       0.00282153 </v>
   <v>      -0.00429517      -0.01051585       0.02616256 </v>
   <v>       0.00000000       0.00791839       0.00886323 </v>
   <v>       0.00429517      -0.01051585       0.02616256 </v>
   <v>       0.00000000       0.00829778       0.01981985 </v>
   <v>       0.00605364       0.00318479      -0.05643917 </v>
   <v>       0.00000000      -0.02595428      -0.18528937 </v>
   <v>      -0.00605364       0.00318479      -0.05643917 </v>
   <v>      -0.00000000      -0.00337543      -0.09757826 </v>
   <v>      -0.00000000      -0.13605015      -0.01349730 </v>
   <v>       0.07041514       0.04388794      -0.05079195 </v>
   <v>       0.00000000      -0.02334546      -0.05094733 </v>
   <v>      -0.07041514       0.04388794      -0.05079195 </v>
   <v>       0.00000000       0.16428710       0.32193171 </v>
   <v>       0.00000000      -0.06551894       0.08785717 </v>
  </varray>
  <varray name="stress" >
   <v>     -29.96026431       0.00000000       0.00000000 </v>
   <v>       0.00000000     -30.85180769       0.42067501 </v>
   <v>       0.00000000       0.42068032      -5.73424746 </v>
  </varray>
  <energy>
   <i name="e_fr_energy">   -134.87280554 </i>
   <i name="e_wo_entrp">   -134.85602815 </i>
   <i name="e_0_energy">   -134.86721308 </i>
  </energy>
  <time name="totalsc">   68.27   68.82</time>
 </calculation>
 <calculation>
  <scstep>
   <time name="dav">    6.32    6.37</time>
   <time name="total">    6.77    6.82</time>
   <energy>
    <i name="alphaZ">   1114.72537883 </i>
    <i name="ewald"> 216987.22066224 </i>
    <i name="hartreedc">-260509.94100987 </i>
    <i name="XCdc">   1433.88631043 </i>
    <i name="pawpsdc">  42155.37852100 </i>
    <i name="pawaedc"> -45607.82593745 </i>
    <i name="eentropy">     -0.01677606 </i>
    <i name="bandstr">   -229.86636065 </i>
    <i name="atom">  44535.60175172 </i>
    <i name="e_fr_energy">   -120.83745981 </i>
    <i name="e_wo_entrp">   -120.82068376 </i>
    <i name="e_0_energy">   -120.83186779 </i>
   </energy>
  </scstep>
  <scstep>
   <time name="dav">    9.36    9.44</time>
   <time name="total">    9.81    9.89</time>
   <energy>
    <i name="e_fr_energy">   -120.84085160 </i>
    <i name="e_wo_entrp">   -120.82335666 </i>
    <i name="e_0_energy">   -120.83501995 </i>
   </energy>
  </scstep>
  <scstep>
   <time name="dav">    8.17    8.24</time>
   <time name="total">    8.62    8.69</time>
   <energy>
    <i name="e_fr_energy">   -120.83898547 </i>
    <i name="e_wo_entrp">   -120.82217205 </i>
    <i name="e_0_energy">   -120.83338100 </i>
   </energy>
  </scstep>
  <scstep>
   <time name="dav">    5.40    5.44</time>
   <time name="total">    5.47    5.52</time>
   <energy>
    <i name="alphaZ">   1114.72537883 </i>
    <i name="ewald"> 216987.22066224 </i>
    <i name="hartreedc">-260510.37816874 </i>
    <i name="XCdc">   1433.87622734 </i>
    <i name="pawpsdc">  42157.42794665 </i>
    <i name="pawaedc"> -45609.84571694 </i>
    <i name="eentropy">     -0.01662140 </i>
    <i name="bandstr">   -229.45044405 </i>
    <i name="atom">  44535.60175172 </i>
    <i name="e_fr_energy">   -120.83898435 </i>
    <i name="e_wo_entrp">   -120.82236295 </i>
    <i name="e_0_energy">   -120.83344388 </i>
   </energy>
  </scstep>
  <structure>
   <crystal>
    <varray name="basis" >
     <v>       5.13359547       0.00000000       0.00000000 </v>
     <v>       2.56679773       4.44582409       0.00000000 </v>
     <v>       0.00000000       0.00000000      29.67047119 </v>
    </varray>
    <i name="volume">    677.17101477 </i>
    <varray name="rec_basis" >
     <v>       0.19479525      -0.11246509       0.00000000 </v>
     <v>       0.00000000       0.22493018       0.00000000 </v>
     <v>       0.00000000       0.00000000       0.03370354 </v>
    </varray>
   </crystal>
   <varray name="positions" >
    <v>      -0.00054639       0.00036641       0.00074308 </v>
    <v>       0.00005170       0.49989661       0.00067643 </v>
    <v>       0.50017998       0.00036641       0.00074308 </v>
    <v>       0.50033740       0.49932519       0.00071797 </v>
    <v>       0.16658554       0.16682892       0.07005792 </v>
    <v>       0.16652512       0.66665751       0.06997663 </v>
    <v>       0.66670351       0.16659298       0.07001297 </v>
    <v>       0.66681737       0.66665751       0.06997663 </v>
    <v>       0.33339901       0.33357555       0.13836917 </v>
    <v>       0.33352612       0.83294776       0.13829031 </v>
    <v>       0.83302543       0.33357555       0.13836917 </v>
    <v>       0.83333796       0.83332408       0.13839063 </v>
    <v>      -0.00034515       0.00017929       0.20677195 </v>
    <v>       0.99995569       0.50008862       0.20653704 </v>
    <v>       0.50016586       0.00017929       0.20677195 </v>
    <v>       0.50023943       0.49952114       0.20678412 </v>
    <v>       0.16598965       0.16802070       0.27504731 </v>
    <v>       0.16609972       0.66591386       0.27492284 </v>
    <v>       0.66659706       0.16680588       0.27479072 </v>
    <v>       0.66798643       0.66591386       0.27492284 </v>
    <v>       0.33333764       0.33385190       0.34339612 </v>
    <v>       0.33384621       0.83230758       0.34300182 </v>
    <v>       0.83281045       0.33385190       0.34339612 </v>
    <v>       0.83343966       0.83312069       0.34345885 </v>
    <v>       0.00118510      -0.00041857       0.41123437 </v>
    <v>       0.00017772       0.49964456       0.41142913 </v>
    <v>       0.49923347      -0.00041857       0.41123437 </v>
    <v>       0.49955360       0.50089280       0.41131201 </v>
    <v>       0.16415308       0.17169384       0.47994188 </v>
    <v>       0.16415373       0.66095653       0.47910017 </v>
    <v>       0.66543592       0.16912815       0.47978000 </v>
    <v>       0.67488974       0.66095653       0.47910017 </v>
    <v>       0.33403582       0.83192835       0.53513446 </v>
    <v>       0.27112423       0.95775153       0.55378671 </v>
   </varray>
  </structure>
  <varray name="forces" >
   <v>       0.00719899      -0.00287353       0.00868593 </v>
   <v>      -0.00000000      -0.00113105       0.00391208 </v>
   <v>      -0.00719899      -0.00287353       0.00868593 </v>
   <v>      -0.00000000       0.00560306       0.00636490 </v>
   <v>      -0.00000000      -0.00163828       0.07434172 </v>
   <v>       0.00255598       0.00123760       0.06832820 </v>
   <v>      -0.00000000       0.00091070       0.08307403 </v>
   <v>      -0.00255598       0.00123760       0.06832820 </v>
   <v>      -0.00054358      -0.00600588      -0.06031804 </v>
   <v>       0.00000000       0.00589580      -0.04590467 </v>
   <v>       0.00054358      -0.00600588      -0.06031804 </v>
   <v>      -0.00000000       0.00745659      -0.06494299 </v>
   <v>       0.02062172      -0.00609598      -0.00803474 </v>
   <v>      -0.00000000      -0.00447956      -0.01002514 </v>
   <v>      -0.02062172      -0.00609598      -0.00803474 </v>
   <v>      -0.00000000       0.01565893      -0.01203407 </v>
   <v>      -0.00000000      -0.01858460       0.00313727 </v>
   <v>       0.00932290       0.01139010       0.00085059 </v>
   <v>      -0.00000000      -0.00615764       0.04338731 </v>
[...]
       <r>    11.0917     8.2846   223.6169 </r>
       <r>    11.1715     7.2614   224.1965 </r>
       <r>    11.2513     8.3883   224.8661 </r>
       <r>    11.3312    11.2922   225.7676 </r>
       <r>    11.4110    12.7487   226.7853 </r>
       <r>    11.4908    10.5411   227.6267 </r>
       <r>    11.5707     6.4735   228.1435 </r>
       <r>    11.6505     4.0865   228.4697 </r>
       <r>    11.7303     4.5779   228.8352 </r>
       <r>    11.8101     6.3812   229.3446 </r>
       <r>    11.8900     7.2598   229.9241 </r>
       <r>    11.9698     6.0320   230.4056 </r>
       <r>    12.0496     3.4958   230.6847 </r>
       <r>    12.1294     1.4394   230.7996 </r>
       <r>    12.2093     0.5359   230.8423 </r>
       <r>    12.2891     0.3742   230.8722 </r>
       <r>    12.3689     0.8315   230.9386 </r>
       <r>    12.4488     1.8334   231.0849 </r>
       <r>    12.5286     2.5248   231.2865 </r>
       <r>    12.6084     2.1685   231.4596 </r>
       <r>    12.6882     1.3820   231.5699 </r>
       <r>    12.7681     1.2440   231.6692 </r>
       <r>    12.8479     1.6327   231.7996 </r>
       <r>    12.9277     1.5930   231.9267 </r>
       <r>    13.0075     0.9065   231.9991 </r>
       <r>    13.0874     0.2103   232.0159 </r>
       <r>    13.1672    -0.0763   232.0098 </r>
       <r>    13.2470    -0.0812   232.0033 </r>
       <r>    13.3269    -0.0323   232.0007 </r>
       <r>    13.4067    -0.0077   232.0001 </r>
       <r>    13.4865    -0.0012   232.0000 </r>
       <r>    13.5663    -0.0001   232.0000 </r>
       <r>    13.6462    -0.0000   232.0000 </r>
       <r>    13.7260    -0.0000   232.0000 </r>
       <r>    13.8058    -0.0000   232.0000 </r>
       <r>    13.8856    -0.0000   232.0000 </r>
       <r>    13.9655    -0.0000   232.0000 </r>
       <r>    14.0453    -0.0000   232.0000 </r>
       <r>    14.1251    -0.0000   232.0000 </r>
       <r>    14.2050     0.0000   232.0000 </r>
       <r>    14.2848     0.0000   232.0000 </r>
       <r>    14.3646     0.0000   232.0000 </r>
       <r>    14.4444     0.0000   232.0000 </r>
       <r>    14.5243     0.0000   232.0000 </r>
       <r>    14.6041     0.0000   232.0000 </r>
       <r>    14.6839     0.0000   232.0000 </r>
       <r>    14.7638     0.0000   232.0000 </r>
       <r>    14.8436     0.0000   232.0000 </r>
      </set>
      <set comment="spin 2">
       <r>    -9.1047     0.0000     0.0000 </r>
       <r>    -9.0248     0.0000     0.0000 </r>
       <r>    -8.9450     0.0000     0.0000 </r>
       <r>    -8.8652     0.0000     0.0000 </r>
       <r>    -8.7854     0.0000     0.0000 </r>
       <r>    -8.7055    -0.0000    -0.0000 </r>
       <r>    -8.6257    -0.0000    -0.0000 </r>
       <r>    -8.5459    -0.0000    -0.0000 </r>
       <r>    -8.4660    -0.0000    -0.0000 </r>
       <r>    -8.3862    -0.0000    -0.0000 </r>
       <r>    -8.3064    -0.0000    -0.0000 </r>
       <r>    -8.2266    -0.0000    -0.0000 </r>
       <r>    -8.1467    -0.0000    -0.0000 </r>
       <r>    -8.0669    -0.0000    -0.0000 </r>
       <r>    -7.9871    -0.0000    -0.0000 </r>
       <r>    -7.9073    -0.0000    -0.0000 </r>
       <r>    -7.8274    -0.0000    -0.0000 </r>
       <r>    -7.7476    -0.0000    -0.0000 </r>
       <r>    -7.6678    -0.0003    -0.0000 </r>
       <r>    -7.5879    -0.0020    -0.0002 </r>
       <r>    -7.5081    -0.0082    -0.0008 </r>
       <r>    -7.4283    -0.0204    -0.0025 </r>
       <r>    -7.3485    -0.0184    -0.0039 </r>
       <r>    -7.2686     0.0560     0.0005 </r>
       <r>    -7.1888     0.2365     0.0194 </r>
       <r>    -7.1090     0.4162     0.0526 </r>
       <r>    -7.0292     0.4159     0.0858 </r>
       <r>    -6.9493     0.2449     0.1054 </r>
       <r>    -6.8695     0.1342     0.1161 </r>
       <r>    -6.7897     0.2322     0.1346 </r>
       <r>    -6.7098     0.3952     0.1662 </r>
       <r>    -6.6300     0.3665     0.1954 </r>
       <r>    -6.5502     0.1168     0.2048 </r>
       <r>    -6.4704    -0.0382     0.2017 </r>
       <r>    -6.3905     0.3797     0.2320 </r>
       <r>    -6.3107     1.5078     0.3524 </r>
       <r>    -6.2309     2.6126     0.5609 </r>
       <r>    -6.1510     2.6789     0.7748 </r>
       <r>    -6.0712     1.8555     0.9229 </r>
       <r>    -5.9914     1.4218     1.0364 </r>
       <r>    -5.9116     2.0014     1.1962 </r>
       <r>    -5.8317     2.6580     1.4083 </r>
       <r>    -5.7519     2.2623     1.5889 </r>
       <r>    -5.6721     1.0501     1.6728 </r>
       <r>    -5.5923     0.0366     1.6757 </r>
       <r>    -5.5124    -0.2981     1.6519 </r>
       <r>    -5.4326     0.1006     1.6599 </r>
       <r>    -5.3528     1.2911     1.7630 </r>
       <r>    -5.2729     2.7326     1.9811 </r>
       <r>    -5.1931     3.1762     2.2347 </r>
       <r>    -5.1133     2.1616     2.4072 </r>
       <r>    -5.0335     0.6951     2.4627 </r>
       <r>    -4.9536    -0.1749     2.4487 </r>
       <r>    -4.8738    -0.2873     2.4258 </r>
       <r>    -4.7940     0.2650     2.4470 </r>
       <r>    -4.7142     1.4276     2.5609 </r>
       <r>    -4.6343     2.7419     2.7798 </r>
       <r>    -4.5545     3.6833     3.0738 </r>
       <r>    -4.4747     4.3440     3.4206 </r>
       <r>    -4.3948     4.8259     3.8058 </r>
       <r>    -4.3150     4.5510     4.1691 </r>
       <r>    -4.2352     3.2253     4.4266 </r>
       <r>    -4.1554     1.8478     4.5741 </r>
       <r>    -4.0755     1.6416     4.7051 </r>
       <r>    -3.9957     2.5506     4.9087 </r>
       <r>    -3.9159     3.9516     5.2242 </r>
       <r>    -3.8361     5.7321     5.6818 </r>
       <r>    -3.7562     7.3299     6.2669 </r>
       <r>    -3.6764     7.4957     6.8653 </r>
       <r>    -3.5966     6.2884     7.3673 </r>
       <r>    -3.5167     5.3315     7.7929 </r>
       <r>    -3.4369     5.3393     8.2191 </r>
       <r>    -3.3571     5.3578     8.6468 </r>
       <r>    -3.2773     4.6675     9.0194 </r>
       <r>    -3.1974     3.6290     9.3091 </r>
       <r>    -3.1176     2.9130     9.5416 </r>
       <r>    -3.0378     3.1656     9.7943 </r>
       <r>    -2.9579     4.5365    10.1565 </r>
       <r>    -2.8781     6.2390    10.6545 </r>
       <r>    -2.7983     7.9858    11.2920 </r>
       <r>    -2.7185    10.9326    12.1647 </r>
       <r>    -2.6386    15.6862    13.4169 </r>
       <r>    -2.5588    21.0037    15.0936 </r>
       <r>    -2.4790    25.0519    17.0934 </r>
       <r>    -2.3992    26.1985    19.1848 </r>
       <r>    -2.3193    23.7602    21.0815 </r>
       <r>    -2.2395    19.7805    22.6605 </r>
       <r>    -2.1597    18.1014    24.1055 </r>
       <r>    -2.0798    20.7094    25.7587 </r>
       <r>    -2.0000    26.5752    27.8801 </r>
       <r>    -1.9202    33.1194    30.5239 </r>
       <r>    -1.8404    37.5152    33.5187 </r>
       <r>    -1.7605    38.3874    36.5831 </r>
       <r>    -1.6807    36.3186    39.4823 </r>
       <r>    -1.6009    32.6446    42.0882 </r>
       <r>    -1.5211    29.3679    44.4326 </r>
       <r>    -1.4412    28.2413    46.6870 </r>
       <r>    -1.3614    29.6699    49.0555 </r>
       <r>    -1.2816    34.0340    51.7723 </r>
       <r>    -1.2017    41.0458    55.0489 </r>
       <r>    -1.1219    47.3595    58.8295 </r>
       <r>    -1.0421    49.5363    62.7839 </r>
       <r>    -0.9623    49.9368    66.7702 </r>
       <r>    -0.8824    53.8891    71.0720 </r>
       <r>    -0.8026    60.6789    75.9158 </r>
       <r>    -0.7228    64.4570    81.0613 </r>
       <r>    -0.6430    63.0867    86.0973 </r>
       <r>    -0.5631    59.5884    90.8541 </r>
       <r>    -0.4833    56.8649    95.3935 </r>
       <r>    -0.4035    55.4172    99.8173 </r>
       <r>    -0.3236    54.8392   104.1950 </r>
       <r>    -0.2438    54.1124   108.5147 </r>
       <r>    -0.1640    52.0502   112.6697 </r>
       <r>    -0.0842    49.7738   116.6430 </r>
       <r>    -0.0043    49.0060   120.5551 </r>
       <r>     0.0755    49.8662   124.5357 </r>
       <r>     0.1553    54.0718   128.8522 </r>
       <r>     0.2352    62.9584   133.8780 </r>
       <r>     0.3150    71.6289   139.5959 </r>
       <r>     0.3948    74.5143   145.5442 </r>
       <r>     0.4746    73.7975   151.4353 </r>
       <r>     0.5545    73.5444   157.3061 </r>
       <r>     0.6343    69.8389   162.8812 </r>
       <r>     0.7141    55.4553   167.3081 </r>
       <r>     0.7939    32.2220   169.8803 </r>
       <r>     0.8738    11.1039   170.7667 </r>
       <r>     0.9536     0.3096   170.7914 </r>
       <r>     1.0334    -1.1909   170.6963 </r>
       <r>     1.1133     0.8978   170.7680 </r>
       <r>     1.1931     2.5828   170.9741 </r>
       <r>     1.2729     3.3080   171.2382 </r>
       <r>     1.3527     4.0046   171.5579 </r>
       <r>     1.4326     4.8547   171.9454 </r>
       <r>     1.5124     4.9500   172.3406 </r>
       <r>     1.5922     3.6406   172.6312 </r>
       <r>     1.6720     1.9822   172.7894 </r>
       <r>     1.7519     2.2102   172.9659 </r>
       <r>     1.8317     5.2822   173.3875 </r>
       <r>     1.9115     9.4402   174.1411 </r>
       <r>     1.9914    11.7715   175.0808 </r>
       <r>     2.0712    11.2712   175.9805 </r>
       <r>     2.1510     9.7859   176.7617 </r>
       <r>     2.2308     9.0298   177.4825 </r>
       <r>     2.3107     7.9217   178.1149 </r>
       <r>     2.3905     5.1769   178.5282 </r>
       <r>     2.4703     2.4751   178.7258 </r>
       <r>     2.5501     2.1762   178.8995 </r>
       <r>     2.6300     4.0475   179.2226 </r>
       <r>     2.7098     6.1287   179.7118 </r>
       <r>     2.7896     6.8595   180.2594 </r>
       <r>     2.8695     5.8771   180.7286 </r>
       <r>     2.9493     4.3697   181.0774 </r>
       <r>     3.0291     3.7901   181.3799 </r>
       <r>     3.1089     3.7176   181.6767 </r>
       <r>     3.1888     3.0232   181.9180 </r>
       <r>     3.2686     2.2503   182.0977 </r>
       <r>     3.3484     2.6888   182.3123 </r>
       <r>     3.4282     4.5425   182.6749 </r>
       <r>     3.5081     7.1244   183.2436 </r>
       <r>     3.5879     9.4010   183.9941 </r>
       <r>     3.6677    10.0666   184.7977 </r>
       <r>     3.7476     8.4542   185.4726 </r>
       <r>     3.8274     5.6366   185.9225 </r>
       <r>     3.9072     3.5480   186.2057 </r>
       <r>     3.9870     2.7280   186.4235 </r>
       <r>     4.0669     2.0988   186.5911 </r>
       <r>     4.1467     1.0454   186.6745 </r>
       <r>     4.2265     0.0752   186.6805 </r>
       <r>     4.3064    -0.4011   186.6485 </r>
       <r>     4.3862    -0.3273   186.6224 </r>
       <r>     4.4660     0.7022   186.6784 </r>
       <r>     4.5458     2.9350   186.9127 </r>
       <r>     4.6257     5.1732   187.3257 </r>
       <r>     4.7055     5.7052   187.7811 </r>
       <r>     4.7853     4.6459   188.1520 </r>
       <r>     4.8651     3.3324   188.4180 </r>
       <r>     4.9450     2.1668   188.5910 </r>
       <r>     5.0248     0.9584   188.6675 </r>
       <r>     5.1046    -0.0282   188.6652 </r>
       <r>     5.1845    -0.3920   188.6339 </r>
       <r>     5.2643     0.2112   188.6508 </r>
       <r>     5.3441     2.0447   188.8140 </r>
       <r>     5.4239     4.4897   189.1724 </r>
       <r>     5.5038     6.1310   189.6618 </r>
       <r>     5.5836     6.6232   190.1906 </r>
       <r>     5.6634     7.0230   190.7512 </r>
       <r>     5.7432     7.5347   191.3527 </r>
       <r>     5.8231     7.1383   191.9225 </r>
       <r>     5.9029     5.6730   192.3754 </r>
       <r>     5.9827     3.9968   192.6944 </r>
       <r>     6.0626     2.5998   192.9019 </r>
       <r>     6.1424     1.6626   193.0347 </r>
       <r>     6.2222     1.8765   193.1845 </r>
       <r>     6.3020     3.9659   193.5010 </r>
       <r>     6.3819     6.8883   194.0509 </r>
       <r>     6.4617     8.0938   194.6970 </r>
       <r>     6.5415     6.8417   195.2432 </r>
       <r>     6.6213     4.9136   195.6354 </r>
       <r>     6.7012     3.6172   195.9242 </r>
       <r>     6.7810     3.1130   196.1727 </r>
       <r>     6.8608     3.7203   196.4697 </r>
       <r>     6.9407     5.0809   196.8753 </r>
       <r>     7.0205     6.0065   197.3547 </r>
       <r>     7.1003     6.5145   197.8748 </r>
       <r>     7.1801     7.3804   198.4639 </r>
       <r>     7.2600     8.2410   199.1218 </r>
       <r>     7.3398     8.5089   199.8010 </r>
       <r>     7.4196     8.1237   200.4495 </r>
       <r>     7.4995     6.6064   200.9769 </r>
       <r>     7.5793     4.0614   201.3011 </r>
       <r>     7.6591     2.2900   201.4839 </r>
       <r>     7.7389     2.8805   201.7139 </r>
       <r>     7.8188     5.3717   202.1427 </r>
       <r>     7.8986     7.9019   202.7734 </r>
       <r>     7.9784     8.8551   203.4803 </r>
       <r>     8.0582     7.7999   204.1030 </r>
       <r>     8.1381     5.6519   204.5542 </r>
       <r>     8.2179     4.0890   204.8806 </r>
       <r>     8.2977     3.9249   205.1939 </r>
       <r>     8.3776     4.7492   205.5730 </r>
       <r>     8.4574     6.4254   206.0859 </r>
       <r>     8.5372     8.7900   206.7876 </r>
       <r>     8.6170    10.1647   207.5990 </r>
       <r>     8.6969     8.8022   208.3017 </r>
       <r>     8.7767     5.5206   208.7424 </r>
       <r>     8.8565     2.9396   208.9770 </r>
       <r>     8.9363     2.5012   209.1767 </r>
       <r>     9.0162     3.5037   209.4564 </r>
       <r>     9.0960     4.5859   209.8225 </r>
       <r>     9.1758     5.3260   210.2476 </r>
       <r>     9.2557     6.3448   210.7541 </r>
       <r>     9.3355     7.9542   211.3891 </r>
       <r>     9.4153     9.1000   212.1155 </r>
       <r>     9.4951     8.3391   212.7812 </r>
       <r>     9.5750     5.8837   213.2509 </r>
       <r>     9.6548     3.7413   213.5496 </r>
       <r>     9.7346     3.4221   213.8227 </r>
       <r>     9.8144     4.3654   214.1712 </r>
       <r>     9.8943     5.4038   214.6026 </r>
       <r>     9.9741     6.7517   215.1415 </r>
       <r>    10.0539     8.6949   215.8356 </r>
       <r>    10.1338     9.5940   216.6015 </r>
       <r>    10.2136     8.0819   217.2467 </r>
       <r>    10.2934     5.6724   217.6995 </r>
       <r>    10.3732     4.5411   218.0620 </r>
       <r>    10.4531     4.8714   218.4508 </r>
       <r>    10.5329     5.9070   218.9224 </r>
       <r>    10.6127     7.2314   219.4996 </r>
       <r>    10.6926     8.2329   220.1569 </r>
       <r>    10.7724     8.3885   220.8265 </r>
       <r>    10.8522     8.3877   221.4961 </r>
       <r>    10.9320     8.9921   222.2139 </r>
       <r>    11.0119     9.2908   222.9555 </r>
       <r>    11.0917     8.2846   223.6169 </r>
       <r>    11.1715     7.2614   224.1965 </r>
       <r>    11.2513     8.3883   224.8661 </r>
       <r>    11.3312    11.2922   225.7676 </r>
       <r>    11.4110    12.7487   226.7853 </r>
       <r>    11.4908    10.5411   227.6267 </r>
       <r>    11.5707     6.4735   228.1435 </r>
       <r>    11.6505     4.0865   228.4697 </r>
       <r>    11.7303     4.5779   228.8352 </r>
       <r>    11.8101     6.3813   229.3446 </r>
       <r>    11.8900     7.2598   229.9241 </r>
       <r>    11.9698     6.0320   230.4056 </r>
       <r>    12.0496     3.4958   230.6847 </r>
       <r>    12.1294     1.4394   230.7996 </r>
       <r>    12.2093     0.5359   230.8423 </r>
       <r>    12.2891     0.3742   230.8722 </r>
       <r>    12.3689     0.8315   230.9386 </r>
       <r>    12.4488     1.8333   231.0850 </r>
       <r>    12.5286     2.5248   231.2865 </r>
       <r>    12.6084     2.1685   231.4596 </r>
       <r>    12.6882     1.3820   231.5699 </r>
       <r>    12.7681     1.2441   231.6692 </r>
       <r>    12.8479     1.6327   231.7996 </r>
       <r>    12.9277     1.5930   231.9267 </r>
       <r>    13.0075     0.9064   231.9991 </r>
       <r>    13.0874     0.2102   232.0159 </r>
       <r>    13.1672    -0.0763   232.0098 </r>
       <r>    13.2470    -0.0812   232.0033 </r>
       <r>    13.3269    -0.0323   232.0007 </r>
       <r>    13.4067    -0.0077   232.0001 </r>
       <r>    13.4865    -0.0012   232.0000 </r>
       <r>    13.5663    -0.0001   232.0000 </r>
       <r>    13.6462    -0.0000   232.0000 </r>
       <r>    13.7260    -0.0000   232.0000 </r>
       <r>    13.8058    -0.0000   232.0000 </r>
       <r>    13.8856    -0.0000   232.0000 </r>
       <r>    13.9655    -0.0000   232.0000 </r>
       <r>    14.0453    -0.0000   232.0000 </r>
       <r>    14.1251    -0.0000   232.0000 </r>
       <r>    14.2050     0.0000   232.0000 </r>
       <r>    14.2848     0.0000   232.0000 </r>
       <r>    14.3646     0.0000   232.0000 </r>
       <r>    14.4444     0.0000   232.0000 </r>
       <r>    14.5243     0.0000   232.0000 </r>
       <r>    14.6041     0.0000   232.0000 </r>
       <r>    14.6839     0.0000   232.0000 </r>
       <r>    14.7638     0.0000   232.0000 </r>
       <r>    14.8436     0.0000   232.0000 </r>
      </set>
     </set>
    </array>
   </total>
  </dos>
 </calculation>
 <structure name="finalpos" >
  <crystal>
   <varray name="basis" >
    <v>       5.13359547       0.00000000       0.00000000 </v>
    <v>       2.56679773       4.44582409       0.00000000 </v>
    <v>       0.00000000       0.00000000      29.67047119 </v>
   </varray>
   <i name="volume">    677.17101477 </i>
   <varray name="rec_basis" >
    <v>       0.19479525      -0.11246509       0.00000000 </v>
    <v>       0.00000000       0.22493018       0.00000000 </v>
    <v>       0.00000000       0.00000000       0.03370354 </v>
   </varray>
  </crystal>
  <varray name="positions" >
   <v>      -0.00004484       0.00023636      -0.00110264 </v>
   <v>      -0.00015513       0.50031026      -0.00111236 </v>
   <v>       0.49980848       0.00023636      -0.00110264 </v>
   <v>       0.49981411       0.50037179      -0.00110875 </v>
   <v>       0.16680919       0.16638161       0.06819747 </v>
   <v>       0.16683377       0.66620678       0.06818398 </v>
   <v>       0.66684406       0.16631188       0.06823814 </v>
   <v>       0.66695945       0.66620678       0.06818398 </v>
   <v>       0.33399146       0.33198500       0.13609046 </v>
   <v>       0.33405501       0.83188999       0.13608611 </v>
   <v>       0.83402354       0.33198500       0.13609046 </v>
   <v>       0.83403009       0.83193983       0.13608847 </v>
   <v>       0.00127205      -0.00263645       0.20449784 </v>
   <v>       0.00136667       0.49726666       0.20441626 </v>
   <v>       0.50136440      -0.00263645       0.20449784 </v>
   <v>       0.50143021       0.49713959       0.20448541 </v>
   <v>       0.16812232       0.16375537       0.27283212 </v>
   <v>       0.16808878       0.66342331       0.27278708 </v>
   <v>       0.66816758       0.16366484       0.27282635 </v>
   <v>       0.66848791       0.66342331       0.27278708 </v>
   <v>       0.33524734       0.32985495       0.34121975 </v>
   <v>       0.33504350       0.82991300       0.34116988 </v>
   <v>       0.83489772       0.32985495       0.34121975 </v>
   <v>       0.83485971       0.83028057       0.34123259 </v>
   <v>       0.00218843      -0.00429228       0.40915827 </v>
   <v>       0.00216857       0.49566287       0.40903713 </v>
   <v>       0.50210384      -0.00429228       0.40915827 </v>
   <v>       0.50212130       0.49575740       0.40911489 </v>
   <v>       0.16881117       0.16237766       0.47835044 </v>
   <v>       0.16864113       0.66263869       0.47835664 </v>
   <v>       0.66868452       0.16263096       0.47840740 </v>
   <v>       0.66872019       0.66263869       0.47835664 </v>
   <v>       0.30031654       0.89936692       0.56392188 </v>
   <v>       0.26893477       0.96213047       0.58761273 </v>
  </varray>
 </structure>
</modeling>
