unknown system                          
           1
     5.133595    0.000000    0.000000
     2.566798    4.445824    0.000000
     0.000000    0.000000   29.670471
   Cu   H 
    32     2
Direct configuration=     1
   0.00000000  0.00000000  0.00000000
   1.00000000  0.50000000  0.00000000
   0.50000000  0.00000000  0.00000000
   0.50000000  0.50000000  0.00000000
   0.16666667  0.16666667  0.07063526
   0.16666667  0.66666667  0.07063526
   0.66666667  0.16666667  0.07063526
   0.66666667  0.66666667  0.07063526
   0.33333333  0.33333333  0.13847021
   0.33333333  0.83333333  0.13847021
   0.83333333  0.33333333  0.13847021
   0.83333333  0.83333333  0.13847021
   0.00000000  0.00000000  0.20667428
   1.00000000  0.50000000  0.20667428
   0.50000000  0.00000000  0.20667428
   0.50000000  0.50000000  0.20667428
   0.16666667  0.16666667  0.27488859
   0.16666667  0.66666667  0.27488859
   0.66666667  0.16666667  0.27488859
   0.66666667  0.66666667  0.27488859
   0.33333333  0.33333333  0.34319917
   0.33333333  0.83333333  0.34319917
   0.83333333  0.33333333  0.34319917
   0.83333333  0.83333333  0.34319917
   0.00000000  0.00000000  0.41105828
   1.00000000  0.50000000  0.41105828
   0.50000000  0.00000000  0.41105828
   0.50000000  0.50000000  0.41105828
   0.16666667  0.16666667  0.48054462
   0.16666667  0.66666667  0.48054462
   0.66666667  0.16666667  0.48054462
   0.66666667  0.66666667  0.48054462
   0.33333333  0.83333333  0.53425930
   0.27400781  0.95198437  0.55203798
Direct configuration=     2
  -0.00018430  0.00011882  0.00024316
   0.00001614  0.49996772  0.00022402
   0.50006548  0.00011882  0.00024316
   0.50011169  0.49977662  0.00023650
   0.16663901  0.16672197  0.07043227
   0.16661974  0.66665904  0.07040876
   0.66667908  0.16664184  0.07041677
   0.66672121  0.66665904  0.07040876
   0.33334970  0.33341769  0.13845427
   0.33339763  0.83320474  0.13842398
   0.83323261  0.33341769  0.13845427
   0.83334090  0.83331820  0.13846153
  -0.00014991  0.00006896  0.20670369
   0.99998227  0.50003545  0.20662684
   0.50008095  0.00006896  0.20670369
   0.50009099  0.49981802  0.20670761
   0.16643504  0.16712991  0.27493996
   0.16648024  0.66640561  0.27490418
   0.66664150  0.16671700  0.27484747
   0.66711414  0.66640561  0.27490418
   0.33333594  0.33350574  0.34325102
   0.33349689  0.83300622  0.34312306
   0.83315832  0.33350574  0.34325102
   0.83337270  0.83325461  0.34327189
   0.00039826 -0.00015440  0.41113150
   0.00004060  0.49991881  0.41121885
   0.49975613 -0.00015440  0.41113150
   0.49983754  0.50032492  0.41116453
   0.16558853  0.16882294  0.48028871
   0.16565186  0.66458350  0.48004206
   0.66625357  0.16749286  0.48030496
   0.66976464  0.66458350  0.48004206
   0.33719667  0.82560666  0.53350416
   0.26949203  0.96101593  0.55370854
Direct configuration=     3
  -0.00009848  0.00006349  0.00012993
   0.00000863  0.49998275  0.00011970
   0.50003499  0.00006349  0.00012993
   0.50005968  0.49988064  0.00012637
   0.16665189  0.16669622  0.07052679
   0.16664159  0.66666259  0.07051423
   0.66667330  0.16665340  0.07051851
   0.66669581  0.66666259  0.07051423
   0.33334208  0.33337841  0.13846170
   0.33336769  0.83326462  0.13844551
   0.83327951  0.33337841  0.13846170
   0.83333738  0.83332525  0.13846557
  -0.00008010  0.00003685  0.20668999
   0.99999053  0.50001894  0.20664893
   0.50004326  0.00003685  0.20668999
   0.50004862  0.49990276  0.20669209
   0.16654290  0.16691420  0.27491604
   0.16656705  0.66652717  0.27489692
   0.66665322  0.16669356  0.27486662
   0.66690578  0.66652717  0.27489692
   0.33333473  0.33342546  0.34322688
   0.33342073  0.83315854  0.34315850
   0.83323981  0.33342546  0.34322688
   0.83335437  0.83329127  0.34323803
   0.00021281 -0.00008250  0.41109741
   0.00002169  0.49995662  0.41114408
   0.49986969 -0.00008250  0.41109741
   0.49991319  0.50017362  0.41111505
   0.16609057  0.16781887  0.48040787
   0.16612440  0.66555353  0.48027608
   0.66644593  0.16710814  0.48041656
   0.66832206  0.66555353  0.48027608
   0.33539770  0.82920460  0.53385579
   0.27159482  0.95681037  0.55293064
Direct configuration=     4
  -0.00027368  0.00018198  0.00036977
   0.00002547  0.49994905  0.00033747
   0.50009170  0.00018198  0.00036977
   0.50016831  0.49966337  0.00035778
   0.16662594  0.16674813  0.07034339
   0.16659603  0.66666060  0.07030394
   0.66668512  0.16662977  0.07032077
   0.66674336  0.66666060  0.07030394
   0.33336435  0.33345552  0.13842550
   0.33342966  0.83314068  0.13838480
   0.83318013  0.33345552  0.13842550
   0.83333760  0.83332479  0.13843626
  -0.00018378  0.00009257  0.20672205
   0.99997690  0.50004620  0.20660516
   0.50009121  0.00009257  0.20672205
   0.50012326  0.49975349  0.20672809
   0.16632649  0.16734702  0.27496739
   0.16638425  0.66628727  0.27490706
   0.66663125  0.16673750  0.27483693
   0.66732848  0.66628727  0.27490706
   0.33333587  0.33359227  0.34329308
   0.33358716  0.83282568  0.34309721
   0.83307187  0.33359227  0.34329308
   0.83338773  0.83322454  0.34332440
   0.00059313 -0.00021396  0.41115098
   0.00008272  0.49983455  0.41125558
   0.49962083 -0.00021396  0.41115098
   0.49977253  0.50045493  0.41119210
   0.16533270  0.16933460  0.48022560
   0.16535356  0.66375537  0.47981611
   0.66605086  0.16789829  0.48016756
   0.67089107  0.66375537  0.47981611
   0.33486499  0.83027002  0.53435596
   0.27141074  0.95717851  0.55326550
Direct configuration=     5
  -0.00048984  0.00032817  0.00066567
   0.00004626  0.49990748  0.00060615
   0.50016167  0.00032817  0.00066567
   0.50030234  0.49939531  0.00064329
   0.16659391  0.16681217  0.07011711
   0.16653983  0.66665815  0.07004450
   0.66669970  0.16660061  0.07007679
   0.66680203  0.66665815  0.07004450
   0.33339182  0.33355067  0.13838085
   0.33350612  0.83298776  0.13830990
   0.83305751  0.33355067  0.13838085
   0.83333788  0.83332423  0.13840009
  -0.00031169  0.00016131  0.20676161
   0.99996009  0.50007983  0.20655117
   0.50015038  0.00016131  0.20676161
   0.50021534  0.49956932  0.20677251
   0.16605950  0.16788101  0.27503074
   0.16615871  0.66599128  0.27491957
   0.66660415  0.16679170  0.27480030
   0.66785000  0.66599128  0.27491957
   0.33333727  0.33379807  0.34337476
   0.33379250  0.83241500  0.34302160
   0.83286466  0.33379807  0.34337476
   0.83342889  0.83314222  0.34343097
   0.00106235 -0.00037614  0.41121708
   0.00015802  0.49968395  0.41139314
   0.49931379 -0.00037614  0.41121708
   0.49959899  0.50080201  0.41128715
   0.16439768  0.17120465  0.48000071
   0.16440251  0.66153687  0.47924862
   0.66556343  0.16887314  0.47986036
   0.67406062  0.66153687  0.47924862
   0.33420775  0.83158450  0.53497304
   0.27118364  0.95763272  0.55367863
Direct configuration=     6
  -0.00054639  0.00036641  0.00074308
   0.00005170  0.49989661  0.00067643
   0.50017998  0.00036641  0.00074308
   0.50033740  0.49932519  0.00071797
   0.16658554  0.16682892  0.07005792
   0.16652512  0.66665751  0.06997663
   0.66670351  0.16659298  0.07001297
   0.66681737  0.66665751  0.06997663
   0.33339901  0.33357555  0.13836917
   0.33352612  0.83294776  0.13829031
   0.83302543  0.33357555  0.13836917
   0.83333796  0.83332408  0.13839063
  -0.00034515  0.00017929  0.20677195
   0.99995569  0.50008862  0.20653704
   0.50016586  0.00017929  0.20677195
   0.50023943  0.49952114  0.20678412
   0.16598965  0.16802070  0.27504731
   0.16609972  0.66591386  0.27492284
   0.66659706  0.16680588  0.27479072
   0.66798643  0.66591386  0.27492284
   0.33333764  0.33385190  0.34339612
   0.33384621  0.83230758  0.34300182
   0.83281045  0.33385190  0.34339612
   0.83343966  0.83312069  0.34345885
   0.00118510 -0.00041857  0.41123437
   0.00017772  0.49964456  0.41142913
   0.49923347 -0.00041857  0.41123437
   0.49955360  0.50089280  0.41131201
   0.16415308  0.17169384  0.47994188
   0.16415373  0.66095653  0.47910017
   0.66543592  0.16912815  0.47978000
   0.67488974  0.66095653  0.47910017
   0.33403582  0.83192835  0.53513446
   0.27112423  0.95775153  0.55378671
Direct configuration=     7
  -0.00051594  0.00037568  0.00085370
   0.00006559  0.49986883  0.00076918
   0.50014025  0.00037568  0.00085370
   0.50034375  0.49931250  0.00082081
   0.16658595  0.16682809  0.07012991
   0.16652788  0.66667270  0.07002648
   0.66670226  0.16659549  0.07009624
   0.66679942  0.66667270  0.07002648
   0.33344040  0.33352822  0.13823838
   0.33351232  0.83297535  0.13817780
   0.83303138  0.33352822  0.13823838
   0.83328994  0.83342013  0.13825359
  -0.00011593  0.00012243  0.20676896
   0.99997926  0.50004148  0.20650054
   0.49999350  0.00012243  0.20676896
   0.50016759  0.49966481  0.20677494
   0.16602490  0.16795020  0.27507347
   0.16605890  0.66596698  0.27492845
   0.66662819  0.16674361  0.27486299
   0.66797412  0.66596698  0.27492845
   0.33335888  0.33375181  0.34348058
   0.33384708  0.83230584  0.34300125
   0.83288930  0.33375181  0.34348058
   0.83338813  0.83322374  0.34353597
   0.00136086 -0.00041466  0.41113310
   0.00039145  0.49921710  0.41105008
   0.49905379 -0.00041466  0.41113310
   0.49953340  0.50093319  0.41112474
   0.16490127  0.17019745  0.47984267
   0.16447908  0.66103656  0.47883812
   0.66547771  0.16904458  0.47958407
   0.67448436  0.66103656  0.47883812
   0.33282209  0.83435583  0.53593001
   0.27138666  0.95722669  0.55411512
Direct configuration=     8
  -0.00050065  0.00038034  0.00090924
   0.00007256  0.49985488  0.00081576
   0.50012030  0.00038034  0.00090924
   0.50034694  0.49930612  0.00087244
   0.16658616  0.16682767  0.07016606
   0.16652926  0.66668033  0.07005151
   0.66670163  0.16659675  0.07013805
   0.66679041  0.66668033  0.07005151
   0.33346118  0.33350446  0.13817271
   0.33350540  0.83298921  0.13812130
   0.83303436  0.33350446  0.13817271
   0.83326582  0.83346835  0.13818478
  -0.00000083  0.00009387  0.20676746
   0.99999110  0.50001781  0.20648221
   0.49990695  0.00009387  0.20676746
   0.50013152  0.49973695  0.20677033
   0.16604260  0.16791480  0.27508660
   0.16603841  0.66599366  0.27493127
   0.66664383  0.16671234  0.27489929
   0.66796793  0.66599366  0.27493127
   0.33336955  0.33370155  0.34352299
   0.33384752  0.83230497  0.34300096
   0.83292890  0.33370155  0.34352299
   0.83336226  0.83327548  0.34357469
   0.00144912 -0.00041269  0.41108225
   0.00049877  0.49900246  0.41085976
   0.49896358 -0.00041269  0.41108225
   0.49952326  0.50095348  0.41103071
   0.16527696  0.16944608  0.47979286
   0.16464245  0.66107675  0.47870654
   0.66549869  0.16900261  0.47948568
   0.67428080  0.66107675  0.47870654
   0.33221264  0.83557472  0.53632947
   0.27151843  0.95696315  0.55428003
Direct configuration=     9
  -0.00047362  0.00037411  0.00094589
   0.00007851  0.49984297  0.00084580
   0.50009951  0.00037411  0.00094589
   0.50034343  0.49931315  0.00090608
   0.16658799  0.16682401  0.07020467
   0.16653558  0.66668334  0.07008354
   0.66669946  0.16660107  0.07018174
   0.66678108  0.66668334  0.07008354
   0.33347625  0.33348166  0.13812807
   0.33349832  0.83300336  0.13808405
   0.83304209  0.33348166  0.13812807
   0.83324722  0.83350556  0.13813716
   0.00007992  0.00007361  0.20675607
   0.00000058  0.49999883  0.20646110
   0.49984647  0.00007361  0.20675607
   0.50010905  0.49978190  0.20675585
   0.16606834  0.16786332  0.27509336
   0.16603436  0.66602046  0.27493351
   0.66665657  0.16668685  0.27493059
   0.66794518  0.66602046  0.27493351
   0.33340764  0.33362554  0.34353476
   0.33383577  0.83232846  0.34299320
   0.83296682  0.33362554  0.34353476
   0.83332663  0.83334674  0.34358668
   0.00148513 -0.00041143  0.41103021
   0.00059352  0.49881295  0.41069688
   0.49892630 -0.00041143  0.41103021
   0.49953474  0.50093051  0.41093727
   0.16563060  0.16873880  0.47974046
   0.16481904  0.66117392  0.47860223
   0.66555657  0.16888685  0.47940620
   0.67400703  0.66117392  0.47860223
   0.33210659  0.83578682  0.53658652
   0.27115511  0.95768979  0.55460276
Direct configuration=    10
  -0.00039256  0.00035541  0.00105584
   0.00009638  0.49980725  0.00093591
   0.50003714  0.00035541  0.00105584
   0.50033289  0.49933421  0.00100701
   0.16659349  0.16681303  0.07032051
   0.16655455  0.66669237  0.07017961
   0.66669297  0.16661406  0.07031281
   0.66675309  0.66669237  0.07017961
   0.33352148  0.33341327  0.13799415
   0.33347709  0.83304582  0.13797228
   0.83306525  0.33341327  0.13799415
   0.83319140  0.83361721  0.13799430
   0.00032218  0.00001281  0.20672190
   0.00002905  0.49994190  0.20639778
   0.49966501  0.00001281  0.20672190
   0.50004163  0.49991674  0.20671240
   0.16614555  0.16770890  0.27511363
   0.16602221  0.66610087  0.27494024
   0.66669482  0.16661037  0.27502451
   0.66787692  0.66610087  0.27494024
   0.33352191  0.33339748  0.34357005
   0.33380054  0.83239892  0.34296991
   0.83308061  0.33339748  0.34357005
   0.83321974  0.83356052  0.34362265
   0.00159316 -0.00040764  0.41087409
   0.00087778  0.49824443  0.41020827
   0.49881448 -0.00040764  0.41087409
   0.49956919  0.50086163  0.41065695
   0.16669153  0.16661693  0.47958328
   0.16534882  0.66146545  0.47828929
   0.66573022  0.16853957  0.47916775
   0.67318572  0.66146545  0.47828929
   0.33178845  0.83642311  0.53735769
   0.27006514  0.95986972  0.55557097
Direct configuration=    11
  -0.00023042  0.00031802  0.00127573
   0.00013210  0.49973579  0.00111613
   0.49991240  0.00031802  0.00127573
   0.50031183  0.49937635  0.00120885
   0.16660447  0.16679106  0.07055217
   0.16659247  0.66671043  0.07037175
   0.66667999  0.16664003  0.07057494
   0.66669710  0.66671043  0.07037175
   0.33361193  0.33327650  0.13772632
   0.33343463  0.83313074  0.13774875
   0.83311157  0.33327650  0.13772632
   0.83307975  0.83384049  0.13770857
   0.00080669 -0.00010878  0.20665357
   0.00008598  0.49982803  0.20627114
   0.49930209 -0.00010878  0.20665357
   0.49990678  0.50018643  0.20662552
   0.16629998  0.16740005  0.27515418
   0.16599792  0.66626169  0.27495371
   0.66677130  0.16645740  0.27521236
   0.66774039  0.66626169  0.27495371
   0.33375046  0.33294137  0.34364062
   0.33373007  0.83253985  0.34292333
   0.83330817  0.33294137  0.34364062
   0.83300596  0.83398808  0.34369459
   0.00180922 -0.00040006  0.41056185
   0.00144630  0.49710739  0.40923103
   0.49859085 -0.00040006  0.41056185
   0.49963807  0.50072386  0.41009630
   0.16881340  0.16237320  0.47926890
   0.16640839  0.66204851  0.47766341
   0.66607750  0.16784500  0.47869084
   0.67154310  0.66204851  0.47766341
   0.33115216  0.83769568  0.53890002
   0.26788521  0.96422958  0.55750739
Direct configuration=    12
  -0.00028866  0.00033145  0.00119675
   0.00011927  0.49976146  0.00105139
   0.49995721  0.00033145  0.00119675
   0.50031939  0.49936121  0.00113635
   0.16660053  0.16679895  0.07046896
   0.16657885  0.66670394  0.07030274
   0.66668465  0.16663070  0.07048078
   0.66671721  0.66670394  0.07030274
   0.33357944  0.33332563  0.13782252
   0.33344988  0.83310024  0.13782904
   0.83309493  0.33332563  0.13782252
   0.83311986  0.83376029  0.13781120
   0.00063265 -0.00006510  0.20667811
   0.00006554  0.49986893  0.20631663
   0.49943245 -0.00006510  0.20667811
   0.49995522  0.50008956  0.20665673
   0.16624451  0.16751099  0.27513962
   0.16600665  0.66620392  0.27494887
   0.66674383  0.16651234  0.27514488
   0.66778943  0.66620392  0.27494887
   0.33366837  0.33310520  0.34361527
   0.33375538  0.83248923  0.34294006
   0.83322643  0.33310520  0.34361527
   0.83308275  0.83383450  0.34366875
   0.00173161 -0.00040279  0.41067400
   0.00124210  0.49751581  0.40958205
   0.49867118 -0.00040279  0.41067400
   0.49961333  0.50077335  0.41029768
   0.16805124  0.16389751  0.47938182
   0.16602780  0.66183908  0.47788822
   0.66595276  0.16809448  0.47886214
   0.67213312  0.66183908  0.47788822
   0.33138071  0.83723858  0.53834603
   0.26866822  0.96266356  0.55681184
Direct configuration=    13
  -0.00024194  0.00031596  0.00126447
   0.00012341  0.49975319  0.00111226
   0.49992598  0.00031596  0.00126447
   0.50030745  0.49938509  0.00120019
   0.16659553  0.16680893  0.07049835
   0.16659107  0.66669835  0.07033406
   0.66666969  0.16666062  0.07050823
   0.66671058  0.66669835  0.07033406
   0.33356817  0.33333663  0.13784117
   0.33345136  0.83309729  0.13784547
   0.83309520  0.33333663  0.13784117
   0.83311271  0.83377459  0.13782772
   0.00056900 -0.00003384  0.20663147
   0.00005840  0.49988319  0.20626635
   0.49946485 -0.00003384  0.20663147
   0.49999852  0.50000296  0.20660677
   0.16625959  0.16748083  0.27512958
   0.16601936  0.66619145  0.27494815
   0.66674041  0.16651918  0.27515994
   0.66778919  0.66619145  0.27494815
   0.33387440  0.33290164  0.34348505
   0.33372549  0.83254903  0.34287054
   0.83322396  0.33290164  0.34348505
   0.83298595  0.83402809  0.34357436
   0.00163698 -0.00044504  0.41056940
   0.00135379  0.49729242  0.40947605
   0.49880806 -0.00044504  0.41056940
   0.49971044  0.50057912  0.41014278
   0.16846022  0.16307955  0.47923889
   0.16626755  0.66175614  0.47769332
   0.66611584  0.16776832  0.47871071
   0.67197632  0.66175614  0.47769332
   0.33069850  0.83860301  0.53905139
   0.26836181  0.96327638  0.55742518
Direct configuration=    14
  -0.00010180  0.00026949  0.00146766
   0.00013581  0.49972837  0.00129484
   0.49983231  0.00026949  0.00146766
   0.50027163  0.49945673  0.00139170
   0.16658055  0.16683889  0.07058654
   0.16662772  0.66668157  0.07042802
   0.66662481  0.16675038  0.07059058
   0.66669071  0.66668157  0.07042802
   0.33353434  0.33336966  0.13789712
   0.33345578  0.83308844  0.13789473
   0.83309600  0.33336966  0.13789712
   0.83309126  0.83381748  0.13787727
   0.00037802  0.00005994  0.20649153
   0.00003701  0.49992598  0.20611551
   0.49956204  0.00005994  0.20649153
   0.50012842  0.49974316  0.20645689
   0.16630483  0.16739034  0.27509947
   0.16605748  0.66615404  0.27494599
   0.66673016  0.16653968  0.27520511
   0.66778848  0.66615404  0.27494599
   0.33449251  0.33229097  0.34309439
   0.33363580  0.83272841  0.34266197
   0.83321652  0.33229097  0.34309439
   0.83269557  0.83460887  0.34329117
   0.00135311 -0.00057182  0.41025559
   0.00168886  0.49662228  0.40915805
   0.49921871 -0.00057182  0.41025559
   0.50000178  0.49999644  0.40967808
   0.16968717  0.16062567  0.47881010
   0.16698678  0.66150731  0.47710861
   0.66660507  0.16678985  0.47825644
   0.67150591  0.66150731  0.47710861
   0.32865186  0.84269627  0.54116747
   0.26744259  0.96511483  0.55926520
Direct configuration=    15
   0.00017848  0.00017655  0.00187402
   0.00016063  0.49967875  0.00166001
   0.49964497  0.00017655  0.00187402
   0.50020000  0.49960001  0.00177474
   0.16655060  0.16689881  0.07076291
   0.16670104  0.66664800  0.07061594
   0.66653504  0.16692991  0.07075528
   0.66665096  0.66664800  0.07061594
   0.33346669  0.33343570  0.13800902
   0.33346463  0.83307075  0.13799327
   0.83309762  0.33343570  0.13800902
   0.83304836  0.83390328  0.13797637
  -0.00000393  0.00024750  0.20621166
  -0.00000578  0.50001156  0.20581383
   0.49975643  0.00024750  0.20621166
   0.50038822  0.49922356  0.20615713
   0.16639531  0.16720938  0.27503925
   0.16613374  0.66607922  0.27494167
   0.66670966  0.16658068  0.27529544
   0.66778704  0.66607922  0.27494167
   0.33572872  0.33106962  0.34231308
   0.33345642  0.83308717  0.34224483
   0.83320166  0.33106962  0.34231308
   0.83211479  0.83577041  0.34272479
   0.00078536 -0.00082538  0.40962797
   0.00235901  0.49528199  0.40852205
   0.50004002 -0.00082538  0.40962797
   0.50058446  0.49883109  0.40874867
   0.17214105  0.15571789  0.47795252
   0.16842525  0.66100965  0.47593920
   0.66758355  0.16483291  0.47734789
   0.67056511  0.66100965  0.47593920
   0.32455860  0.85088280  0.54539962
   0.26560414  0.96879172  0.56294523
Direct configuration=    16
   0.00019594  0.00016823  0.00190576
   0.00016064  0.49967872  0.00168991
   0.49963584  0.00016823  0.00190576
   0.50019509  0.49960982  0.00180519
   0.16654742  0.16690515  0.07077500
   0.16670277  0.66664550  0.07063011
   0.66652890  0.16694219  0.07076511
   0.66665173  0.66664550  0.07063011
   0.33345897  0.33344237  0.13802238
   0.33346496  0.83307008  0.13800629
   0.83309866  0.33344237  0.13802238
   0.83304673  0.83390655  0.13798911
  -0.00004015  0.00025941  0.20619682
  -0.00001165  0.50002330  0.20580011
   0.49978075  0.00025941  0.20619682
   0.50040855  0.49918290  0.20614166
   0.16640610  0.16718781  0.27501317
   0.16614082  0.66607641  0.27492428
   0.66671111  0.16657779  0.27527369
   0.66778278  0.66607641  0.27492428
   0.33578018  0.33100055  0.34224371
   0.33344555  0.83310889  0.34220728
   0.83321927  0.33100055  0.34224371
   0.83210225  0.83579550  0.34267177
   0.00073901 -0.00085674  0.40956654
   0.00241466  0.49517068  0.40847416
   0.50011773 -0.00085674  0.40956654
   0.50064309  0.49871383  0.40866934
   0.17228632  0.15542736  0.47787397
   0.16853436  0.66090172  0.47584802
   0.66766758  0.16466485  0.47727456
   0.67056393  0.66090172  0.47584802
   0.32434280  0.85131440  0.54574081
   0.26528515  0.96942970  0.56333257
Direct configuration=    17
   0.00024831  0.00014327  0.00200097
   0.00016069  0.49967862  0.00177962
   0.49960842  0.00014327  0.00200097
   0.50018038  0.49963924  0.00189655
   0.16653790  0.16692420  0.07081126
   0.16670797  0.66663799  0.07067264
   0.66651048  0.16697904  0.07079461
   0.66665404  0.66663799  0.07067264
   0.33343581  0.33346241  0.13806246
   0.33346596  0.83306807  0.13804534
   0.83310178  0.33346241  0.13806246
   0.83304182  0.83391637  0.13802735
  -0.00014882  0.00029512  0.20615228
  -0.00002926  0.50005851  0.20575898
   0.49985371  0.00029512  0.20615228
   0.50046954  0.49906093  0.20609525
   0.16643846  0.16712309  0.27493491
   0.16616205  0.66606797  0.27487209
   0.66671545  0.16656910  0.27520845
   0.66776997  0.66606797  0.27487209
   0.33593457  0.33079334  0.34203563
   0.33341296  0.83317408  0.34209466
   0.83327210  0.33079334  0.34203563
   0.83206462  0.83587077  0.34251273
   0.00059997 -0.00095083  0.40938223
   0.00258163  0.49483674  0.40833046
   0.50035086 -0.00095083  0.40938223
   0.50081898  0.49836205  0.40843135
   0.17272213  0.15455574  0.47763835
   0.16886169  0.66057793  0.47557447
   0.66791967  0.16416066  0.47705455
   0.67056039  0.66057793  0.47557447
   0.32369541  0.85260917  0.54676438
   0.26432819  0.97134363  0.56449461
Direct configuration=    18
   0.00035306  0.00009335  0.00219139
   0.00016078  0.49967843  0.00195903
   0.49955359  0.00009335  0.00219139
   0.50015096  0.49969808  0.00207927
   0.16651886  0.16696228  0.07088378
   0.16671836  0.66662297  0.07075770
   0.66647363  0.16705275  0.07085361
   0.66665867  0.66662297  0.07075770
   0.33338950  0.33350248  0.13814262
   0.33346797  0.83306406  0.13812346
   0.83310802  0.33350248  0.13814262
   0.83303200  0.83393600  0.13810381
  -0.00036616  0.00036654  0.20606320
  -0.00006447  0.50012893  0.20567671
   0.49999962  0.00036654  0.20606320
   0.50059151  0.49881698  0.20600245
   0.16650318  0.16699365  0.27477841
   0.16620452  0.66605110  0.27476772
   0.66672413  0.16655174  0.27507797
   0.66774437  0.66605110  0.27476772
   0.33624334  0.33037891  0.34161945
   0.33334777  0.83330445  0.34186941
   0.83337775  0.33037891  0.34161945
   0.83198935  0.83602130  0.34219464
   0.00032189 -0.00113902  0.40901361
   0.00291556  0.49416887  0.40804306
   0.50081712 -0.00113902  0.40901361
   0.50117076  0.49765849  0.40795538
   0.17359374  0.15281252  0.47716710
   0.16951635  0.65993034  0.47502737
   0.66842386  0.16315228  0.47661455
   0.67055330  0.65993034  0.47502737
   0.32240064  0.85519873  0.54881151
   0.26241426  0.97517148  0.56681867
Direct configuration=    19
   0.00056256 -0.00000650  0.00257223
   0.00016097  0.49967805  0.00231786
   0.49944393 -0.00000650  0.00257223
   0.50009211  0.49981577  0.00244471
   0.16648078  0.16703845  0.07102883
   0.16673916  0.66659293  0.07092781
   0.66639993  0.16720015  0.07097161
   0.66666791  0.66659293  0.07092781
   0.33329689  0.33358261  0.13830295
   0.33347198  0.83305603  0.13827968
   0.83312050  0.33358261  0.13830295
   0.83301236  0.83397528  0.13825674
  -0.00080084  0.00050938  0.20588504
  -0.00013489  0.50026978  0.20551217
   0.50029146  0.00050938  0.20588504
   0.50083545  0.49832910  0.20581683
   0.16663261  0.16673477  0.27446541
   0.16628947  0.66601737  0.27455899
   0.66674149  0.16651702  0.27481700
   0.66769316  0.66601737  0.27455899
   0.33686088  0.32955005  0.34078710
   0.33321740  0.83356519  0.34141891
   0.83358907  0.32955005  0.34078710
   0.83183881  0.83632238  0.34155846
  -0.00023427 -0.00151538  0.40827637
   0.00358343  0.49283313  0.40746827
   0.50174965 -0.00151538  0.40827637
   0.50187432  0.49625137  0.40700344
   0.17533697  0.14932606  0.47622459
   0.17082568  0.65863518  0.47393317
   0.66943223  0.16113553  0.47573453
   0.67053914  0.65863518  0.47393317
   0.31981108  0.86037784  0.55290577
   0.25858640  0.98282719  0.57146680
Direct configuration=    20
   0.00043100  0.00005620  0.00233307
   0.00016086  0.49967829  0.00209253
   0.49951279  0.00005620  0.00233307
   0.50012907  0.49974187  0.00221523
   0.16650469  0.16699062  0.07093775
   0.16672610  0.66661179  0.07082099
   0.66644621  0.16710758  0.07089751
   0.66666211  0.66661179  0.07082099
   0.33335505  0.33353229  0.13820227
   0.33346946  0.83306107  0.13818158
   0.83311266  0.33353229  0.13820227
   0.83302469  0.83395062  0.13816071
  -0.00052787  0.00041968  0.20599692
  -0.00009067  0.50018134  0.20561549
   0.50010820  0.00041968  0.20599692
   0.50068226  0.49863547  0.20593339
   0.16655133  0.16689734  0.27466196
   0.16623613  0.66603855  0.27469007
   0.66673059  0.16653882  0.27498088
   0.66772532  0.66603855  0.27469007
   0.33647309  0.33007054  0.34130979
   0.33329927  0.83340146  0.34170181
   0.83345637  0.33007054  0.34130979
   0.83193334  0.83613331  0.34195796
   0.00011498 -0.00127904  0.40873933
   0.00316403  0.49367193  0.40782922
   0.50116406 -0.00127904  0.40873933
   0.50143251  0.49713499  0.40760123
   0.17424228  0.15151543  0.47681645
   0.17000347  0.65944850  0.47462029
   0.66879901  0.16240198  0.47628715
   0.67054803  0.65944850  0.47462029
   0.32143723  0.85712554  0.55033472
   0.26099016  0.97801967  0.56854793
Direct configuration=    21
   0.00040586  0.00005234  0.00233450
   0.00015027  0.49969947  0.00210075
   0.49954180  0.00005234  0.00233450
   0.50013227  0.49973546  0.00221896
   0.16650276  0.16699448  0.07094742
   0.16670421  0.66661971  0.07083428
   0.66645270  0.16709460  0.07090276
   0.66667608  0.66661971  0.07083428
   0.33334863  0.33352988  0.13820810
   0.33346228  0.83307544  0.13819605
   0.83312149  0.33352988  0.13820810
   0.83302715  0.83394569  0.13816790
  -0.00050137  0.00038186  0.20603610
  -0.00009905  0.50019809  0.20567102
   0.50011951  0.00038186  0.20603610
   0.50065461  0.49869079  0.20597913
   0.16658543  0.16682914  0.27454270
   0.16624214  0.66607582  0.27459150
   0.66675721  0.16648558  0.27482629
   0.66768204  0.66607582  0.27459150
   0.33619594  0.33022942  0.34128423
   0.33332155  0.83335690  0.34167106
   0.83357464  0.33022942  0.34128423
   0.83212806  0.83574387  0.34191950
   0.00015602 -0.00135798  0.40865843
   0.00320061  0.49359878  0.40778553
   0.50120195 -0.00135798  0.40865843
   0.50149418  0.49701163  0.40754753
   0.17406206  0.15187588  0.47676678
   0.17004109  0.65912011  0.47462694
   0.66884730  0.16230540  0.47626873
   0.67083880  0.65912011  0.47462694
   0.32117807  0.85764386  0.55064542
   0.26080150  0.97839699  0.56887322
Direct configuration=    22
   0.00033042  0.00004075  0.00233879
   0.00011849  0.49976301  0.00212541
   0.49962884  0.00004075  0.00233879
   0.50014189  0.49971622  0.00223016
   0.16649696  0.16700607  0.07097645
   0.16663853  0.66664346  0.07087414
   0.66647218  0.16705564  0.07091850
   0.66671801  0.66664346  0.07087414
   0.33332939  0.33352264  0.13822562
   0.33344073  0.83311853  0.13823947
   0.83314797  0.33352264  0.13822562
   0.83303453  0.83393093  0.13818948
  -0.00042184  0.00026840  0.20615365
  -0.00012418  0.50024835  0.20583760
   0.50015344  0.00026840  0.20615365
   0.50057163  0.49885673  0.20611634
   0.16668773  0.16662454  0.27418493
   0.16626017  0.66618762  0.27429578
   0.66683708  0.16632585  0.27436250
   0.66755221  0.66618762  0.27429578
   0.33536448  0.33070605  0.34120757
   0.33338839  0.83322322  0.34157884
   0.83392947  0.33070605  0.34120757
   0.83271222  0.83457556  0.34180411
   0.00027915 -0.00159479  0.40841572
   0.00331033  0.49337935  0.40765447
   0.50131564 -0.00159479  0.40841572
   0.50167922  0.49664155  0.40738644
   0.17352139  0.15295722  0.47661777
   0.17015394  0.65813496  0.47464690
   0.66899216  0.16201567  0.47621348
   0.67171110  0.65813496  0.47464690
   0.32040059  0.85919881  0.55157754
   0.26023553  0.97952895  0.56984910
Direct configuration=    23
   0.00017954  0.00001756  0.00234737
   0.00005495  0.49989009  0.00217473
   0.49980290  0.00001756  0.00234737
   0.50016112  0.49967775  0.00225257
   0.16648537  0.16702926  0.07103450
   0.16650718  0.66669097  0.07095387
   0.66651114  0.16697772  0.07094998
   0.66680186  0.66669097  0.07095387
   0.33329091  0.33350816  0.13826064
   0.33339764  0.83320472  0.13832631
   0.83320093  0.33350816  0.13826064
   0.83304930  0.83390141  0.13823265
  -0.00026280  0.00004148  0.20638875
  -0.00017444  0.50034888  0.20617077
   0.50022132  0.00004148  0.20638875
   0.50040569  0.49918862  0.20639076
   0.16689232  0.16621535  0.27346938
   0.16629624  0.66641121  0.27370435
   0.66699681  0.16600638  0.27343493