 vasp.6.3.2 27Jun22 (build Aug 17 2022 15:43:34) complex                        
  
 executed on           tv2STDVTST date 2025.01.17  13:59:31
 running   20 mpi-ranks, with    1 threads/rank
 distrk:  each k-point on   20 cores,    1 groups
 distr:  one band on NCORE=   5 cores,    4 groups


--------------------------------------------------------------------------------------------------------


 -----------------------------------------------------------------------------
|                                                                             |
|           W    W    AA    RRRRR   N    N  II  N    N   GGGG   !!!           |
|           W    W   A  A   R    R  NN   N  II  NN   N  G    G  !!!           |
|           W    W  A    A  R    R  N N  N  II  N N  N  G       !!!           |
|           W WW W  AAAAAA  RRRRR   N  N N  II  N  N N  G  GGG   !            |
|           WW  WW  A    A  R   R   N   NN  II  N   NN  G    G                |
|           W    W  A    A  R    R  N    N  II  N    N   GGGG   !!!           |
|                                                                             |
|     Found issues when parsing the INCAR file                                |
|     In line 64: Tagname --- R W I G S contains invalid characters.          |
|     Please check if the interpretation in the OUTCAR file is correct.       |
|                                                                             |
 -----------------------------------------------------------------------------

 INCAR:
    = \=\=\=\=\=\=\=\=\=\=\=\=\=\=\=\=\=\=\=\=\=\=\=\=\=\=\=\=\=\=\=\=\=\=\=\=\=\=\=\=\=\=\=\=\=\=\=\=\=\=\=\=\=\=\=\=\=\=\=\=\=\=\=\=\=\=\=\=\=\=\=\=
    = \=\=\=\=\=\=\=\=\=\=\=\=\=\=\=\=\=\=\=\=\=\=\=\=\=\=\=\=\=\=\=\=\=\=\=\=\=\=\=\=\=\=\=\=\=\=\=\=\=\=\=\=\=\=\=\=\=\=\=\=\=\=\=\=\=\=\=\=\=\=\=\=
   ISTART = 0
   ICHARG = 2
   IPIPOL = 3
   IVDW = 11
   IDIPOL = 3
   IVDW = 11
    = \=\=\=\=\=\=\=\=\=\=\=\=\=\=\=\=\=\=\=\=\=\=\=\=\=\=\=\=\=\=\=\=\=\=\=\=\=\=\=\=\=\=\=\=\=\=\=\=\=\=\=\=\=\=\=\=\=\=\=\=\=\=\=\=\=\=\=\=\=\=\=\=
    = \=\=\=\=\=\=\=\=\=\=\=\=\=\=\=\=\=\=\=\=\=\=\=\=\=\=\=\=\=\=\=\=\=\=\=\=\=\=\=\=\=\=\=\=\=\=\=\=\=\=\=\=\=\=\=\=\=\=\=\=\=\=\=\=\=\=\=\=\=\=\=\=
   ISPIN = 2
    = \=\=\=\=\=\=\=\=\=\=\=\=\=\=\=\=\=\=\=\=\=\=\=\=\=\=\=\=\=\=\=\=\=\=\=\=\=\=\=\=\=\=\=\=\=\=\=\=\=\=\=\=\=\=\=\=\=\=\=\=\=\=\=\=\=\=\=\=\=\=\=\=
    = \=\=\=\=\=\=\=\=\=\=\=\=\=\=\=\=\=\=\=\=\=\=\=\=\=\=\=\=\=\=\=\=\=\=\=\=\=\=\=\=\=\=\=\=\=\=\=\=\=\=\=\=\=\=\=\=\=\=\=\=\=\=\=\=\=\=\=\=\=\=\=\=
   ENCUT = 400
   PREC = Normal
   EDIFF = 2E-04
   GGA = PE
   ISMEAR = 1
   SIGMA = 0.2
   LREAL = .FALSE.
    = \=\=\=\=\=\=\=\=\=\=\=\=\=\=\=\=\=\=\=\=\=\=\=\=\=\=\=\=\=\=\=\=\=\=\=\=\=\=\=\=\=\=\=\=\=\=\=\=\=\=\=\=\=\=\=\=\=\=\=\=\=\=\=\=\=\=\=\=\=\=\=\=
    = \=\=\=\=\=\=\=\=\=\=\=\=\=\=\=\=\=\=\=\=\=\=\=\=\=\=\=\=\=\=\=\=\=\=\=\=\=\=\=\=\=\=\=\=\=\=\=\=\=\=\=\=\=\=\=\=\=\=\=\=\=\=\=\=\=\=\=\=\=\=\=\=
   ISYM = 1
   NSW = 800
   IBRION = 2
   POTIM = 0.5
   ISIF = 2
   EDIFFG = -.03
    = \=\=\=\=\=\=\=\=\=\=\=\=\=\=\=\=\=\=\=\=\=\=\=\=\=\=\=\=\=\=\=\=\=\=\=\=\=\=\=\=\=\=\=\=\=\=\=\=\=\=\=\=\=\=\=\=\=\=\=\=\=\=\=\=\=\=\=\=\=\=\=\=
    = \=\=\=\=\=\=\=\=\=\=\=\=\=\=\=\=\=\=\=\=\=\=\=\=\=\=\=\=\=\=\=\=\=\=\=\=\=\=\=\=\=\=\=\=\=\=\=\=\=\=\=\=\=\=\=\=\=\=\=\=\=\=\=\=\=\=\=\=\=\=\=\=
   NPAR = 4
   LWAVE = .FALSE.
   LCHARG = .FALSE.

 POTCAR:    PAW_PBE Cu 22Jun2005                  
 -----------------------------------------------------------------------------
|                                                                             |
|           W    W    AA    RRRRR   N    N  II  N    N   GGGG   !!!           |
|           W    W   A  A   R    R  NN   N  II  NN   N  G    G  !!!           |
|           W    W  A    A  R    R  N N  N  II  N N  N  G       !!!           |
|           W WW W  AAAAAA  RRRRR   N  N N  II  N  N N  G  GGG   !            |
|           WW  WW  A    A  R   R   N   NN  II  N   NN  G    G                |
|           W    W  A    A  R    R  N    N  II  N    N   GGGG   !!!           |
|                                                                             |
|     You use a magnetic or noncollinear calculation, but did not specify     |
|     the initial magnetic moment with the MAGMOM tag. Note that a            |
|     default of 1 will be used for all atoms. This ferromagnetic setup       |
|     may break the symmetry of the crystal, in particular it may rule        |
|     out finding an antiferromagnetic solution. Thence, we recommend         |
|     setting the initial magnetic moment manually or verifying carefully     |
|     that this magnetic setup is desired.                                    |
|                                                                             |
 -----------------------------------------------------------------------------

 POTCAR:    PAW_PBE Cu 22Jun2005                  
   SHA256 =  0e71e558f37a4e8407882b4609ceaae59938afaad9ced71dfe8490308a0ab630 Cu/POTCAR             
   COPYR  = (c) Copyright 22Jun2005 Georg Kresse                                                    
   COPYR  = This file is part of the software VASP. Any use, copying, and all other rights are regul
   COPYR  = If you do not have a valid VASP license, you may not use, copy or distribute this file. 
   VRHFIN =Cu: d10 p1                                                                               
   LEXCH  = PE                                                                                      
   EATOM  =  1390.9808 eV,  102.2342 Ry                                                             
                                                                                                    
   TITEL  = PAW_PBE Cu 22Jun2005                                                                    
   LULTRA =        F    use ultrasoft PP ?                                                          
   IUNSCR =        1    unscreen: 0-lin 1-nonlin 2-no                                               
   RPACOR =    2.000    partial core radius                                                         
   POMASS =   63.546; ZVAL   =   11.000    mass and valenz                                          
   RCORE  =    2.300    outmost cutoff radius                                                       
   RWIGS  =    2.200; RWIGS  =    1.164    wigner-seitz radius (au A)                               
   ENMAX  =  295.446; ENMIN  =  221.585 eV                                                          
   ICORE  =        3    local potential                                                             
   LCOR   =        T    correct aug charges                                                         
   LPAW   =        T    paw PP                                                                      
   EAUG   =  586.980                                                                                
   DEXC   =    0.000                                                                                
   RMAX   =    2.344    core radius for proj-oper                                                   
   RAUG   =    1.300    factor for augmentation sphere                                              
   RDEP   =    2.302    radius for radial grids                                                     
   RDEPT  =    1.771    core radius for aug-charge                                                  
                                                                                                    
   Atomic configuration                                                                             
    9 entries                                                                                       
     n  l   j            E        occ.                                                              
     1  0  0.50     -8850.2468   2.0000                                                             
     2  0  0.50     -1062.3498   2.0000                                                             
     2  1  1.50      -916.8226   6.0000                                                             
     3  0  0.50      -114.6929   2.0000                                                             
     3  1  1.50       -72.1325   6.0000                                                             
     3  2  2.50        -5.0394  10.0000                                                             
     4  0  0.50        -4.6097   1.0000                                                             
     4  1  0.50        -4.0817   0.0000                                                             
     4  3  2.50        -1.3606   0.0000                                                             
   Description                                                                                      
     l       E           TYP  RCUT    TYP  RCUT                                                     
     2     -5.0393973     23  2.200                                                                 
     2     10.8846608     23  2.200                                                                 
     0     -4.6097109     23  2.200                                                                 
     0      8.2520465     23  2.200                                                                 
     1     -2.7211652     23  2.200                                                                 
     1     21.7055443     23  2.200                                                                 
     3      2.7211652     23  2.300                                                                 
  local pseudopotential read in
  partial core-charges read in
  partial kinetic energy density read in
  atomic valenz-charges read in
  non local Contribution for L=           2  read in
    real space projection operators read in
  non local Contribution for L=           2  read in
    real space projection operators read in
  non local Contribution for L=           0  read in
    real space projection operators read in
  non local Contribution for L=           0  read in
    real space projection operators read in
  non local Contribution for L=           1  read in
    real space projection operators read in
  non local Contribution for L=           1  read in
    real space projection operators read in
    PAW grid and wavefunctions read in
 
   number of l-projection  operators is LMAX  =           6
   number of lm-projection operators is LMMAX =          18
 
 -----------------------------------------------------------------------------
|                                                                             |
|               ----> ADVICE to this user running VASP <----                  |
|                                                                             |
|     You have a (more or less) 'large supercell' and for larger cells it     |
|     might be more efficient to use real-space projection operators.         |
|     Therefore, try LREAL= Auto in the INCAR file.                           |
|     Mind: For very accurate calculation, you might also keep the            |
|     reciprocal projection scheme (i.e. LREAL=.FALSE.).                      |
|                                                                             |
 -----------------------------------------------------------------------------

  PAW_PBE Cu 22Jun2005                  :
 energy of atom  1       EATOM=-1390.9808
 kinetic energy error for atom=    0.0232 (will be added to EATOM!!)
 
 
 POSCAR: FCC Cu
  positions in cartesian coordinates
  No initial velocities read in
 exchange correlation table for  LEXCH =        8
   RHO(1)=    0.500       N(1)  =     2000
   RHO(2)=  100.500       N(2)  =     4000

 VTST: version 4.2, (08/11/21)

 CHAIN: initializing optimizer
 
 OPT: Using VASP Conjugate-Gradient optimizer
 CHAIN: Read ICHAIN            0
 
 POSCAR: FCC Cu
  positions in cartesian coordinates
  No initial velocities read in
 


--------------------------------------------------------------------------------------------------------


 ion  position               nearest neighbor table
   1  0.000  0.000  0.000-   4 2.57   3 2.57   2 2.57   2 2.57   3 2.57   4 2.57   7 2.57   5 2.57
                             6 2.57
   2  0.000  0.500  0.000-   3 2.57   4 2.57   1 2.57   1 2.57   4 2.57   3 2.57   5 2.57   8 2.57
                             6 2.57
   3  0.500  0.000  0.000-   2 2.57   1 2.57   4 2.57   4 2.57   1 2.57   2 2.57   5 2.57   7 2.57
                             8 2.57
   4  0.500  0.500  0.000-   1 2.57   2 2.57   3 2.57   3 2.57   2 2.57   1 2.57   6 2.57   7 2.57
                             8 2.57
   5  0.167  0.167  0.082-   8 2.57   7 2.57   6 2.57   6 2.57   7 2.57   8 2.57   9 2.57   3 2.57
                             2 2.57   1 2.57  10 2.57  11 2.57
   6  0.167  0.667  0.082-   7 2.57   8 2.57   5 2.57   5 2.57   8 2.57   7 2.57  10 2.57   4 2.57
                             9 2.57   2 2.57   1 2.57  12 2.57
   7  0.667  0.167  0.082-   6 2.57   5 2.57   8 2.57   8 2.57   5 2.57   6 2.57  11 2.57   4 2.57
                             1 2.57   9 2.57   3 2.57  12 2.57
   8  0.667  0.667  0.082-   5 2.57   6 2.57   7 2.57   7 2.57   6 2.57   5 2.57  12 2.57  11 2.57
                             2 2.57  10 2.57   4 2.57   3 2.57
   9  0.333  0.333  0.165-  12 2.57  11 2.57  10 2.57  10 2.57  11 2.57  12 2.57   5 2.57  14 2.57
                             6 2.57  15 2.57   7 2.57  16 2.57
  10  0.333  0.833  0.165-  11 2.57  12 2.57   9 2.57   9 2.57  12 2.57  11 2.57   6 2.57  16 2.57
                            15 2.57   8 2.57  13 2.57   5 2.57
  11  0.833  0.333  0.165-  10 2.57   9 2.57  12 2.57  12 2.57   9 2.57  10 2.57   7 2.57  16 2.57
                             8 2.57  13 2.57   5 2.57  14 2.57
  12  0.833  0.833  0.165-   9 2.57  10 2.57  11 2.57  11 2.57  10 2.57   9 2.57   8 2.57  14 2.57
                            15 2.57   7 2.57  13 2.57   6 2.57
  13  0.000  0.000  0.247-  16 2.57  15 2.57  14 2.57  14 2.57  15 2.57  16 2.57  11 2.57  19 2.57
                            17 2.57  10 2.57  18 2.57  12 2.57
  14  0.000  0.500  0.247-  15 2.57  16 2.57  13 2.57  13 2.57  16 2.57  15 2.57   9 2.57  12 2.57
                            17 2.57  20 2.57  18 2.57  11 2.57
  15  0.500  0.000  0.247-  14 2.57  13 2.57  16 2.57  16 2.57  13 2.57  14 2.57  17 2.57   9 2.57
                            10 2.57  19 2.57  12 2.57  20 2.57
  16  0.500  0.500  0.247-  13 2.57  14 2.57  15 2.57  15 2.57  14 2.57  13 2.57  11 2.57  18 2.57
                            19 2.57  10 2.57  20 2.57   9 2.57
  17  0.167  0.167  0.329-  20 2.57  19 2.57  18 2.57  18 2.57  19 2.57  20 2.57  21 2.57  15 2.57
                            14 2.57  13 2.57  22 2.57  23 2.57
  18  0.167  0.667  0.329-  19 2.57  20 2.57  17 2.57  17 2.57  20 2.57  19 2.57  22 2.57  16 2.57
                            21 2.57  14 2.57  13 2.57  24 2.57
  19  0.667  0.167  0.329-  18 2.57  17 2.57  20 2.57  20 2.57  17 2.57  18 2.57  23 2.57  16 2.57
                            13 2.57  21 2.57  15 2.57  24 2.57
  20  0.667  0.667  0.329-  17 2.57  18 2.57  19 2.57  19 2.57  18 2.57  17 2.57  24 2.57  23 2.57
                            14 2.57  22 2.57  16 2.57  15 2.57
  21  0.333  0.333  0.411-  24 2.57  23 2.57  22 2.57  22 2.57  23 2.57  24 2.57  17 2.57  18 2.57
                            19 2.57
  22  0.333  0.833  0.411-  23 2.57  24 2.57  21 2.57  21 2.57  24 2.57  23 2.57  18 2.57  20 2.57
                            17 2.57
  23  0.833  0.333  0.411-  22 2.57  21 2.57  24 2.57  24 2.57  21 2.57  22 2.57  19 2.57  20 2.57
                            17 2.57
  24  0.833  0.833  0.411-  21 2.57  22 2.57  23 2.57  23 2.57  22 2.57  21 2.57  20 2.57  19 2.57
                            18 2.57
 
  LATTYP: Found a hexagonal cell.
 ALAT       =     5.1335954666
 C/A-ratio  =     4.9631702974
  
  Lattice vectors:
  
 A1 = (  -2.5667977333,  -4.4458240868,   0.0000000000)
 A2 = (   5.1335954666,   0.0000000000,   0.0000000000)
 A3 = (   0.0000000000,   0.0000000000,  25.4789085388)


Analysis of symmetry for initial positions (statically):
=====================================================================
 Subroutine PRICEL returns following result:
 
  LATTYP: Found a hexagonal cell.
 ALAT       =     2.5667977331
 C/A-ratio  =     9.9263405956
  
  Lattice vectors:
  
 A1 = (  -1.2833988670,  -2.2229120430,   0.0000000000)
 A2 = (   2.5667977330,   0.0000000000,   0.0000000000)
 A3 = (   0.0000000000,   0.0000000000,  25.4789085388)
 
   4 primitive cells build up your supercell.
 

 Routine SETGRP: Setting up the symmetry group for a 
 hexagonal supercell.


 Subroutine GETGRP returns: Found 12 space group operations
 (whereof  6 operations were pure point group operations)
 out of a pool of 24 trial point group operations.


The static configuration has the point symmetry C_3v.
 The point group associated with its full space group is D_3d.


Analysis of symmetry for dynamics (positions and initial velocities):
=====================================================================
 Subroutine PRICEL returns following result:
 
  LATTYP: Found a hexagonal cell.
 ALAT       =     2.5667977331
 C/A-ratio  =     9.9263405956
  
  Lattice vectors:
  
 A1 = (  -1.2833988670,  -2.2229120430,   0.0000000000)
 A2 = (   2.5667977330,   0.0000000000,   0.0000000000)
 A3 = (   0.0000000000,   0.0000000000,  25.4789085388)
 
   4 primitive cells build up your supercell.
 

 Routine SETGRP: Setting up the symmetry group for a 
 hexagonal supercell.


 Subroutine GETGRP returns: Found 12 space group operations
 (whereof  6 operations were pure point group operations)
 out of a pool of 24 trial point group operations.


The dynamic configuration has the point symmetry C_3v.
 The point group associated with its full space group is D_3d.


Analysis of constrained symmetry for selective dynamics:
=====================================================================
 Subroutine PRICEL returns following result:
 
  LATTYP: Found a hexagonal cell.
 ALAT       =     2.5667977331
 C/A-ratio  =     9.9263405956
  
  Lattice vectors:
  
 A1 = (  -1.2833988670,  -2.2229120430,   0.0000000000)
 A2 = (   2.5667977330,   0.0000000000,   0.0000000000)
 A3 = (   0.0000000000,   0.0000000000,  25.4789085388)
 
   4 primitive cells build up your supercell.
 

 Routine SETGRP: Setting up the symmetry group for a 
 hexagonal supercell.


 Subroutine GETGRP returns: Found  6 space group operations
 (whereof  6 operations were pure point group operations)
 out of a pool of 24 trial point group operations.


The constrained configuration has the point symmetry C_3v.


Analysis of structural, dynamic, and magnetic symmetry:
=====================================================================
 Subroutine PRICEL returns following result:
 
  LATTYP: Found a hexagonal cell.
 ALAT       =     2.5667977331
 C/A-ratio  =     9.9263405956
  
  Lattice vectors:
  
 A1 = (  -1.2833988670,  -2.2229120430,   0.0000000000)
 A2 = (   2.5667977330,   0.0000000000,   0.0000000000)
 A3 = (   0.0000000000,   0.0000000000,  25.4789085388)
 
   4 primitive cells build up your supercell.
 

 Routine SETGRP: Setting up the symmetry group for a 
 hexagonal supercell.


 Subroutine GETGRP returns: Found  6 space group operations
 (whereof  6 operations were pure point group operations)
 out of a pool of 24 trial point group operations.


The overall configuration has the point symmetry C_3v.


 Subroutine INISYM returns: Found  6 space group operations
 (whereof  6 operations are pure point group operations),
 and found     4 'primitive' translations


----------------------------------------------------------------------------------------

                                     Primitive cell                                     

  volume of cell :     145.3767

  direct lattice vectors                    reciprocal lattice vectors
    -1.283398867 -2.222912043  0.000000000     0.000000000 -0.449860355  0.000000000
     2.566797733  0.000000000  0.000000000     0.389590495 -0.224930177  0.000000000
     0.000000000  0.000000000 25.478908539     0.000000000  0.000000000  0.039248149

  length of vectors
     2.566797733  2.566797733 25.478908539     0.449860355  0.449860355  0.039248149

  position of ions in fractional coordinates (direct lattice)
     0.000000000  0.000000000  0.000000000
     0.666666667  0.333333333  0.082255549
     0.333333333  0.666666667  0.164511098
     0.000000000  0.000000000  0.246766647
     0.666666667  0.333333333  0.329022196
     0.333333333  0.666666667  0.411277745

  ion indices of the primitive-cell ions
   primitive index   ion index
                 1           1
                 2           5
                 3          12
                 4          13
                 5          17
                 6          24

----------------------------------------------------------------------------------------

 
 
 KPOINTS: Auto-mesh                               

Automatic generation of k-mesh.
 Grid dimensions read from file:
 generate k-points for:    3    3    1

 Generating k-lattice:

  Cartesian coordinates                     Fractional coordinates (reciprocal lattice)
     0.064931749 -0.037488363  0.000000000     0.333333333  0.000000000  0.000000000
     0.000000000  0.074976726  0.000000000     0.000000000  0.333333333  0.000000000
     0.000000000  0.000000000  0.039248149     0.000000000  0.000000000  1.000000000

  Length of vectors
     0.074976726  0.074976726  0.039248149

  Shift w.r.t. Gamma in fractional coordinates (k-lattice)
     0.000000000  0.000000000  0.000000000

 
 Subroutine IBZKPT returns following result:
 ===========================================
 
 Found      3 irreducible k-points:
 
 Following reciprocal coordinates:
            Coordinates               Weight
  0.000000  0.000000  0.000000      1.000000
  0.333333 -0.000000  0.000000      6.000000
 -0.333333  0.333333  0.000000      2.000000
 
 Following cartesian coordinates:
            Coordinates               Weight
  0.000000  0.000000  0.000000      1.000000
  0.064932 -0.037488  0.000000      6.000000
 -0.064932  0.112465  0.000000      2.000000
 


--------------------------------------------------------------------------------------------------------




 Dimension of arrays:
   k-points           NKPTS =      3   k-points in BZ     NKDIM =      3   number of bands    NBANDS=    172
   number of dos      NEDOS =    301   number of ions     NIONS =     24
   non local maximal  LDIM  =      6   non local SUM 2l+1 LMDIM =     18
   total plane-waves  NPLWV =  98784
   max r-space proj   IRMAX =      1   max aug-charges    IRDMAX=   5119
   dimension x,y,z NGX =    28 NGY =   28 NGZ =  126
   dimension x,y,z NGXF=    56 NGYF=   56 NGZF=  252
   support grid    NGXF=    56 NGYF=   56 NGZF=  252
   ions per type =              24
   NGX,Y,Z   is equivalent  to a cutoff of   9.07,  9.07,  8.22 a.u.
   NGXF,Y,Z  is equivalent  to a cutoff of  18.13, 18.13, 16.44 a.u.

 SYSTEM =  unknown system                          
 POSCAR =  FCC Cu                                  

 Startparameter for this run:
   NWRITE =      2    write-flag & timer
   PREC   = normal    normal or accurate (medium, high low for compatibility)
   ISTART =      0    job   : 0-new  1-cont  2-samecut
   ICHARG =      2    charge: 1-file 2-atom 10-const
   ISPIN  =      2    spin polarized calculation?
   LNONCOLLINEAR =      F non collinear calculations
   LSORBIT =      F    spin-orbit coupling
   INIWAV =      1    electr: 0-lowe 1-rand  2-diag
   LASPH  =      F    aspherical Exc in radial PAW
 Electronic Relaxation 1
   ENCUT  =  400.0 eV  29.40 Ry    5.42 a.u.   8.37  8.37 41.55*2*pi/ulx,y,z
   ENINI  =  400.0     initial cutoff
   ENAUG  =  587.0 eV  augmentation charge cutoff
   NELM   =     60;   NELMIN=  2; NELMDL= -5     # of ELM steps 
   EDIFF  = 0.2E-03   stopping-criterion for ELM
   LREAL  =      F    real-space projection
   NLSPLINE    = F    spline interpolate recip. space projectors
   LCOMPAT=      F    compatible to vasp.4.4
   GGA_COMPAT  = T    GGA compatible to vasp.4.4-vasp.4.6
   LMAXPAW     = -100 max onsite density
   LMAXMIX     =    2 max onsite mixed and CHGCAR
   VOSKOWN=      0    Vosko Wilk Nusair interpolation
   ROPT   =    0.00000
 Ionic relaxation
   EDIFFG = -.3E-01   stopping-criterion for IOM
   NSW    =    800    number of steps for IOM
   NBLOCK =      1;   KBLOCK =    800    inner block; outer block 
   IBRION =      2    ionic relax: 0-MD 1-quasi-New 2-CG
   NFREE  =      1    steps in history (QN), initial steepest desc. (CG)
   ISIF   =      2    stress and relaxation
   IWAVPR =     11    prediction:  0-non 1-charg 2-wave 3-comb
   ISYM   =      1    0-nonsym 1-usesym 2-fastsym
   LCORR  =      T    Harris-Foulkes like correction to forces

   POTIM  = 0.5000    time-step for ionic-motion
   TEIN   =    0.0    initial temperature
   TEBEG  =    0.0;   TEEND  =   0.0 temperature during run
   SMASS  =  -3.00    Nose mass-parameter (am)
   estimated Nose-frequenzy (Omega)   =  0.10E-29 period in steps = 0.13E+47 mass=  -0.602E-27a.u.
   SCALEE = 1.0000    scale energy and forces
   NPACO  =    256;   APACO  = 10.0  distance and # of slots for P.C.
   PSTRESS=    0.0 pullay stress

  Mass of Ions in am
   POMASS =  63.55
  Ionic Valenz
   ZVAL   =  11.00
  Atomic Wigner-Seitz radii
   RWIGS  =  -1.00
  virtual crystal weights 
   VCA    =   1.00
   NELECT =     264.0000    total number of electrons
   NUPDOWN=      -1.0000    fix difference up-down

 DOS related values:
   EMIN   =  10.00;   EMAX   =-10.00  energy-range for DOS
   EFERMI =   0.00
   ISMEAR =     1;   SIGMA  =   0.20  broadening in eV -4-tet -1-fermi 0-gaus

 Electronic relaxation 2 (details)
   IALGO  =     38    algorithm
   LDIAG  =      T    sub-space diagonalisation (order eigenvalues)
   LSUBROT=      F    optimize rotation matrix (better conditioning)
   TURBO    =      0    0=normal 1=particle mesh
   IRESTART =      0    0=no restart 2=restart with 2 vectors
   NREBOOT  =      0    no. of reboots
   NMIN     =      0    reboot dimension
   EREF     =   0.00    reference energy to select bands
   IMIX   =      4    mixing-type and parameters
     AMIX     =   0.40;   BMIX     =  1.00
     AMIX_MAG =   1.60;   BMIX_MAG =  1.00
     AMIN     =   0.10
     WC   =   100.;   INIMIX=   1;  MIXPRE=   1;  MAXMIX= -45

 Intra band minimization:
   WEIMIN = 0.0010     energy-eigenvalue tresh-hold
   EBREAK =  0.29E-06  absolut break condition
   DEPER  =   0.30     relativ break condition  

   TIME   =   0.40     timestep for ELM

  volume/ion in A,a.u.               =      24.23       163.51
  Fermi-wavevector in a.u.,A,eV,Ry     =   1.258224  2.377698 21.539752  1.583127
  Thomas-Fermi vector in A             =   2.391844
 
 Write flags
   LWAVE        =      F    write WAVECAR
   LDOWNSAMPLE  =      F    k-point downsampling of WAVECAR
   LCHARG       =      F    write CHGCAR
   LVTOT        =      F    write LOCPOT, total local potential
   LVHAR        =      F    write LOCPOT, Hartree potential only
   LELF         =      F    write electronic localiz. function (ELF)
   LORBIT       =      0    0 simple, 1 ext, 2 COOP (PROOUT), +10 PAW based schemes


 Dipole corrections
   LMONO  =      F    monopole corrections only (constant potential shift)
   LDIPOL =      F    correct potential (dipole corrections)
   IDIPOL =      3    1-x, 2-y, 3-z, 4-all directions 
   EPSILON=  1.0000000 bulk dielectric constant

 Exchange correlation treatment:
   GGA     =    PE    GGA type
   LEXCH   =     8    internal setting for exchange type
   LIBXC   =     F    Libxc                    
   VOSKOWN =     0    Vosko Wilk Nusair interpolation
   LHFCALC =     F    Hartree Fock is set to
   LHFONE  =     F    Hartree Fock one center treatment
   AEXX    =    0.0000 exact exchange contribution

 Linear response parameters
   LEPSILON=     F    determine dielectric tensor
   LRPA    =     F    only Hartree local field effects (RPA)
   LNABLA  =     F    use nabla operator in PAW spheres
   LVEL    =     F    velocity operator in full k-point grid
   CSHIFT  =0.1000    complex shift for real part using Kramers Kronig
   OMEGAMAX=  -1.0    maximum frequency
   DEG_THRESHOLD= 0.2000000E-02 threshold for treating states as degnerate
   RTIME   =   -0.100 relaxation time in fs
  (WPLASMAI=    0.000 imaginary part of plasma frequency in eV, 0.658/RTIME)
   DFIELD  = 0.0000000 0.0000000 0.0000000 field for delta impulse in time
 
  Optional k-point grid parameters
   LKPOINTS_OPT  =     F    use optional k-point grid
   KPOINTS_OPT_MODE=     1    mode for optional k-point grid
 
 Orbital magnetization related:
   ORBITALMAG=     F  switch on orbital magnetization
   LCHIMAG   =     F  perturbation theory with respect to B field
   DQ        =  0.001000  dq finite difference perturbation B field
   LLRAUG    =     F  two centre corrections for induced B field



--------------------------------------------------------------------------------------------------------


 conjugate gradient relaxation of ions
   using selective dynamics as specified on POSCAR
   WARNING: If single coordinates had been selected the selection of coordinates
            is made according to the corresponding   d i r e c t   coordinates!
            Don't support selection of single cartesian coordinates -- sorry ...
  !
 charge density and potential will be updated during run
 spin polarized calculation
 Variant of blocked Davidson
 Davidson routine will perform the subspace rotation
 perform sub-space diagonalisation
    after iterative eigenvector-optimisation
 modified Broyden-mixing scheme, WC =      100.0
 initial mixing is a Kerker type mixing with AMIX =  0.4000 and BMIX =      1.0000
 Hartree-type preconditioning will be used
 using additional bands           40
 reciprocal scheme for non local part
 use partial core corrections
 calculate Harris-corrections to forces 
   (improved forces if not selfconsistent)
 use gradient corrections 
 use of overlap-Matrix (Vanderbilt PP)
 Methfessel and Paxton  Order N= 1 SIGMA  =   0.20


--------------------------------------------------------------------------------------------------------


  energy-cutoff  :      400.00
  volume of cell :      581.51
      direct lattice vectors                 reciprocal lattice vectors
     5.133595467  0.000000000  0.000000000     0.194795248 -0.112465089  0.000000000
     2.566797733  4.445824087  0.000000000     0.000000000  0.224930177  0.000000000
     0.000000000  0.000000000 25.478908539     0.000000000  0.000000000  0.039248149

  length of vectors
     5.133595467  5.133595467 25.478908539     0.224930177  0.224930177  0.039248149


 
 k-points in units of 2pi/SCALE and weight: Auto-mesh                               
   0.00000000  0.00000000  0.00000000       0.111
   0.06493175 -0.03748836  0.00000000       0.667
  -0.06493175  0.11246509  0.00000000       0.222
 
 k-points in reciprocal lattice and weights: Auto-mesh                               
   0.00000000  0.00000000  0.00000000       0.111
   0.33333333 -0.00000000  0.00000000       0.667
  -0.33333333  0.33333333  0.00000000       0.222
 
 position of ions in fractional coordinates (direct lattice) 
   0.00000000  0.00000000  0.00000000
   0.00000000  0.50000000  0.00000000
   0.50000000  0.00000000  0.00000000
   0.50000000  0.50000000  0.00000000
   0.16666667  0.16666667  0.08225555
   0.16666667  0.66666667  0.08225555
   0.66666667  0.16666667  0.08225555
   0.66666667  0.66666667  0.08225555
   0.33333333  0.33333333  0.16451110
   0.33333333  0.83333333  0.16451110
   0.83333333  0.33333333  0.16451110
   0.83333333  0.83333333  0.16451110
   0.00000000  0.00000000  0.24676665
   0.00000000  0.50000000  0.24676665
   0.50000000  0.00000000  0.24676665
   0.50000000  0.50000000  0.24676665
   0.16666667  0.16666667  0.32902220
   0.16666667  0.66666667  0.32902220
   0.66666667  0.16666667  0.32902220
   0.66666667  0.66666667  0.32902220
   0.33333333  0.33333333  0.41127774
   0.33333333  0.83333333  0.41127774
   0.83333333  0.33333333  0.41127774
   0.83333333  0.83333333  0.41127774
 
 position of ions in cartesian coordinates  (Angst):
   0.00000000  0.00000000  0.00000000
   1.28339887  2.22291204  0.00000000
   2.56679773  0.00000000  0.00000000
   3.85019660  2.22291204  0.00000000
   1.28339887  0.74097068  2.09578161
   2.56679773  2.96388272  2.09578161
   3.85019660  0.74097068  2.09578161
   5.13359547  2.96388272  2.09578161
   2.56679773  1.48194136  4.19156322
   3.85019660  3.70485341  4.19156322
   5.13359547  1.48194136  4.19156322
   6.41699433  3.70485341  4.19156322
   0.00000000  0.00000000  6.28734482
   1.28339887  2.22291204  6.28734482
   2.56679773  0.00000000  6.28734482
   3.85019660  2.22291204  6.28734482
   1.28339887  0.74097068  8.38312643
   2.56679773  2.96388272  8.38312643
   3.85019660  0.74097068  8.38312643
   5.13359547  2.96388272  8.38312643
   2.56679773  1.48194136 10.47890804
   3.85019660  3.70485341 10.47890804
   5.13359547  1.48194136 10.47890804
   6.41699433  3.70485341 10.47890804
 


--------------------------------------------------------------------------------------------------------


 k-point   1 :   0.0000 0.0000 0.0000  plane waves:   10649
 k-point   2 :   0.3333-0.0000 0.0000  plane waves:   10532
 k-point   3 :  -0.3333 0.3333 0.0000  plane waves:   10596

 maximum and minimum number of plane-waves per node :      2152     2084

 maximum number of plane-waves:     10649
 maximum index in each direction: 
   IXMAX=    8   IYMAX=    8   IZMAX=   41
   IXMIN=   -8   IYMIN=   -8   IZMIN=  -41


 parallel 3D FFT for wavefunctions:
    minimum data exchange during FFTs selected (reduces bandwidth)
 parallel 3D FFT for charge:
    minimum data exchange during FFTs selected (reduces bandwidth)


 total amount of memory used by VASP MPI-rank0    48004. kBytes
=======================================================================

   base      :      30000. kBytes
   nonl-proj :       1756. kBytes
   fftplans  :       2065. kBytes
   grid      :       4765. kBytes
   one-center:        155. kBytes
   wavefun   :       9263. kBytes
 
     INWAV:  cpu time      0.0000: real time      0.0004
 Broyden mixing: mesh for mixing (old mesh)
   NGX = 17   NGY = 17   NGZ = 83
  (NGX  = 56   NGY  = 56   NGZ  =252)
  gives a total of  23987 points

 initial charge density was supplied:
 charge density of overlapping atoms calculated
 number of electron     264.0000000 magnetization      24.0000000
 keeping initial charge density in first step


--------------------------------------------------------------------------------------------------------


 Maximum index for augmentation-charges          328 (set IRDMAX)


--------------------------------------------------------------------------------------------------------


 First call to EWALD:  gamma=   0.212
 Maximum number of real-space cells 5x 5x 1
 Maximum number of reciprocal cells 2x 2x 7

    FEWALD:  cpu time      0.0021: real time      0.0021


--------------------------------------- Iteration      1(   1)  ---------------------------------------


    POTLOK:  cpu time      0.0559: real time      0.0564
    SETDIJ:  cpu time      0.0120: real time      0.0120
     EDDAV:  cpu time      2.5008: real time      2.5223
       DOS:  cpu time      0.0033: real time      0.0033
    --------------------------------------------
      LOOP:  cpu time      2.5720: real time      2.5940

 eigenvalue-minimisations  :  2064
 total energy-change (2. order) : 0.2468907E+04  (-0.9485770E+04)
 number of electron     264.0000000 magnetization      24.0000000
 augmentation part      264.0000000 magnetization      24.0000000

 Free energy of the ion-electron system (eV)
  ---------------------------------------------------
  alpha Z        PSCENC =       724.40254881
  Ewald energy   TEWEN  =    128163.76815443
  -Hartree energ DENC   =   -160819.17098515
  -exchange      EXHF   =         0.00000000
  -V(xc)+E(xc)   XCENC  =      1096.87142340
  PAW double counting   =     29474.33990517   -32014.10235660
  entropy T*S    EENTRO =        -0.01601091
  eigenvalues    EBANDS =      2459.83068496
  atomic energy  EATOM  =     33382.98336479
  Solvation  Ediel_sol  =         0.00000000
  ---------------------------------------------------
  free energy    TOTEN  =      2468.90672892 eV

  energy without entropy =     2468.92273983  energy(sigma->0) =     2468.91206589


--------------------------------------------------------------------------------------------------------




--------------------------------------- Iteration      1(   2)  ---------------------------------------


     EDDAV:  cpu time      2.4512: real time      2.4725
       DOS:  cpu time      0.0014: real time      0.0014
    --------------------------------------------
      LOOP:  cpu time      2.4525: real time      2.4739

 eigenvalue-minimisations  :  2064
 total energy-change (2. order) :-0.2170432E+04  (-0.2079782E+04)
 number of electron     264.0000000 magnetization      24.0000000
 augmentation part      264.0000000 magnetization      24.0000000

 Free energy of the ion-electron system (eV)
  ---------------------------------------------------
  alpha Z        PSCENC =       724.40254881
  Ewald energy   TEWEN  =    128163.76815443
  -Hartree energ DENC   =   -160819.17098515
  -exchange      EXHF   =         0.00000000
  -V(xc)+E(xc)   XCENC  =      1096.87142340
  PAW double counting   =     29474.33990517   -32014.10235660
  entropy T*S    EENTRO =         0.00102341
  eigenvalues    EBANDS =       289.38202106
  atomic energy  EATOM  =     33382.98336479
  Solvation  Ediel_sol  =         0.00000000
  ---------------------------------------------------
  free energy    TOTEN  =       298.47509933 eV

  energy without entropy =      298.47407592  energy(sigma->0) =      298.47475819


--------------------------------------------------------------------------------------------------------




--------------------------------------- Iteration      1(   3)  ---------------------------------------


     EDDAV:  cpu time      2.4540: real time      2.4765
       DOS:  cpu time      0.0015: real time      0.0015
    --------------------------------------------
      LOOP:  cpu time      2.4556: real time      2.4780

 eigenvalue-minimisations  :  2064
 total energy-change (2. order) :-0.3745010E+03  (-0.3391961E+03)
 number of electron     264.0000000 magnetization      24.0000000
 augmentation part      264.0000000 magnetization      24.0000000

 Free energy of the ion-electron system (eV)
  ---------------------------------------------------
  alpha Z        PSCENC =       724.40254881
  Ewald energy   TEWEN  =    128163.76815443
  -Hartree energ DENC   =   -160819.17098515
  -exchange      EXHF   =         0.00000000
  -V(xc)+E(xc)   XCENC  =      1096.87142340
  PAW double counting   =     29474.33990517   -32014.10235660
  entropy T*S    EENTRO =         0.02859960
  eigenvalues    EBANDS =       -85.14652101
  atomic energy  EATOM  =     33382.98336479
  Solvation  Ediel_sol  =         0.00000000
  ---------------------------------------------------
  free energy    TOTEN  =       -76.02586656 eV

  energy without entropy =      -76.05446615  energy(sigma->0) =      -76.03539975


--------------------------------------------------------------------------------------------------------




--------------------------------------- Iteration      1(   4)  ---------------------------------------


     EDDAV:  cpu time      2.6551: real time      2.6778
       DOS:  cpu time      0.0016: real time      0.0016
    --------------------------------------------
      LOOP:  cpu time      2.6568: real time      2.6794

 eigenvalue-minimisations  :  2288
 total energy-change (2. order) :-0.2528546E+02  (-0.2457676E+02)
 number of electron     264.0000000 magnetization      24.0000000
 augmentation part      264.0000000 magnetization      24.0000000

 Free energy of the ion-electron system (eV)
  ---------------------------------------------------
  alpha Z        PSCENC =       724.40254881
  Ewald energy   TEWEN  =    128163.76815443
  -Hartree energ DENC   =   -160819.17098515
  -exchange      EXHF   =         0.00000000
  -V(xc)+E(xc)   XCENC  =      1096.87142340
  PAW double counting   =     29474.33990517   -32014.10235660
  entropy T*S    EENTRO =         0.01510630
  eigenvalues    EBANDS =      -110.41849053
  atomic energy  EATOM  =     33382.98336479
  Solvation  Ediel_sol  =         0.00000000
  ---------------------------------------------------
  free energy    TOTEN  =      -101.31132937 eV

  energy without entropy =     -101.32643567  energy(sigma->0) =     -101.31636480


--------------------------------------------------------------------------------------------------------




--------------------------------------- Iteration      1(   5)  ---------------------------------------


     EDDAV:  cpu time      2.6346: real time      2.6580
       DOS:  cpu time      0.0016: real time      0.0016
    CHARGE:  cpu time      0.3399: real time      0.3414
    MIXING:  cpu time      0.0103: real time      0.0103
    --------------------------------------------
      LOOP:  cpu time      2.9865: real time      3.0113

 eigenvalue-minimisations  :  2288
 total energy-change (2. order) :-0.5617497E+00  (-0.5605734E+00)
 number of electron     264.0000259 magnetization      22.2056342
 augmentation part      155.8555558 magnetization      21.8111195

 Broyden mixing:
  rms(total) = 0.45426E+01    rms(broyden)= 0.45425E+01
  rms(prec ) = 0.46798E+01
  weight for this iteration     100.00

 Free energy of the ion-electron system (eV)
  ---------------------------------------------------
  alpha Z        PSCENC =       724.40254881
  Ewald energy   TEWEN  =    128163.76815443
  -Hartree energ DENC   =   -160819.17098515
  -exchange      EXHF   =         0.00000000
  -V(xc)+E(xc)   XCENC  =      1096.87142340
  PAW double counting   =     29474.33990517   -32014.10235660
  entropy T*S    EENTRO =         0.01397567
  eigenvalues    EBANDS =      -110.97910965
  atomic energy  EATOM  =     33382.98336479
  Solvation  Ediel_sol  =         0.00000000
  ---------------------------------------------------
  free energy    TOTEN  =      -101.87307912 eV

  energy without entropy =     -101.88705478  energy(sigma->0) =     -101.87773767


--------------------------------------------------------------------------------------------------------




--------------------------------------- Iteration      1(   6)  ---------------------------------------


    POTLOK:  cpu time      0.0549: real time      0.0555
    SETDIJ:  cpu time      0.0120: real time      0.0121
     EDDAV:  cpu time      2.5684: real time      2.5899
       DOS:  cpu time      0.0015: real time      0.0015
    CHARGE:  cpu time      0.3341: real time      0.3355
    MIXING:  cpu time      0.0061: real time      0.0062
    --------------------------------------------
      LOOP:  cpu time      2.9771: real time      3.0006

 eigenvalue-minimisations  :  2204
 total energy-change (2. order) : 0.1805073E+02  (-0.2372982E+02)
 number of electron     264.0000286 magnetization      21.0453485
 augmentation part      176.5802184 magnetization      15.7747967

 Broyden mixing:
  rms(total) = 0.23998E+01    rms(broyden)= 0.23997E+01
  rms(prec ) = 0.24955E+01
  weight for this iteration     100.00

 eigenvalues of (default mixing * dielectric matrix)
  average eigenvalue GAMMA=   0.7825
  0.7825

 Free energy of the ion-electron system (eV)
  ---------------------------------------------------
  alpha Z        PSCENC =       724.40254881
  Ewald energy   TEWEN  =    128163.76815443
  -Hartree energ DENC   =   -160130.94104758
  -exchange      EXHF   =         0.00000000
  -V(xc)+E(xc)   XCENC  =      1068.13162101
  PAW double counting   =     29807.37751408   -32213.95802108
  entropy T*S    EENTRO =        -0.04868143
  eigenvalues    EBANDS =      -885.53779769
  atomic energy  EATOM  =     33382.98336479
  Solvation  Ediel_sol  =         0.00000000
  ---------------------------------------------------
  free energy    TOTEN  =       -83.82234465 eV

  energy without entropy =      -83.77366322  energy(sigma->0) =      -83.80611751


--------------------------------------------------------------------------------------------------------




--------------------------------------- Iteration      1(   7)  ---------------------------------------


    POTLOK:  cpu time      0.0528: real time      0.0533
    SETDIJ:  cpu time      0.0117: real time      0.0118
     EDDAV:  cpu time      2.5673: real time      2.5897
       DOS:  cpu time      0.0036: real time      0.0036
    CHARGE:  cpu time      0.3375: real time      0.3389
    MIXING:  cpu time      0.0034: real time      0.0034
    --------------------------------------------
      LOOP:  cpu time      2.9763: real time      3.0006

 eigenvalue-minimisations  :  2216
 total energy-change (2. order) : 0.1202323E+02  (-0.5959633E+01)
 number of electron     264.0000287 magnetization      19.9155865
 augmentation part      168.9066101 magnetization      13.4566072

 Broyden mixing:
  rms(total) = 0.10855E+01    rms(broyden)= 0.10855E+01
  rms(prec ) = 0.11437E+01
  weight for this iteration     100.00

 eigenvalues of (default mixing * dielectric matrix)
  average eigenvalue GAMMA=   0.7865
  0.9306  0.6423

 Free energy of the ion-electron system (eV)
  ---------------------------------------------------
  alpha Z        PSCENC =       724.40254881
  Ewald energy   TEWEN  =    128163.76815443
  -Hartree energ DENC   =   -160497.86961180
  -exchange      EXHF   =         0.00000000
  -V(xc)+E(xc)   XCENC  =      1082.01053048
  PAW double counting   =     30451.67755978   -32982.65690021
  entropy T*S    EENTRO =        -0.00434105
  eigenvalues    EBANDS =      -396.11042402
  atomic energy  EATOM  =     33382.98336479
  Solvation  Ediel_sol  =         0.00000000
  ---------------------------------------------------
  free energy    TOTEN  =       -71.79911879 eV

  energy without entropy =      -71.79477773  energy(sigma->0) =      -71.79767177


--------------------------------------------------------------------------------------------------------




--------------------------------------- Iteration      1(   8)  ---------------------------------------


    POTLOK:  cpu time      0.0510: real time      0.0515
    SETDIJ:  cpu time      0.0115: real time      0.0115
     EDDAV:  cpu time      2.7432: real time      2.7659
       DOS:  cpu time      0.0015: real time      0.0015
    CHARGE:  cpu time      0.3218: real time      0.3235
    MIXING:  cpu time      0.0060: real time      0.0060
    --------------------------------------------
      LOOP:  cpu time      3.1349: real time      3.1598

 eigenvalue-minimisations  :  2392
 total energy-change (2. order) :-0.7445737E+00  (-0.1916213E+01)
 number of electron     264.0000267 magnetization      18.7889774
 augmentation part      168.2682528 magnetization      13.9127740

 Broyden mixing:
  rms(total) = 0.13711E+01    rms(broyden)= 0.13711E+01
  rms(prec ) = 0.15416E+01
  weight for this iteration     100.00

 eigenvalues of (default mixing * dielectric matrix)
  average eigenvalue GAMMA=   0.6742
  1.1066  0.6388  0.2773

 Free energy of the ion-electron system (eV)
  ---------------------------------------------------
  alpha Z        PSCENC =       724.40254881
  Ewald energy   TEWEN  =    128163.76815443
  -Hartree energ DENC   =   -160424.34731937
  -exchange      EXHF   =         0.00000000
  -V(xc)+E(xc)   XCENC  =      1082.40610135
  PAW double counting   =     30783.59817581   -33339.08429328
  entropy T*S    EENTRO =         0.05250732
  eigenvalues    EBANDS =      -446.32293232
  atomic energy  EATOM  =     33382.98336479
  Solvation  Ediel_sol  =         0.00000000
  ---------------------------------------------------
  free energy    TOTEN  =       -72.54369246 eV

  energy without entropy =      -72.59619979  energy(sigma->0) =      -72.56119490


--------------------------------------------------------------------------------------------------------




--------------------------------------- Iteration      1(   9)  ---------------------------------------


    POTLOK:  cpu time      0.0530: real time      0.0535
    SETDIJ:  cpu time      0.0114: real time      0.0114
     EDDAV:  cpu time      3.1084: real time      3.1340
       DOS:  cpu time      0.0015: real time      0.0015
    CHARGE:  cpu time      0.3385: real time      0.3399
    MIXING:  cpu time      0.0035: real time      0.0036
    --------------------------------------------
      LOOP:  cpu time      3.5163: real time      3.5438

 eigenvalue-minimisations  :  2824
 total energy-change (2. order) : 0.2737513E+01  (-0.5272285E+00)
 number of electron     264.0000271 magnetization      17.4223297
 augmentation part      168.0278809 magnetization      11.3336579

 Broyden mixing:
  rms(total) = 0.89083E+00    rms(broyden)= 0.89080E+00
  rms(prec ) = 0.89915E+00
  weight for this iteration     100.00

 eigenvalues of (default mixing * dielectric matrix)
  average eigenvalue GAMMA=   0.6661
  0.9516  0.7144  0.7144  0.2841

 Free energy of the ion-electron system (eV)
  ---------------------------------------------------
  alpha Z        PSCENC =       724.40254881
  Ewald energy   TEWEN  =    128163.76815443
  -Hartree energ DENC   =   -160495.98595493
  -exchange      EXHF   =         0.00000000
  -V(xc)+E(xc)   XCENC  =      1082.68510417
  PAW double counting   =     31043.72475819   -33616.66444051
  entropy T*S    EENTRO =        -0.02225017
  eigenvalues    EBANDS =      -354.69746381
  atomic energy  EATOM  =     33382.98336479
  Solvation  Ediel_sol  =         0.00000000
  ---------------------------------------------------
  free energy    TOTEN  =       -69.80617902 eV

  energy without entropy =      -69.78392885  energy(sigma->0) =      -69.79876230


--------------------------------------------------------------------------------------------------------




--------------------------------------- Iteration      1(  10)  ---------------------------------------


    POTLOK:  cpu time      0.0527: real time      0.0532
    SETDIJ:  cpu time      0.0117: real time      0.0117
     EDDAV:  cpu time      3.3815: real time      3.4098
       DOS:  cpu time      0.0015: real time      0.0015
    CHARGE:  cpu time      0.3249: real time      0.3262
    MIXING:  cpu time      0.0068: real time      0.0068
    --------------------------------------------
      LOOP:  cpu time      3.7790: real time      3.8091

 eigenvalue-minimisations  :  3136
 total energy-change (2. order) :-0.1227017E+01  (-0.1898254E+00)
 number of electron     264.0000281 magnetization      10.7941215
 augmentation part      168.3073689 magnetization       5.6041300

 Broyden mixing:
  rms(total) = 0.89176E+00    rms(broyden)= 0.89175E+00
  rms(prec ) = 0.92719E+00
  weight for this iteration     100.00

 eigenvalues of (default mixing * dielectric matrix)
  average eigenvalue GAMMA=   1.0360
  2.6795  1.1191  0.6924  0.4226  0.2665

 Free energy of the ion-electron system (eV)
  ---------------------------------------------------
  alpha Z        PSCENC =       724.40254881
  Ewald energy   TEWEN  =    128163.76815443
  -Hartree energ DENC   =   -160461.56503960
  -exchange      EXHF   =         0.00000000
  -V(xc)+E(xc)   XCENC  =      1080.51788723
  PAW double counting   =     31226.20014018   -33803.81139478
  entropy T*S    EENTRO =         0.00196229
  eigenvalues    EBANDS =      -383.53081915
  atomic energy  EATOM  =     33382.98336479
  Solvation  Ediel_sol  =         0.00000000
  ---------------------------------------------------
  free energy    TOTEN  =       -71.03319579 eV

  energy without entropy =      -71.03515808  energy(sigma->0) =      -71.03384989


--------------------------------------------------------------------------------------------------------




--------------------------------------- Iteration      1(  11)  ---------------------------------------


    POTLOK:  cpu time      0.0538: real time      0.0550
    SETDIJ:  cpu time      0.0144: real time      0.0144
     EDDAV:  cpu time      3.0950: real time      3.1205
       DOS:  cpu time      0.0015: real time      0.0015
    CHARGE:  cpu time      0.3296: real time      0.3310
    MIXING:  cpu time      0.0040: real time      0.0041
    --------------------------------------------
      LOOP:  cpu time      3.4984: real time      3.5264

 eigenvalue-minimisations  :  2820
 total energy-change (2. order) :-0.2278279E+01  (-0.1239213E+01)
 number of electron     264.0000283 magnetization       9.1675091
 augmentation part      169.3202634 magnetization       5.4129143

 Broyden mixing:
  rms(total) = 0.86338E+00    rms(broyden)= 0.86332E+00
  rms(prec ) = 0.12464E+01
  weight for this iteration     100.00

 eigenvalues of (default mixing * dielectric matrix)
  average eigenvalue GAMMA=   1.0744
  3.6566  1.0524  0.6711  0.2641  0.4010  0.4010

 Free energy of the ion-electron system (eV)
  ---------------------------------------------------
  alpha Z        PSCENC =       724.40254881
  Ewald energy   TEWEN  =    128163.76815443
  -Hartree energ DENC   =   -160474.92118505
  -exchange      EXHF   =         0.00000000
  -V(xc)+E(xc)   XCENC  =      1075.31380253
  PAW double counting   =     31955.00546462   -34557.39949488
  entropy T*S    EENTRO =        -0.02006254
  eigenvalues    EBANDS =      -342.44406752
  atomic energy  EATOM  =     33382.98336479
  Solvation  Ediel_sol  =         0.00000000
  ---------------------------------------------------
  free energy    TOTEN  =       -73.31147480 eV

  energy without entropy =      -73.29141226  energy(sigma->0) =      -73.30478729


--------------------------------------------------------------------------------------------------------




--------------------------------------- Iteration      1(  12)  ---------------------------------------


    POTLOK:  cpu time      0.0509: real time      0.0514
    SETDIJ:  cpu time      0.0115: real time      0.0115
     EDDAV:  cpu time      3.1337: real time      3.1600
       DOS:  cpu time      0.0015: real time      0.0015
    CHARGE:  cpu time      0.3204: real time      0.3217
    MIXING:  cpu time      0.0065: real time      0.0065
    --------------------------------------------
      LOOP:  cpu time      3.5245: real time      3.5526

 eigenvalue-minimisations  :  2872
 total energy-change (2. order) : 0.1049606E+01  (-0.1073506E+01)
 number of electron     264.0000284 magnetization       6.4460019
 augmentation part      169.7889328 magnetization       2.8850599

 Broyden mixing:
  rms(total) = 0.72677E+00    rms(broyden)= 0.72670E+00
  rms(prec ) = 0.82537E+00
  weight for this iteration     100.00

 eigenvalues of (default mixing * dielectric matrix)
  average eigenvalue GAMMA=   1.2126
  5.1691  0.9817  0.7329  0.7329  0.4490  0.2644  0.1583

 Free energy of the ion-electron system (eV)
  ---------------------------------------------------
  alpha Z        PSCENC =       724.40254881
  Ewald energy   TEWEN  =    128163.76815443
  -Hartree energ DENC   =   -160490.34486609
  -exchange      EXHF   =         0.00000000
  -V(xc)+E(xc)   XCENC  =      1075.10845343
  PAW double counting   =     32090.53442351   -34699.48833050
  entropy T*S    EENTRO =        -0.00269747
  eigenvalues    EBANDS =      -319.22291964
  atomic energy  EATOM  =     33382.98336479
  Solvation  Ediel_sol  =         0.00000000
  ---------------------------------------------------
  free energy    TOTEN  =       -72.26186873 eV

  energy without entropy =      -72.25917126  energy(sigma->0) =      -72.26096958


--------------------------------------------------------------------------------------------------------




--------------------------------------- Iteration      1(  13)  ---------------------------------------


    POTLOK:  cpu time      0.0535: real time      0.0540
    SETDIJ:  cpu time      0.0128: real time      0.0129
     EDDAV:  cpu time      3.3050: real time      3.3322
       DOS:  cpu time      0.0015: real time      0.0015
    CHARGE:  cpu time      0.3368: real time      0.3386
    MIXING:  cpu time      0.0044: real time      0.0044
    --------------------------------------------
      LOOP:  cpu time      3.7141: real time      3.7436

 eigenvalue-minimisations  :  3064
 total energy-change (2. order) :-0.9900767E+00  (-0.3016274E+00)
 number of electron     264.0000280 magnetization       3.9874286
 augmentation part      169.2702909 magnetization       0.7770461

 Broyden mixing:
  rms(total) = 0.49223E+00    rms(broyden)= 0.49221E+00
  rms(prec ) = 0.54194E+00
  weight for this iteration     100.00

 eigenvalues of (default mixing * dielectric matrix)
  average eigenvalue GAMMA=   1.4427
  7.1743  1.2332  0.8569  0.8569  0.5862  0.4222  0.2676  0.1442

 Free energy of the ion-electron system (eV)
  ---------------------------------------------------
  alpha Z        PSCENC =       724.40254881
  Ewald energy   TEWEN  =    128163.76815443
  -Hartree energ DENC   =   -160559.88567491
  -exchange      EXHF   =         0.00000000
  -V(xc)+E(xc)   XCENC  =      1075.27260005
  PAW double counting   =     32168.93361802   -34788.58670876
  entropy T*S    EENTRO =        -0.02393865
  eigenvalues    EBANDS =      -240.11590921
  atomic energy  EATOM  =     33382.98336479
  Solvation  Ediel_sol  =         0.00000000
  ---------------------------------------------------
  free energy    TOTEN  =       -73.25194542 eV

  energy without entropy =      -73.22800677  energy(sigma->0) =      -73.24396587


--------------------------------------------------------------------------------------------------------




--------------------------------------- Iteration      1(  14)  ---------------------------------------


    POTLOK:  cpu time      0.0528: real time      0.0602
    SETDIJ:  cpu time      0.0117: real time      0.0118
     EDDAV:  cpu time      2.7733: real time      2.7961
       DOS:  cpu time      0.0014: real time      0.0015
    CHARGE:  cpu time      0.3266: real time      0.3279
    MIXING:  cpu time      0.0068: real time      0.0068
    --------------------------------------------
      LOOP:  cpu time      3.1727: real time      3.2043

 eigenvalue-minimisations  :  2464
 total energy-change (2. order) :-0.4664855E+01  (-0.4234773E+00)
 number of electron     264.0000277 magnetization       2.6739384
 augmentation part      168.4653327 magnetization       0.4140772

 Broyden mixing:
  rms(total) = 0.32781E+00    rms(broyden)= 0.32777E+00
  rms(prec ) = 0.38120E+00
  weight for this iteration     100.00

 eigenvalues of (default mixing * dielectric matrix)
  average eigenvalue GAMMA=   1.7201
 10.0618  1.8020  0.7854  0.7854  0.6837  0.5466  0.4041  0.2675  0.1440

 Free energy of the ion-electron system (eV)
  ---------------------------------------------------
  alpha Z        PSCENC =       724.40254881
  Ewald energy   TEWEN  =    128163.76815443
  -Hartree energ DENC   =   -160602.82750836
  -exchange      EXHF   =         0.00000000
  -V(xc)+E(xc)   XCENC  =      1073.65170550
  PAW double counting   =     31863.25092777   -34474.50246097
  entropy T*S    EENTRO =        -0.04408347
  eigenvalues    EBANDS =      -208.59944903
  atomic energy  EATOM  =     33382.98336479
  Solvation  Ediel_sol  =         0.00000000
  ---------------------------------------------------
  free energy    TOTEN  =       -77.91680053 eV

  energy without entropy =      -77.87271705  energy(sigma->0) =      -77.90210603


--------------------------------------------------------------------------------------------------------




--------------------------------------- Iteration      1(  15)  ---------------------------------------


    POTLOK:  cpu time      0.0525: real time      0.0530
    SETDIJ:  cpu time      0.0114: real time      0.0115
     EDDAV:  cpu time      2.8388: real time      2.8623
       DOS:  cpu time      0.0015: real time      0.0015
    CHARGE:  cpu time      0.3259: real time      0.3273
    MIXING:  cpu time      0.0117: real time      0.0118
    --------------------------------------------
      LOOP:  cpu time      3.2419: real time      3.2673

 eigenvalue-minimisations  :  2536
 total energy-change (2. order) :-0.2573382E+01  (-0.2287414E+00)
 number of electron     264.0000271 magnetization       2.1030682
 augmentation part      168.1506959 magnetization       0.5971807

 Broyden mixing:
  rms(total) = 0.28126E+00    rms(broyden)= 0.28124E+00
  rms(prec ) = 0.33130E+00
  weight for this iteration     100.00

 eigenvalues of (default mixing * dielectric matrix)
  average eigenvalue GAMMA=   1.7508
 11.2562  2.0890  0.9508  0.7009  0.7009  0.6420  0.2661  0.4029  0.3546  0.1445

 Free energy of the ion-electron system (eV)
  ---------------------------------------------------
  alpha Z        PSCENC =       724.40254881
  Ewald energy   TEWEN  =    128163.76815443
  -Hartree energ DENC   =   -160599.44617244
  -exchange      EXHF   =         0.00000000
  -V(xc)+E(xc)   XCENC  =      1072.63334208
  PAW double counting   =     31642.37985631   -34244.76107212
  entropy T*S    EENTRO =        -0.05668700
  eigenvalues    EBANDS =      -222.39351777
  atomic energy  EATOM  =     33382.98336479
  Solvation  Ediel_sol  =         0.00000000
  ---------------------------------------------------
  free energy    TOTEN  =       -80.49018292 eV

  energy without entropy =      -80.43349592  energy(sigma->0) =      -80.47128725


--------------------------------------------------------------------------------------------------------




--------------------------------------- Iteration      1(  16)  ---------------------------------------


    POTLOK:  cpu time      0.0510: real time      0.0521
    SETDIJ:  cpu time      0.0114: real time      0.0115
     EDDAV:  cpu time      2.9908: real time      3.0162
       DOS:  cpu time      0.0014: real time      0.0014
    CHARGE:  cpu time      0.3347: real time      0.3365
    MIXING:  cpu time      0.0045: real time      0.0045
    --------------------------------------------
      LOOP:  cpu time      3.3938: real time      3.4222

 eigenvalue-minimisations  :  2692
 total energy-change (2. order) :-0.9153490E+00  (-0.1278654E+00)
 number of electron     264.0000274 magnetization       1.6639605
 augmentation part      168.2420008 magnetization       0.5907744

 Broyden mixing:
  rms(total) = 0.19687E+00    rms(broyden)= 0.19684E+00
  rms(prec ) = 0.21914E+00
  weight for this iteration     100.00

 eigenvalues of (default mixing * dielectric matrix)
  average eigenvalue GAMMA=   1.7212
 11.7614  2.3141  0.9052  0.7373  0.7373  0.6558  0.6558  0.4340  0.2673  0.3208
  0.1444

 Free energy of the ion-electron system (eV)
  ---------------------------------------------------
  alpha Z        PSCENC =       724.40254881
  Ewald energy   TEWEN  =    128163.76815443
  -Hartree energ DENC   =   -160576.05088770
  -exchange      EXHF   =         0.00000000
  -V(xc)+E(xc)   XCENC  =      1072.08120224
  PAW double counting   =     31512.33365643   -34106.91349994
  entropy T*S    EENTRO =        -0.03732067
  eigenvalues    EBANDS =      -253.97275032
  atomic energy  EATOM  =     33382.98336479
  Solvation  Ediel_sol  =         0.00000000
  ---------------------------------------------------
  free energy    TOTEN  =       -81.40553193 eV

  energy without entropy =      -81.36821125  energy(sigma->0) =      -81.39309170


--------------------------------------------------------------------------------------------------------




--------------------------------------- Iteration      1(  17)  ---------------------------------------


    POTLOK:  cpu time      0.0513: real time      0.0524
    SETDIJ:  cpu time      0.0126: real time      0.0127
     EDDAV:  cpu time      2.8581: real time      2.8818
       DOS:  cpu time      0.0015: real time      0.0015
    CHARGE:  cpu time      0.3356: real time      0.3371
    MIXING:  cpu time      0.0105: real time      0.0105
    --------------------------------------------
      LOOP:  cpu time      3.2696: real time      3.2959

 eigenvalue-minimisations  :  2560
 total energy-change (2. order) :-0.9137498E+00  (-0.1235099E+00)
 number of electron     264.0000275 magnetization       1.3574796
 augmentation part      168.3656128 magnetization       0.7593270

 Broyden mixing:
  rms(total) = 0.10736E+00    rms(broyden)= 0.10731E+00
  rms(prec ) = 0.11189E+00
  weight for this iteration     100.00

 eigenvalues of (default mixing * dielectric matrix)
  average eigenvalue GAMMA=   1.7030
 12.2155  2.4802  0.8549  0.8549  0.9468  0.6777  0.6777  0.5782  0.4222  0.2670
  0.3162  0.1444

 Free energy of the ion-electron system (eV)
  ---------------------------------------------------
  alpha Z        PSCENC =       724.40254881
  Ewald energy   TEWEN  =    128163.76815443
  -Hartree energ DENC   =   -160559.24486548
  -exchange      EXHF   =         0.00000000
  -V(xc)+E(xc)   XCENC  =      1071.70425726
  PAW double counting   =     31358.06487742   -33942.63550120
  entropy T*S    EENTRO =        -0.01529493
  eigenvalues    EBANDS =      -281.34682287
  atomic energy  EATOM  =     33382.98336479
  Solvation  Ediel_sol  =         0.00000000
  ---------------------------------------------------
  free energy    TOTEN  =       -82.31928175 eV

  energy without entropy =      -82.30398682  energy(sigma->0) =      -82.31418344


--------------------------------------------------------------------------------------------------------




--------------------------------------- Iteration      1(  18)  ---------------------------------------


    POTLOK:  cpu time      0.0526: real time      0.0530
    SETDIJ:  cpu time      0.0117: real time      0.0117
     EDDAV:  cpu time      2.8303: real time      2.8538
       DOS:  cpu time      0.0029: real time      0.0029
    CHARGE:  cpu time      0.3421: real time      0.3434
    MIXING:  cpu time      0.0053: real time      0.0053
    --------------------------------------------
      LOOP:  cpu time      3.2449: real time      3.2703

 eigenvalue-minimisations  :  2528
 total energy-change (2. order) :-0.2302452E+00  (-0.2838955E-01)
 number of electron     264.0000275 magnetization       0.9988863
 augmentation part      168.4219392 magnetization       0.6142815

 Broyden mixing:
  rms(total) = 0.84159E-01    rms(broyden)= 0.84144E-01
  rms(prec ) = 0.88025E-01
  weight for this iteration     100.00

 eigenvalues of (default mixing * dielectric matrix)
  average eigenvalue GAMMA=   1.6844
 12.5556  2.5556  1.0090  1.0090  1.0571  0.7316  0.7316  0.6660  0.4276  0.4276
  0.1444  0.2670  0.3153

 Free energy of the ion-electron system (eV)
  ---------------------------------------------------
  alpha Z        PSCENC =       724.40254881
  Ewald energy   TEWEN  =    128163.76815443
  -Hartree energ DENC   =   -160549.26368396
  -exchange      EXHF   =         0.00000000
  -V(xc)+E(xc)   XCENC  =      1071.64142815
  PAW double counting   =     31317.61726970   -33899.92648976
  entropy T*S    EENTRO =        -0.00657786
  eigenvalues    EBANDS =      -293.76554124
  atomic energy  EATOM  =     33382.98336479
  Solvation  Ediel_sol  =         0.00000000
  ---------------------------------------------------
  free energy    TOTEN  =       -82.54952694 eV

  energy without entropy =      -82.54294908  energy(sigma->0) =      -82.54733432


--------------------------------------------------------------------------------------------------------




--------------------------------------- Iteration      1(  19)  ---------------------------------------


    POTLOK:  cpu time      0.0534: real time      0.0539
    SETDIJ:  cpu time      0.0122: real time      0.0123
     EDDAV:  cpu time      2.6496: real time      2.6714
       DOS:  cpu time      0.0016: real time      0.0016
    CHARGE:  cpu time      0.3336: real time      0.3349
    MIXING:  cpu time      0.0103: real time      0.0103
    --------------------------------------------
      LOOP:  cpu time      3.0607: real time      3.0844

 eigenvalue-minimisations  :  2320
 total energy-change (2. order) :-0.2012060E+00  (-0.1537128E-01)
 number of electron     264.0000276 magnetization       0.6958755
 augmentation part      168.4414004 magnetization       0.4683901

 Broyden mixing:
  rms(total) = 0.69091E-01    rms(broyden)= 0.69081E-01
  rms(prec ) = 0.74139E-01
  weight for this iteration     100.00

 eigenvalues of (default mixing * dielectric matrix)
  average eigenvalue GAMMA=   1.7448
 12.9638  2.5101  2.5101  1.1310  0.8367  0.8367  0.7617  0.7617  0.5890  0.1444
  0.2670  0.4258  0.3151  0.3740

 Free energy of the ion-electron system (eV)
  ---------------------------------------------------
  alpha Z        PSCENC =       724.40254881
  Ewald energy   TEWEN  =    128163.76815443
  -Hartree energ DENC   =   -160533.98185986
  -exchange      EXHF   =         0.00000000
  -V(xc)+E(xc)   XCENC  =      1071.52798609
  PAW double counting   =     31302.68637492   -33885.01413425
  entropy T*S    EENTRO =        -0.00085583
  eigenvalues    EBANDS =      -309.12231207
  atomic energy  EATOM  =     33382.98336479
  Solvation  Ediel_sol  =         0.00000000
  ---------------------------------------------------
  free energy    TOTEN  =       -82.75073296 eV

  energy without entropy =      -82.74987713  energy(sigma->0) =      -82.75044768


--------------------------------------------------------------------------------------------------------




--------------------------------------- Iteration      1(  20)  ---------------------------------------


    POTLOK:  cpu time      0.0508: real time      0.0513
    SETDIJ:  cpu time      0.0137: real time      0.0137
     EDDAV:  cpu time      3.1668: real time      3.1929
       DOS:  cpu time      0.0032: real time      0.0032
    CHARGE:  cpu time      0.3430: real time      0.3445
    MIXING:  cpu time      0.0071: real time      0.0071
    --------------------------------------------
      LOOP:  cpu time      3.5846: real time      3.6128

 eigenvalue-minimisations  :  2888
 total energy-change (2. order) :-0.4181341E+00  (-0.2104872E-01)
 number of electron     264.0000276 magnetization       0.7529396
 augmentation part      168.4620778 magnetization       0.6696837

 Broyden mixing:
  rms(total) = 0.54181E-01    rms(broyden)= 0.54165E-01
  rms(prec ) = 0.66297E-01
  weight for this iteration     100.00

 eigenvalues of (default mixing * dielectric matrix)
  average eigenvalue GAMMA=   1.7287
 12.9513  2.7724  2.7724  1.3431  0.7937  0.7937  0.8270  0.7672  0.7672  0.6256
  0.1444  0.4260  0.2670  0.3145  0.3656

 Free energy of the ion-electron system (eV)
  ---------------------------------------------------
  alpha Z        PSCENC =       724.40254881
  Ewald energy   TEWEN  =    128163.76815443
  -Hartree energ DENC   =   -160505.04190039
  -exchange      EXHF   =         0.00000000
  -V(xc)+E(xc)   XCENC  =      1071.12757331
  PAW double counting   =     31301.12169882   -33884.80443118
  entropy T*S    EENTRO =         0.00002293
  eigenvalues    EBANDS =      -336.72589855
  atomic energy  EATOM  =     33382.98336479
  Solvation  Ediel_sol  =         0.00000000
  ---------------------------------------------------
  free energy    TOTEN  =       -83.16886702 eV

  energy without entropy =      -83.16888995  energy(sigma->0) =      -83.16887466


--------------------------------------------------------------------------------------------------------




--------------------------------------- Iteration      1(  21)  ---------------------------------------


    POTLOK:  cpu time      0.0533: real time      0.0538
    SETDIJ:  cpu time      0.0113: real time      0.0114
     EDDAV:  cpu time      2.7635: real time      2.7863
       DOS:  cpu time      0.0016: real time      0.0016
    CHARGE:  cpu time      0.3357: real time      0.3370
    MIXING:  cpu time      0.0119: real time      0.0119
    --------------------------------------------
      LOOP:  cpu time      3.1773: real time      3.2020

 eigenvalue-minimisations  :  2460
 total energy-change (2. order) :-0.5225067E+00  (-0.1028086E-01)
 number of electron     264.0000276 magnetization       0.5438153
 augmentation part      168.4064159 magnetization       0.4612633

 Broyden mixing:
  rms(total) = 0.48395E-01    rms(broyden)= 0.48389E-01
  rms(prec ) = 0.59933E-01
  weight for this iteration     100.00

 eigenvalues of (default mixing * dielectric matrix)
  average eigenvalue GAMMA=   1.7519
 13.0165  3.9350  2.6667  1.5885  0.9799  0.8476  0.8476  0.7019  0.7019  0.6146
  0.6146  0.1444  0.4264  0.2670  0.3143  0.3626

 Free energy of the ion-electron system (eV)
  ---------------------------------------------------
  alpha Z        PSCENC =       724.40254881
  Ewald energy   TEWEN  =    128163.76815443
  -Hartree energ DENC   =   -160497.07399407
  -exchange      EXHF   =         0.00000000
  -V(xc)+E(xc)   XCENC  =      1070.72131694
  PAW double counting   =     31310.69708854   -33895.36430212
  entropy T*S    EENTRO =         0.00156223
  eigenvalues    EBANDS =      -343.82711326
  atomic energy  EATOM  =     33382.98336479
  Solvation  Ediel_sol  =         0.00000000
  ---------------------------------------------------
  free energy    TOTEN  =       -83.69137371 eV

  energy without entropy =      -83.69293594  energy(sigma->0) =      -83.69189445


--------------------------------------------------------------------------------------------------------




--------------------------------------- Iteration      1(  22)  ---------------------------------------


    POTLOK:  cpu time      0.0521: real time      0.0534
    SETDIJ:  cpu time      0.0114: real time      0.0114
     EDDAV:  cpu time      2.7526: real time      2.7753
       DOS:  cpu time      0.0015: real time      0.0015
    CHARGE:  cpu time      0.3422: real time      0.3435
    MIXING:  cpu time      0.0058: real time      0.0058
    --------------------------------------------
      LOOP:  cpu time      3.1656: real time      3.1910

 eigenvalue-minimisations  :  2448
 total energy-change (2. order) :-0.3783872E+00  (-0.5167794E-02)
 number of electron     264.0000276 magnetization       0.3282106
 augmentation part      168.4396953 magnetization       0.2894619

 Broyden mixing:
  rms(total) = 0.31958E-01    rms(broyden)= 0.31954E-01
  rms(prec ) = 0.35280E-01
  weight for this iteration     100.00

 eigenvalues of (default mixing * dielectric matrix)
  average eigenvalue GAMMA=   1.7953
 13.0406  4.3748  3.2266  2.0042  1.0919  0.8880  0.8880  0.7479  0.7479  0.7165
  0.6396  0.6396  0.1444  0.4257  0.2670  0.3144  0.3627

 Free energy of the ion-electron system (eV)
  ---------------------------------------------------
  alpha Z        PSCENC =       724.40254881
  Ewald energy   TEWEN  =    128163.76815443
  -Hartree energ DENC   =   -160478.69142913
  -exchange      EXHF   =         0.00000000
  -V(xc)+E(xc)   XCENC  =      1070.30484207
  PAW double counting   =     31304.47945549   -33888.93550816
  entropy T*S    EENTRO =         0.00032522
  eigenvalues    EBANDS =      -362.38151446
  atomic energy  EATOM  =     33382.98336479
  Solvation  Ediel_sol  =         0.00000000
  ---------------------------------------------------
  free energy    TOTEN  =       -84.06976094 eV

  energy without entropy =      -84.07008616  energy(sigma->0) =      -84.06986934


--------------------------------------------------------------------------------------------------------




--------------------------------------- Iteration      1(  23)  ---------------------------------------


    POTLOK:  cpu time      0.0537: real time      0.0541
    SETDIJ:  cpu time      0.0114: real time      0.0115
     EDDAV:  cpu time      2.8742: real time      2.8980
       DOS:  cpu time      0.0016: real time      0.0016
    CHARGE:  cpu time      0.3449: real time      0.3465
    MIXING:  cpu time      0.0056: real time      0.0056
    --------------------------------------------
      LOOP:  cpu time      3.2913: real time      3.3174

 eigenvalue-minimisations  :  2584
 total energy-change (2. order) :-0.5962043E+00  (-0.2337138E-02)
 number of electron     264.0000276 magnetization      -0.0053814
 augmentation part      168.4303349 magnetization      -0.0345805

 Broyden mixing:
  rms(total) = 0.23598E-01    rms(broyden)= 0.23595E-01
  rms(prec ) = 0.28132E-01
  weight for this iteration     100.00

 eigenvalues of (default mixing * dielectric matrix)
  average eigenvalue GAMMA=   1.9060
 13.2645  6.7176  2.9237  2.3400  1.2974  1.1212  0.8562  0.8562  0.7043  0.7043
  0.7078  0.6944  0.6060  0.1444  0.2670  0.4258  0.3144  0.3629

 Free energy of the ion-electron system (eV)
  ---------------------------------------------------
  alpha Z        PSCENC =       724.40254881
  Ewald energy   TEWEN  =    128163.76815443
  -Hartree energ DENC   =   -160468.46479508
  -exchange      EXHF   =         0.00000000
  -V(xc)+E(xc)   XCENC  =      1069.69325227
  PAW double counting   =     31320.65932324   -33905.83547613
  entropy T*S    EENTRO =         0.00161508
  eigenvalues    EBANDS =      -371.87395263
  atomic energy  EATOM  =     33382.98336479
  Solvation  Ediel_sol  =         0.00000000
  ---------------------------------------------------
  free energy    TOTEN  =       -84.66596522 eV

  energy without entropy =      -84.66758030  energy(sigma->0) =      -84.66650358


--------------------------------------------------------------------------------------------------------




--------------------------------------- Iteration      1(  24)  ---------------------------------------


    POTLOK:  cpu time      0.0523: real time      0.0543
    SETDIJ:  cpu time      0.0114: real time      0.0115
     EDDAV:  cpu time      2.6623: real time      2.6845
       DOS:  cpu time      0.0016: real time      0.0016
    CHARGE:  cpu time      0.3396: real time      0.3415
    MIXING:  cpu time      0.0108: real time      0.0108
    --------------------------------------------
      LOOP:  cpu time      3.0781: real time      3.1042

 eigenvalue-minimisations  :  2344
 total energy-change (2. order) :-0.3943696E+00  (-0.2235225E-02)
 number of electron     264.0000276 magnetization       0.1191301
 augmentation part      168.4944067 magnetization       0.1512759

 Broyden mixing:
  rms(total) = 0.19473E-01    rms(broyden)= 0.19463E-01
  rms(prec ) = 0.23078E-01
  weight for this iteration     100.00

 eigenvalues of (default mixing * dielectric matrix)
  average eigenvalue GAMMA=   1.9034
 13.0370  7.2054  3.7328  2.3478  1.3353  1.1884  0.8979  0.8979  0.7431  0.7431
  0.6586  0.6586  0.6423  0.1444  0.5627  0.2670  0.4258  0.3144  0.3630

 Free energy of the ion-electron system (eV)
  ---------------------------------------------------
  alpha Z        PSCENC =       724.40254881
  Ewald energy   TEWEN  =    128163.76815443
  -Hartree energ DENC   =   -160444.44822904
  -exchange      EXHF   =         0.00000000
  -V(xc)+E(xc)   XCENC  =      1069.23384715
  PAW double counting   =     31298.30388181   -33882.08913436
  entropy T*S    EENTRO =        -0.00111537
  eigenvalues    EBANDS =      -397.21365307
  atomic energy  EATOM  =     33382.98336479
  Solvation  Ediel_sol  =         0.00000000
  ---------------------------------------------------
  free energy    TOTEN  =       -85.06033484 eV

  energy without entropy =      -85.05921947  energy(sigma->0) =      -85.05996305


[...]
    152       7.5870      0.00000
    153       7.5996      0.00000
    154       7.5996      0.00000
    155       7.5996      0.00000
    156       7.6326      0.00000
    157       8.1057      0.00000
    158       8.1057      0.00000
    159       8.1057      0.00000
    160       9.0700      0.00000
    161       9.0891      0.00000
    162       9.1736      0.00000
    163       9.1736      0.00000
    164       9.1736      0.00000
    165       9.2267      0.00000
    166       9.2267      0.00000
    167       9.2267      0.00000
    168      10.3353      0.00000
    169      11.1601      0.00000
    170      11.1601      0.00000
    171      11.2473      0.00000
    172      11.3727      0.00000


--------------------------------------------------------------------------------------------------------


 soft charge-density along one line, spin component           1
         0         1         2         3         4         5         6         7         8         9
 total charge-density along one line
 
 soft charge-density along one line, spin component           2
         0         1         2         3         4         5         6         7         8         9
 total charge-density along one line
 
 pseudopotential strength for first ion, spin component:           1
 -7.343  -0.000   0.000  -0.005   0.000  -1.366   0.000  -0.000
 -0.000  -7.290   0.000   0.000  -0.005   0.000  -1.408  -0.000
  0.000   0.000  -7.279   0.000   0.000  -0.000  -0.000  -1.418
 -0.005   0.000   0.000  -7.290  -0.000   0.003   0.000  -0.000
  0.000  -0.005   0.000  -0.000  -7.343  -0.000   0.003  -0.000
 -1.366   0.000  -0.000   0.003  -0.000   7.944  -0.000   0.000
  0.000  -1.408  -0.000   0.000   0.003  -0.000   7.974  -0.000
 -0.000  -0.000  -1.418  -0.000  -0.000   0.000  -0.000   7.981
  0.003   0.000  -0.000  -1.408   0.000  -0.003  -0.000  -0.000
 -0.000   0.003  -0.000   0.000  -1.366   0.000  -0.003   0.000
  0.000   0.000  -0.010   0.000   0.000   0.000   0.000   0.003
  0.000   0.000  -0.018   0.000   0.000   0.000   0.000   0.006
  0.000  -0.009  -0.000  -0.000   0.000   0.000   0.009  -0.000
 -0.000  -0.000  -0.009  -0.000  -0.000  -0.000  -0.000   0.008
  0.000  -0.000  -0.000  -0.009   0.000  -0.000  -0.000  -0.000
  0.000  -0.010  -0.000   0.000   0.000   0.000   0.011  -0.000
  0.000   0.000  -0.010   0.000   0.000  -0.000  -0.000   0.010
  0.000   0.000  -0.000  -0.010   0.000  -0.000  -0.000  -0.000
 pseudopotential strength for first ion, spin component:           2
 -7.343  -0.000   0.000  -0.005   0.000  -1.366   0.000  -0.000
 -0.000  -7.290   0.000   0.000  -0.005   0.000  -1.408  -0.000
  0.000   0.000  -7.279   0.000   0.000  -0.000  -0.000  -1.418
 -0.005   0.000   0.000  -7.290  -0.000   0.003   0.000  -0.000
  0.000  -0.005   0.000  -0.000  -7.343  -0.000   0.003  -0.000
 -1.366   0.000  -0.000   0.003  -0.000   7.944  -0.000   0.000
  0.000  -1.408  -0.000   0.000   0.003  -0.000   7.974  -0.000
 -0.000  -0.000  -1.418  -0.000  -0.000   0.000  -0.000   7.981
  0.003   0.000  -0.000  -1.408   0.000  -0.003  -0.000  -0.000
 -0.000   0.003  -0.000   0.000  -1.366   0.000  -0.003   0.000
  0.000   0.000  -0.010   0.000   0.000   0.000   0.000   0.003
  0.000   0.000  -0.018   0.000   0.000   0.000   0.000   0.006
  0.000  -0.009  -0.000  -0.000   0.000   0.000   0.009  -0.000
 -0.000  -0.000  -0.009  -0.000  -0.000  -0.000  -0.000   0.008
  0.000  -0.000  -0.000  -0.009   0.000  -0.000  -0.000  -0.000
  0.000  -0.010  -0.000   0.000   0.000   0.000   0.011  -0.000
  0.000   0.000  -0.010   0.000   0.000  -0.000  -0.000   0.010
  0.000   0.000  -0.000  -0.010   0.000  -0.000  -0.000  -0.000
 total augmentation occupancy for first ion, spin component:           1
  1.905   0.000   0.000  -0.006   0.000  -0.016  -0.000  -0.000   0.005   0.000  -0.000   0.000   0.000   0.000   0.007  -0.000
  0.000   1.927   0.000  -0.000  -0.006  -0.000  -0.032  -0.000   0.000   0.005  -0.000   0.000   0.011   0.000  -0.000  -0.010
  0.000   0.000   1.930  -0.000  -0.000  -0.000  -0.000  -0.029   0.000   0.000   0.007   0.011  -0.000   0.049   0.000   0.000
 -0.006  -0.000  -0.000   1.927   0.000   0.005   0.000   0.000  -0.032  -0.000   0.000   0.000  -0.000   0.000   0.011   0.000
 -0.000  -0.006  -0.000   0.000   1.905  -0.000   0.005   0.000   0.000  -0.016  -0.000  -0.000   0.007  -0.000  -0.000  -0.001
 -0.016  -0.000  -0.000   0.005  -0.000   0.013   0.000   0.000   0.000  -0.000  -0.000   0.000  -0.000   0.000   0.002  -0.000
 -0.000  -0.032  -0.000   0.000   0.005   0.000   0.009  -0.000  -0.000   0.000   0.000  -0.000   0.016  -0.000  -0.000  -0.001
 -0.000  -0.000  -0.029   0.000   0.000   0.000  -0.000   0.013   0.000  -0.000  -0.045   0.002  -0.000   0.022   0.000   0.000
  0.005   0.000   0.000  -0.032  -0.000   0.000  -0.000   0.000   0.009  -0.000  -0.000   0.000  -0.000   0.000   0.016   0.000
  0.000   0.005   0.000  -0.000  -0.016   0.000   0.000  -0.000   0.000   0.013   0.000  -0.000   0.002  -0.000  -0.000  -0.000
 -0.000   0.000   0.007  -0.000  -0.000   0.000  -0.000  -0.045  -0.000   0.000   1.687  -0.132   0.000   0.126   0.000   0.000
  0.000   0.000   0.011  -0.000  -0.000   0.000   0.000   0.002   0.000  -0.000  -0.132   0.016   0.000  -0.021   0.000  -0.000
  0.000   0.011  -0.000  -0.000   0.007   0.000   0.016  -0.000  -0.000   0.002  -0.000   0.000   0.201  -0.000  -0.000  -0.012
  0.000  -0.000   0.049  -0.000  -0.000   0.000   0.000   0.022  -0.000  -0.000   0.126  -0.021  -0.000   0.123  -0.000   0.000
  0.007  -0.000   0.000   0.011  -0.000   0.002  -0.000   0.000   0.016   0.000  -0.000  -0.000  -0.000  -0.000   0.201   0.000
 -0.000  -0.010   0.000   0.000  -0.001   0.000  -0.001   0.000   0.000  -0.000   0.000  -0.000  -0.012  -0.000   0.000   0.001
 -0.000  -0.000  -0.014   0.000   0.000  -0.000  -0.000  -0.001   0.000   0.000  -0.018   0.002   0.000  -0.008  -0.000   0.000
 -0.001   0.000  -0.000  -0.010   0.000  -0.000   0.000  -0.000  -0.001   0.000  -0.000  -0.000   0.000  -0.000  -0.012  -0.000
 total augmentation occupancy for first ion, spin component:           2
  0.000   0.000   0.000  -0.000  -0.000   0.000  -0.000   0.000  -0.000  -0.000   0.000   0.000  -0.000  -0.000  -0.000  -0.000
 -0.000   0.000   0.000   0.000  -0.000  -0.000   0.000   0.000  -0.000  -0.000  -0.000  -0.000  -0.000  -0.000  -0.000   0.000
 -0.000   0.000   0.000   0.000  -0.000  -0.000   0.000   0.000   0.000  -0.000   0.000   0.000   0.000   0.000   0.000   0.000
 -0.000   0.000   0.000   0.000   0.000  -0.000   0.000   0.000   0.000   0.000  -0.000  -0.000   0.000   0.000  -0.000   0.000
 -0.000  -0.000  -0.000   0.000   0.000   0.000  -0.000  -0.000  -0.000   0.000  -0.000  -0.000  -0.000  -0.000   0.000  -0.000
  0.000   0.000   0.000  -0.000  -0.000  -0.000   0.000  -0.000  -0.000   0.000   0.000   0.000   0.000  -0.000  -0.000  -0.000
  0.000   0.000   0.000  -0.000  -0.000  -0.000  -0.000   0.000   0.000  -0.000  -0.000  -0.000   0.000  -0.000  -0.000  -0.000
  0.000   0.000   0.000   0.000  -0.000  -0.000   0.000  -0.000   0.000   0.000  -0.000   0.000   0.000  -0.000   0.000  -0.000
 -0.000  -0.000   0.000   0.000  -0.000  -0.000   0.000   0.000  -0.000  -0.000   0.000  -0.000   0.000  -0.000   0.000   0.000
  0.000  -0.000  -0.000   0.000   0.000   0.000  -0.000   0.000  -0.000  -0.000   0.000  -0.000  -0.000   0.000   0.000   0.000
 -0.000   0.000   0.000  -0.000  -0.000   0.000  -0.000  -0.000   0.000   0.000  -0.000   0.000  -0.000   0.000   0.000  -0.000
  0.000   0.000   0.000   0.000  -0.000  -0.000  -0.000   0.000  -0.000  -0.000   0.000  -0.000  -0.000   0.000   0.000  -0.000
 -0.000  -0.000   0.000   0.000  -0.000  -0.000   0.000   0.000   0.000  -0.000   0.000   0.000  -0.000  -0.000   0.000   0.000
  0.000   0.000   0.000  -0.000  -0.000  -0.000   0.000  -0.000  -0.000   0.000   0.000   0.000  -0.000   0.000  -0.000   0.000
 -0.000  -0.000   0.000  -0.000   0.000  -0.000  -0.000   0.000   0.000   0.000   0.000   0.000   0.000  -0.000  -0.000  -0.000
  0.000   0.000   0.000  -0.000  -0.000   0.000  -0.000  -0.000   0.000   0.000  -0.000  -0.000   0.000   0.000  -0.000  -0.000
 -0.000   0.000  -0.000  -0.000   0.000   0.000   0.000   0.000  -0.000  -0.000  -0.000   0.000   0.000  -0.000   0.000  -0.000
 -0.000  -0.000  -0.000   0.000   0.000   0.000   0.000  -0.000  -0.000   0.000   0.000  -0.000   0.000   0.000   0.000  -0.000


------------------------ aborting loop because EDIFF is reached ----------------------------------------



 DIPCOR: dipole corrections for dipol
 direction  3 min pos   168,
 dipolmoment           0.000000      0.000000     -0.002113 electrons x Angstroem
 Tr[quadrupol]     -1220.627910

 energy correction for charged system         0.000000 eV
 dipol+quadrupol energy correction            0.000001 eV
 added-field ion interaction          0.000000 eV  (added to PSCEN)

 
  *************** adding dipol energy to TOTEN NOW **************** 
    CHARGE:  cpu time      0.3256: real time      0.3269
    FORLOC:  cpu time      0.0108: real time      0.0108
    FORNL :  cpu time      2.0539: real time      2.0615
    STRESS:  cpu time      1.5851: real time      1.5941
    FORCOR:  cpu time      0.0555: real time      0.0558
    FORHAR:  cpu time      0.0102: real time      0.0103
    MIXING:  cpu time      0.0014: real time      0.0014
    OFIELD:  cpu time      0.0000: real time      0.0000

 ---------------------------------------------------------------------------------------------

         DFTD3 V3.0 Rev 1        
 Edisp (eV)   -9.70547

 E6    (eV) :    -3.9578
 E8    (eV) :    -5.7476
 % E8        : 59.22
    FORVDW:  cpu time      0.1181: real time      0.1186

  FORCE on cell =-STRESS in cart. coord.  units (eV):
  Direction    XX          YY          ZZ          XY          YZ          ZX
  --------------------------------------------------------------------------------------
  Alpha Z   724.40255   724.40255   724.40255
  Ewald  154288.67321154288.67321************     0.00000     0.00000     0.00000
  Hartree163479.66855163479.66855************     0.00000    -0.00000    -0.00000
  E(xc)   -1542.59525 -1542.59483 -1544.53332    -0.00036     0.00001     0.00001
  Local  ************************326781.96959     0.01201    -0.00000    -0.00001
  n-local  -504.08494  -517.18365  -514.57282   -11.34215     0.43081    -0.73371
  augment  2272.75769  2272.77091  2274.80020    -0.01145     0.00000     0.00000
  Kinetic  2148.40471  2159.35033  2159.95825     9.47996    -2.18912     3.79187
  Fock        0.00000     0.00000     0.00000     0.00000     0.00000     0.00000
  vdW       -11.84869   -11.84869    -9.17538    -0.00000     0.00000     0.00000
  -------------------------------------------------------------------------------------
  Total     -11.21956   -11.21956    -4.52452    -0.00000     0.00000     0.00000
  in kB     -30.91231   -30.91231   -12.46603    -0.00000     0.00000     0.00000
  external pressure =      -24.76 kB  Pullay stress =        0.00 kB


 VOLUME and BASIS-vectors are now :
 -----------------------------------------------------------------------------
  energy-cutoff  :      400.00
  volume of cell :      581.51
      direct lattice vectors                 reciprocal lattice vectors
     5.133595467  0.000000000  0.000000000     0.194795248 -0.112465089  0.000000000
     2.566797733  4.445824087  0.000000000     0.000000000  0.224930177  0.000000000
     0.000000000  0.000000000 25.478908539     0.000000000  0.000000000  0.039248149

  length of vectors
     5.133595467  5.133595467 25.478908539     0.224930177  0.224930177  0.039248149


 FORCES acting on ions
    electron-ion (+dipol)            ewald-force                    non-local-force                 convergence-correction
 -----------------------------------------------------------------------------------------------
   -.390E-05 -.225E-05 0.496E+04   -.127E-06 -.190E-06 -.496E+04   0.104E-16 0.694E-17 -.214E+01   0.775E-10 0.449E-10 0.611E-01
   -.523E-05 -.725E-06 0.496E+04   -.167E-06 0.344E-06 -.496E+04   -.104E-16 -.694E-17 -.214E+01   0.645E-10 0.613E-10 0.611E-01
   -.275E-05 -.225E-05 0.496E+04   0.182E-06 -.349E-06 -.496E+04   -.173E-17 0.694E-17 -.214E+01   0.908E-10 0.451E-10 0.611E-01
   -.409E-05 -.725E-06 0.496E+04   0.142E-06 0.185E-06 -.496E+04   0.173E-17 -.208E-16 -.214E+01   0.749E-10 0.603E-10 0.611E-01
   0.140E-05 0.207E-05 0.303E+04   -.187E-06 -.213E-06 -.302E+04   0.781E-17 0.173E-17 -.162E+01   0.406E-08 0.237E-08 -.468E-01
   0.779E-07 0.358E-05 0.303E+04   -.214E-06 0.402E-06 -.302E+04   0.434E-18 0.173E-17 -.162E+01   0.403E-08 0.239E-08 -.468E-01
   0.253E-05 0.207E-05 0.303E+04   0.165E-06 -.404E-06 -.302E+04   0.867E-18 0.347E-17 -.162E+01   0.408E-08 0.236E-08 -.468E-01
   0.121E-05 0.358E-05 0.303E+04   0.138E-06 0.212E-06 -.302E+04   0.130E-17 0.347E-17 -.162E+01   0.406E-08 0.239E-08 -.468E-01
   -.448E-05 -.223E-05 0.101E+04   -.878E-07 -.170E-06 -.101E+04   -.304E-17 0.217E-18 0.457E+00   0.101E-06 0.581E-07 -.150E+00
   -.580E-05 -.729E-06 0.101E+04   -.156E-06 0.326E-06 -.101E+04   -.390E-17 0.217E-18 0.457E+00   0.101E-06 0.582E-07 -.150E+00
   -.335E-05 -.223E-05 0.101E+04   0.206E-06 -.305E-06 -.101E+04   -.173E-17 0.651E-18 0.457E+00   0.101E-06 0.581E-07 -.150E+00
   -.467E-05 -.729E-06 0.101E+04   0.137E-06 0.190E-06 -.101E+04   -.282E-17 0.108E-17 0.457E+00   0.101E-06 0.582E-07 -.150E+00
   0.286E-06 0.165E-06 -.996E+03   -.111E-06 -.190E-06 0.996E+03   -.173E-17 0.434E-18 -.428E+00   0.155E-06 0.895E-07 -.245E+00
   -.103E-05 0.167E-05 -.996E+03   -.179E-06 0.305E-06 0.996E+03   0.108E-17 0.434E-18 -.428E+00   0.155E-06 0.895E-07 -.245E+00
   0.141E-05 0.165E-06 -.996E+03   0.182E-06 -.325E-06 0.996E+03   0.000E+00 0.867E-18 -.428E+00   0.155E-06 0.895E-07 -.245E+00
   0.977E-07 0.167E-05 -.996E+03   0.114E-06 0.170E-06 0.996E+03   0.651E-18 0.434E-18 -.428E+00   0.155E-06 0.895E-07 -.245E+00
   0.384E-05 0.348E-05 -.301E+04   -.189E-06 -.214E-06 0.301E+04   -.434E-17 0.260E-17 0.139E+01   -.675E-08 -.392E-08 -.257E+00
   0.252E-05 0.499E-05 -.301E+04   -.215E-06 0.406E-06 0.301E+04   -.260E-17 0.260E-17 0.139E+01   -.673E-08 -.394E-08 -.257E+00
   0.497E-05 0.348E-05 -.301E+04   0.165E-06 -.405E-06 0.301E+04   -.607E-17 0.260E-17 0.139E+01   -.677E-08 -.392E-08 -.257E+00
   0.365E-05 0.499E-05 -.301E+04   0.140E-06 0.214E-06 0.301E+04   -.737E-17 0.434E-17 0.139E+01   -.675E-08 -.393E-08 -.257E+00
   -.790E-05 -.420E-05 -.498E+04   -.121E-06 -.186E-06 0.498E+04   0.295E-16 0.347E-17 0.234E+01   0.651E-07 0.376E-07 -.366E-01
   -.923E-05 -.268E-05 -.498E+04   -.160E-06 0.352E-06 0.498E+04   -.104E-16 0.347E-17 0.234E+01   0.652E-07 0.375E-07 -.366E-01
   -.676E-05 -.420E-05 -.498E+04   0.191E-06 -.347E-06 0.498E+04   0.139E-16 -.139E-16 0.234E+01   0.650E-07 0.376E-07 -.366E-01
   -.809E-05 -.268E-05 -.498E+04   0.152E-06 0.192E-06 0.498E+04   0.867E-17 -.139E-16 0.234E+01   0.651E-07 0.375E-07 -.366E-01
 -----------------------------------------------------------------------------------------------
   -.453E-04 0.627E-05 0.288E+01   -.183E-12 -.141E-13 0.000E+00   0.202E-16 -.781E-17 0.130E-01   0.127E-05 0.735E-06 -.270E+01
 
 
 POSITION                                       TOTAL-FORCE (eV/Angst)
 -----------------------------------------------------------------------------------
      0.00000      0.00000      0.00000        -0.000000      0.000000      0.185354
      1.28340      2.22291      0.00000        -0.000000     -0.000000      0.185354
      2.56680      0.00000      0.00000         0.000000     -0.000000      0.185354
      3.85020      2.22291      0.00000         0.000000     -0.000000      0.185354
      1.28340      0.74097      2.09578        -0.000000      0.000000     -0.166641
      2.56680      2.96388      2.09578        -0.000000     -0.000000     -0.166641
      3.85020      0.74097      2.09578        -0.000000      0.000000     -0.166641
      5.13360      2.96388      2.09578         0.000000     -0.000000     -0.166641
      2.56680      1.48194      4.10295        -0.000000     -0.000000      0.024828
      3.85020      3.70485      4.10295        -0.000000     -0.000000      0.024828
      5.13360      1.48194      4.10295         0.000000     -0.000000      0.024828
      6.41699      3.70485      4.10295        -0.000000     -0.000000      0.024828
     -0.00000     -0.00000      6.13515         0.000000     -0.000000      0.009497
      1.28340      2.22291      6.13515         0.000000     -0.000000      0.009497
      2.56680     -0.00000      6.13515        -0.000000     -0.000000      0.009497
      3.85020      2.22291      6.13515         0.000000     -0.000000      0.009497
      1.28340      0.74097      8.14883        -0.000000     -0.000000     -0.027486
      2.56680      2.96388      8.14883         0.000000     -0.000000     -0.027486
      3.85020      0.74097      8.14883        -0.000000      0.000000     -0.027486
      5.13360      2.96388      8.14883        -0.000000      0.000000     -0.027486
      2.56680      1.48194     10.19830         0.000000      0.000000     -0.025553
      3.85020      3.70485     10.19830         0.000000      0.000000     -0.025553
      5.13360      1.48194     10.19830         0.000000      0.000000     -0.025553
      6.41699      3.70485     10.19830         0.000000      0.000000     -0.025553
 -----------------------------------------------------------------------------------
    total drift:                               -0.000044      0.000007      0.195780


--------------------------------------------------------------------------------------------------------



  FREE ENERGIE OF THE ION-ELECTRON SYSTEM (eV)
  ---------------------------------------------------
  free  energy   TOTEN  =       -94.88115872 eV

  energy  without entropy=      -94.85631074  energy(sigma->0) =      -94.87287606
 
 d Force = 0.4979449E-05[-0.110E-04, 0.210E-04]  d Energy =-0.1224062E-04 0.172E-04
 d Force =-0.5459623E+01[-0.546E+01,-0.546E+01]  d Ewald  =-0.5459623E+01-0.291E-10


--------------------------------------------------------------------------------------------------------


    POTLOK:  cpu time      0.0647: real time      0.0652


--------------------------------------------------------------------------------------------------------


 stress matrix after NEB project (eV)
    -11.21956     -0.00000      0.00000
     -0.00000    -11.21956      0.00000
      0.00000      0.00000     -4.52452
  FORCES: max atom, RMS     0.027486    0.018775
  FORCE total and by dimension    0.091980    0.027486
  Stress total and by dimension   16.499338   11.219556


--------------------------------------------------------------------------------------------------------


  
 reached required accuracy - stopping structural energy minimisation
     LOOP+:  cpu time      9.5812: real time      9.7196
    4ORBIT:  cpu time      0.0000: real time      0.0000

 total amount of memory used by VASP MPI-rank0    48004. kBytes
=======================================================================

   base      :      30000. kBytes
   nonl-proj :       1756. kBytes
   fftplans  :       2065. kBytes
   grid      :       4765. kBytes
   one-center:        155. kBytes
   wavefun   :       9263. kBytes
 
  
  
 General timing and accounting informations for this job:
 ========================================================
  
                  Total CPU time used (sec):      544.330
                            User time (sec):      521.478
                          System time (sec):       22.852
                         Elapsed time (sec):      550.153
  
                   Maximum memory used (kb):      272884.
                   Average memory used (kb):          N/A
  
                          Minor page faults:       649966
                          Major page faults:         6741
                 Voluntary context switches:         7376
