  32  32   0   0
  0.2116159E+02  0.5133596E-09  0.5133596E-09  0.2967047E-08  0.5000000E-15
  1.000000000000000E-004
  CAR 
 unknown system                          
     14.46539941     -9.18883998  301      2.09776170      1.00000000
     -9.189  0.0000E+00  0.0000E+00  0.0000E+00  0.0000E+00
     -9.110  0.0000E+00  0.0000E+00  0.0000E+00  0.0000E+00
     -9.031  0.0000E+00  0.0000E+00  0.0000E+00  0.0000E+00
     -8.952  0.0000E+00  0.0000E+00  0.0000E+00  0.0000E+00
     -8.873  0.0000E+00  0.0000E+00  0.0000E+00  0.0000E+00
     -8.795 -0.4032E-30 -0.4032E-30 -0.3179E-31 -0.3179E-31
     -8.716 -0.1839E-27 -0.1839E-27 -0.1453E-28 -0.1453E-28
     -8.637 -0.6137E-25 -0.6137E-25 -0.4853E-26 -0.4853E-26
     -8.558 -0.1496E-22 -0.1496E-22 -0.1184E-23 -0.1184E-23
     -8.479 -0.2663E-20 -0.2663E-20 -0.2111E-21 -0.2111E-21
     -8.400 -0.3458E-18 -0.3458E-18 -0.2748E-19 -0.2748E-19
     -8.322 -0.3177E-16 -0.3177E-16 -0.2533E-17 -0.2533E-17
     -8.243 -0.2179E-14 -0.2179E-14 -0.1743E-15 -0.1743E-15
     -8.164 -0.1087E-12 -0.1087E-12 -0.8746E-14 -0.8746E-14
     -8.085 -0.3933E-11 -0.3934E-11 -0.3189E-12 -0.3189E-12
     -8.006 -0.1029E-09 -0.1029E-09 -0.8435E-11 -0.8435E-11
     -7.927 -0.1940E-08 -0.1940E-08 -0.1614E-09 -0.1614E-09
     -7.848 -0.2619E-07 -0.2619E-07 -0.2226E-08 -0.2226E-08
     -7.770 -0.2507E-06 -0.2507E-06 -0.2200E-07 -0.2200E-07
     -7.691 -0.1676E-05 -0.1676E-05 -0.1541E-06 -0.1541E-06
     -7.612 -0.7580E-05 -0.7580E-05 -0.7518E-06 -0.7518E-06
     -7.533 -0.2154E-04 -0.2154E-04 -0.2450E-05 -0.2450E-05
     -7.454 -0.2895E-04 -0.2895E-04 -0.4733E-05 -0.4733E-05
     -7.375  0.3055E-04  0.3055E-04 -0.2324E-05 -0.2324E-05
     -7.297  0.2212E-03  0.2212E-03  0.1512E-04  0.1512E-04
     -7.218  0.4699E-03  0.4699E-03  0.5217E-04  0.5217E-04
     -7.139  0.5549E-03  0.5549E-03  0.9593E-04  0.9593E-04
     -7.060  0.3827E-03  0.3827E-03  0.1261E-03  0.1261E-03
     -6.981  0.1639E-03  0.1639E-03  0.1390E-03  0.1390E-03
     -6.902  0.1670E-03  0.1670E-03  0.1522E-03  0.1522E-03
     -6.823  0.3811E-03  0.3811E-03  0.1822E-03  0.1822E-03
     -6.745  0.5128E-03  0.5128E-03  0.2227E-03  0.2227E-03
     -6.666  0.3364E-03  0.3364E-03  0.2492E-03  0.2492E-03
     -6.587  0.3293E-04  0.3293E-04  0.2518E-03  0.2518E-03
     -6.508  0.1708E-03  0.1708E-03  0.2653E-03  0.2653E-03
     -6.429  0.1217E-02  0.1217E-02  0.3612E-03  0.3612E-03
     -6.350  0.2743E-02  0.2743E-02  0.5775E-03  0.5775E-03
     -6.271  0.3449E-02  0.3449E-02  0.8494E-03  0.8494E-03
     -6.193  0.2734E-02  0.2734E-02  0.1065E-02  0.1065E-02
     -6.114  0.1696E-02  0.1696E-02  0.1199E-02  0.1199E-02
     -6.035  0.1763E-02  0.1763E-02  0.1338E-02  0.1338E-02
     -5.956  0.2828E-02  0.2828E-02  0.1561E-02  0.1561E-02
     -5.877  0.3383E-02  0.3383E-02  0.1827E-02  0.1827E-02
     -5.798  0.2505E-02  0.2505E-02  0.2025E-02  0.2025E-02
     -5.720  0.9517E-03  0.9517E-03  0.2100E-02  0.2100E-02
     -5.641 -0.1183E-03 -0.1183E-03  0.2091E-02  0.2091E-02
     -5.562 -0.3707E-03 -0.3707E-03  0.2061E-02  0.2061E-02
     -5.483  0.2207E-03  0.2207E-03  0.2079E-02  0.2079E-02
     -5.404  0.1747E-02  0.1747E-02  0.2217E-02  0.2217E-02
     -5.325  0.3496E-02  0.3496E-02  0.2492E-02  0.2492E-02
     -5.246  0.3949E-02  0.3949E-02  0.2804E-02  0.2804E-02
     -5.168  0.2632E-02  0.2632E-02  0.3011E-02  0.3011E-02
     -5.089  0.8061E-03  0.8061E-03  0.3075E-02  0.3075E-02
     -5.010 -0.2367E-03 -0.2367E-03  0.3056E-02  0.3056E-02
     -4.931 -0.2118E-03 -0.2118E-03  0.3039E-02  0.3039E-02
     -4.852  0.7580E-03  0.7580E-03  0.3099E-02  0.3099E-02
     -4.773  0.2270E-02  0.2270E-02  0.3278E-02  0.3278E-02
     -4.695  0.3483E-02  0.3483E-02  0.3553E-02  0.3553E-02
     -4.616  0.4124E-02  0.4124E-02  0.3878E-02  0.3878E-02
     -4.537  0.4903E-02  0.4903E-02  0.4264E-02  0.4264E-02
     -4.458  0.5886E-02  0.5886E-02  0.4728E-02  0.4728E-02
     -4.379  0.5868E-02  0.5868E-02  0.5191E-02  0.5191E-02
     -4.300  0.4360E-02  0.4360E-02  0.5535E-02  0.5535E-02
     -4.221  0.2760E-02  0.2760E-02  0.5753E-02  0.5753E-02
     -4.143  0.2477E-02  0.2477E-02  0.5948E-02  0.5948E-02
     -4.064  0.3214E-02  0.3214E-02  0.6201E-02  0.6201E-02
     -3.985  0.4277E-02  0.4277E-02  0.6538E-02  0.6538E-02
     -3.906  0.5707E-02  0.5707E-02  0.6988E-02  0.6988E-02
     -3.827  0.7002E-02  0.7002E-02  0.7540E-02  0.7540E-02
     -3.748  0.7090E-02  0.7090E-02  0.8100E-02  0.8100E-02
     -3.670  0.6024E-02  0.6024E-02  0.8575E-02  0.8575E-02
     -3.591  0.4825E-02  0.4825E-02  0.8955E-02  0.8955E-02
     -3.512  0.4238E-02  0.4238E-02  0.9289E-02  0.9289E-02
     -3.433  0.4325E-02  0.4325E-02  0.9630E-02  0.9630E-02
     -3.354  0.4556E-02  0.4556E-02  0.9989E-02  0.9989E-02
     -3.275  0.4351E-02  0.4351E-02  0.1033E-01  0.1033E-01
     -3.196  0.3882E-02  0.3882E-02  0.1064E-01  0.1064E-01
     -3.118  0.4237E-02  0.4237E-02  0.1097E-01  0.1097E-01
     -3.039  0.6033E-02  0.6033E-02  0.1145E-01  0.1145E-01
     -2.960  0.8241E-02  0.8241E-02  0.1210E-01  0.1210E-01
     -2.881  0.1013E-01  0.1013E-01  0.1290E-01  0.1290E-01
     -2.802  0.1312E-01  0.1312E-01  0.1393E-01  0.1393E-01
     -2.723  0.1853E-01  0.1853E-01  0.1539E-01  0.1539E-01
     -2.645  0.2523E-01  0.2523E-01  0.1738E-01  0.1738E-01
     -2.566  0.3063E-01  0.3063E-01  0.1980E-01  0.1980E-01
     -2.487  0.3233E-01  0.3233E-01  0.2235E-01  0.2235E-01
     -2.408  0.2955E-01  0.2955E-01  0.2468E-01  0.2468E-01
     -2.329  0.2477E-01  0.2477E-01  0.2663E-01  0.2663E-01
     -2.250  0.2246E-01  0.2246E-01  0.2840E-01  0.2840E-01
     -2.171  0.2531E-01  0.2531E-01  0.3040E-01  0.3040E-01
     -2.093  0.3227E-01  0.3227E-01  0.3294E-01  0.3294E-01
     -2.014  0.4022E-01  0.4022E-01  0.3611E-01  0.3611E-01
     -1.935  0.4589E-01  0.4589E-01  0.3973E-01  0.3973E-01
     -1.856  0.4749E-01  0.4749E-01  0.4347E-01  0.4347E-01
     -1.777  0.4547E-01  0.4547E-01  0.4706E-01  0.4706E-01
     -1.698  0.4126E-01  0.4126E-01  0.5031E-01  0.5031E-01
     -1.619  0.3695E-01  0.3695E-01  0.5323E-01  0.5323E-01
     -1.541  0.3510E-01  0.3510E-01  0.5599E-01  0.5599E-01
     -1.462  0.3678E-01  0.3678E-01  0.5889E-01  0.5889E-01
     -1.383  0.4177E-01  0.4177E-01  0.6219E-01  0.6219E-01
     -1.304  0.4963E-01  0.4963E-01  0.6610E-01  0.6610E-01
     -1.225  0.5762E-01  0.5762E-01  0.7064E-01  0.7064E-01
     -1.146  0.6162E-01  0.6162E-01  0.7550E-01  0.7550E-01
     -1.068  0.6222E-01  0.6222E-01  0.8041E-01  0.8041E-01
     -0.989  0.6541E-01  0.6541E-01  0.8557E-01  0.8557E-01
     -0.910  0.7308E-01  0.7308E-01  0.9133E-01  0.9133E-01
     -0.831  0.7940E-01  0.7940E-01  0.9759E-01  0.9759E-01
     -0.752  0.7957E-01  0.7957E-01  0.1039E+00  0.1039E+00
     -0.673  0.7547E-01  0.7547E-01  0.1098E+00  0.1098E+00
     -0.594  0.7138E-01  0.7138E-01  0.1154E+00  0.1154E+00
     -0.516  0.6909E-01  0.6909E-01  0.1209E+00  0.1209E+00
     -0.437  0.6836E-01  0.6836E-01  0.1263E+00  0.1263E+00
     -0.358  0.6843E-01  0.6843E-01  0.1317E+00  0.1317E+00
     -0.279  0.6753E-01  0.6753E-01  0.1370E+00  0.1370E+00
     -0.200  0.6496E-01  0.6496E-01  0.1421E+00  0.1421E+00
     -0.121  0.6270E-01  0.6270E-01  0.1471E+00  0.1471E+00
     -0.043  0.6216E-01  0.6216E-01  0.1520E+00  0.1520E+00
      0.036  0.6468E-01  0.6468E-01  0.1571E+00  0.1571E+00
      0.115  0.7300E-01  0.7300E-01  0.1628E+00  0.1628E+00
      0.194  0.8479E-01  0.8479E-01  0.1695E+00  0.1695E+00
      0.273  0.9230E-01  0.9230E-01  0.1768E+00  0.1768E+00
      0.352  0.9317E-01  0.9317E-01  0.1841E+00  0.1841E+00
      0.431  0.9249E-01  0.9249E-01  0.1914E+00  0.1914E+00
      0.509  0.9111E-01  0.9111E-01  0.1986E+00  0.1986E+00
      0.588  0.8106E-01  0.8106E-01  0.2050E+00  0.2050E+00
      0.667  0.5740E-01  0.5740E-01  0.2095E+00  0.2095E+00
      0.746  0.2818E-01  0.2818E-01  0.2117E+00  0.2117E+00
      0.825  0.6844E-02  0.6844E-02  0.2123E+00  0.2123E+00
      0.904 -0.1184E-02 -0.1184E-02  0.2122E+00  0.2122E+00
      0.982 -0.4816E-03 -0.4816E-03  0.2122E+00  0.2122E+00
      1.061  0.2150E-02  0.2150E-02  0.2123E+00  0.2123E+00
      1.140  0.3600E-02  0.3600E-02  0.2126E+00  0.2126E+00
      1.219  0.4349E-02  0.4349E-02  0.2130E+00  0.2130E+00
      1.298  0.5412E-02  0.5412E-02  0.2134E+00  0.2134E+00
      1.377  0.6404E-02  0.6404E-02  0.2139E+00  0.2139E+00
      1.456  0.5982E-02  0.5982E-02  0.2144E+00  0.2144E+00
      1.534  0.3823E-02  0.3823E-02  0.2147E+00  0.2147E+00
      1.613  0.2062E-02  0.2062E-02  0.2148E+00  0.2148E+00
      1.692  0.3561E-02  0.3561E-02  0.2151E+00  0.2151E+00
      1.771  0.8356E-02  0.8356E-02  0.2158E+00  0.2158E+00
      1.850  0.1307E-01  0.1307E-01  0.2168E+00  0.2168E+00
      1.929  0.1452E-01  0.1452E-01  0.2179E+00  0.2179E+00
      2.007  0.1307E-01  0.1307E-01  0.2190E+00  0.2190E+00
      2.086  0.1152E-01  0.1152E-01  0.2199E+00  0.2199E+00
      2.165  0.1093E-01  0.1093E-01  0.2207E+00  0.2207E+00
      2.244  0.9408E-02  0.9408E-02  0.2215E+00  0.2215E+00
      2.323  0.6010E-02  0.6010E-02  0.2220E+00  0.2220E+00
      2.402  0.3125E-02  0.3125E-02  0.2222E+00  0.2222E+00
      2.481  0.3073E-02  0.3073E-02  0.2224E+00  0.2224E+00
      2.559  0.5169E-02  0.5169E-02  0.2228E+00  0.2228E+00
      2.638  0.7377E-02  0.7377E-02  0.2234E+00  0.2234E+00
      2.717  0.8324E-02  0.8324E-02  0.2241E+00  0.2241E+00
      2.796  0.7667E-02  0.7667E-02  0.2247E+00  0.2247E+00
      2.875  0.6379E-02  0.6379E-02  0.2252E+00  0.2252E+00
      2.954  0.5495E-02  0.5495E-02  0.2256E+00  0.2256E+00
      3.033  0.4492E-02  0.4492E-02  0.2260E+00  0.2260E+00
      3.111  0.2982E-02  0.2982E-02  0.2262E+00  0.2262E+00
      3.190  0.2231E-02  0.2231E-02  0.2264E+00  0.2264E+00
      3.269  0.3293E-02  0.3293E-02  0.2267E+00  0.2267E+00
      3.348  0.5781E-02  0.5781E-02  0.2271E+00  0.2271E+00
      3.427  0.8978E-02  0.8978E-02  0.2278E+00  0.2278E+00
      3.506  0.1202E-01  0.1202E-01  0.2288E+00  0.2288E+00
      3.584  0.1309E-01  0.1309E-01  0.2298E+00  0.2298E+00
      3.663  0.1089E-01  0.1089E-01  0.2307E+00  0.2307E+00
      3.742  0.6931E-02  0.6931E-02  0.2312E+00  0.2312E+00
      3.821  0.4139E-02  0.4139E-02  0.2315E+00  0.2315E+00
      3.900  0.3231E-02  0.3231E-02  0.2318E+00  0.2318E+00
      3.979  0.2597E-02  0.2597E-02  0.2320E+00  0.2320E+00
      4.058  0.1350E-02  0.1350E-02  0.2321E+00  0.2321E+00
      4.136  0.1421E-03  0.1421E-03  0.2321E+00  0.2321E+00
      4.215 -0.4740E-03 -0.4740E-03  0.2321E+00  0.2321E+00
      4.294 -0.4591E-03 -0.4591E-03  0.2320E+00  0.2320E+00
      4.373  0.6263E-03  0.6263E-03  0.2321E+00  0.2321E+00
      4.452  0.3214E-02  0.3214E-02  0.2323E+00  0.2323E+00
      4.531  0.6101E-02  0.6101E-02  0.2328E+00  0.2328E+00
      4.609  0.7116E-02  0.7116E-02  0.2334E+00  0.2334E+00
      4.688  0.6044E-02  0.6044E-02  0.2339E+00  0.2339E+00
      4.767  0.4497E-02  0.4497E-02  0.2342E+00  0.2342E+00
      4.846  0.3121E-02  0.3121E-02  0.2345E+00  0.2345E+00
      4.925  0.1597E-02  0.1597E-02  0.2346E+00  0.2346E+00
      5.004  0.2108E-03  0.2108E-03  0.2346E+00  0.2346E+00
      5.083 -0.4662E-03 -0.4662E-03  0.2346E+00  0.2346E+00
      5.161 -0.1214E-03 -0.1214E-03  0.2345E+00  0.2345E+00
      5.240  0.1542E-02  0.1542E-02  0.2347E+00  0.2347E+00
      5.319  0.4298E-02  0.4298E-02  0.2350E+00  0.2350E+00
      5.398  0.6857E-02  0.6857E-02  0.2355E+00  0.2355E+00
      5.477  0.8168E-02  0.8168E-02  0.2362E+00  0.2362E+00
      5.556  0.8748E-02  0.8748E-02  0.2369E+00  0.2369E+00
      5.634  0.9274E-02  0.9274E-02  0.2376E+00  0.2376E+00
      5.713  0.9106E-02  0.9106E-02  0.2383E+00  0.2383E+00
      5.792  0.7775E-02  0.7775E-02  0.2389E+00  0.2389E+00
      5.871  0.6005E-02  0.6005E-02  0.2394E+00  0.2394E+00
      5.950  0.4333E-02  0.4333E-02  0.2398E+00  0.2398E+00
      6.029  0.2776E-02  0.2776E-02  0.2400E+00  0.2400E+00
      6.108  0.1916E-02  0.1916E-02  0.2401E+00  0.2401E+00
      6.186  0.2998E-02  0.2998E-02  0.2404E+00  0.2404E+00
      6.265  0.6276E-02  0.6276E-02  0.2409E+00  0.2409E+00
      6.344  0.9449E-02  0.9449E-02  0.2416E+00  0.2416E+00
      6.423  0.9564E-02  0.9564E-02  0.2424E+00  0.2424E+00
      6.502  0.6670E-02  0.6670E-02  0.2429E+00  0.2429E+00
      6.581  0.3674E-02  0.3674E-02  0.2432E+00  0.2432E+00
      6.660  0.3065E-02  0.3065E-02  0.2434E+00  0.2434E+00
      6.738  0.4936E-02  0.4936E-02  0.2438E+00  0.2438E+00
      6.817  0.7443E-02  0.7442E-02  0.2444E+00  0.2444E+00
      6.896  0.8570E-02  0.8570E-02  0.2451E+00  0.2451E+00
      6.975  0.7961E-02  0.7961E-02  0.2457E+00  0.2457E+00
      7.054  0.6954E-02  0.6955E-02  0.2462E+00  0.2462E+00
      7.133  0.6889E-02  0.6890E-02  0.2468E+00  0.2468E+00
      7.211  0.8371E-02  0.8372E-02  0.2474E+00  0.2474E+00
      7.290  0.1087E-01  0.1087E-01  0.2483E+00  0.2483E+00
      7.369  0.1187E-01  0.1187E-01  0.2492E+00  0.2492E+00
      7.448  0.9341E-02  0.9340E-02  0.2500E+00  0.2500E+00
      7.527  0.5224E-02  0.5223E-02  0.2504E+00  0.2504E+00
      7.606  0.2971E-02  0.2971E-02  0.2506E+00  0.2506E+00
      7.685  0.3116E-02  0.3116E-02  0.2509E+00  0.2509E+00
      7.763  0.4221E-02  0.4221E-02  0.2512E+00  0.2512E+00
      7.842  0.5656E-02  0.5656E-02  0.2516E+00  0.2516E+00
      7.921  0.6907E-02  0.6907E-02  0.2522E+00  0.2522E+00
      8.000  0.6600E-02  0.6600E-02  0.2527E+00  0.2527E+00
      8.079  0.4834E-02  0.4834E-02  0.2531E+00  0.2531E+00
      8.158  0.4178E-02  0.4179E-02  0.2534E+00  0.2534E+00
      8.236  0.6319E-02  0.6320E-02  0.2539E+00  0.2539E+00
      8.315  0.1019E-01  0.1019E-01  0.2547E+00  0.2547E+00
      8.394  0.1392E-01  0.1392E-01  0.2558E+00  0.2558E+00
      8.473  0.1582E-01  0.1582E-01  0.2571E+00  0.2571E+00
      8.552  0.1417E-01  0.1416E-01  0.2582E+00  0.2582E+00
      8.631  0.9036E-02  0.9034E-02  0.2589E+00  0.2589E+00
      8.710  0.3766E-02  0.3766E-02  0.2592E+00  0.2592E+00
      8.788  0.2131E-02  0.2132E-02  0.2594E+00  0.2594E+00
      8.867  0.4139E-02  0.4140E-02  0.2597E+00  0.2597E+00
      8.946  0.6011E-02  0.6011E-02  0.2602E+00  0.2602E+00
      9.025  0.4958E-02  0.4957E-02  0.2606E+00  0.2606E+00
      9.104  0.2968E-02  0.2968E-02  0.2608E+00  0.2608E+00
      9.183  0.4176E-02  0.4176E-02  0.2611E+00  0.2611E+00
      9.261  0.8873E-02  0.8874E-02  0.2618E+00  0.2618E+00
      9.340  0.1226E-01  0.1226E-01  0.2628E+00  0.2628E+00
      9.419  0.1030E-01  0.1030E-01  0.2636E+00  0.2636E+00
      9.498  0.4936E-02  0.4936E-02  0.2640E+00  0.2640E+00
      9.577  0.1296E-02  0.1296E-02  0.2641E+00  0.2641E+00
      9.656  0.1846E-02  0.1846E-02  0.2642E+00  0.2642E+00
      9.735  0.4955E-02  0.4956E-02  0.2646E+00  0.2646E+00
      9.813  0.7875E-02  0.7876E-02  0.2652E+00  0.2652E+00
      9.892  0.1024E-01  0.1024E-01  0.2661E+00  0.2661E+00
      9.971  0.1371E-01  0.1371E-01  0.2671E+00  0.2671E+00
     10.050  0.1758E-01  0.1758E-01  0.2685E+00  0.2685E+00
     10.129  0.1802E-01  0.1802E-01  0.2699E+00  0.2699E+00
     10.208  0.1335E-01  0.1334E-01  0.2710E+00  0.2710E+00
     10.286  0.6509E-02  0.6508E-02  0.2715E+00  0.2715E+00
     10.365  0.1747E-02  0.1747E-02  0.2716E+00  0.2716E+00
     10.444  0.1639E-02  0.1639E-02  0.2718E+00  0.2718E+00
     10.523  0.5928E-02  0.5929E-02  0.2722E+00  0.2722E+00
     10.602  0.1055E-01  0.1055E-01  0.2731E+00  0.2731E+00
     10.681  0.1082E-01  0.1082E-01  0.2739E+00  0.2739E+00
     10.760  0.7671E-02  0.7670E-02  0.2745E+00  0.2745E+00
     10.838  0.6279E-02  0.6280E-02  0.2750E+00  0.2750E+00
     10.917  0.8148E-02  0.8149E-02  0.2757E+00  0.2757E+00
     10.996  0.1015E-01  0.1015E-01  0.2765E+00  0.2765E+00
     11.075  0.1095E-01  0.1094E-01  0.2773E+00  0.2773E+00
     11.154  0.1181E-01  0.1181E-01  0.2783E+00  0.2783E+00
     11.233  0.1215E-01  0.1215E-01  0.2792E+00  0.2792E+00
     11.312  0.1034E-01  0.1034E-01  0.2800E+00  0.2800E+00
     11.390  0.8228E-02  0.8229E-02  0.2807E+00  0.2807E+00
     11.469  0.9315E-02  0.9316E-02  0.2814E+00  0.2814E+00
     11.548  0.1275E-01  0.1275E-01  0.2824E+00  0.2824E+00
     11.627  0.1358E-01  0.1358E-01  0.2835E+00  0.2835E+00
     11.706  0.9479E-02  0.9478E-02  0.2842E+00  0.2842E+00
     11.785  0.3675E-02  0.3674E-02  0.2845E+00  0.2845E+00
     11.863  0.1328E-03  0.1326E-03  0.2845E+00  0.2845E+00
     11.942 -0.6966E-03 -0.6965E-03  0.2845E+00  0.2845E+00
     12.021 -0.4436E-03 -0.4436E-03  0.2845E+00  0.2845E+00
     12.100 -0.2128E-03 -0.2128E-03  0.2844E+00  0.2844E+00
     12.179 -0.1465E-03 -0.1465E-03  0.2844E+00  0.2844E+00
     12.258  0.6382E-04  0.6382E-04  0.2844E+00  0.2844E+00
     12.337  0.7606E-03  0.7606E-03  0.2845E+00  0.2845E+00
     12.415  0.1777E-02  0.1777E-02  0.2846E+00  0.2846E+00
     12.494  0.2290E-02  0.2290E-02  0.2848E+00  0.2848E+00
     12.573  0.1776E-02  0.1776E-02  0.2850E+00  0.2850E+00
     12.652  0.7607E-03  0.7607E-03  0.2850E+00  0.2850E+00
     12.731  0.6778E-04  0.6778E-04  0.2850E+00  0.2850E+00
     12.810 -0.1181E-03 -0.1181E-03  0.2850E+00  0.2850E+00
     12.888 -0.7739E-04 -0.7739E-04  0.2850E+00  0.2850E+00
     12.967 -0.2568E-04 -0.2568E-04  0.2850E+00  0.2850E+00
     13.046 -0.5436E-05 -0.5436E-05  0.2850E+00  0.2850E+00
     13.125 -0.7839E-06 -0.7839E-06  0.2850E+00  0.2850E+00
     13.204 -0.7923E-07 -0.7923E-07  0.2850E+00  0.2850E+00
     13.283 -0.5698E-08 -0.5698E-08  0.2850E+00  0.2850E+00
     13.362 -0.2941E-09 -0.2941E-09  0.2850E+00  0.2850E+00
     13.440 -0.1095E-10 -0.1095E-10  0.2850E+00  0.2850E+00
     13.519 -0.2957E-12 -0.2957E-12  0.2850E+00  0.2850E+00
     13.598 -0.5797E-14 -0.5797E-14  0.2850E+00  0.2850E+00
     13.677 -0.8292E-16 -0.8292E-16  0.2850E+00  0.2850E+00
     13.756 -0.7823E-18 -0.7823E-18  0.2850E+00  0.2850E+00
     13.835  0.0000E+00  0.0000E+00  0.2850E+00  0.2850E+00
     13.913  0.0000E+00  0.0000E+00  0.2850E+00  0.2850E+00
     13.992  0.0000E+00  0.0000E+00  0.2850E+00  0.2850E+00
     14.071  0.0000E+00  0.0000E+00  0.2850E+00  0.2850E+00
     14.150  0.0000E+00  0.0000E+00  0.2850E+00  0.2850E+00
     14.229  0.0000E+00  0.0000E+00  0.2850E+00  0.2850E+00
     14.308  0.0000E+00  0.0000E+00  0.2850E+00  0.2850E+00
     14.387  0.0000E+00  0.0000E+00  0.2850E+00  0.2850E+00
     14.465  0.0000E+00  0.0000E+00  0.2850E+00  0.2850E+00
