   32   32  800    2
  0.2116159E+02  0.5133595E-09  0.5133595E-09  0.2967047E-08  0.5000000E-15
  1.000000000000000E-004
  CAR 
 unknown system                          
    352      3    228
 
  0.0000000E+00  0.0000000E+00  0.0000000E+00  0.1111111E+00
      1         -7.188840       -7.188840   1.000000   1.000000
      2         -6.775878       -6.775879   1.000000   1.000000
      3         -6.134617       -6.134617   1.000000   1.000000
      4         -5.297992       -5.297992   1.000000   1.000000
      5         -4.383384       -4.383384   1.000000   1.000000
      6         -3.580320       -3.580320   1.000000   1.000000
      7         -3.104035       -3.104035   1.000000   1.000000
      8         -2.963769       -2.963769   1.000000   1.000000
      9         -2.963754       -2.963754   1.000000   1.000000
     10         -2.963754       -2.963754   1.000000   1.000000
     11         -2.963505       -2.963505   1.000000   1.000000
     12         -2.774095       -2.774095   1.000000   1.000000
     13         -2.774088       -2.774088   1.000000   1.000000
     14         -2.774088       -2.774088   1.000000   1.000000
     15         -2.751125       -2.751125   1.000000   1.000000
     16         -2.751112       -2.751112   1.000000   1.000000
     17         -2.751112       -2.751112   1.000000   1.000000
     18         -2.628845       -2.628845   1.000000   1.000000
     19         -2.628840       -2.628840   1.000000   1.000000
     20         -2.628840       -2.628840   1.000000   1.000000
     21         -2.488782       -2.488782   1.000000   1.000000
     22         -2.488768       -2.488768   1.000000   1.000000
     23         -2.488768       -2.488768   1.000000   1.000000
     24         -2.440510       -2.440510   1.000000   1.000000
     25         -2.440503       -2.440503   1.000000   1.000000
     26         -2.440503       -2.440503   1.000000   1.000000
     27         -2.306557       -2.306557   1.000000   1.000000
     28         -2.306557       -2.306557   1.000000   1.000000
     29         -2.306556       -2.306556   1.000000   1.000000
     30         -2.186488       -2.186488   1.000000   1.000000
     31         -2.186481       -2.186481   1.000000   1.000000
     32         -2.186481       -2.186481   1.000000   1.000000
     33         -2.173882       -2.173882   1.000000   1.000000
     34         -2.173879       -2.173879   1.000000   1.000000
     35         -2.173879       -2.173879   1.000000   1.000000
     36         -2.145864       -2.145864   1.000000   1.000000
     37         -2.145854       -2.145854   1.000000   1.000000
     38         -2.145854       -2.145854   1.000000   1.000000
     39         -1.987632       -1.987632   1.000000   1.000000
     40         -1.987632       -1.987632   1.000000   1.000000
     41         -1.987630       -1.987630   1.000000   1.000000
     42         -1.740680       -1.740680   1.000000   1.000000
     43         -1.740680       -1.740680   1.000000   1.000000
     44         -1.740677       -1.740677   1.000000   1.000000
     45         -1.429211       -1.429211   1.000000   1.000000
     46         -1.429211       -1.429211   1.000000   1.000000
     47         -1.429207       -1.429207   1.000000   1.000000
     48         -1.139485       -1.139485   1.000000   1.000000
     49         -1.139485       -1.139485   1.000000   1.000000
     50         -1.139482       -1.139482   1.000000   1.000000
     51         -1.037420       -1.037419   1.000000   1.000000
     52         -1.020713       -1.020713   1.000000   1.000000
     53         -0.996795       -0.996795   1.000000   1.000000
     54         -0.996795       -0.996795   1.000000   1.000000
     55         -0.996793       -0.996793   1.000000   1.000000
     56         -0.951022       -0.951022   1.000000   1.000000
     57         -0.951022       -0.951022   1.000000   1.000000
     58         -0.951017       -0.951017   1.000000   1.000000
     59         -0.945653       -0.945653   1.000000   1.000000
     60         -0.945651       -0.945651   1.000000   1.000000
     61         -0.940147       -0.940147   1.000000   1.000000
     62         -0.940145       -0.940145   1.000000   1.000000
     63         -0.892696       -0.892696   1.000000   1.000000
     64         -0.875408       -0.875408   1.000000   1.000000
     65         -0.866980       -0.866980   1.000000   1.000000
     66         -0.866977       -0.866977   1.000000   1.000000
     67         -0.852813       -0.852813   1.000000   1.000000
     68         -0.852813       -0.852813   1.000000   1.000000
     69         -0.852807       -0.852807   1.000000   1.000000
     70         -0.844077       -0.844077   1.000000   1.000000
     71         -0.844077       -0.844077   1.000000   1.000000
     72         -0.844070       -0.844070   1.000000   1.000000
     73         -0.839085       -0.839085   1.000000   1.000000
     74         -0.839085       -0.839085   1.000000   1.000000
     75         -0.839083       -0.839083   1.000000   1.000000
     76         -0.839043       -0.839043   1.000000   1.000000
     77         -0.839041       -0.839041   1.000000   1.000000
     78         -0.802420       -0.802420   1.000000   1.000000
     79         -0.795213       -0.795213   1.000000   1.000000
     80         -0.795210       -0.795210   1.000000   1.000000
     81         -0.754974       -0.754974   1.000000   1.000000
     82         -0.754970       -0.754970   1.000000   1.000000
     83         -0.750406       -0.750406   1.000000   1.000000
     84         -0.750406       -0.750406   1.000000   1.000000
     85         -0.750399       -0.750399   1.000000   1.000000
     86         -0.669227       -0.669227   1.000000   1.000000
     87         -0.669222       -0.669222   1.000000   1.000000
     88         -0.642053       -0.642053   1.000000   1.000000
     89         -0.642049       -0.642049   1.000000   1.000000
     90         -0.598195       -0.598195   1.000000   1.000000
     91         -0.598195       -0.598195   1.000000   1.000000
     92         -0.598193       -0.598193   1.000000   1.000000
     93         -0.536653       -0.536653   1.000000   1.000000
     94         -0.517373       -0.517373   1.000000   1.000000
     95         -0.517373       -0.517373   1.000000   1.000000
     96         -0.517369       -0.517369   1.000000   1.000000
     97         -0.307674       -0.307673   1.000000   1.000000
     98         -0.307674       -0.307673   1.000000   1.000000
     99         -0.307671       -0.307671   1.000000   1.000000
    100         -0.269219       -0.269219   1.000000   1.000000
    101         -0.269219       -0.269219   1.000000   1.000000
    102         -0.269216       -0.269216   1.000000   1.000000
    103         -0.090858       -0.090858   1.000000   1.000000
    104         -0.090858       -0.090858   1.000000   1.000000
    105         -0.084406       -0.084406   1.000000   1.000000
    106         -0.084404       -0.084404   1.000000   1.000000
    107         -0.047402       -0.047402   1.000000   1.000000
    108         -0.047400       -0.047399   1.000000   1.000000
    109         -0.042630       -0.042630   1.000000   1.000000
    110         -0.042630       -0.042630   1.000000   1.000000
    111         -0.042628       -0.042628   1.000000   1.000000
    112         -0.029942       -0.029942   1.000000   1.000000
    113         -0.029941       -0.029941   1.000000   1.000000
    114         -0.029939       -0.029939   1.000000   1.000000
    115          0.022091        0.022091   1.000000   1.000000
    116          0.022092        0.022092   1.000000   1.000000
    117          0.175436        0.175436   1.000000   1.000000
    118          0.175438        0.175438   1.000000   1.000000
    119          0.212197        0.212198   1.000000   1.000000
    120          0.212197        0.212198   1.000000   1.000000
    121          0.212199        0.212199   1.000000   1.000000
    122          0.249336        0.249336   1.000000   1.000000
    123          0.249339        0.249340   1.000000   1.000000
    124          0.249339        0.249340   1.000000   1.000000
    125          0.290139        0.290139   1.000000   1.000000
    126          0.320136        0.320136   1.000000   1.000000
    127          0.320138        0.320138   1.000000   1.000000
    128          0.405773        0.405773   1.000000   1.000000
    129          0.405773        0.405773   1.000000   1.000000
    130          0.405773        0.405773   1.000000   1.000000
    131          0.430012        0.430012   1.000000   1.000000
    132          0.430016        0.430016   1.000000   1.000000
    133          0.430016        0.430016   1.000000   1.000000
    134          0.451083        0.451083   1.000000   1.000000
    135          0.451084        0.451084   1.000000   1.000000
    136          0.479252        0.479252   1.000000   1.000000
    137          0.479263        0.479263   1.000000   1.000000
    138          0.479263        0.479263   1.000000   1.000000
    139          0.483477        0.483477   1.000000   1.000000
    140          0.483486        0.483486   1.000000   1.000000
    141          0.483486        0.483486   1.000000   1.000000
    142          0.507187        0.507187   1.000000   1.000000
    143          0.507198        0.507198   1.000000   1.000000
    144          0.507198        0.507198   1.000000   1.000000
    145          0.521475        0.521475   1.000000   1.000000
    146          0.521486        0.521486   1.000000   1.000000
    147          0.521486        0.521486   1.000000   1.000000
    148          0.535266        0.535266   1.000000   1.000000
    149          0.535266        0.535266   1.000000   1.000000
    150          0.537880        0.537880   1.000000   1.000000
    151          0.537892        0.537892   1.000000   1.000000
    152          0.537892        0.537892   1.000000   1.000000
    153          0.582626        0.582626   1.000000   1.000000
    154          0.582634        0.582634   1.000000   1.000000
    155          0.582634        0.582634   1.000000   1.000000
    156          0.592218        0.592219   1.000000   1.000000
    157          0.592231        0.592232   1.000000   1.000000
    158          0.592232        0.592232   1.000000   1.000000
    159          0.615303        0.615303   1.000000   1.000000
    160          0.615316        0.615316   1.000000   1.000000
    161          0.615316        0.615316   1.000000   1.000000
    162          0.635499        0.635498   1.000000   1.000000
    163          0.635511        0.635511   1.000000   1.000000
    164          0.635511        0.635511   1.000000   1.000000
    165          0.671085        0.671085   1.000000   1.000000
    166          0.671093        0.671093   1.000000   1.000000
    167          0.671093        0.671093   1.000000   1.000000
    168          1.415594        1.415594   1.000008   1.000008
    169          1.415594        1.415594   1.000008   1.000008
    170          1.415622        1.415622   1.000008   1.000008
    171          1.491467        1.491467   1.000078   1.000078
    172          1.823962        1.823962   1.032843   1.032843
    173          2.047741        2.047741   0.704492   0.704492
    174          2.047741        2.047741   0.704492   0.704492
    175          2.047762        2.047762   0.704413   0.704413
    176          2.586272        2.586272  -0.001491  -0.001491
    177          2.586272        2.586272  -0.001491  -0.001491
    178          2.586287        2.586287  -0.001491  -0.001491
    179          2.972066        2.972066  -0.000000  -0.000000
    180          2.972066        2.972066  -0.000000  -0.000000
    181          2.972076        2.972076  -0.000000  -0.000000
    182          3.230915        3.230915  -0.000000  -0.000000
    183          3.230915        3.230915  -0.000000  -0.000000
    184          3.230924        3.230924  -0.000000  -0.000000
    185          3.423069        3.423069  -0.000000  -0.000000
    186          3.423069        3.423069  -0.000000  -0.000000
    187          3.423082        3.423082  -0.000000  -0.000000
    188          3.581067        3.581067  -0.000000  -0.000000
    189          3.581067        3.581067  -0.000000  -0.000000
    190          3.581087        3.581087  -0.000000  -0.000000
    191          3.666066        3.666066  -0.000000  -0.000000
    192          3.666066        3.666066  -0.000000  -0.000000
    193          3.666092        3.666092  -0.000000  -0.000000
    194          6.053912        6.053912  -0.000000  -0.000000
    195          6.053939        6.053939  -0.000000  -0.000000
    196          6.053939        6.053939  -0.000000  -0.000000
    197          6.467000        6.467007  -0.000000  -0.000000
    198          6.467154        6.467154  -0.000000  -0.000000
    199          6.467177        6.467177  -0.000000  -0.000000
    200          6.467177        6.467177  -0.000000  -0.000000
    201          6.497059        6.496991  -0.000000  -0.000000
    202          7.028575        7.028575  -0.000000  -0.000000
    203          7.028595        7.028595  -0.000000  -0.000000
    204          7.028595        7.028595  -0.000000  -0.000000
    205          7.565344        7.565335   0.000000   0.000000
    206          7.645693        7.645589   0.000000   0.000000
    207          7.647719        7.647719   0.000000   0.000000
    208          7.647738        7.647738   0.000000   0.000000
    209          7.647738        7.647738   0.000000   0.000000
    210          8.395989        8.395989   0.000000   0.000000
    211          8.396003        8.396003   0.000000   0.000000
    212          8.396003        8.396003   0.000000   0.000000
    213          9.239847        9.239798   0.000000   0.000000
    214          9.344184        9.344151   0.000000   0.000000
    215          9.350724        9.350724   0.000000   0.000000
    216          9.350733        9.350733   0.000000   0.000000
    217          9.350734        9.350734   0.000000   0.000000
    218         10.049940       10.049940   0.000000   0.000000
    219         10.049962       10.049962   0.000000   0.000000
    220         10.049962       10.049962   0.000000   0.000000
    221         10.610312       10.610311   0.000000   0.000000
    222         10.610317       10.610317   0.000000   0.000000
    223         10.610317       10.610317   0.000000   0.000000
    224         11.271298       11.271298   0.000000   0.000000
    225         11.271311       11.271310   0.000000   0.000000
    226         11.271311       11.271310   0.000000   0.000000
    227         11.419289       11.419241   0.000000   0.000000
    228         11.612270       11.612240   0.000000   0.000000
 
  0.3333333E+00  0.5551115E-16  0.0000000E+00  0.6666667E+00
      1         -6.318932       -6.318932   1.000000   1.000000
      2         -5.921793       -5.921793   1.000000   1.000000
      3         -5.307834       -5.307834   1.000000   1.000000
      4         -4.514092       -4.514093   1.000000   1.000000
      5         -4.096154       -4.096154   1.000000   1.000000
      6         -3.820952       -3.820952   1.000000   1.000000
      7         -3.659513       -3.659513   1.000000   1.000000
      8         -3.438811       -3.438811   1.000000   1.000000
      9         -3.025061       -3.025061   1.000000   1.000000
     10         -2.937779       -2.937779   1.000000   1.000000
     11         -2.767337       -2.767337   1.000000   1.000000
     12         -2.767325       -2.767325   1.000000   1.000000
     13         -2.657946       -2.657946   1.000000   1.000000
     14         -2.607941       -2.607941   1.000000   1.000000
     15         -2.607931       -2.607931   1.000000   1.000000
     16         -2.554195       -2.554195   1.000000   1.000000
     17         -2.519050       -2.519050   1.000000   1.000000
     18         -2.519047       -2.519047   1.000000   1.000000
     19         -2.474453       -2.474453   1.000000   1.000000
     20         -2.453794       -2.453794   1.000000   1.000000
     21         -2.453789       -2.453789   1.000000   1.000000
     22         -2.345855       -2.345855   1.000000   1.000000
     23         -2.332048       -2.332048   1.000000   1.000000
     24         -2.332042       -2.332042   1.000000   1.000000
     25         -2.166510       -2.166510   1.000000   1.000000
     26         -2.166505       -2.166505   1.000000   1.000000
     27         -2.076839       -2.076839   1.000000   1.000000
     28         -2.076838       -2.076838   1.000000   1.000000
     29         -2.076584       -2.076584   1.000000   1.000000
     30         -2.070184       -2.070184   1.000000   1.000000
     31         -1.961236       -1.961236   1.000000   1.000000
     32         -1.961233       -1.961233   1.000000   1.000000
     33         -1.942248       -1.942248   1.000000   1.000000
     34         -1.942247       -1.942247   1.000000   1.000000
     35         -1.940934       -1.940934   1.000000   1.000000
     36         -1.913683       -1.913683   1.000000   1.000000
     37         -1.776250       -1.776250   1.000000   1.000000
     38         -1.776250       -1.776250   1.000000   1.000000
     39         -1.752806       -1.752806   1.000000   1.000000
     40         -1.744568       -1.744568   1.000000   1.000000
     41         -1.744564       -1.744564   1.000000   1.000000
     42         -1.582411       -1.582411   1.000000   1.000000
     43         -1.582411       -1.582411   1.000000   1.000000
     44         -1.574505       -1.574505   1.000000   1.000000
     45         -1.508085       -1.508085   1.000000   1.000000
     46         -1.508083       -1.508083   1.000000   1.000000
     47         -1.469373       -1.469373   1.000000   1.000000
     48         -1.390378       -1.390378   1.000000   1.000000
     49         -1.355952       -1.355952   1.000000   1.000000
     50         -1.355949       -1.355949   1.000000   1.000000
     51         -1.340841       -1.340841   1.000000   1.000000
     52         -1.311558       -1.311557   1.000000   1.000000
     53         -1.253394       -1.253394   1.000000   1.000000
     54         -1.248148       -1.248148   1.000000   1.000000
     55         -1.248145       -1.248145   1.000000   1.000000
     56         -1.222902       -1.222901   1.000000   1.000000
     57         -1.222898       -1.222898   1.000000   1.000000
     58         -1.181028       -1.181028   1.000000   1.000000
     59         -1.178222       -1.178222   1.000000   1.000000
     60         -1.161388       -1.161388   1.000000   1.000000
     61         -1.161388       -1.161388   1.000000   1.000000
     62         -1.159313       -1.159313   1.000000   1.000000
     63         -1.154108       -1.154108   1.000000   1.000000
     64         -1.097119       -1.097119   1.000000   1.000000
     65         -1.053408       -1.053408   1.000000   1.000000
     66         -1.053403       -1.053403   1.000000   1.000000
     67         -0.991762       -0.991762   1.000000   1.000000
     68         -0.954549       -0.954549   1.000000   1.000000
     69         -0.940674       -0.940674   1.000000   1.000000
     70         -0.923460       -0.923460   1.000000   1.000000
     71         -0.923457       -0.923457   1.000000   1.000000
     72         -0.903824       -0.903824   1.000000   1.000000
     73         -0.893437       -0.893437   1.000000   1.000000
     74         -0.866848       -0.866848   1.000000   1.000000
     75         -0.866848       -0.866848   1.000000   1.000000
     76         -0.835328       -0.835328   1.000000   1.000000
     77         -0.827889       -0.827889   1.000000   1.000000
     78         -0.790159       -0.790159   1.000000   1.000000
     79         -0.763026       -0.763026   1.000000   1.000000
     80         -0.761080       -0.761080   1.000000   1.000000
     81         -0.753025       -0.753025   1.000000   1.000000
     82         -0.729523       -0.729523   1.000000   1.000000
     83         -0.729520       -0.729520   1.000000   1.000000
     84         -0.728879       -0.728879   1.000000   1.000000
     85         -0.711407       -0.711407   1.000000   1.000000
     86         -0.702715       -0.702715   1.000000   1.000000
     87         -0.659059       -0.659059   1.000000   1.000000
     88         -0.659056       -0.659056   1.000000   1.000000
     89         -0.656004       -0.656004   1.000000   1.000000
     90         -0.654806       -0.654806   1.000000   1.000000
     91         -0.634483       -0.634483   1.000000   1.000000
     92         -0.588409       -0.588408   1.000000   1.000000
     93         -0.543061       -0.543061   1.000000   1.000000
     94         -0.538605       -0.538605   1.000000   1.000000
     95         -0.537516       -0.537516   1.000000   1.000000
     96         -0.534072       -0.534072   1.000000   1.000000
     97         -0.534067       -0.534067   1.000000   1.000000
     98         -0.528548       -0.528548   1.000000   1.000000
     99         -0.514824       -0.514824   1.000000   1.000000
    100         -0.504773       -0.504772   1.000000   1.000000
    101         -0.504771       -0.504771   1.000000   1.000000
    102         -0.425932       -0.425932   1.000000   1.000000
    103         -0.411796       -0.411796   1.000000   1.000000
    104         -0.411795       -0.411795   1.000000   1.000000
    105         -0.378048       -0.378048   1.000000   1.000000
    106         -0.359431       -0.359431   1.000000   1.000000
    107         -0.341623       -0.341623   1.000000   1.000000
    108         -0.331655       -0.331655   1.000000   1.000000
    109         -0.331655       -0.331655   1.000000   1.000000
    110         -0.317961       -0.317962   1.000000   1.000000
    111         -0.317961       -0.317961   1.000000   1.000000
    112         -0.305550       -0.305550   1.000000   1.000000
    113         -0.265989       -0.265989   1.000000   1.000000
    114         -0.254072       -0.254072   1.000000   1.000000
    115         -0.234408       -0.234408   1.000000   1.000000
    116         -0.193185       -0.193185   1.000000   1.000000
    117         -0.193184       -0.193184   1.000000   1.000000
    118         -0.159845       -0.159845   1.000000   1.000000
    119         -0.125347       -0.125347   1.000000   1.000000
    120         -0.112384       -0.112384   1.000000   1.000000
    121         -0.083982       -0.083982   1.000000   1.000000
    122         -0.048095       -0.048095   1.000000   1.000000
    123         -0.047287       -0.047287   1.000000   1.000000
    124         -0.047286       -0.047286   1.000000   1.000000
    125          0.009326        0.009326   1.000000   1.000000
    126          0.034560        0.034560   1.000000   1.000000
    127          0.082328        0.082328   1.000000   1.000000
    128          0.082333        0.082333   1.000000   1.000000
    129          0.095140        0.095140   1.000000   1.000000
    130          0.134993        0.134993   1.000000   1.000000
    131          0.140014        0.140014   1.000000   1.000000
    132          0.140024        0.140024   1.000000   1.000000
    133          0.147922        0.147922   1.000000   1.000000
    134          0.157216        0.157216   1.000000   1.000000
    135          0.157227        0.157227   1.000000   1.000000
    136          0.169521        0.169521   1.000000   1.000000
    137          0.170999        0.170999   1.000000   1.000000
    138          0.187675        0.187675   1.000000   1.000000
    139          0.187684        0.187684   1.000000   1.000000
    140          0.193620        0.193620   1.000000   1.000000
    141          0.215451        0.215451   1.000000   1.000000
    142          0.247607        0.247607   1.000000   1.000000
    143          0.247611        0.247611   1.000000   1.000000
    144          0.261903        0.261903   1.000000   1.000000
    145          0.272429        0.272429   1.000000   1.000000
    146          0.283168        0.283168   1.000000   1.000000
    147          0.303819        0.303819   1.000000   1.000000
    148          0.309356        0.309356   1.000000   1.000000
    149          0.331092        0.331092   1.000000   1.000000
    150          0.353817        0.353818   1.000000   1.000000
    151          0.366164        0.366164   1.000000   1.000000
    152          0.366167        0.366167   1.000000   1.000000
    153          0.385842        0.385842   1.000000   1.000000
    154          0.469400        0.469400   1.000000   1.000000
    155          0.474385        0.474385   1.000000   1.000000
    156          0.474385        0.474386   1.000000   1.000000
    157          0.499426        0.499426   1.000000   1.000000
    158          0.502851        0.502851   1.000000   1.000000
    159          0.519379        0.519379   1.000000   1.000000
    160          0.519379        0.519380   1.000000   1.000000
    161          0.539449        0.539450   1.000000   1.000000
    162          0.539450        0.539451   1.000000   1.000000
    163          0.560683        0.560683   1.000000   1.000000
    164          0.586127        0.586127   1.000000   1.000000
    165          0.586128        0.586128   1.000000   1.000000
    166          0.603975        0.603975   1.000000   1.000000
    167          0.607013        0.607013   1.000000   1.000000
    168          0.649238        0.649238   1.000000   1.000000
    169          0.649238        0.649238   1.000000   1.000000
    170          1.034041        1.034041   1.000000   1.000000
    171          1.410473        1.410473   1.000007   1.000007
    172          1.784213        1.784213   1.024559   1.024559
    173          1.784219        1.784219   1.024560   1.024560
    174          1.860692        1.860692   1.035206   1.035206
    175          1.942758        1.942758   0.983377   0.983377
    176          1.942764        1.942764   0.983369   0.983369
    177          2.205217        2.205217   0.110119   0.110119
    178          2.205224        2.205224   0.110101   0.110101
    179          2.514425        2.514425  -0.006052  -0.006052
    180          2.722407        2.722407  -0.000046  -0.000046
    181          2.722416        2.722416  -0.000046  -0.000046
    182          2.956839        2.956839  -0.000000  -0.000000
    183          3.516687        3.516687  -0.000000  -0.000000
    184          3.516698        3.516698  -0.000000  -0.000000
    185          3.620023        3.620023  -0.000000  -0.000000
    186          3.887309        3.887309  -0.000000  -0.000000
    187          4.541206        4.541205  -0.000000  -0.000000
    188          4.541220        4.541220  -0.000000  -0.000000
    189          5.422219        5.422219  -0.000000  -0.000000
    190          5.645489        5.645489  -0.000000  -0.000000
    191          5.645505        5.645505  -0.000000  -0.000000
    192          6.312301        6.312301  -0.000000  -0.000000
    193          6.312308        6.312308  -0.000000  -0.000000
    194          6.716802        6.716802  -0.000000  -0.000000
    195          6.865011        6.865011  -0.000000  -0.000000
    196          6.865041        6.865041  -0.000000  -0.000000
    197          7.086752        7.086747  -0.000000  -0.000000
    198          7.308708        7.308662  -0.000000  -0.000000
    199          7.356224        7.356224  -0.000000  -0.000000
    200          7.356249        7.356249  -0.000000  -0.000000
    201          7.941543        7.941543   0.000000   0.000000
    202          7.941566        7.941566   0.000000   0.000000
    203          8.217489        8.217470   0.000000   0.000000
    204          8.421042        8.420945   0.000000   0.000000
    205          8.445754        8.445753   0.000000   0.000000
    206          8.539555        8.539555   0.000000   0.000000
    207          8.539574        8.539574   0.000000   0.000000
    208          8.909013        8.909012   0.000000   0.000000
    209          9.289398        9.289398   0.000000   0.000000
    210          9.289409        9.289409   0.000000   0.000000
    211          9.346257        9.346253   0.000000   0.000000
    212          9.800327        9.800304   0.000000   0.000000
    213         10.027342       10.027283   0.000000   0.000000
    214         10.052667       10.052640   0.000000   0.000000
    215         10.105797       10.105796   0.000000   0.000000
    216         10.105802       10.105802   0.000000   0.000000
    217         10.224003       10.223979   0.000000   0.000000
    218         10.601326       10.601326   0.000000   0.000000
    219         10.601347       10.601347   0.000000   0.000000
    220         10.601555       10.601510   0.000000   0.000000
    221         10.911749       10.911749   0.000000   0.000000
    222         10.911768       10.911768   0.000000   0.000000
    223         10.971827       10.971777   0.000000   0.000000
    224         11.118038       11.118026   0.000000   0.000000
    225         11.198289       11.198289   0.000000   0.000000
    226         11.198290       11.198289   0.000000   0.000000
    227         11.596424       11.596423   0.000000   0.000000
    228         11.596428       11.596427   0.000000   0.000000
 
 -0.3333333E+00  0.3333333E+00  0.0000000E+00  0.2222222E+00
      1         -4.727863       -4.727863   1.000000   1.000000
      2         -4.727863       -4.727863   1.000000   1.000000
      3         -4.727862       -4.727862   1.000000   1.000000
      4         -4.389009       -4.389009   1.000000   1.000000
      5         -4.389009       -4.389009   1.000000   1.000000
      6         -4.389007       -4.389007   1.000000   1.000000