 vasp.6.3.2 27Jun22 (build Aug 17 2022 15:43:34) complex                        
  
 executed on           tv2STDVTST date 2025.01.17  14:24:16
 running   20 mpi-ranks, with    1 threads/rank
 distrk:  each k-point on   20 cores,    1 groups
 distr:  one band on NCORE=   5 cores,    4 groups


--------------------------------------------------------------------------------------------------------


 -----------------------------------------------------------------------------
|                                                                             |
|           W    W    AA    RRRRR   N    N  II  N    N   GGGG   !!!           |
|           W    W   A  A   R    R  NN   N  II  NN   N  G    G  !!!           |
|           W    W  A    A  R    R  N N  N  II  N N  N  G       !!!           |
|           W WW W  AAAAAA  RRRRR   N  N N  II  N  N N  G  GGG   !            |
|           WW  WW  A    A  R   R   N   NN  II  N   NN  G    G                |
|           W    W  A    A  R    R  N    N  II  N    N   GGGG   !!!           |
|                                                                             |
|     Found issues when parsing the INCAR file                                |
|     In line 64: Tagname --- R W I G S contains invalid characters.          |
|     Please check if the interpretation in the OUTCAR file is correct.       |
|                                                                             |
 -----------------------------------------------------------------------------

 INCAR:
    = \=\=\=\=\=\=\=\=\=\=\=\=\=\=\=\=\=\=\=\=\=\=\=\=\=\=\=\=\=\=\=\=\=\=\=\=\=\=\=\=\=\=\=\=\=\=\=\=\=\=\=\=\=\=\=\=\=\=\=\=\=\=\=\=\=\=\=\=\=\=\=\=
    = \=\=\=\=\=\=\=\=\=\=\=\=\=\=\=\=\=\=\=\=\=\=\=\=\=\=\=\=\=\=\=\=\=\=\=\=\=\=\=\=\=\=\=\=\=\=\=\=\=\=\=\=\=\=\=\=\=\=\=\=\=\=\=\=\=\=\=\=\=\=\=\=
   ISTART = 0
   ICHARG = 2
   IPIPOL = 3
   IVDW = 11
   IDIPOL = 3
   IVDW = 11
    = \=\=\=\=\=\=\=\=\=\=\=\=\=\=\=\=\=\=\=\=\=\=\=\=\=\=\=\=\=\=\=\=\=\=\=\=\=\=\=\=\=\=\=\=\=\=\=\=\=\=\=\=\=\=\=\=\=\=\=\=\=\=\=\=\=\=\=\=\=\=\=\=
    = \=\=\=\=\=\=\=\=\=\=\=\=\=\=\=\=\=\=\=\=\=\=\=\=\=\=\=\=\=\=\=\=\=\=\=\=\=\=\=\=\=\=\=\=\=\=\=\=\=\=\=\=\=\=\=\=\=\=\=\=\=\=\=\=\=\=\=\=\=\=\=\=
   ISPIN = 2
    = \=\=\=\=\=\=\=\=\=\=\=\=\=\=\=\=\=\=\=\=\=\=\=\=\=\=\=\=\=\=\=\=\=\=\=\=\=\=\=\=\=\=\=\=\=\=\=\=\=\=\=\=\=\=\=\=\=\=\=\=\=\=\=\=\=\=\=\=\=\=\=\=
    = \=\=\=\=\=\=\=\=\=\=\=\=\=\=\=\=\=\=\=\=\=\=\=\=\=\=\=\=\=\=\=\=\=\=\=\=\=\=\=\=\=\=\=\=\=\=\=\=\=\=\=\=\=\=\=\=\=\=\=\=\=\=\=\=\=\=\=\=\=\=\=\=
   ENCUT = 400
   PREC = Normal
   EDIFF = 2E-04
   GGA = PE
   ISMEAR = 1
   SIGMA = 0.2
   LREAL = .FALSE.
    = \=\=\=\=\=\=\=\=\=\=\=\=\=\=\=\=\=\=\=\=\=\=\=\=\=\=\=\=\=\=\=\=\=\=\=\=\=\=\=\=\=\=\=\=\=\=\=\=\=\=\=\=\=\=\=\=\=\=\=\=\=\=\=\=\=\=\=\=\=\=\=\=
    = \=\=\=\=\=\=\=\=\=\=\=\=\=\=\=\=\=\=\=\=\=\=\=\=\=\=\=\=\=\=\=\=\=\=\=\=\=\=\=\=\=\=\=\=\=\=\=\=\=\=\=\=\=\=\=\=\=\=\=\=\=\=\=\=\=\=\=\=\=\=\=\=
   ISYM = 1
   NSW = 800
   IBRION = 2
   POTIM = 0.5
   ISIF = 2
   EDIFFG = -.03
    = \=\=\=\=\=\=\=\=\=\=\=\=\=\=\=\=\=\=\=\=\=\=\=\=\=\=\=\=\=\=\=\=\=\=\=\=\=\=\=\=\=\=\=\=\=\=\=\=\=\=\=\=\=\=\=\=\=\=\=\=\=\=\=\=\=\=\=\=\=\=\=\=
    = \=\=\=\=\=\=\=\=\=\=\=\=\=\=\=\=\=\=\=\=\=\=\=\=\=\=\=\=\=\=\=\=\=\=\=\=\=\=\=\=\=\=\=\=\=\=\=\=\=\=\=\=\=\=\=\=\=\=\=\=\=\=\=\=\=\=\=\=\=\=\=\=
   NPAR = 4
   LWAVE = .FALSE.
   LCHARG = .FALSE.

 POTCAR:    PAW_PBE Cu 22Jun2005                  
 -----------------------------------------------------------------------------
|                                                                             |
|           W    W    AA    RRRRR   N    N  II  N    N   GGGG   !!!           |
|           W    W   A  A   R    R  NN   N  II  NN   N  G    G  !!!           |
|           W    W  A    A  R    R  N N  N  II  N N  N  G       !!!           |
|           W WW W  AAAAAA  RRRRR   N  N N  II  N  N N  G  GGG   !            |
|           WW  WW  A    A  R   R   N   NN  II  N   NN  G    G                |
|           W    W  A    A  R    R  N    N  II  N    N   GGGG   !!!           |
|                                                                             |
|     You use a magnetic or noncollinear calculation, but did not specify     |
|     the initial magnetic moment with the MAGMOM tag. Note that a            |
|     default of 1 will be used for all atoms. This ferromagnetic setup       |
|     may break the symmetry of the crystal, in particular it may rule        |
|     out finding an antiferromagnetic solution. Thence, we recommend         |
|     setting the initial magnetic moment manually or verifying carefully     |
|     that this magnetic setup is desired.                                    |
|                                                                             |
 -----------------------------------------------------------------------------

 POTCAR:    PAW_PBE Cu 22Jun2005                  
   SHA256 =  0e71e558f37a4e8407882b4609ceaae59938afaad9ced71dfe8490308a0ab630 Cu/POTCAR             
   COPYR  = (c) Copyright 22Jun2005 Georg Kresse                                                    
   COPYR  = This file is part of the software VASP. Any use, copying, and all other rights are regul
   COPYR  = If you do not have a valid VASP license, you may not use, copy or distribute this file. 
   VRHFIN =Cu: d10 p1                                                                               
   LEXCH  = PE                                                                                      
   EATOM  =  1390.9808 eV,  102.2342 Ry                                                             
                                                                                                    
   TITEL  = PAW_PBE Cu 22Jun2005                                                                    
   LULTRA =        F    use ultrasoft PP ?                                                          
   IUNSCR =        1    unscreen: 0-lin 1-nonlin 2-no                                               
   RPACOR =    2.000    partial core radius                                                         
   POMASS =   63.546; ZVAL   =   11.000    mass and valenz                                          
   RCORE  =    2.300    outmost cutoff radius                                                       
   RWIGS  =    2.200; RWIGS  =    1.164    wigner-seitz radius (au A)                               
   ENMAX  =  295.446; ENMIN  =  221.585 eV                                                          
   ICORE  =        3    local potential                                                             
   LCOR   =        T    correct aug charges                                                         
   LPAW   =        T    paw PP                                                                      
   EAUG   =  586.980                                                                                
   DEXC   =    0.000                                                                                
   RMAX   =    2.344    core radius for proj-oper                                                   
   RAUG   =    1.300    factor for augmentation sphere                                              
   RDEP   =    2.302    radius for radial grids                                                     
   RDEPT  =    1.771    core radius for aug-charge                                                  
                                                                                                    
   Atomic configuration                                                                             
    9 entries                                                                                       
     n  l   j            E        occ.                                                              
     1  0  0.50     -8850.2468   2.0000                                                             
     2  0  0.50     -1062.3498   2.0000                                                             
     2  1  1.50      -916.8226   6.0000                                                             
     3  0  0.50      -114.6929   2.0000                                                             
     3  1  1.50       -72.1325   6.0000                                                             
     3  2  2.50        -5.0394  10.0000                                                             
     4  0  0.50        -4.6097   1.0000                                                             
     4  1  0.50        -4.0817   0.0000                                                             
     4  3  2.50        -1.3606   0.0000                                                             
   Description                                                                                      
     l       E           TYP  RCUT    TYP  RCUT                                                     
     2     -5.0393973     23  2.200                                                                 
     2     10.8846608     23  2.200                                                                 
     0     -4.6097109     23  2.200                                                                 
     0      8.2520465     23  2.200                                                                 
     1     -2.7211652     23  2.200                                                                 
     1     21.7055443     23  2.200                                                                 
     3      2.7211652     23  2.300                                                                 
  local pseudopotential read in
  partial core-charges read in
  partial kinetic energy density read in
  atomic valenz-charges read in
  non local Contribution for L=           2  read in
    real space projection operators read in
  non local Contribution for L=           2  read in
    real space projection operators read in
  non local Contribution for L=           0  read in
    real space projection operators read in
  non local Contribution for L=           0  read in
    real space projection operators read in
  non local Contribution for L=           1  read in
    real space projection operators read in
  non local Contribution for L=           1  read in
    real space projection operators read in
    PAW grid and wavefunctions read in
 
   number of l-projection  operators is LMAX  =           6
   number of lm-projection operators is LMMAX =          18
 
 -----------------------------------------------------------------------------
|                                                                             |
|               ----> ADVICE to this user running VASP <----                  |
|                                                                             |
|     You have a (more or less) 'large supercell' and for larger cells it     |
|     might be more efficient to use real-space projection operators.         |
|     Therefore, try LREAL= Auto in the INCAR file.                           |
|     Mind: For very accurate calculation, you might also keep the            |
|     reciprocal projection scheme (i.e. LREAL=.FALSE.).                      |
|                                                                             |
 -----------------------------------------------------------------------------

  PAW_PBE Cu 22Jun2005                  :
 energy of atom  1       EATOM=-1390.9808
 kinetic energy error for atom=    0.0232 (will be added to EATOM!!)
 
 
 POSCAR: FCC Cu
  positions in cartesian coordinates
  velocities in cartesian coordinates
  No initial velocities read in
 exchange correlation table for  LEXCH =        8
   RHO(1)=    0.500       N(1)  =     2000
   RHO(2)=  100.500       N(2)  =     4000

 VTST: version 4.2, (08/11/21)

 CHAIN: initializing optimizer
 
 OPT: Using VASP Conjugate-Gradient optimizer
 CHAIN: Read ICHAIN            0
 
 POSCAR: FCC Cu
  positions in cartesian coordinates
  velocities in cartesian coordinates
  No initial velocities read in
 


--------------------------------------------------------------------------------------------------------


 ion  position               nearest neighbor table
   1  0.000  0.000  0.000-   7 2.57   5 2.57   6 2.57   4 2.57   3 2.57   2 2.57   2 2.57   3 2.57
                             4 2.57
   2  0.000  0.500  0.000-   5 2.57   8 2.57   6 2.57   3 2.57   4 2.57   1 2.57   1 2.57   4 2.57
                             3 2.57
   3  0.500  0.000  0.000-   5 2.57   7 2.57   8 2.57   2 2.57   1 2.57   4 2.57   4 2.57   1 2.57
                             2 2.57
   4  0.500  0.500  0.000-   6 2.57   7 2.57   8 2.57   1 2.57   2 2.57   3 2.57   3 2.57   2 2.57
                             1 2.57
   5  0.167  0.167  0.071-   9 2.57   3 2.57   2 2.57   1 2.57  10 2.57  11 2.57   8 2.57   7 2.57
                             6 2.57   6 2.57   7 2.57   8 2.57
   6  0.167  0.667  0.071-   4 2.57  10 2.57   9 2.57   2 2.57   1 2.57  12 2.57   7 2.57   8 2.57
                             5 2.57   5 2.57   8 2.57   7 2.57
   7  0.667  0.167  0.071-  11 2.57   4 2.57   1 2.57   9 2.57   3 2.57  12 2.57   6 2.57   5 2.57
                             8 2.57   8 2.57   5 2.57   6 2.57
   8  0.667  0.667  0.071-  12 2.57  11 2.57   2 2.57   4 2.57  10 2.57   3 2.57   5 2.57   6 2.57
                             7 2.57   7 2.57   6 2.57   5 2.57
   9  0.333  0.333  0.141-   5 2.57  14 2.57   6 2.57  15 2.57   7 2.57  16 2.57  12 2.57  11 2.57
                            10 2.57  10 2.57  11 2.57  12 2.57
  10  0.333  0.833  0.141-   6 2.57  16 2.57  15 2.57   8 2.57  13 2.57   5 2.57  11 2.57  12 2.57
                             9 2.57   9 2.57  12 2.57  11 2.57
  11  0.833  0.333  0.141-   7 2.57  16 2.57   8 2.57  13 2.57   5 2.57  14 2.57  10 2.57   9 2.57
                            12 2.57  12 2.57   9 2.57  10 2.57
  12  0.833  0.833  0.141-   8 2.57  14 2.57  15 2.57   7 2.57  13 2.57   6 2.57   9 2.57  10 2.57
                            11 2.57  11 2.57  10 2.57   9 2.57
  13  0.000  0.000  0.212-  11 2.57  19 2.57  17 2.57  10 2.57  18 2.57  12 2.57  16 2.57  15 2.57
                            14 2.57  14 2.57  15 2.57  16 2.57
  14  0.000  0.500  0.212-   9 2.57  17 2.57  12 2.57  20 2.57  18 2.57  11 2.57  15 2.57  16 2.57
                            13 2.57  13 2.57  16 2.57  15 2.57
  15  0.500  0.000  0.212-  17 2.57   9 2.57  10 2.57  19 2.57  12 2.57  20 2.57  14 2.57  13 2.57
                            16 2.57  16 2.57  13 2.57  14 2.57
  16  0.500  0.500  0.212-  18 2.57  11 2.57  19 2.57  10 2.57  20 2.57   9 2.57  13 2.57  14 2.57
                            15 2.57  15 2.57  14 2.57  13 2.57
  17  0.167  0.167  0.283-  21 2.57  15 2.57  14 2.57  13 2.57  22 2.57  23 2.57  20 2.57  19 2.57
                            18 2.57  18 2.57  19 2.57  20 2.57
  18  0.167  0.667  0.283-  16 2.57  22 2.57  21 2.57  14 2.57  13 2.57  24 2.57  19 2.57  20 2.57
                            17 2.57  17 2.57  20 2.57  19 2.57
  19  0.667  0.167  0.283-  23 2.57  16 2.57  13 2.57  21 2.57  15 2.57  24 2.57  18 2.57  17 2.57
                            20 2.57  20 2.57  17 2.57  18 2.57
  20  0.667  0.667  0.283-  24 2.57  23 2.57  14 2.57  16 2.57  22 2.57  15 2.57  17 2.57  18 2.57
                            19 2.57  19 2.57  18 2.57  17 2.57
  21  0.333  0.333  0.353-  17 2.57  18 2.57  19 2.57  26 2.57  27 2.57  28 2.57  24 2.57  23 2.57
                            22 2.57  22 2.57  23 2.57  24 2.57
  22  0.333  0.833  0.353-  18 2.57  20 2.57  17 2.57  28 2.57  27 2.57  25 2.57  23 2.57  24 2.57
                            21 2.57  21 2.57  24 2.57  23 2.57
  23  0.833  0.333  0.353-  19 2.57  20 2.57  17 2.57  28 2.57  25 2.57  26 2.57  22 2.57  21 2.57
                            24 2.57  24 2.57  21 2.57  22 2.57
  24  0.833  0.833  0.353-  20 2.57  19 2.57  18 2.57  26 2.57  27 2.57  25 2.57  21 2.57  22 2.57
                            23 2.57  23 2.57  22 2.57  21 2.57
  25  0.000  0.000  0.424-  23 2.57  31 2.57  29 2.57  22 2.57  30 2.57  24 2.57  28 2.57  27 2.57
                            26 2.57  26 2.57  27 2.57  28 2.57
  26  0.000  0.500  0.424-  21 2.57  24 2.57  29 2.57  32 2.57  30 2.57  23 2.57  27 2.57  28 2.57
                            25 2.57  25 2.57  28 2.57  27 2.57
  27  0.500  0.000  0.424-  29 2.57  21 2.57  22 2.57  31 2.57  24 2.57  32 2.57  26 2.57  25 2.57
                            28 2.57  28 2.57  25 2.57  26 2.57
  28  0.500  0.500  0.424-  23 2.57  30 2.57  22 2.57  31 2.57  32 2.57  21 2.57  25 2.57  26 2.57
                            27 2.57  27 2.57  26 2.57  25 2.57
  29  0.167  0.167  0.494-  27 2.57  26 2.57  25 2.57  32 2.57  31 2.57  30 2.57  30 2.57  31 2.57
                            32 2.57
  30  0.167  0.667  0.494-  28 2.57  26 2.57  25 2.57  31 2.57  32 2.57  29 2.57  29 2.57  32 2.57
                            31 2.57
  31  0.667  0.167  0.494-  28 2.57  25 2.57  27 2.57  30 2.57  29 2.57  32 2.57  32 2.57  29 2.57
                            30 2.57
  32  0.667  0.667  0.494-  26 2.57  28 2.57  27 2.57  29 2.57  30 2.57  31 2.57  31 2.57  30 2.57
                            29 2.57
 
  LATTYP: Found a hexagonal cell.
 ALAT       =     5.1335954666
 C/A-ratio  =     5.7796667822
  
  Lattice vectors:
  
 A1 = (  -2.5667977333,  -4.4458240868,   0.0000000000)
 A2 = (   5.1335954666,   0.0000000000,   0.0000000000)
 A3 = (   0.0000000000,   0.0000000000,  29.6704711914)


Analysis of symmetry for initial positions (statically):
=====================================================================
 Subroutine PRICEL returns following result:
 
  LATTYP: Found a hexagonal cell.
 ALAT       =     2.5667977331
 C/A-ratio  =    11.5593335652
  
  Lattice vectors:
  
 A1 = (  -1.2833988670,  -2.2229120430,   0.0000000000)
 A2 = (   2.5667977330,   0.0000000000,   0.0000000000)
 A3 = (   0.0000000000,   0.0000000000,  29.6704711914)
 
   4 primitive cells build up your supercell.
 

 Routine SETGRP: Setting up the symmetry group for a 
 hexagonal supercell.


 Subroutine GETGRP returns: Found 12 space group operations
 (whereof  6 operations were pure point group operations)
 out of a pool of 24 trial point group operations.


The static configuration has the point symmetry C_3v.
 The point group associated with its full space group is D_3d.


Analysis of symmetry for dynamics (positions and initial velocities):
=====================================================================
 Subroutine PRICEL returns following result:
 
  LATTYP: Found a hexagonal cell.
 ALAT       =     2.5667977331
 C/A-ratio  =    11.5593335652
  
  Lattice vectors:
  
 A1 = (  -1.2833988670,  -2.2229120430,   0.0000000000)
 A2 = (   2.5667977330,   0.0000000000,   0.0000000000)
 A3 = (   0.0000000000,   0.0000000000,  29.6704711914)
 
   4 primitive cells build up your supercell.
 

 Routine SETGRP: Setting up the symmetry group for a 
 hexagonal supercell.


 Subroutine GETGRP returns: Found 12 space group operations
 (whereof  6 operations were pure point group operations)
 out of a pool of 24 trial point group operations.


The dynamic configuration has the point symmetry C_3v.
 The point group associated with its full space group is D_3d.


Analysis of constrained symmetry for selective dynamics:
=====================================================================
 Subroutine PRICEL returns following result:
 
  LATTYP: Found a hexagonal cell.
 ALAT       =     2.5667977331
 C/A-ratio  =    11.5593335652
  
  Lattice vectors:
  
 A1 = (  -1.2833988670,  -2.2229120430,   0.0000000000)
 A2 = (   2.5667977330,   0.0000000000,   0.0000000000)
 A3 = (   0.0000000000,   0.0000000000,  29.6704711914)
 
   4 primitive cells build up your supercell.
 

 Routine SETGRP: Setting up the symmetry group for a 
 hexagonal supercell.


 Subroutine GETGRP returns: Found  6 space group operations
 (whereof  6 operations were pure point group operations)
 out of a pool of 24 trial point group operations.


The constrained configuration has the point symmetry C_3v.


Analysis of structural, dynamic, and magnetic symmetry:
=====================================================================
 Subroutine PRICEL returns following result:
 
  LATTYP: Found a hexagonal cell.
 ALAT       =     2.5667977331
 C/A-ratio  =    11.5593335652
  
  Lattice vectors:
  
 A1 = (  -1.2833988670,  -2.2229120430,   0.0000000000)
 A2 = (   2.5667977330,   0.0000000000,   0.0000000000)
 A3 = (   0.0000000000,   0.0000000000,  29.6704711914)
 
   4 primitive cells build up your supercell.
 

 Routine SETGRP: Setting up the symmetry group for a 
 hexagonal supercell.


 Subroutine GETGRP returns: Found  6 space group operations
 (whereof  6 operations were pure point group operations)
 out of a pool of 24 trial point group operations.


The overall configuration has the point symmetry C_3v.


 Subroutine INISYM returns: Found  6 space group operations
 (whereof  6 operations are pure point group operations),
 and found     4 'primitive' translations


----------------------------------------------------------------------------------------

                                     Primitive cell                                     

  volume of cell :     169.2928

  direct lattice vectors                    reciprocal lattice vectors
    -1.283398867 -2.222912043  0.000000000     0.000000000 -0.449860355  0.000000000
     2.566797733  0.000000000  0.000000000     0.389590495 -0.224930177  0.000000000
     0.000000000  0.000000000 29.670471191     0.000000000  0.000000000  0.033703543

  length of vectors
     2.566797733  2.566797733 29.670471191     0.449860355  0.449860355  0.033703543

  position of ions in fractional coordinates (direct lattice)
     0.000000000  0.000000000  0.000000000
     0.666666667  0.333333333  0.070635264
     0.333333333  0.666666667  0.141270528
     0.000000000  0.000000000  0.211905792
     0.666666667  0.333333333  0.282541056
     0.333333333  0.666666667  0.353176320
     0.000000000  0.000000000  0.423811585
     0.666666667  0.333333333  0.494446849

  ion indices of the primitive-cell ions
   primitive index   ion index
                 1           1
                 2           5
                 3          12
                 4          13
                 5          17
                 6          24
                 7          25
                 8          29

----------------------------------------------------------------------------------------

 
 
 KPOINTS: Auto-mesh                               

Automatic generation of k-mesh.
 Grid dimensions read from file:
 generate k-points for:    3    3    1

 Generating k-lattice:

  Cartesian coordinates                     Fractional coordinates (reciprocal lattice)
     0.064931749 -0.037488363  0.000000000     0.333333333  0.000000000  0.000000000
     0.000000000  0.074976726  0.000000000     0.000000000  0.333333333  0.000000000
     0.000000000  0.000000000  0.033703543     0.000000000  0.000000000  1.000000000

  Length of vectors
     0.074976726  0.074976726  0.033703543

  Shift w.r.t. Gamma in fractional coordinates (k-lattice)
     0.000000000  0.000000000  0.000000000

 
 Subroutine IBZKPT returns following result:
 ===========================================
 
 Found      3 irreducible k-points:
 
 Following reciprocal coordinates:
            Coordinates               Weight
  0.000000  0.000000  0.000000      1.000000
  0.333333  0.000000  0.000000      6.000000
 -0.333333  0.333333  0.000000      2.000000
 
 Following cartesian coordinates:
            Coordinates               Weight
  0.000000  0.000000  0.000000      1.000000
  0.064932 -0.037488  0.000000      6.000000
 -0.064932  0.112465  0.000000      2.000000
 


--------------------------------------------------------------------------------------------------------




 Dimension of arrays:
   k-points           NKPTS =      3   k-points in BZ     NKDIM =      3   number of bands    NBANDS=    228
   number of dos      NEDOS =    301   number of ions     NIONS =     32
   non local maximal  LDIM  =      6   non local SUM 2l+1 LMDIM =     18
   total plane-waves  NPLWV = 117600
   max r-space proj   IRMAX =      1   max aug-charges    IRDMAX=   5229
   dimension x,y,z NGX =    28 NGY =   28 NGZ =  150
   dimension x,y,z NGXF=    56 NGYF=   56 NGZF=  300
   support grid    NGXF=    56 NGYF=   56 NGZF=  300
   ions per type =              32
   NGX,Y,Z   is equivalent  to a cutoff of   9.07,  9.07,  8.40 a.u.
   NGXF,Y,Z  is equivalent  to a cutoff of  18.13, 18.13, 16.81 a.u.

 SYSTEM =  unknown system                          
 POSCAR =  FCC Cu                                  

 Startparameter for this run:
   NWRITE =      2    write-flag & timer
   PREC   = normal    normal or accurate (medium, high low for compatibility)
   ISTART =      0    job   : 0-new  1-cont  2-samecut
   ICHARG =      2    charge: 1-file 2-atom 10-const
   ISPIN  =      2    spin polarized calculation?
   LNONCOLLINEAR =      F non collinear calculations
   LSORBIT =      F    spin-orbit coupling
   INIWAV =      1    electr: 0-lowe 1-rand  2-diag
   LASPH  =      F    aspherical Exc in radial PAW
 Electronic Relaxation 1
   ENCUT  =  400.0 eV  29.40 Ry    5.42 a.u.   8.37  8.37 48.39*2*pi/ulx,y,z
   ENINI  =  400.0     initial cutoff
   ENAUG  =  587.0 eV  augmentation charge cutoff
   NELM   =     60;   NELMIN=  2; NELMDL= -5     # of ELM steps 
   EDIFF  = 0.2E-03   stopping-criterion for ELM
   LREAL  =      F    real-space projection
   NLSPLINE    = F    spline interpolate recip. space projectors
   LCOMPAT=      F    compatible to vasp.4.4
   GGA_COMPAT  = T    GGA compatible to vasp.4.4-vasp.4.6
   LMAXPAW     = -100 max onsite density
   LMAXMIX     =    2 max onsite mixed and CHGCAR
   VOSKOWN=      0    Vosko Wilk Nusair interpolation
   ROPT   =    0.00000
 Ionic relaxation
   EDIFFG = -.3E-01   stopping-criterion for IOM
   NSW    =    800    number of steps for IOM
   NBLOCK =      1;   KBLOCK =    800    inner block; outer block 
   IBRION =      2    ionic relax: 0-MD 1-quasi-New 2-CG
   NFREE  =      1    steps in history (QN), initial steepest desc. (CG)
   ISIF   =      2    stress and relaxation
   IWAVPR =     11    prediction:  0-non 1-charg 2-wave 3-comb
   ISYM   =      1    0-nonsym 1-usesym 2-fastsym
   LCORR  =      T    Harris-Foulkes like correction to forces

   POTIM  = 0.5000    time-step for ionic-motion
   TEIN   =    0.0    initial temperature
   TEBEG  =    0.0;   TEEND  =   0.0 temperature during run
   SMASS  =  -3.00    Nose mass-parameter (am)
   estimated Nose-frequenzy (Omega)   =  0.10E-29 period in steps = 0.13E+47 mass=  -0.602E-27a.u.
   SCALEE = 1.0000    scale energy and forces
   NPACO  =    256;   APACO  = 10.0  distance and # of slots for P.C.
   PSTRESS=    0.0 pullay stress

  Mass of Ions in am
   POMASS =  63.55
  Ionic Valenz
   ZVAL   =  11.00
  Atomic Wigner-Seitz radii
   RWIGS  =  -1.00
  virtual crystal weights 
   VCA    =   1.00
   NELECT =     352.0000    total number of electrons
   NUPDOWN=      -1.0000    fix difference up-down

 DOS related values:
   EMIN   =  10.00;   EMAX   =-10.00  energy-range for DOS
   EFERMI =   0.00
   ISMEAR =     1;   SIGMA  =   0.20  broadening in eV -4-tet -1-fermi 0-gaus

 Electronic relaxation 2 (details)
   IALGO  =     38    algorithm
   LDIAG  =      T    sub-space diagonalisation (order eigenvalues)
   LSUBROT=      F    optimize rotation matrix (better conditioning)
   TURBO    =      0    0=normal 1=particle mesh
   IRESTART =      0    0=no restart 2=restart with 2 vectors
   NREBOOT  =      0    no. of reboots
   NMIN     =      0    reboot dimension
   EREF     =   0.00    reference energy to select bands
   IMIX   =      4    mixing-type and parameters
     AMIX     =   0.40;   BMIX     =  1.00
     AMIX_MAG =   1.60;   BMIX_MAG =  1.00
     AMIN     =   0.10
     WC   =   100.;   INIMIX=   1;  MIXPRE=   1;  MAXMIX= -45

 Intra band minimization:
   WEIMIN = 0.0010     energy-eigenvalue tresh-hold
   EBREAK =  0.22E-06  absolut break condition
   DEPER  =   0.30     relativ break condition  

   TIME   =   0.40     timestep for ELM

  volume/ion in A,a.u.               =      21.16       142.81
  Fermi-wavevector in a.u.,A,eV,Ry     =   1.316304  2.487454 23.574226  1.732657
  Thomas-Fermi vector in A             =   2.446426
 
 Write flags
   LWAVE        =      F    write WAVECAR
   LDOWNSAMPLE  =      F    k-point downsampling of WAVECAR
   LCHARG       =      F    write CHGCAR
   LVTOT        =      F    write LOCPOT, total local potential
   LVHAR        =      F    write LOCPOT, Hartree potential only
   LELF         =      F    write electronic localiz. function (ELF)
   LORBIT       =      0    0 simple, 1 ext, 2 COOP (PROOUT), +10 PAW based schemes


 Dipole corrections
   LMONO  =      F    monopole corrections only (constant potential shift)
   LDIPOL =      F    correct potential (dipole corrections)
   IDIPOL =      3    1-x, 2-y, 3-z, 4-all directions 
   EPSILON=  1.0000000 bulk dielectric constant

 Exchange correlation treatment:
   GGA     =    PE    GGA type
   LEXCH   =     8    internal setting for exchange type
   LIBXC   =     F    Libxc                    
   VOSKOWN =     0    Vosko Wilk Nusair interpolation
   LHFCALC =     F    Hartree Fock is set to
   LHFONE  =     F    Hartree Fock one center treatment
   AEXX    =    0.0000 exact exchange contribution

 Linear response parameters
   LEPSILON=     F    determine dielectric tensor
   LRPA    =     F    only Hartree local field effects (RPA)
   LNABLA  =     F    use nabla operator in PAW spheres
   LVEL    =     F    velocity operator in full k-point grid
   CSHIFT  =0.1000    complex shift for real part using Kramers Kronig
   OMEGAMAX=  -1.0    maximum frequency
   DEG_THRESHOLD= 0.2000000E-02 threshold for treating states as degnerate
   RTIME   =   -0.100 relaxation time in fs
  (WPLASMAI=    0.000 imaginary part of plasma frequency in eV, 0.658/RTIME)
   DFIELD  = 0.0000000 0.0000000 0.0000000 field for delta impulse in time
 
  Optional k-point grid parameters
   LKPOINTS_OPT  =     F    use optional k-point grid
   KPOINTS_OPT_MODE=     1    mode for optional k-point grid
 
 Orbital magnetization related:
   ORBITALMAG=     F  switch on orbital magnetization
   LCHIMAG   =     F  perturbation theory with respect to B field
   DQ        =  0.001000  dq finite difference perturbation B field
   LLRAUG    =     F  two centre corrections for induced B field



--------------------------------------------------------------------------------------------------------


 conjugate gradient relaxation of ions
   using selective dynamics as specified on POSCAR
   WARNING: If single coordinates had been selected the selection of coordinates
            is made according to the corresponding   d i r e c t   coordinates!
            Don't support selection of single cartesian coordinates -- sorry ...
  !
 charge density and potential will be updated during run
 spin polarized calculation
 Variant of blocked Davidson
 Davidson routine will perform the subspace rotation
 perform sub-space diagonalisation
    after iterative eigenvector-optimisation
 modified Broyden-mixing scheme, WC =      100.0
 initial mixing is a Kerker type mixing with AMIX =  0.4000 and BMIX =      1.0000
 Hartree-type preconditioning will be used
 using additional bands           52
 reciprocal scheme for non local part
 use partial core corrections
 calculate Harris-corrections to forces 
   (improved forces if not selfconsistent)
 use gradient corrections 
 use of overlap-Matrix (Vanderbilt PP)
 Methfessel and Paxton  Order N= 1 SIGMA  =   0.20


--------------------------------------------------------------------------------------------------------


  energy-cutoff  :      400.00
  volume of cell :      677.17
      direct lattice vectors                 reciprocal lattice vectors
     5.133595467  0.000000000  0.000000000     0.194795248 -0.112465089  0.000000000
     2.566797733  4.445824087  0.000000000     0.000000000  0.224930177  0.000000000
     0.000000000  0.000000000 29.670471191     0.000000000  0.000000000  0.033703543

  length of vectors
     5.133595467  5.133595467 29.670471191     0.224930177  0.224930177  0.033703543


 
 k-points in units of 2pi/SCALE and weight: Auto-mesh                               
   0.00000000  0.00000000  0.00000000       0.111
   0.06493175 -0.03748836  0.00000000       0.667
  -0.06493175  0.11246509  0.00000000       0.222
 
 k-points in reciprocal lattice and weights: Auto-mesh                               
   0.00000000  0.00000000  0.00000000       0.111
   0.33333333  0.00000000  0.00000000       0.667
  -0.33333333  0.33333333  0.00000000       0.222
 
 position of ions in fractional coordinates (direct lattice) 
   0.00000000  0.00000000  0.00000000
   0.00000000  0.50000000  0.00000000
   0.50000000  0.00000000  0.00000000
   0.50000000  0.50000000  0.00000000
   0.16666667  0.16666667  0.07063526
   0.16666667  0.66666667  0.07063526
   0.66666667  0.16666667  0.07063526
   0.66666667  0.66666667  0.07063526
   0.33333333  0.33333333  0.14127053
   0.33333333  0.83333333  0.14127053
   0.83333333  0.33333333  0.14127053
   0.83333333  0.83333333  0.14127053
   0.00000000  0.00000000  0.21190579
   0.00000000  0.50000000  0.21190579
   0.50000000  0.00000000  0.21190579
   0.50000000  0.50000000  0.21190579
   0.16666667  0.16666667  0.28254106
   0.16666667  0.66666667  0.28254106
   0.66666667  0.16666667  0.28254106
   0.66666667  0.66666667  0.28254106
   0.33333333  0.33333333  0.35317632
   0.33333333  0.83333333  0.35317632
   0.83333333  0.33333333  0.35317632
   0.83333333  0.83333333  0.35317632
   0.00000000  0.00000000  0.42381158
   0.00000000  0.50000000  0.42381158
   0.50000000  0.00000000  0.42381158
   0.50000000  0.50000000  0.42381158
   0.16666667  0.16666667  0.49444685
   0.16666667  0.66666667  0.49444685
   0.66666667  0.16666667  0.49444685
   0.66666667  0.66666667  0.49444685
 
 position of ions in cartesian coordinates  (Angst):
   0.00000000  0.00000000  0.00000000
   1.28339887  2.22291204  0.00000000
   2.56679773  0.00000000  0.00000000
   3.85019660  2.22291204  0.00000000
   1.28339887  0.74097068  2.09578157
   2.56679773  2.96388272  2.09578157
   3.85019660  0.74097068  2.09578157
   5.13359547  2.96388272  2.09578157
   2.56679773  1.48194136  4.19156314
   3.85019660  3.70485341  4.19156314
   5.13359547  1.48194136  4.19156314
   6.41699433  3.70485341  4.19156314
   0.00000000  0.00000000  6.28734470
   1.28339887  2.22291204  6.28734470
   2.56679773  0.00000000  6.28734470
   3.85019660  2.22291204  6.28734470
   1.28339887  0.74097068  8.38312627
   2.56679773  2.96388272  8.38312627
   3.85019660  0.74097068  8.38312627
   5.13359547  2.96388272  8.38312627
   2.56679773  1.48194136 10.47890784
   3.85019660  3.70485341 10.47890784
   5.13359547  1.48194136 10.47890784
   6.41699433  3.70485341 10.47890784
   0.00000000  0.00000000 12.57468941
   1.28339887  2.22291204 12.57468941
   2.56679773  0.00000000 12.57468941
   3.85019660  2.22291204 12.57468941
   1.28339887  0.74097068 14.67047098
   2.56679773  2.96388272 14.67047098
   3.85019660  0.74097068 14.67047098
   5.13359547  2.96388272 14.67047098
 


--------------------------------------------------------------------------------------------------------


 k-point   1 :   0.0000 0.0000 0.0000  plane waves:   12391
 k-point   2 :   0.3333 0.0000 0.0000  plane waves:   12300
 k-point   3 :  -0.3333 0.3333 0.0000  plane waves:   12318

 maximum and minimum number of plane-waves per node :      2494     2438

 maximum number of plane-waves:     12391
 maximum index in each direction: 
   IXMAX=    8   IYMAX=    8   IZMAX=   48
   IXMIN=   -8   IYMIN=   -8   IZMIN=  -48


 parallel 3D FFT for wavefunctions:
    minimum data exchange during FFTs selected (reduces bandwidth)
 parallel 3D FFT for charge:
    minimum data exchange during FFTs selected (reduces bandwidth)


 total amount of memory used by VASP MPI-rank0    54949. kBytes
=======================================================================

   base      :      30000. kBytes
   nonl-proj :       2341. kBytes
   fftplans  :       2453. kBytes
   grid      :       5668. kBytes
   one-center:        217. kBytes
   wavefun   :      14270. kBytes
 
     INWAV:  cpu time      0.0000: real time      0.0005
 Broyden mixing: mesh for mixing (old mesh)
   NGX = 17   NGY = 17   NGZ = 97
  (NGX  = 56   NGY  = 56   NGZ  =300)
  gives a total of  28033 points

 initial charge density was supplied:
 charge density of overlapping atoms calculated
 number of electron     352.0000000 magnetization      32.0000000
 keeping initial charge density in first step


--------------------------------------------------------------------------------------------------------


 Maximum index for augmentation-charges          336 (set IRDMAX)


--------------------------------------------------------------------------------------------------------


 First call to EWALD:  gamma=   0.202
 Maximum number of real-space cells 5x 5x 1
 Maximum number of reciprocal cells 2x 2x 8

    FEWALD:  cpu time      0.0026: real time      0.0026


--------------------------------------- Iteration      1(   1)  ---------------------------------------


    POTLOK:  cpu time      0.0664: real time      0.0672
    SETDIJ:  cpu time      0.0133: real time      0.0134
     EDDAV:  cpu time      4.4252: real time      4.4623
       DOS:  cpu time      0.0015: real time      0.0016
    --------------------------------------------
      LOOP:  cpu time      4.5065: real time      4.5444

 eigenvalue-minimisations  :  2736
 total energy-change (2. order) : 0.3409126E+04  (-0.1252899E+05)
 number of electron     352.0000000 magnetization      32.0000000
 augmentation part      352.0000000 magnetization      32.0000000

 Free energy of the ion-electron system (eV)
  ---------------------------------------------------
  alpha Z        PSCENC =      1105.89480878
  Ewald energy   TEWEN  =    199197.39292895
  -Hartree energ DENC   =   -243202.79875048
  -exchange      EXHF   =         0.00000000
  -V(xc)+E(xc)   XCENC  =      1463.77898338
  PAW double counting   =     39299.11987357   -42685.46980880
  entropy T*S    EENTRO =        -0.01165462
  eigenvalues    EBANDS =      3720.57477592
  atomic energy  EATOM  =     44510.64448639
  Solvation  Ediel_sol  =         0.00000000
  ---------------------------------------------------
  free energy    TOTEN  =      3409.12564309 eV

  energy without entropy =     3409.13729771  energy(sigma->0) =     3409.12952797


--------------------------------------------------------------------------------------------------------




--------------------------------------- Iteration      1(   2)  ---------------------------------------


     EDDAV:  cpu time      4.3837: real time      4.4213
       DOS:  cpu time      0.0018: real time      0.0018
    --------------------------------------------
      LOOP:  cpu time      4.3855: real time      4.4231

 eigenvalue-minimisations  :  2736
 total energy-change (2. order) :-0.2942368E+04  (-0.2818228E+04)
 number of electron     352.0000000 magnetization      32.0000000
 augmentation part      352.0000000 magnetization      32.0000000

 Free energy of the ion-electron system (eV)
  ---------------------------------------------------
  alpha Z        PSCENC =      1105.89480878
  Ewald energy   TEWEN  =    199197.39292895
  -Hartree energ DENC   =   -243202.79875048
  -exchange      EXHF   =         0.00000000
  -V(xc)+E(xc)   XCENC  =      1463.77898338
  PAW double counting   =     39299.11987357   -42685.46980880
  entropy T*S    EENTRO =        -0.00209675
  eigenvalues    EBANDS =       778.19748674
  atomic energy  EATOM  =     44510.64448639
  Solvation  Ediel_sol  =         0.00000000
  ---------------------------------------------------
  free energy    TOTEN  =       466.75791179 eV

  energy without entropy =      466.76000854  energy(sigma->0) =      466.75861070


--------------------------------------------------------------------------------------------------------




--------------------------------------- Iteration      1(   3)  ---------------------------------------


     EDDAV:  cpu time      4.3689: real time      4.4084
       DOS:  cpu time      0.0020: real time      0.0020
    --------------------------------------------
      LOOP:  cpu time      4.3709: real time      4.4105

 eigenvalue-minimisations  :  2736
 total energy-change (2. order) :-0.5612055E+03  (-0.5104887E+03)
 number of electron     352.0000000 magnetization      32.0000000
 augmentation part      352.0000000 magnetization      32.0000000

 Free energy of the ion-electron system (eV)
  ---------------------------------------------------
  alpha Z        PSCENC =      1105.89480878
  Ewald energy   TEWEN  =    199197.39292895
  -Hartree energ DENC   =   -243202.79875048
  -exchange      EXHF   =         0.00000000
  -V(xc)+E(xc)   XCENC  =      1463.77898338
  PAW double counting   =     39299.11987357   -42685.46980880
  entropy T*S    EENTRO =         0.01426980
  eigenvalues    EBANDS =       216.97560200
  atomic energy  EATOM  =     44510.64448639
  Solvation  Ediel_sol  =         0.00000000
  ---------------------------------------------------
  free energy    TOTEN  =       -94.44760641 eV

  energy without entropy =      -94.46187621  energy(sigma->0) =      -94.45236301


--------------------------------------------------------------------------------------------------------




--------------------------------------- Iteration      1(   4)  ---------------------------------------


     EDDAV:  cpu time      4.6342: real time      4.6747
       DOS:  cpu time      0.0021: real time      0.0021
    --------------------------------------------
      LOOP:  cpu time      4.6363: real time      4.6768

 eigenvalue-minimisations  :  2972
 total energy-change (2. order) :-0.4220775E+02  (-0.4059603E+02)
 number of electron     352.0000000 magnetization      32.0000000
 augmentation part      352.0000000 magnetization      32.0000000

 Free energy of the ion-electron system (eV)
  ---------------------------------------------------
  alpha Z        PSCENC =      1105.89480878
  Ewald energy   TEWEN  =    199197.39292895
  -Hartree energ DENC   =   -243202.79875048
  -exchange      EXHF   =         0.00000000
  -V(xc)+E(xc)   XCENC  =      1463.77898338
  PAW double counting   =     39299.11987357   -42685.46980880
  entropy T*S    EENTRO =         0.03436650
  eigenvalues    EBANDS =       174.74775400
  atomic energy  EATOM  =     44510.64448639
  Solvation  Ediel_sol  =         0.00000000
  ---------------------------------------------------
  free energy    TOTEN  =      -136.65535770 eV

  energy without entropy =     -136.68972420  energy(sigma->0) =     -136.66681320


--------------------------------------------------------------------------------------------------------




--------------------------------------- Iteration      1(   5)  ---------------------------------------


     EDDAV:  cpu time      4.6912: real time      4.7310
       DOS:  cpu time      0.0021: real time      0.0021
    CHARGE:  cpu time      0.4374: real time      0.4394
    MIXING:  cpu time      0.0069: real time      0.0070
    --------------------------------------------
      LOOP:  cpu time      5.1377: real time      5.1795

 eigenvalue-minimisations  :  3016
 total energy-change (2. order) :-0.9993373E+00  (-0.9959298E+00)
 number of electron     351.9999884 magnetization      30.2905339
 augmentation part      207.5934551 magnetization      29.2690487

 Broyden mixing:
  rms(total) = 0.52054E+01    rms(broyden)= 0.52053E+01
  rms(prec ) = 0.53258E+01
  weight for this iteration     100.00

 Free energy of the ion-electron system (eV)
  ---------------------------------------------------
  alpha Z        PSCENC =      1105.89480878
  Ewald energy   TEWEN  =    199197.39292895
  -Hartree energ DENC   =   -243202.79875048
  -exchange      EXHF   =         0.00000000
  -V(xc)+E(xc)   XCENC  =      1463.77898338
  PAW double counting   =     39299.11987357   -42685.46980880
  entropy T*S    EENTRO =         0.03675665
  eigenvalues    EBANDS =       173.74602652
  atomic energy  EATOM  =     44510.64448639
  Solvation  Ediel_sol  =         0.00000000
  ---------------------------------------------------
  free energy    TOTEN  =      -137.65469503 eV

  energy without entropy =     -137.69145168  energy(sigma->0) =     -137.66694725


--------------------------------------------------------------------------------------------------------




--------------------------------------- Iteration      1(   6)  ---------------------------------------


    POTLOK:  cpu time      0.0646: real time      0.0651
    SETDIJ:  cpu time      0.0175: real time      0.0176
     EDDAV:  cpu time      4.6204: real time      4.6595
       DOS:  cpu time      0.0019: real time      0.0019
    CHARGE:  cpu time      0.4322: real time      0.4342
    MIXING:  cpu time      0.0074: real time      0.0074
    --------------------------------------------
      LOOP:  cpu time      5.1440: real time      5.1858

 eigenvalue-minimisations  :  2952
 total energy-change (2. order) : 0.2261616E+02  (-0.3109624E+02)
 number of electron     351.9999864 magnetization      29.1422146
 augmentation part      235.2609574 magnetization      21.6073773

 Broyden mixing:
  rms(total) = 0.27549E+01    rms(broyden)= 0.27547E+01
  rms(prec ) = 0.28361E+01
  weight for this iteration     100.00

 eigenvalues of (default mixing * dielectric matrix)
  average eigenvalue GAMMA=   0.7835
  0.7835

 Free energy of the ion-electron system (eV)
  ---------------------------------------------------
  alpha Z        PSCENC =      1105.89480878
  Ewald energy   TEWEN  =    199197.39292895
  -Hartree energ DENC   =   -242291.59384162
  -exchange      EXHF   =         0.00000000
  -V(xc)+E(xc)   XCENC  =      1423.46395492
  PAW double counting   =     39779.09626678   -42987.02103529
  entropy T*S    EENTRO =        -0.00726562
  eigenvalues    EBANDS =      -852.90883574
  atomic energy  EATOM  =     44510.64448639
  Solvation  Ediel_sol  =         0.00000000
  ---------------------------------------------------
  free energy    TOTEN  =      -115.03853246 eV

  energy without entropy =     -115.03126684  energy(sigma->0) =     -115.03611058


--------------------------------------------------------------------------------------------------------




--------------------------------------- Iteration      1(   7)  ---------------------------------------


    POTLOK:  cpu time      0.0624: real time      0.0637
    SETDIJ:  cpu time      0.0122: real time      0.0126
     EDDAV:  cpu time      4.6349: real time      4.6746
       DOS:  cpu time      0.0039: real time      0.0039
    CHARGE:  cpu time      0.4333: real time      0.4356
    MIXING:  cpu time      0.0066: real time      0.0066
    --------------------------------------------
      LOOP:  cpu time      5.1533: real time      5.1969

 eigenvalue-minimisations  :  2976
 total energy-change (2. order) : 0.1530661E+02  (-0.6991529E+01)
 number of electron     351.9999871 magnetization      28.3159531
 augmentation part      225.5377524 magnetization      20.2393051

 Broyden mixing:
  rms(total) = 0.14452E+01    rms(broyden)= 0.14452E+01
  rms(prec ) = 0.16276E+01
  weight for this iteration     100.00

 eigenvalues of (default mixing * dielectric matrix)
  average eigenvalue GAMMA=   0.7879
  0.9482  0.6275

 Free energy of the ion-electron system (eV)
  ---------------------------------------------------
  alpha Z        PSCENC =      1105.89480878
  Ewald energy   TEWEN  =    199197.39292895
  -Hartree energ DENC   =   -242795.64311583
  -exchange      EXHF   =         0.00000000
  -V(xc)+E(xc)   XCENC  =      1441.14429966
  PAW double counting   =     40610.15175426   -43983.41165035
  entropy T*S    EENTRO =        -0.08882921
  eigenvalues    EBANDS =      -185.81660858
  atomic energy  EATOM  =     44510.64448639
  Solvation  Ediel_sol  =         0.00000000
  ---------------------------------------------------
  free energy    TOTEN  =       -99.73192592 eV

  energy without entropy =      -99.64309671  energy(sigma->0) =      -99.70231618


--------------------------------------------------------------------------------------------------------




--------------------------------------- Iteration      1(   8)  ---------------------------------------


    POTLOK:  cpu time      0.0603: real time      0.0608
    SETDIJ:  cpu time      0.0123: real time      0.0124
     EDDAV:  cpu time      4.9312: real time      4.9721
       DOS:  cpu time      0.0020: real time      0.0020
    CHARGE:  cpu time      0.4093: real time      0.4112
    MIXING:  cpu time      0.0122: real time      0.0122
    --------------------------------------------
      LOOP:  cpu time      5.4273: real time      5.4707

 eigenvalue-minimisations  :  3232
 total energy-change (2. order) :-0.2652496E+01  (-0.3198899E+01)
 number of electron     351.9999877 magnetization      26.9502328
 augmentation part      224.1948450 magnetization      19.6613861

 Broyden mixing:
  rms(total) = 0.16916E+01    rms(broyden)= 0.16914E+01
  rms(prec ) = 0.20606E+01
  weight for this iteration     100.00

 eigenvalues of (default mixing * dielectric matrix)
  average eigenvalue GAMMA=   0.6585
  1.1219  0.6457  0.2078

 Free energy of the ion-electron system (eV)
  ---------------------------------------------------
  alpha Z        PSCENC =      1105.89480878
  Ewald energy   TEWEN  =    199197.39292895
  -Hartree energ DENC   =   -242599.73719519
  -exchange      EXHF   =         0.00000000
  -V(xc)+E(xc)   XCENC  =      1442.04986548
  PAW double counting   =     40904.41609665   -44304.62158544
  entropy T*S    EENTRO =        -0.03400440
  eigenvalues    EBANDS =      -358.38982317
  atomic energy  EATOM  =     44510.64448639
  Solvation  Ediel_sol  =         0.00000000
  ---------------------------------------------------
  free energy    TOTEN  =      -102.38442194 eV

  energy without entropy =     -102.35041754  energy(sigma->0) =     -102.37308714


--------------------------------------------------------------------------------------------------------




--------------------------------------- Iteration      1(   9)  ---------------------------------------


    POTLOK:  cpu time      0.0698: real time      0.0721
    SETDIJ:  cpu time      0.0128: real time      0.0128
     EDDAV:  cpu time      5.4882: real time      5.5337
       DOS:  cpu time      0.0029: real time      0.0029
    CHARGE:  cpu time      0.4300: real time      0.4319
    MIXING:  cpu time      0.0074: real time      0.0074
    --------------------------------------------
      LOOP:  cpu time      6.0109: real time      6.0607

 eigenvalue-minimisations  :  3684
 total energy-change (2. order) : 0.5977728E+01  (-0.7512097E+00)
 number of electron     351.9999873 magnetization      25.8892256
 augmentation part      223.9805282 magnetization      17.4735415

 Broyden mixing:
  rms(total) = 0.10887E+01    rms(broyden)= 0.10886E+01
  rms(prec ) = 0.11008E+01
  weight for this iteration     100.00

 eigenvalues of (default mixing * dielectric matrix)
  average eigenvalue GAMMA=   0.6105
  0.9944  0.6172  0.6172  0.2130

 Free energy of the ion-electron system (eV)
  ---------------------------------------------------
  alpha Z        PSCENC =      1105.89480878
  Ewald energy   TEWEN  =    199197.39292895
  -Hartree energ DENC   =   -242755.93613600
  -exchange      EXHF   =         0.00000000
  -V(xc)+E(xc)   XCENC  =      1442.68096069
  PAW double counting   =     41326.12498994   -44759.44126307
  entropy T*S    EENTRO =        -0.03169656
  eigenvalues    EBANDS =      -163.73577263
  atomic energy  EATOM  =     44510.64448639
  Solvation  Ediel_sol  =         0.00000000
  ---------------------------------------------------
  free energy    TOTEN  =       -96.40669349 eV

  energy without entropy =      -96.37499694  energy(sigma->0) =      -96.39612798


--------------------------------------------------------------------------------------------------------




--------------------------------------- Iteration      1(  10)  ---------------------------------------


    POTLOK:  cpu time      0.0618: real time      0.0623
    SETDIJ:  cpu time      0.0123: real time      0.0123
     EDDAV:  cpu time      5.8832: real time      5.9322
       DOS:  cpu time      0.0020: real time      0.0021
    CHARGE:  cpu time      0.4139: real time      0.4160
    MIXING:  cpu time      0.0074: real time      0.0074
    --------------------------------------------
      LOOP:  cpu time      6.3807: real time      6.4324

 eigenvalue-minimisations  :  4012
 total energy-change (2. order) :-0.1707399E+01  (-0.2874815E+00)
 number of electron     351.9999873 magnetization      20.3247069
 augmentation part      224.2813772 magnetization      12.9144128

 Broyden mixing:
  rms(total) = 0.10649E+01    rms(broyden)= 0.10649E+01
  rms(prec ) = 0.10909E+01
  weight for this iteration     100.00

 eigenvalues of (default mixing * dielectric matrix)
  average eigenvalue GAMMA=   0.8265
  1.5027  1.3067  0.7194  0.3942  0.2096

 Free energy of the ion-electron system (eV)
  ---------------------------------------------------
  alpha Z        PSCENC =      1105.89480878
  Ewald energy   TEWEN  =    199197.39292895
  -Hartree energ DENC   =   -242714.65099630
  -exchange      EXHF   =         0.00000000
  -V(xc)+E(xc)   XCENC  =      1440.11351304
  PAW double counting   =     41518.64917667   -44954.94427357
  entropy T*S    EENTRO =        -0.01018297
  eigenvalues    EBANDS =      -201.20355323
  atomic energy  EATOM  =     44510.64448639
  Solvation  Ediel_sol  =         0.00000000
  ---------------------------------------------------
  free energy    TOTEN  =       -98.11409225 eV

  energy without entropy =      -98.10390928  energy(sigma->0) =      -98.11069793


--------------------------------------------------------------------------------------------------------




--------------------------------------- Iteration      1(  11)  ---------------------------------------


    POTLOK:  cpu time      0.0620: real time      0.0625
    SETDIJ:  cpu time      0.0148: real time      0.0148
     EDDAV:  cpu time      5.4711: real time      5.5159
       DOS:  cpu time      0.0020: real time      0.0021
    CHARGE:  cpu time      0.4288: real time      0.4311
    MIXING:  cpu time      0.0072: real time      0.0072
    --------------------------------------------
      LOOP:  cpu time      5.9859: real time      6.0336

 eigenvalue-minimisations  :  3688
 total energy-change (2. order) :-0.4332919E+01  (-0.1617540E+01)
 number of electron     351.9999874 magnetization      18.7440239
 augmentation part      225.1891261 magnetization      12.3159531

 Broyden mixing:
  rms(total) = 0.10909E+01    rms(broyden)= 0.10909E+01
  rms(prec ) = 0.17271E+01
  weight for this iteration     100.00

 eigenvalues of (default mixing * dielectric matrix)
  average eigenvalue GAMMA=   0.8954
  2.6149  1.0674  0.7103  0.4352  0.2092  0.3357

 Free energy of the ion-electron system (eV)
  ---------------------------------------------------
  alpha Z        PSCENC =      1105.89480878
  Ewald energy   TEWEN  =    199197.39292895
  -Hartree energ DENC   =   -242755.52807756
  -exchange      EXHF   =         0.00000000
  -V(xc)+E(xc)   XCENC  =      1433.42865514
  PAW double counting   =     42342.34642579   -45798.86056959
  entropy T*S    EENTRO =        -0.03883340
  eigenvalues    EBANDS =      -137.72683612
  atomic energy  EATOM  =     44510.64448639
  Solvation  Ediel_sol  =         0.00000000
  ---------------------------------------------------
  free energy    TOTEN  =      -102.44701162 eV

  energy without entropy =     -102.40817821  energy(sigma->0) =     -102.43406715


--------------------------------------------------------------------------------------------------------




--------------------------------------- Iteration      1(  12)  ---------------------------------------


    POTLOK:  cpu time      0.0602: real time      0.0607
    SETDIJ:  cpu time      0.0124: real time      0.0125
     EDDAV:  cpu time      5.7299: real time      5.7770
       DOS:  cpu time      0.0020: real time      0.0020
    CHARGE:  cpu time      0.4224: real time      0.4248
    MIXING:  cpu time      0.0083: real time      0.0083
    --------------------------------------------
      LOOP:  cpu time      6.2353: real time      6.2854

 eigenvalue-minimisations  :  3896
 total energy-change (2. order) : 0.1509172E+01  (-0.1986002E+01)
 number of electron     351.9999872 magnetization      13.8766836
 augmentation part      225.8111195 magnetization       7.4727083

 Broyden mixing:
  rms(total) = 0.93493E+00    rms(broyden)= 0.93486E+00
  rms(prec ) = 0.13345E+01
  weight for this iteration     100.00

 eigenvalues of (default mixing * dielectric matrix)
  average eigenvalue GAMMA=   1.0450
  4.2348  1.0208  0.6707  0.6707  0.3940  0.2090  0.1149

 Free energy of the ion-electron system (eV)
  ---------------------------------------------------
  alpha Z        PSCENC =      1105.89480878
  Ewald energy   TEWEN  =    199197.39292895
  -Hartree energ DENC   =   -242762.91366972
  -exchange      EXHF   =         0.00000000
  -V(xc)+E(xc)   XCENC  =      1433.07562629
  PAW double counting   =     42533.75456981   -45997.47500263
  entropy T*S    EENTRO =        -0.00356560
  eigenvalues    EBANDS =      -121.30802180
  atomic energy  EATOM  =     44510.64448639
  Solvation  Ediel_sol  =         0.00000000
  ---------------------------------------------------
  free energy    TOTEN  =      -100.93783952 eV

  energy without entropy =     -100.93427393  energy(sigma->0) =     -100.93665099


--------------------------------------------------------------------------------------------------------




--------------------------------------- Iteration      1(  13)  ---------------------------------------


    POTLOK:  cpu time      0.0625: real time      0.0630
    SETDIJ:  cpu time      0.0136: real time      0.0137
     EDDAV:  cpu time      6.3236: real time      6.3763
       DOS:  cpu time      0.0021: real time      0.0021
    CHARGE:  cpu time      0.4239: real time      0.4263
    MIXING:  cpu time      0.0078: real time      0.0078
    --------------------------------------------
      LOOP:  cpu time      6.8335: real time      6.8891

 eigenvalue-minimisations  :  4408
 total energy-change (2. order) : 0.2000405E+01  (-0.7012992E+00)
 number of electron     351.9999873 magnetization      10.8835659
 augmentation part      226.1587224 magnetization       5.6588733

 Broyden mixing:
  rms(total) = 0.75837E+00    rms(broyden)= 0.75834E+00
  rms(prec ) = 0.83531E+00
  weight for this iteration     100.00

 eigenvalues of (default mixing * dielectric matrix)
  average eigenvalue GAMMA=   1.2620
  6.1578  1.0631  0.8165  0.8165  0.5617  0.3679  0.2095  0.1032

 Free energy of the ion-electron system (eV)
  ---------------------------------------------------
  alpha Z        PSCENC =      1105.89480878
  Ewald energy   TEWEN  =    199197.39292895
  -Hartree energ DENC   =   -242795.02764083
  -exchange      EXHF   =         0.00000000
  -V(xc)+E(xc)   XCENC  =      1433.14739342
  PAW double counting   =     42961.45795116   -46448.32810274
  entropy T*S    EENTRO =         0.01307361
  eigenvalues    EBANDS =       -64.13233325
  atomic energy  EATOM  =     44510.64448639
  Solvation  Ediel_sol  =         0.00000000
  ---------------------------------------------------
  free energy    TOTEN  =       -98.93743451 eV

  energy without entropy =      -98.95050813  energy(sigma->0) =      -98.94179238


--------------------------------------------------------------------------------------------------------




--------------------------------------- Iteration      1(  14)  ---------------------------------------


    POTLOK:  cpu time      0.0602: real time      0.0621
    SETDIJ:  cpu time      0.0124: real time      0.0124
     EDDAV:  cpu time      5.4342: real time      5.4797
       DOS:  cpu time      0.0021: real time      0.0022
    CHARGE:  cpu time      0.4256: real time      0.4278
    MIXING:  cpu time      0.0084: real time      0.0085
    --------------------------------------------
      LOOP:  cpu time      5.9429: real time      5.9927

 eigenvalue-minimisations  :  3660
 total energy-change (2. order) :-0.3071613E+01  (-0.3557298E+00)
 number of electron     351.9999872 magnetization       7.4935936
 augmentation part      225.3241321 magnetization       3.0096573

 Broyden mixing:
  rms(total) = 0.47426E+00    rms(broyden)= 0.47424E+00
  rms(prec ) = 0.56600E+00
  weight for this iteration     100.00

 eigenvalues of (default mixing * dielectric matrix)
  average eigenvalue GAMMA=   1.6130
  9.4433  1.4159  0.8924  0.8924  0.5960  0.5960  0.3686  0.2092  0.1028

 Free energy of the ion-electron system (eV)
  ---------------------------------------------------
  alpha Z        PSCENC =      1105.89480878
  Ewald energy   TEWEN  =    199197.39292895
  -Hartree energ DENC   =   -242879.69725210
  -exchange      EXHF   =         0.00000000
  -V(xc)+E(xc)   XCENC  =      1432.73914959
  PAW double counting   =     42825.51658895   -46313.80098573
  entropy T*S    EENTRO =        -0.00479532
  eigenvalues    EBANDS =        19.30602261
  atomic energy  EATOM  =     44510.64448639
  Solvation  Ediel_sol  =         0.00000000
  ---------------------------------------------------
  free energy    TOTEN  =      -102.00904788 eV

  energy without entropy =     -102.00425256  energy(sigma->0) =     -102.00744944


--------------------------------------------------------------------------------------------------------




--------------------------------------- Iteration      1(  15)  ---------------------------------------


    POTLOK:  cpu time      0.0634: real time      0.0639
    SETDIJ:  cpu time      0.0124: real time      0.0124
     EDDAV:  cpu time      5.1449: real time      5.1879
       DOS:  cpu time      0.0021: real time      0.0021
    CHARGE:  cpu time      0.4275: real time      0.4293
    MIXING:  cpu time      0.0082: real time      0.0082
    --------------------------------------------
      LOOP:  cpu time      5.6584: real time      5.7038

 eigenvalue-minimisations  :  3424
 total energy-change (2. order) :-0.2850477E+01  (-0.2673450E+00)
 number of electron     351.9999873 magnetization       5.8982400
 augmentation part      224.4681330 magnetization       2.9137145

 Broyden mixing:
  rms(total) = 0.45462E+00    rms(broyden)= 0.45459E+00
  rms(prec ) = 0.53054E+00
  weight for this iteration     100.00

 eigenvalues of (default mixing * dielectric matrix)
  average eigenvalue GAMMA=   1.7092
 11.2259  1.7122  1.0452  0.6795  0.6795  0.6826  0.3773  0.3773  0.2092  0.1029

 Free energy of the ion-electron system (eV)
  ---------------------------------------------------
  alpha Z        PSCENC =      1105.89480878
  Ewald energy   TEWEN  =    199197.39292895
  -Hartree energ DENC   =   -242883.27287268
  -exchange      EXHF   =         0.00000000
  -V(xc)+E(xc)   XCENC  =      1433.14568031
  PAW double counting   =     42456.84151529   -45936.17275118
  entropy T*S    EENTRO =        -0.03575621
  eigenvalues    EBANDS =        10.70243534
  atomic energy  EATOM  =     44510.64448639
  Solvation  Ediel_sol  =         0.00000000
  ---------------------------------------------------
  free energy    TOTEN  =      -104.85952501 eV

  energy without entropy =     -104.82376880  energy(sigma->0) =     -104.84760628


--------------------------------------------------------------------------------------------------------




--------------------------------------- Iteration      1(  16)  ---------------------------------------


    POTLOK:  cpu time      0.0598: real time      0.0609
    SETDIJ:  cpu time      0.0124: real time      0.0125
     EDDAV:  cpu time      5.6017: real time      5.6485
       DOS:  cpu time      0.0020: real time      0.0020
    CHARGE:  cpu time      0.4274: real time      0.4296
    MIXING:  cpu time      0.0060: real time      0.0061
    --------------------------------------------
      LOOP:  cpu time      6.1094: real time      6.1596

 eigenvalue-minimisations  :  3796
 total energy-change (2. order) :-0.1598555E+01  (-0.1861905E+00)
 number of electron     351.9999874 magnetization       4.7033412
 augmentation part      224.0712700 magnetization       2.3523794

 Broyden mixing:
  rms(total) = 0.39666E+00    rms(broyden)= 0.39665E+00
  rms(prec ) = 0.47871E+00
  weight for this iteration     100.00

 eigenvalues of (default mixing * dielectric matrix)
  average eigenvalue GAMMA=   1.8137
 12.9544  2.1709  1.0625  0.8093  0.8093  0.6401  0.4818  0.2092  0.3664  0.3442
  0.1028

 Free energy of the ion-electron system (eV)
  ---------------------------------------------------
  alpha Z        PSCENC =      1105.89480878
  Ewald energy   TEWEN  =    199197.39292895
  -Hartree energ DENC   =   -242884.26535323
  -exchange      EXHF   =         0.00000000
  -V(xc)+E(xc)   XCENC  =      1432.93566361
  PAW double counting   =     42225.27965422   -45696.09403714
  entropy T*S    EENTRO =        -0.02755768
  eigenvalues    EBANDS =         1.78132564
  atomic energy  EATOM  =     44510.64448639
  Solvation  Ediel_sol  =         0.00000000
  ---------------------------------------------------
  free energy    TOTEN  =      -106.45808044 eV

  energy without entropy =     -106.43052277  energy(sigma->0) =     -106.44889455


--------------------------------------------------------------------------------------------------------




--------------------------------------- Iteration      1(  17)  ---------------------------------------


    POTLOK:  cpu time      0.0602: real time      0.0613
    SETDIJ:  cpu time      0.0125: real time      0.0126
     EDDAV:  cpu time      5.5431: real time      5.5891
       DOS:  cpu time      0.0021: real time      0.0021
    CHARGE:  cpu time      0.4210: real time      0.4232
    MIXING:  cpu time      0.0087: real time      0.0087
    --------------------------------------------
      LOOP:  cpu time      6.0476: real time      6.0970

 eigenvalue-minimisations  :  3732
 total energy-change (2. order) :-0.1639027E+01  (-0.1548665E+00)
 number of electron     351.9999872 magnetization       4.2446627
 augmentation part      224.1653565 magnetization       2.3408460

 Broyden mixing:
  rms(total) = 0.24272E+00    rms(broyden)= 0.24266E+00
  rms(prec ) = 0.32293E+00
  weight for this iteration     100.00

 eigenvalues of (default mixing * dielectric matrix)
  average eigenvalue GAMMA=   1.8159
 13.7167  2.5096  0.9587  0.9587  0.8442  0.6519  0.6519  0.5190  0.3760  0.2092
  0.2924  0.1028

 Free energy of the ion-electron system (eV)
  ---------------------------------------------------
  alpha Z        PSCENC =      1105.89480878
  Ewald energy   TEWEN  =    199197.39292895
  -Hartree energ DENC   =   -242875.15633247
  -exchange      EXHF   =         0.00000000
  -V(xc)+E(xc)   XCENC  =      1431.83465906
  PAW double counting   =     41975.52865868   -45431.42046447
  entropy T*S    EENTRO =        -0.01333543
  eigenvalues    EBANDS =       -22.80251686
  atomic energy  EATOM  =     44510.64448639
  Solvation  Ediel_sol  =         0.00000000
  ---------------------------------------------------
  free energy    TOTEN  =      -108.09710737 eV

  energy without entropy =     -108.08377194  energy(sigma->0) =     -108.09266222


--------------------------------------------------------------------------------------------------------




--------------------------------------- Iteration      1(  18)  ---------------------------------------


    POTLOK:  cpu time      0.0621: real time      0.0626
    SETDIJ:  cpu time      0.0126: real time      0.0126
     EDDAV:  cpu time      5.4448: real time      5.4905
       DOS:  cpu time      0.0021: real time      0.0021
    CHARGE:  cpu time      0.4253: real time      0.4275
    MIXING:  cpu time      0.0090: real time      0.0090
    --------------------------------------------
      LOOP:  cpu time      5.9558: real time      6.0044

 eigenvalue-minimisations  :  3672
 total energy-change (2. order) :-0.1390908E+01  (-0.1401265E+00)
 number of electron     351.9999872 magnetization       3.7278900
 augmentation part      224.5708859 magnetization       2.3090334

 Broyden mixing:
  rms(total) = 0.20917E+00    rms(broyden)= 0.20912E+00
  rms(prec ) = 0.22632E+00
  weight for this iteration     100.00

 eigenvalues of (default mixing * dielectric matrix)
  average eigenvalue GAMMA=   1.7874
 14.2791  2.7769  1.0105  1.0105  0.8628  0.6744  0.6744  0.5703  0.4259  0.3728
  0.2092  0.1028  0.2665

 Free energy of the ion-electron system (eV)
  ---------------------------------------------------
  alpha Z        PSCENC =      1105.89480878
  Ewald energy   TEWEN  =    199197.39292895
  -Hartree energ DENC   =   -242836.80049218
  -exchange      EXHF   =         0.00000000
  -V(xc)+E(xc)   XCENC  =      1430.50075367
  PAW double counting   =     41807.44947985   -45249.23764573
  entropy T*S    EENTRO =        -0.00359086
  eigenvalues    EBANDS =       -75.32874462
  atomic energy  EATOM  =     44510.64448639
  Solvation  Ediel_sol  =         0.00000000
  ---------------------------------------------------
  free energy    TOTEN  =      -109.48801574 eV

  energy without entropy =     -109.48442488  energy(sigma->0) =     -109.48681878


--------------------------------------------------------------------------------------------------------




--------------------------------------- Iteration      1(  19)  ---------------------------------------


    POTLOK:  cpu time      0.0622: real time      0.0660
    SETDIJ:  cpu time      0.0123: real time      0.0124
     EDDAV:  cpu time      4.9789: real time      5.0211
       DOS:  cpu time      0.0021: real time      0.0021
    CHARGE:  cpu time      0.4073: real time      0.4091
    MIXING:  cpu time      0.0087: real time      0.0088
    --------------------------------------------
      LOOP:  cpu time      5.4714: real time      5.5194

 eigenvalue-minimisations  :  3292
 total energy-change (2. order) :-0.6763173E+00  (-0.6571282E-01)
 number of electron     351.9999871 magnetization       3.1161111
 augmentation part      224.7169521 magnetization       1.9721909

 Broyden mixing:
  rms(total) = 0.17638E+00    rms(broyden)= 0.17637E+00
  rms(prec ) = 0.20234E+00
  weight for this iteration     100.00

 eigenvalues of (default mixing * dielectric matrix)
  average eigenvalue GAMMA=   1.7870
 14.8318  3.0610  1.2341  0.9828  0.9828  0.6952  0.6952  0.7092  0.4981  0.1028
  0.2092  0.3863  0.3618  0.2671

 Free energy of the ion-electron system (eV)
  ---------------------------------------------------
  alpha Z        PSCENC =      1105.89480878
  Ewald energy   TEWEN  =    199197.39292895
  -Hartree energ DENC   =   -242815.73129763
  -exchange      EXHF   =         0.00000000
  -V(xc)+E(xc)   XCENC  =      1430.08375567
  PAW double counting   =     41732.28830354   -45169.86814215
  entropy T*S    EENTRO =        -0.01309591
  eigenvalues    EBANDS =      -100.85608066
  atomic energy  EATOM  =     44510.64448639
  Solvation  Ediel_sol  =         0.00000000
  ---------------------------------------------------
  free energy    TOTEN  =      -110.16433303 eV

  energy without entropy =     -110.15123712  energy(sigma->0) =     -110.15996773


--------------------------------------------------------------------------------------------------------




--------------------------------------- Iteration      1(  20)  ---------------------------------------


    POTLOK:  cpu time      0.0600: real time      0.0605
    SETDIJ:  cpu time      0.0124: real time      0.0124
     EDDAV:  cpu time      5.0711: real time      5.1148
       DOS:  cpu time      0.0028: real time      0.0028
    CHARGE:  cpu time      0.4146: real time      0.4170
    MIXING:  cpu time      0.0094: real time      0.0095
    --------------------------------------------
      LOOP:  cpu time      5.5704: real time      5.6170

 eigenvalue-minimisations  :  3364
 total energy-change (2. order) :-0.6113449E+00  (-0.3314702E-01)
 number of electron     351.9999871 magnetization       2.2409279
 augmentation part      224.5863984 magnetization       1.3632355

 Broyden mixing:
  rms(total) = 0.16382E+00    rms(broyden)= 0.16380E+00
  rms(prec ) = 0.18340E+00
  weight for this iteration     100.00

 eigenvalues of (default mixing * dielectric matrix)
  average eigenvalue GAMMA=   1.8159
 15.2778  3.4162  1.8677  0.9512  0.9512  0.9970  0.6451  0.6451  0.6647  0.5072
  0.1028  0.2092  0.3829  0.3460  0.2751

 Free energy of the ion-electron system (eV)
  ---------------------------------------------------
  alpha Z        PSCENC =      1105.89480878
  Ewald energy   TEWEN  =    199197.39292895
  -Hartree energ DENC   =   -242804.34536120
  -exchange      EXHF   =         0.00000000
  -V(xc)+E(xc)   XCENC  =      1429.92231059
  PAW double counting   =     41704.53129701   -45143.23698933
  entropy T*S    EENTRO =        -0.01015212
  eigenvalues    EBANDS =      -111.56900700
  atomic energy  EATOM  =     44510.64448639
  Solvation  Ediel_sol  =         0.00000000
  ---------------------------------------------------
  free energy    TOTEN  =      -110.77567792 eV

  energy without entropy =     -110.76552580  energy(sigma->0) =     -110.77229388


--------------------------------------------------------------------------------------------------------




--------------------------------------- Iteration      1(  21)  ---------------------------------------


    POTLOK:  cpu time      0.0601: real time      0.0606
    SETDIJ:  cpu time      0.0125: real time      0.0125
     EDDAV:  cpu time      5.7720: real time      5.8210
       DOS:  cpu time      0.0021: real time      0.0021
    CHARGE:  cpu time      0.4120: real time      0.4139
    MIXING:  cpu time      0.0096: real time      0.0096
    --------------------------------------------
      LOOP:  cpu time      6.2681: real time      6.3197

 eigenvalue-minimisations  :  3948
 total energy-change (2. order) :-0.8348467E+00  (-0.5928964E-01)
 number of electron     351.9999872 magnetization       1.9640053
 augmentation part      224.4961135 magnetization       1.4801628

 Broyden mixing:
  rms(total) = 0.16555E+00    rms(broyden)= 0.16552E+00
  rms(prec ) = 0.22957E+00
  weight for this iteration     100.00

 eigenvalues of (default mixing * dielectric matrix)
  average eigenvalue GAMMA=   1.7912
 15.4350  3.5027  2.2581  0.9938  0.9938  0.8241  0.8241  0.7182  0.6612  0.6612
  0.4746  0.1028  0.2092  0.3854  0.3415  0.2734

 Free energy of the ion-electron system (eV)
  ---------------------------------------------------
  alpha Z        PSCENC =      1105.89480878
  Ewald energy   TEWEN  =    199197.39292895
  -Hartree energ DENC   =   -242745.32959768
  -exchange      EXHF   =         0.00000000
  -V(xc)+E(xc)   XCENC  =      1429.28722732
  PAW double counting   =     41753.13009770   -45198.01588575
  entropy T*S    EENTRO =        -0.02163779
  eigenvalues    EBANDS =      -164.59295257
  atomic energy  EATOM  =     44510.64448639
  Solvation  Ediel_sol  =         0.00000000
  ---------------------------------------------------
  free energy    TOTEN  =      -111.61052464 eV

  energy without entropy =     -111.58888685  energy(sigma->0) =     -111.60331204


--------------------------------------------------------------------------------------------------------




--------------------------------------- Iteration      1(  22)  ---------------------------------------


    POTLOK:  cpu time      0.0619: real time      0.0625
    SETDIJ:  cpu time      0.0140: real time      0.0140
     EDDAV:  cpu time      5.6192: real time      5.6674
       DOS:  cpu time      0.0025: real time      0.0026
    CHARGE:  cpu time      0.4179: real time      0.4198
    MIXING:  cpu time      0.0094: real time      0.0094
    --------------------------------------------
      LOOP:  cpu time      6.1248: real time      6.1757

 eigenvalue-minimisations  :  3828
 total energy-change (2. order) :-0.3812967E+00  (-0.2410271E-01)
 number of electron     351.9999871 magnetization       1.1406988
 augmentation part      224.4059777 magnetization       0.7403136

 Broyden mixing:
  rms(total) = 0.10745E+00    rms(broyden)= 0.10742E+00
  rms(prec ) = 0.11841E+00
  weight for this iteration     100.00

 eigenvalues of (default mixing * dielectric matrix)
  average eigenvalue GAMMA=   1.8191
 15.6645  4.1656  2.7337  1.1124  1.1124  0.8996  0.8996  0.6729  0.6729  0.6151
  0.6151  0.1028  0.2092  0.4485  0.3887  0.3390  0.2729

 Free energy of the ion-electron system (eV)
  ---------------------------------------------------
  alpha Z        PSCENC =      1105.89480878
  Ewald energy   TEWEN  =    199197.39292895
  -Hartree energ DENC   =   -242741.38556063
  -exchange      EXHF   =         0.00000000
  -V(xc)+E(xc)   XCENC  =      1428.98525893
  PAW double counting   =     41788.28701817   -45235.98594778
  entropy T*S    EENTRO =        -0.01371487
  eigenvalues    EBANDS =      -165.81109927
  atomic energy  EATOM  =     44510.64448639
  Solvation  Ediel_sol  =         0.00000000
  ---------------------------------------------------
  free energy    TOTEN  =      -111.99182133 eV

  energy without entropy =     -111.97810646  energy(sigma->0) =     -111.98724971


--------------------------------------------------------------------------------------------------------




--------------------------------------- Iteration      1(  23)  ---------------------------------------


    POTLOK:  cpu time      0.0600: real time      0.0606
    SETDIJ:  cpu time      0.0124: real time      0.0124
     EDDAV:  cpu time      5.6980: real time      5.7469
       DOS:  cpu time      0.0020: real time      0.0020
    CHARGE:  cpu time      0.4133: real time      0.4155
    MIXING:  cpu time      0.0098: real time      0.0099
    --------------------------------------------
      LOOP:  cpu time      6.1955: real time      6.2474

 eigenvalue-minimisations  :  3904
 total energy-change (2. order) :-0.6046447E+00  (-0.2947564E-01)
 number of electron     351.9999872 magnetization       0.7428326
 augmentation part      224.4907883 magnetization       0.5303246

 Broyden mixing:
  rms(total) = 0.78206E-01    rms(broyden)= 0.78199E-01
  rms(prec ) = 0.86939E-01
  weight for this iteration     100.00

 eigenvalues of (default mixing * dielectric matrix)
  average eigenvalue GAMMA=   1.9293
 16.0828  6.1519  3.1683  1.5896  0.9483  0.9483  0.8100  0.7261  0.7261  0.6737
  0.6737  0.5196  0.1028  0.2092  0.3930  0.3930  0.3375  0.2731

 Free energy of the ion-electron system (eV)
  ---------------------------------------------------
  alpha Z        PSCENC =      1105.89480878
  Ewald energy   TEWEN  =    199197.39292895
  -Hartree energ DENC   =   -242688.94606447
  -exchange      EXHF   =         0.00000000
  -V(xc)+E(xc)   XCENC  =      1428.14637344
  PAW double counting   =     41838.87161431   -45289.67802270
  entropy T*S    EENTRO =        -0.01386035
  eigenvalues    EBANDS =      -214.90873036
  atomic energy  EATOM  =     44510.64448639
  Solvation  Ediel_sol  =         0.00000000
  ---------------------------------------------------
  free energy    TOTEN  =      -112.59646601 eV
[...]
 -0.000  -0.000  -1.852  -0.000  -0.000   0.000   0.000   8.285
  0.003  -0.000  -0.000  -1.841   0.000  -0.003  -0.000   0.000
 -0.000   0.003  -0.000   0.000  -1.786   0.000  -0.003   0.000
  0.000   0.000  -0.011   0.000   0.000   0.000   0.000   0.004
  0.000   0.000  -0.021   0.000   0.000   0.000   0.000   0.007
  0.000  -0.007  -0.000  -0.000   0.000  -0.000   0.008   0.000
 -0.000   0.000  -0.007   0.000  -0.000  -0.000  -0.000   0.008
  0.000  -0.000  -0.000  -0.007   0.000  -0.000  -0.000   0.000
  0.000  -0.008  -0.000   0.000   0.000   0.000   0.010   0.000
  0.000   0.000  -0.008   0.000   0.000  -0.000   0.000   0.009
  0.000   0.000  -0.000  -0.008   0.000  -0.000  -0.000   0.000
 pseudopotential strength for first ion, spin component:           2
 -6.787  -0.000   0.000  -0.005   0.000  -1.786   0.000  -0.000
 -0.000  -6.718   0.000   0.000  -0.005   0.000  -1.841  -0.000
  0.000   0.000  -6.704   0.000   0.000  -0.000  -0.000  -1.852
 -0.005   0.000   0.000  -6.718  -0.000   0.003  -0.000  -0.000
  0.000  -0.005   0.000  -0.000  -6.787  -0.000   0.003  -0.000
 -1.786   0.000  -0.000   0.003  -0.000   8.238  -0.000   0.000
  0.000  -1.841  -0.000  -0.000   0.003  -0.000   8.277   0.000
 -0.000  -0.000  -1.852  -0.000  -0.000   0.000   0.000   8.285
  0.003  -0.000  -0.000  -1.841   0.000  -0.003  -0.000   0.000
 -0.000   0.003  -0.000   0.000  -1.786   0.000  -0.003   0.000
  0.000   0.000  -0.011   0.000   0.000   0.000   0.000   0.004
  0.000   0.000  -0.021   0.000   0.000   0.000   0.000   0.007
  0.000  -0.007  -0.000  -0.000   0.000  -0.000   0.008   0.000
 -0.000   0.000  -0.007   0.000  -0.000  -0.000  -0.000   0.008
  0.000  -0.000  -0.000  -0.007   0.000  -0.000  -0.000   0.000
  0.000  -0.008  -0.000   0.000   0.000   0.000   0.010   0.000
  0.000   0.000  -0.008   0.000   0.000  -0.000   0.000   0.009
  0.000   0.000  -0.000  -0.008   0.000  -0.000  -0.000   0.000
 total augmentation occupancy for first ion, spin component:           1
  1.902  -0.000  -0.000  -0.006   0.000  -0.015   0.000   0.000   0.005  -0.000  -0.000  -0.000   0.000  -0.000   0.008  -0.000
 -0.000   1.930   0.000   0.000  -0.006   0.000  -0.034  -0.000  -0.000   0.005   0.000   0.000   0.010   0.000   0.000  -0.008
 -0.000   0.000   1.928   0.000  -0.000   0.000  -0.000  -0.030  -0.000   0.000   0.011   0.009  -0.000   0.047  -0.000   0.000
 -0.006   0.000   0.000   1.930  -0.000   0.005  -0.000  -0.000  -0.034   0.000  -0.000  -0.000   0.000  -0.000   0.010  -0.000
  0.000  -0.006  -0.000  -0.000   1.902  -0.000   0.005   0.000   0.000  -0.015  -0.000  -0.000   0.008  -0.000   0.000  -0.001
 -0.015   0.000   0.000   0.005  -0.000   0.013   0.000  -0.000   0.000   0.000   0.000   0.000   0.000   0.000   0.002  -0.000
  0.000  -0.034  -0.000  -0.000   0.005   0.000   0.010  -0.000   0.000   0.000  -0.000  -0.000   0.016  -0.000   0.000  -0.001
  0.000  -0.000  -0.030  -0.000   0.000  -0.000  -0.000   0.014  -0.000  -0.000  -0.046   0.002  -0.000   0.023  -0.000   0.000
  0.005  -0.000  -0.000  -0.034   0.000   0.000   0.000   0.000   0.010   0.000   0.000  -0.000   0.000   0.000   0.016  -0.000
 -0.000   0.005   0.000   0.000  -0.015   0.000   0.000  -0.000   0.000   0.013   0.000  -0.000   0.002  -0.000   0.000  -0.000
 -0.000   0.000   0.011  -0.000  -0.000   0.000  -0.000  -0.046   0.000   0.000   1.678  -0.133   0.000   0.123  -0.000   0.000
 -0.000   0.000   0.009   0.000  -0.000   0.000   0.000   0.002  -0.000  -0.000  -0.133   0.016  -0.000  -0.022   0.000   0.000
  0.000   0.010  -0.000   0.000   0.008   0.000   0.016  -0.000   0.000   0.002  -0.000   0.000   0.199  -0.000   0.000  -0.012
 -0.000  -0.000   0.047  -0.000  -0.000  -0.000  -0.000   0.023  -0.000  -0.000   0.123  -0.022   0.000   0.130  -0.000  -0.000
  0.008   0.000  -0.000   0.010   0.000   0.002   0.000   0.000   0.016   0.000   0.000  -0.000   0.000   0.000   0.199  -0.000
 -0.000  -0.008   0.000  -0.000  -0.001  -0.000  -0.001   0.000  -0.000  -0.000   0.000  -0.000  -0.012   0.000  -0.000   0.001
  0.000  -0.000  -0.012   0.000   0.000  -0.000   0.000  -0.001   0.000   0.000  -0.018   0.002   0.000  -0.008   0.000  -0.000
 -0.001  -0.000   0.000  -0.008  -0.000  -0.000  -0.000   0.000  -0.001  -0.000  -0.000  -0.000  -0.000   0.000  -0.012   0.000
 total augmentation occupancy for first ion, spin component:           2
 -0.000  -0.000   0.000  -0.000  -0.000   0.000   0.000   0.000  -0.000  -0.000   0.000   0.000   0.000   0.000  -0.000  -0.000
  0.000  -0.000   0.000  -0.000  -0.000  -0.000  -0.000  -0.000   0.000   0.000   0.000   0.000   0.000  -0.000   0.000  -0.000
  0.000   0.000  -0.000  -0.000   0.000   0.000   0.000  -0.000  -0.000  -0.000  -0.000   0.000   0.000   0.000   0.000  -0.000
 -0.000   0.000  -0.000  -0.000  -0.000   0.000  -0.000  -0.000  -0.000   0.000  -0.000   0.000   0.000  -0.000   0.000  -0.000
 -0.000  -0.000   0.000  -0.000  -0.000   0.000  -0.000  -0.000   0.000   0.000   0.000  -0.000  -0.000  -0.000  -0.000   0.000
  0.000  -0.000  -0.000   0.000   0.000  -0.000  -0.000   0.000  -0.000  -0.000   0.000   0.000   0.000   0.000  -0.000   0.000
  0.000  -0.000   0.000   0.000  -0.000  -0.000  -0.000   0.000  -0.000  -0.000   0.000   0.000   0.000   0.000   0.000  -0.000
 -0.000  -0.000  -0.000  -0.000  -0.000   0.000   0.000  -0.000  -0.000   0.000   0.000   0.000   0.000  -0.000  -0.000  -0.000
 -0.000  -0.000   0.000  -0.000   0.000  -0.000  -0.000  -0.000  -0.000   0.000   0.000   0.000  -0.000  -0.000   0.000   0.000
 -0.000   0.000  -0.000   0.000   0.000  -0.000  -0.000   0.000  -0.000  -0.000  -0.000  -0.000  -0.000   0.000  -0.000   0.000
  0.000   0.000  -0.000  -0.000   0.000   0.000  -0.000   0.000   0.000  -0.000   0.000  -0.000   0.000  -0.000  -0.000   0.000
 -0.000  -0.000   0.000  -0.000  -0.000   0.000   0.000   0.000  -0.000  -0.000  -0.000   0.000   0.000   0.000   0.000  -0.000
  0.000   0.000   0.000  -0.000  -0.000   0.000   0.000   0.000   0.000  -0.000  -0.000   0.000   0.000   0.000   0.000  -0.000
  0.000  -0.000   0.000  -0.000  -0.000   0.000   0.000  -0.000   0.000   0.000  -0.000   0.000  -0.000   0.000  -0.000  -0.000
 -0.000   0.000  -0.000   0.000  -0.000  -0.000   0.000  -0.000   0.000   0.000  -0.000   0.000   0.000  -0.000   0.000  -0.000
  0.000  -0.000  -0.000  -0.000   0.000   0.000  -0.000  -0.000  -0.000   0.000   0.000  -0.000  -0.000   0.000  -0.000   0.000
 -0.000   0.000  -0.000  -0.000   0.000  -0.000  -0.000   0.000   0.000  -0.000  -0.000  -0.000   0.000   0.000   0.000  -0.000
  0.000  -0.000   0.000  -0.000  -0.000   0.000  -0.000   0.000  -0.000  -0.000   0.000  -0.000  -0.000   0.000  -0.000  -0.000


------------------------ aborting loop because EDIFF is reached ----------------------------------------



 DIPCOR: dipole corrections for dipol
 direction  3 min pos   227,
 dipolmoment           0.000000      0.000000     -0.003292 electrons x Angstroem
 Tr[quadrupol]     -1669.836000

 energy correction for charged system         0.000000 eV
 dipol+quadrupol energy correction            0.000001 eV
 added-field ion interaction          0.000000 eV  (added to PSCEN)

 
  *************** adding dipol energy to TOTEN NOW **************** 
    CHARGE:  cpu time      0.4056: real time      0.4073
    FORLOC:  cpu time      0.0099: real time      0.0099
    FORNL :  cpu time      4.0999: real time      4.1162
    STRESS:  cpu time      3.1508: real time      3.1709
    FORCOR:  cpu time      0.0704: real time      0.0711
    FORHAR:  cpu time      0.0140: real time      0.0141
    MIXING:  cpu time      0.0019: real time      0.0019
    OFIELD:  cpu time      0.0000: real time      0.0000

 ---------------------------------------------------------------------------------------------

         DFTD3 V3.0 Rev 1        
 Edisp (eV)  -13.81476

 E6    (eV) :    -5.7105
 E8    (eV) :    -8.1043
 % E8        : 58.66
    FORVDW:  cpu time      0.2028: real time      0.2037

  FORCE on cell =-STRESS in cart. coord.  units (eV):
  Direction    XX          YY          ZZ          XY          YZ          ZX
  --------------------------------------------------------------------------------------
  Alpha Z  1105.89481  1105.89481  1105.89481
  Ewald  241351.30894241351.30894************    -0.00000     0.00000    -0.00000
  Hartree253996.76371253996.76371************     0.00000    -0.00000    -0.00000
  E(xc)   -2057.53534 -2057.53474 -2059.41500    -0.00051     0.00001     0.00002
  Local  ************************507272.25260     0.01599    -0.00000    -0.00000
  n-local  -668.10578  -685.75333  -677.48699   -15.28173     0.63021    -1.07108
  augment  3031.40011  3031.41773  3034.78527    -0.01526     0.00009     0.00015
  Kinetic  2865.64852  2879.54969  2881.35293    12.04017    -3.03164     5.25083
  Fock        0.00000     0.00000     0.00000     0.00000     0.00000     0.00000
  vdW       -16.67879   -16.67879   -14.20496     0.00000     0.00000    -0.00000
  -------------------------------------------------------------------------------------
  Total     -14.70617   -14.70617    -3.41537    -0.00000     0.00000     0.00000
  in kB     -34.79459   -34.79459    -8.08072    -0.00000     0.00000     0.00000
  external pressure =      -25.89 kB  Pullay stress =        0.00 kB


 VOLUME and BASIS-vectors are now :
 -----------------------------------------------------------------------------
  energy-cutoff  :      400.00
  volume of cell :      677.17
      direct lattice vectors                 reciprocal lattice vectors
     5.133595467  0.000000000  0.000000000     0.194795248 -0.112465089  0.000000000
     2.566797733  4.445824087  0.000000000     0.000000000  0.224930177  0.000000000
     0.000000000  0.000000000 29.670471191     0.000000000  0.000000000  0.033703543

  length of vectors
     5.133595467  5.133595467 29.670471191     0.224930177  0.224930177  0.033703543


 FORCES acting on ions
    electron-ion (+dipol)            ewald-force                    non-local-force                 convergence-correction
 -----------------------------------------------------------------------------------------------
   -.450E-05 -.260E-05 0.603E+04   -.127E-06 -.190E-06 -.603E+04   -.347E-17 0.000E+00 -.171E+01   -.151E-07 -.874E-08 0.671E+00
   -.583E-05 -.107E-05 0.603E+04   -.167E-06 0.344E-06 -.603E+04   -.347E-17 0.694E-17 -.171E+01   -.153E-07 -.855E-08 0.671E+00
   -.336E-05 -.260E-05 0.603E+04   0.182E-06 -.349E-06 -.603E+04   -.347E-17 0.104E-16 -.171E+01   -.150E-07 -.873E-08 0.671E+00
   -.469E-05 -.107E-05 0.603E+04   0.142E-06 0.185E-06 -.603E+04   0.520E-17 -.347E-17 -.171E+01   -.152E-07 -.854E-08 0.671E+00
   0.718E-05 0.541E-05 0.437E+04   -.187E-06 -.213E-06 -.437E+04   0.867E-18 -.347E-17 -.134E+01   0.531E-07 0.309E-07 -.460E+00
   0.586E-05 0.692E-05 0.437E+04   -.214E-06 0.402E-06 -.437E+04   0.104E-16 -.347E-17 -.134E+01   0.529E-07 0.313E-07 -.460E+00
   0.831E-05 0.541E-05 0.437E+04   0.165E-06 -.403E-06 -.437E+04   0.260E-17 -.347E-17 -.134E+01   0.534E-07 0.308E-07 -.460E+00
   0.699E-05 0.692E-05 0.437E+04   0.138E-06 0.212E-06 -.437E+04   -.520E-17 -.347E-17 -.134E+01   0.532E-07 0.312E-07 -.460E+00
   -.609E-05 -.317E-05 0.262E+04   -.872E-07 -.169E-06 -.262E+04   -.434E-18 0.434E-18 -.179E+00   0.148E-05 0.853E-06 -.147E+01
   -.741E-05 -.166E-05 0.262E+04   -.156E-06 0.325E-06 -.262E+04   -.434E-18 0.434E-18 -.179E+00   0.148E-05 0.853E-06 -.147E+01
   -.496E-05 -.317E-05 0.262E+04   0.206E-06 -.304E-06 -.262E+04   -.976E-18 -.108E-17 -.179E+00   0.148E-05 0.853E-06 -.147E+01
   -.628E-05 -.166E-05 0.262E+04   0.137E-06 0.190E-06 -.262E+04   -.141E-17 -.217E-18 -.179E+00   0.148E-05 0.853E-06 -.147E+01
   -.652E-06 -.377E-06 0.877E+03   -.110E-06 -.190E-06 -.875E+03   0.737E-17 0.260E-17 -.235E+00   -.118E-05 -.681E-06 -.221E+01
   -.197E-05 0.113E-05 0.877E+03   -.179E-06 0.304E-06 -.875E+03   0.260E-17 -.867E-18 -.235E+00   -.118E-05 -.681E-06 -.221E+01
   0.477E-06 -.377E-06 0.877E+03   0.182E-06 -.324E-06 -.875E+03   0.390E-17 -.434E-17 -.235E+00   -.118E-05 -.681E-06 -.221E+01
   -.841E-06 0.113E-05 0.877E+03   0.113E-06 0.169E-06 -.875E+03   0.867E-18 -.260E-17 -.235E+00   -.118E-05 -.681E-06 -.221E+01
   0.289E-05 0.293E-05 -.867E+03   -.191E-06 -.216E-06 0.868E+03   0.520E-17 0.130E-17 0.445E+00   -.128E-05 -.740E-06 -.232E+01
   0.157E-05 0.444E-05 -.867E+03   -.217E-06 0.409E-06 0.868E+03   0.737E-17 0.130E-17 0.445E+00   -.128E-05 -.740E-06 -.232E+01
   0.402E-05 0.293E-05 -.867E+03   0.166E-06 -.409E-06 0.868E+03   0.304E-17 -.434E-18 0.445E+00   -.128E-05 -.740E-06 -.232E+01
   0.270E-05 0.444E-05 -.867E+03   0.141E-06 0.216E-06 0.868E+03   0.434E-17 0.217E-17 0.445E+00   -.128E-05 -.740E-06 -.232E+01
   -.714E-05 -.377E-05 -.261E+04   -.864E-07 -.169E-06 0.261E+04   -.434E-18 0.867E-18 -.643E-01   0.141E-05 0.816E-06 -.174E+01
   -.846E-05 -.227E-05 -.261E+04   -.156E-06 0.323E-06 0.261E+04   -.867E-18 0.867E-18 -.643E-01   0.141E-05 0.815E-06 -.174E+01
   -.601E-05 -.377E-05 -.261E+04   0.205E-06 -.302E-06 0.261E+04   0.195E-17 0.000E+00 -.643E-01   0.141E-05 0.816E-06 -.174E+01
   -.733E-05 -.227E-05 -.261E+04   0.135E-06 0.189E-06 0.261E+04   0.651E-18 0.000E+00 -.643E-01   0.141E-05 0.815E-06 -.174E+01
   0.391E-05 0.226E-05 -.436E+04   -.110E-06 -.189E-06 0.436E+04   -.781E-17 0.520E-17 0.113E+01   0.744E-06 0.430E-06 -.631E+00
   0.259E-05 0.376E-05 -.436E+04   -.181E-06 0.302E-06 0.436E+04   0.000E+00 0.520E-17 0.113E+01   0.744E-06 0.429E-06 -.631E+00
   0.504E-05 0.226E-05 -.436E+04   0.181E-06 -.322E-06 0.436E+04   0.173E-17 0.867E-17 0.113E+01   0.744E-06 0.430E-06 -.631E+00
   0.372E-05 0.376E-05 -.436E+04   0.111E-06 0.169E-06 0.436E+04   -.867E-18 0.520E-17 0.113E+01   0.744E-06 0.429E-06 -.631E+00
   0.114E-04 0.786E-05 -.605E+04   -.146E-06 -.188E-06 0.605E+04   0.208E-16 0.694E-17 0.195E+01   -.754E-06 -.436E-06 0.418E+00
   0.101E-04 0.938E-05 -.605E+04   -.185E-06 0.356E-06 0.605E+04   0.139E-16 0.694E-17 0.195E+01   -.754E-06 -.436E-06 0.418E+00
   0.125E-04 0.786E-05 -.605E+04   0.169E-06 -.351E-06 0.605E+04   -.104E-16 0.694E-17 0.195E+01   -.755E-06 -.436E-06 0.418E+00
   0.112E-04 0.938E-05 -.605E+04   0.130E-06 0.194E-06 0.605E+04   -.347E-17 0.694E-17 0.195E+01   -.754E-06 -.436E-06 0.418E+00
 -----------------------------------------------------------------------------------------------
   0.250E-04 0.584E-04 0.310E+02   0.348E-13 0.932E-13 -.273E-11   0.501E-16 0.525E-16 -.395E-01   0.182E-05 0.105E-05 -.310E+02
 
 
 POSITION                                       TOTAL-FORCE (eV/Angst)
 -----------------------------------------------------------------------------------
      0.00000      0.00000      0.00000        -0.000000     -0.000000      0.143848
      1.28340      2.22291      0.00000        -0.000000     -0.000000      0.143848
      2.56680      0.00000      0.00000        -0.000000     -0.000000      0.143848
      3.85020      2.22291      0.00000        -0.000000      0.000000      0.143848
      1.28340      0.74097      2.09578         0.000000     -0.000000     -0.137449
      2.56680      2.96388      2.09578        -0.000000      0.000000     -0.137449
      3.85020      0.74097      2.09578        -0.000000      0.000000     -0.137449
      5.13360      2.96388      2.09578        -0.000000      0.000000     -0.137449
      2.56680      1.48194      4.10848        -0.000000     -0.000000     -0.021771
      3.85020      3.70485      4.10848        -0.000000     -0.000000     -0.021771
      5.13360      1.48194      4.10848         0.000000      0.000000     -0.021771
      6.41699      3.70485      4.10848        -0.000000      0.000000     -0.021771
     -0.00000     -0.00000      6.13212        -0.000000     -0.000000      0.015806
      1.28340      2.22291      6.13212        -0.000000     -0.000000      0.015806
      2.56680     -0.00000      6.13212        -0.000000     -0.000000      0.015806
      3.85020      2.22291      6.13212        -0.000000     -0.000000      0.015806
      1.28340      0.74097      8.15607        -0.000000     -0.000000      0.012653
      2.56680      2.96388      8.15607        -0.000000     -0.000000      0.012653
      3.85020      0.74097      8.15607        -0.000000     -0.000000      0.012653
      5.13360      2.96388      8.15607        -0.000000     -0.000000      0.012653
      2.56680      1.48194     10.18288         0.000000      0.000000     -0.005346
      3.85020      3.70485     10.18288         0.000000     -0.000000     -0.005346
      5.13360      1.48194     10.18288         0.000000      0.000000     -0.005346
      6.41699      3.70485     10.18288         0.000000     -0.000000     -0.005346
      0.00000      0.00000     12.19629        -0.000000      0.000000      0.007581
      1.28340      2.22291     12.19629        -0.000000      0.000000      0.007581
      2.56680      0.00000     12.19629        -0.000000      0.000000      0.007581
      3.85020      2.22291     12.19629        -0.000000     -0.000000      0.007581
      1.28340      0.74097     14.25799         0.000000     -0.000000     -0.015321
      2.56680      2.96388     14.25799         0.000000      0.000000     -0.015321
      3.85020      0.74097     14.25799         0.000000      0.000000     -0.015321
      5.13360      2.96388     14.25799         0.000000      0.000000     -0.015321
 -----------------------------------------------------------------------------------
    total drift:                                0.000027      0.000059     -0.065434


--------------------------------------------------------------------------------------------------------



  FREE ENERGIE OF THE ION-ELECTRON SYSTEM (eV)
  ---------------------------------------------------
  free  energy   TOTEN  =      -128.28089795 eV

  energy  without entropy=     -128.26363969  energy(sigma->0) =     -128.27514520
 
 d Force = 0.2612175E-03[-0.263E-03, 0.785E-03]  d Energy = 0.6762675E-03-0.415E-03
 d Force =-0.2684037E+02[-0.269E+02,-0.268E+02]  d Ewald  =-0.2684037E+02 0.851E-06


--------------------------------------------------------------------------------------------------------


    POTLOK:  cpu time      0.0773: real time      0.0777


--------------------------------------------------------------------------------------------------------


 stress matrix after NEB project (eV)
    -14.70617      0.00000      0.00000
     -0.00000    -14.70617     -0.00000
      0.00000      0.00000     -3.41537
  FORCES: max atom, RMS     0.021771    0.012271
  FORCE total and by dimension    0.069417    0.021771
  Stress total and by dimension   21.076230   14.706168


--------------------------------------------------------------------------------------------------------


  
 reached required accuracy - stopping structural energy minimisation
     LOOP+:  cpu time     23.8751: real time     24.0803
    4ORBIT:  cpu time      0.0000: real time      0.0000

 total amount of memory used by VASP MPI-rank0    54949. kBytes
=======================================================================

   base      :      30000. kBytes
   nonl-proj :       2341. kBytes
   fftplans  :       2453. kBytes
   grid      :       5668. kBytes
   one-center:        217. kBytes
   wavefun   :      14270. kBytes
 
  
  
 General timing and accounting informations for this job:
 ========================================================
  
                  Total CPU time used (sec):     1161.245
                            User time (sec):     1120.427
                          System time (sec):       40.818
                         Elapsed time (sec):     1171.857
  
                   Maximum memory used (kb):      298528.
                   Average memory used (kb):          N/A
  
                          Minor page faults:       801099
                          Major page faults:         6657
                 Voluntary context switches:        13019
