<?xml version="1.0" encoding="ISO-8859-1"?>
<modeling>
 <generator>
  <i name="program" type="string">vasp </i>
  <i name="version" type="string">6.3.2  </i>
  <i name="subversion" type="string">27Jun22 (build Aug 17 2022 15:43:34) complex                          parallel </i>
  <i name="platform" type="string">tv2STDVTST </i>
  <i name="date" type="string">2025 01 17 </i>
  <i name="time" type="string">14:24:16 </i>
 </generator>
 <incar>
  <i type="int" name="ISTART">     0</i>
  <i type="string" name="PREC">Normal</i>
  <i type="int" name="ISPIN">     2</i>
  <i type="int" name="ICHARG">     2</i>
  <i type="int" name="IBRION">     2</i>
  <i name="EDIFF">      0.00020000</i>
  <i name="EDIFFG">     -0.03000000</i>
  <i type="int" name="NSW">   800</i>
  <i type="int" name="ISIF">     2</i>
  <i type="int" name="ISYM">     1</i>
  <i name="ENCUT">    400.00000000</i>
  <i name="POTIM">      0.50000000</i>
  <i type="logical" name="LREAL"> F  </i>
  <i type="int" name="ISMEAR">     1</i>
  <i name="SIGMA">      0.20000000</i>
  <i type="logical" name="LWAVE"> F  </i>
  <i type="logical" name="LCHARG"> F  </i>
  <i type="string" name="GGA">PE</i>
  <i type="int" name="IDIPOL">     3</i>
  <i type="int" name="IVDW">    11</i>
 </incar>
 <primitive_cell>
  <structure name="primitive_cell" >
   <crystal>
    <varray name="basis" >
     <v>      -1.28339887      -2.22291204       0.00000000 </v>
     <v>       2.56679773       0.00000000       0.00000000 </v>
     <v>       0.00000000       0.00000000      29.67047119 </v>
    </varray>
    <i name="volume">    169.29275364 </i>
    <varray name="rec_basis" >
     <v>       0.00000000      -0.44986035       0.00000000 </v>
     <v>       0.38959050      -0.22493018       0.00000000 </v>
     <v>       0.00000000       0.00000000       0.03370354 </v>
    </varray>
   </crystal>
   <varray name="positions" >
    <v>       0.00000000       0.00000000       0.00000000 </v>
    <v>       0.66666667       0.33333333       0.07063526 </v>
    <v>       0.33333333       0.66666667       0.14127053 </v>
    <v>       0.00000000       0.00000000       0.21190579 </v>
    <v>       0.66666667       0.33333333       0.28254106 </v>
    <v>       0.33333333       0.66666667       0.35317632 </v>
    <v>       0.00000000       0.00000000       0.42381158 </v>
    <v>       0.66666667       0.33333333       0.49444685 </v>
   </varray>
  </structure>
  <varray name="primitive_index" >
   <v type="int" >        1 </v>
   <v type="int" >        5 </v>
   <v type="int" >       12 </v>
   <v type="int" >       13 </v>
   <v type="int" >       17 </v>
   <v type="int" >       24 </v>
   <v type="int" >       25 </v>
   <v type="int" >       29 </v>
  </varray>
 </primitive_cell>
 <kpoints>
  <generation param="Monkhorst-Pack">
   <v type="int" name="divisions">       3        3        1 </v>
   <v name="usershift">      0.00000000       0.00000000       0.00000000 </v>
   <v name="genvec1">      0.33333333       0.00000000       0.00000000 </v>
   <v name="genvec2">      0.00000000       0.33333333       0.00000000 </v>
   <v name="genvec3">      0.00000000       0.00000000       1.00000000 </v>
   <v name="shift">      0.00000000       0.00000000       0.00000000 </v>
  </generation>
  <varray name="kpointlist" >
   <v>       0.00000000       0.00000000       0.00000000 </v>
   <v>       0.33333333       0.00000000       0.00000000 </v>
   <v>      -0.33333333       0.33333333       0.00000000 </v>
  </varray>
  <varray name="weights" >
   <v>       0.11111111 </v>
   <v>       0.66666667 </v>
   <v>       0.22222222 </v>
  </varray>
 </kpoints>
 <parameters>
  <separator name="general" >
   <i type="string" name="SYSTEM">unknown system</i>
   <i type="logical" name="LCOMPAT"> F  </i>
  </separator>
  <separator name="electronic" >
   <i type="string" name="PREC">normal</i>
   <i name="ENMAX">    400.00000000</i>
   <i name="ENAUG">    586.98000000</i>
   <i name="EDIFF">      0.00020000</i>
   <i type="int" name="IALGO">    38</i>
   <i type="int" name="IWAVPR">    11</i>
   <i type="int" name="NBANDS">   228</i>
   <i type="int" name="NBANDSLOW">    -1</i>
   <i type="int" name="NBANDSHIGH">    -1</i>
   <i name="NELECT">    352.00000000</i>
   <i type="int" name="TURBO">     0</i>
   <i type="int" name="IRESTART">     0</i>
   <i type="int" name="NREBOOT">     0</i>
   <i type="int" name="NMIN">     0</i>
   <i name="EREF">      0.00000000</i>
   <separator name="electronic smearing" >
    <i type="int" name="ISMEAR">     1</i>
    <i name="SIGMA">      0.20000000</i>
    <i name="KSPACING">      0.50000000</i>
    <i type="logical" name="KGAMMA"> T  </i>
    <i type="logical" name="KBLOWUP"> T  </i>
   </separator>
   <separator name="electronic projectors" >
    <i type="logical" name="LREAL"> F  </i>
    <v name="ROPT">      0.00000000</v>
    <i type="int" name="LMAXPAW">  -100</i>
    <i type="int" name="LMAXMIX">     2</i>
    <i type="logical" name="NLSPLINE"> F  </i>
   </separator>
   <separator name="electronic startup" >
    <i type="int" name="ISTART">     0</i>
    <i type="int" name="ICHARG">     2</i>
    <i type="int" name="INIWAV">     1</i>
   </separator>
   <separator name="electronic spin" >
    <i type="int" name="ISPIN">     2</i>
    <i type="logical" name="LNONCOLLINEAR"> F  </i>
    <v name="MAGMOM">      1.00000000      1.00000000      1.00000000      1.00000000      1.00000000      1.00000000      1.00000000      1.00000000      1.00000000      1.00000000      1.00000000      1.00000000      1.00000000      1.00000000      1.00000000      1.00000000      1.00000000      1.00000000      1.00000000      1.00000000
      1.00000000      1.00000000      1.00000000      1.00000000      1.00000000      1.00000000      1.00000000      1.00000000      1.00000000      1.00000000      1.00000000      1.00000000</v>
    <i name="NUPDOWN">     -1.00000000</i>
    <i type="logical" name="LSORBIT"> F  </i>
    <v name="SAXIS">      0.00000000      0.00000000      1.00000000</v>
    <i type="logical" name="LSPIRAL"> F  </i>
    <v name="QSPIRAL">      0.00000000      0.00000000      0.00000000</v>
    <i type="logical" name="LZEROZ"> F  </i>
   </separator>
   <separator name="electronic exchange-correlation" >
    <i type="logical" name="LASPH"> F  </i>
    <i type="logical" name="LMETAGGA"> F  </i>
   </separator>
   <separator name="electronic convergence" >
    <i type="int" name="NELM">    60</i>
    <i type="int" name="NELMDL">    -5</i>
    <i type="int" name="NELMIN">     2</i>
    <i name="ENINI">    400.00000000</i>
    <separator name="electronic convergence detail" >
     <i type="logical" name="LDIAG"> T  </i>
     <i type="logical" name="LSUBROT"> F  </i>
     <i name="WEIMIN">      0.00100000</i>
     <i name="EBREAK">      0.00000022</i>
     <i name="DEPER">      0.30000000</i>
     <i type="int" name="NRMM">     4</i>
     <i name="TIME">      0.40000000</i>
    </separator>
   </separator>
   <separator name="electronic mixer" >
    <i name="AMIX">      0.40000000</i>
    <i name="BMIX">      1.00000000</i>
    <i name="AMIN">      0.10000000</i>
    <i name="AMIX_MAG">      1.60000000</i>
    <i name="BMIX_MAG">      1.00000000</i>
    <separator name="electronic mixer details" >
     <i type="int" name="IMIX">     4</i>
     <i type="logical" name="MIXFIRST"> F  </i>
     <i type="int" name="MAXMIX">   -45</i>
     <i name="WC">    100.00000000</i>
     <i type="int" name="INIMIX">     1</i>
     <i type="int" name="MIXPRE">     1</i>
     <i type="int" name="MREMOVE">     5</i>
    </separator>
   </separator>
   <separator name="electronic dipolcorrection" >
    <i type="logical" name="LDIPOL"> F  </i>
    <i type="logical" name="LMONO"> F  </i>
    <i type="int" name="IDIPOL">     3</i>
    <i name="EPSILON">      1.00000000</i>
    <v name="DIPOL">   -100.00000000   -100.00000000   -100.00000000</v>
    <i name="EFIELD">      0.00000000</i>
   </separator>
  </separator>
  <separator name="grids" >
   <i type="int" name="NGX">    28</i>
   <i type="int" name="NGY">    28</i>
   <i type="int" name="NGZ">   150</i>
   <i type="int" name="NGXF">    56</i>
   <i type="int" name="NGYF">    56</i>
   <i type="int" name="NGZF">   300</i>
   <i type="logical" name="ADDGRID"> F  </i>
  </separator>
  <separator name="ionic" >
   <i type="int" name="NSW">   800</i>
   <i type="int" name="IBRION">     2</i>
   <i type="int" name="MDALGO">     0</i>
   <i type="int" name="ISIF">     2</i>
   <i name="PSTRESS">      0.00000000</i>
   <i name="EDIFFG">     -0.03000000</i>
   <i type="int" name="NFREE">     1</i>
   <i name="POTIM">      0.50000000</i>
   <i name="SMASS">     -3.00000000</i>
   <i name="SCALEE">      1.00000000</i>
  </separator>
  <separator name="ionic md" >
   <i name="TEBEG">      0.00010000</i>
   <i name="TEEND">      0.00010000</i>
   <i type="int" name="NBLOCK">     1</i>
   <i type="int" name="KBLOCK">   800</i>
   <i type="int" name="NPACO">   256</i>
   <i name="APACO">     10.00000000</i>
  </separator>
  <separator name="symmetry" >
   <i type="int" name="ISYM">     1</i>
   <i name="SYMPREC">      0.00001000</i>
  </separator>
  <separator name="dos" >
   <i type="int" name="LORBIT">     0</i>
   <v name="RWIGS">     -1.00000000</v>
   <i type="int" name="NEDOS">   301</i>
   <i name="EMIN">     10.00000000</i>
   <i name="EMAX">    -10.00000000</i>
   <i name="EFERMI">      0.00000000</i>
  </separator>
  <separator name="writing" >
   <i type="int" name="NWRITE">     2</i>
   <i type="logical" name="LWAVE"> F  </i>
   <i type="logical" name="LDOWNSAMPLE"> F  </i>
   <i type="logical" name="LCHARG"> F  </i>
   <i type="logical" name="LPARD"> F  </i>
   <i type="logical" name="LVTOT"> F  </i>
   <i type="logical" name="LVHAR"> F  </i>
   <i type="logical" name="LELF"> F  </i>
   <i type="logical" name="LOPTICS"> F  </i>
   <v name="STM">      0.00000000      0.00000000      0.00000000      0.00000000      0.00000000      0.00000000      0.00000000</v>
  </separator>
  <separator name="performance" >
   <i type="int" name="NPAR">     4</i>
   <i type="int" name="NSIM">     4</i>
   <i type="int" name="NBLK">    -1</i>
   <i type="logical" name="LPLANE"> T  </i>
   <i type="logical" name="LSCALAPACK"> T  </i>
   <i type="logical" name="LSCAAWARE"> F  </i>
   <i type="logical" name="LSCALU"> F  </i>
   <i type="logical" name="LASYNC"> F  </i>
   <i type="logical" name="LORBITALREAL"> F  </i>
  </separator>
  <separator name="miscellaneous" >
   <i type="int" name="IDIOT">     3</i>
   <i type="int" name="PHON_NSTRUCT">    -1</i>
   <i type="logical" name="LMUSIC"> F  </i>
   <v name="POMASS">     63.54600000</v>
   <v name="DARWINR">      0.00000000</v>
   <v name="DARWINV">      1.00000000</v>
   <i type="logical" name="LCORR"> T  </i>
  </separator>
  <i type="logical" name="GGA_COMPAT"> T  </i>
  <i type="logical" name="LBERRY"> F  </i>
  <i type="int" name="ICORELEVEL">     0</i>
  <i type="logical" name="LDAU"> F  </i>
  <i type="int" name="I_CONSTRAINED_M">     0</i>
  <separator name="electronic exchange-correlation" >
   <i type="string" name="GGA">PE</i>
   <i type="int" name="VOSKOWN">     0</i>
   <i type="logical" name="LHFCALC"> F  </i>
   <i type="string" name="PRECFOCK"></i>
   <i type="logical" name="LSYMGRAD"> F  </i>
   <i type="logical" name="LHFONE"> F  </i>
   <i type="logical" name="LRHFCALC"> F  </i>
   <i type="logical" name="LTHOMAS"> F  </i>
   <i type="logical" name="LMODELHF"> F  </i>
   <i type="logical" name="LFOCKACE"> F  </i>
   <i name="ENCUT4O">     -1.00000000</i>
   <i type="int" name="EXXOEP">     0</i>
   <i type="int" name="FOURORBIT">     0</i>
   <i name="AEXX">      0.00000000</i>
   <i name="HFALPHA">      0.00000000</i>
   <i name="MCALPHA">      0.00000000</i>
   <i name="ALDAX">      1.00000000</i>
   <i name="AGGAX">      1.00000000</i>
   <i name="ALDAC">      1.00000000</i>
   <i name="AGGAC">      1.00000000</i>
   <i type="int" name="NKREDX">     1</i>
   <i type="int" name="NKREDY">     1</i>
   <i type="int" name="NKREDZ">     1</i>
   <i type="logical" name="SHIFTRED"> F  </i>
   <i type="logical" name="ODDONLY"> F  </i>
   <i type="logical" name="EVENONLY"> F  </i>
   <i type="int" name="LMAXFOCK">     0</i>
   <i type="int" name="NMAXFOCKAE">     0</i>
   <i type="logical" name="LFOCKAEDFT"> F  </i>
   <i name="HFSCREEN">      0.00000000</i>
   <i name="HFSCREENC">      0.00000000</i>
   <i type="int" name="NBANDSGWLOW">     0</i>
  </separator>
  <separator name="vdW DFT" >
   <i type="logical" name="LUSE_VDW"> F  </i>
   <i name="Zab_VDW">     -0.84910000</i>
   <i name="PARAM1">      0.12340000</i>
   <i name="PARAM2">      1.00000000</i>
   <i name="PARAM3">      0.00000000</i>
  </separator>
  <separator name="model GW" >
   <i type="int" name="MODEL_GW">     0</i>
   <i name="MODEL_EPS0">     12.69695653</i>
   <i name="MODEL_ALPHA">      1.00000000</i>
  </separator>
  <separator name="linear response parameters" >
   <i type="logical" name="LEPSILON"> F  </i>
   <i type="logical" name="LRPA"> F  </i>
   <i type="logical" name="LNABLA"> F  </i>
   <i type="logical" name="LVEL"> F  </i>
   <i name="CSHIFT">      0.10000000</i>
   <i name="OMEGAMAX">     -1.00000000</i>
   <i name="DEG_THRESHOLD">      0.00200000</i>
   <i name="RTIME">     -0.10000000</i>
   <i name="WPLASMAI">      0.00000000</i>
   <v name="DFIELD">      0.00000000      0.00000000      0.00000000</v>
   <v name="WPLASMA">      0.00000000      0.00000000      0.00000000      0.00000000      0.00000000      0.00000000      0.00000000      0.00000000      0.00000000</v>
  </separator>
  <separator name="orbital magnetization" >
   <i type="logical" name="NUCIND"> F  </i>
   <v name="MAGPOS">      0.00000000      0.00000000      0.00000000</v>
   <i type="logical" name="LNICSALL"> T  </i>
   <i type="logical" name="ORBITALMAG"> F  </i>
   <i type="logical" name="LMAGBLOCH"> F  </i>
   <i type="logical" name="LCHIMAG"> F  </i>
   <i type="logical" name="LGAUGE"> T  </i>
   <i type="int" name="MAGATOM">     0</i>
   <v name="MAGDIPOL">      0.00000000      0.00000000      0.00000000</v>
   <v name="AVECCONST">      0.00000000      0.00000000      0.00000000</v>
  </separator>
  <separator name="response functions" >
   <i type="logical" name="LFINITE_TEMPERATURE"> F  </i>
   <i type="logical" name="LADDER"> F  </i>
   <i type="logical" name="LRPAFORCE"> F  </i>
   <i type="logical" name="LFXC"> F  </i>
   <i type="logical" name="LHARTREE"> T  </i>
   <i type="int" name="IBSE">     0</i>
   <v type="int" name="KPOINT">    -1     0     0     0</v>
   <i type="logical" name="LTCTC"> F  </i>
   <i type="logical" name="LTCTE"> F  </i>
   <i type="logical" name="LTETE"> F  </i>
   <i type="logical" name="LTRIPLET"> F  </i>
   <i type="logical" name="LFXCEPS"> F  </i>
   <i type="logical" name="LFXHEG"> F  </i>
   <i type="int" name="NATURALO">     2</i>
   <i type="logical" name="LHOLEGF"> F  </i>
   <i type="logical" name="L2ORDER"> F  </i>
   <i type="logical" name="LDMP1"> F  </i>
   <i type="logical" name="LMP2LT"> F  </i>
   <i type="logical" name="LSMP2LT"> F  </i>
   <i type="logical" name="LGWLF"> F  </i>
   <i name="ENCUTGW">     -2.00000000</i>
   <i name="ENCUTGWSOFT">     -2.00000000</i>
   <i name="ENCUTLF">     -1.00000000</i>
   <i type="logical" name="LESF_SPLINES"> F  </i>
   <i type="int" name="LMAXMP2">    -1</i>
   <i name="SCISSOR">      0.00000000</i>
   <i type="int" name="NOMEGA">     0</i>
   <i type="int" name="NOMEGAR">     0</i>
   <i type="int" name="NBANDSGW">    -1</i>
   <i type="int" name="NBANDSO">    -1</i>
   <i type="int" name="NBANDSV">    -1</i>
   <i type="int" name="NELMGW">     1</i>
   <i type="int" name="NELMHF">     1</i>
   <i type="int" name="DIM">     3</i>
   <i type="int" name="IESPILON">     4</i>
   <i type="int" name="ANTIRES">     0</i>
   <i name="OMEGAMAX">    -30.00000000</i>
   <i name="OMEGAMIN">    -30.00000000</i>
   <i name="OMEGATL">   -200.00000000</i>
   <i type="int" name="OMEGAGRID">     0</i>
   <i name="CSHIFT">     -0.10000000</i>
   <i type="logical" name="LSELFENERGY"> F  </i>
   <i type="logical" name="LSPECTRAL"> F  </i>
   <i type="logical" name="LSPECTRALGW"> F  </i>
   <i type="logical" name="LSINGLES"> F  </i>
   <i type="logical" name="LFERMIGW"> F  </i>
   <i type="logical" name="ODDONLYGW"> F  </i>
   <i type="logical" name="EVENONLYGW"> F  </i>
   <i type="int" name="NKREDLFX">     1</i>
   <i type="int" name="NKREDLFY">     1</i>
   <i type="int" name="NKREDLFZ">     1</i>
   <i type="int" name="MAXMEM">  2800</i>
   <i type="int" name="TELESCOPE">     0</i>
   <i type="int" name="NTAUPAR">    -1</i>
   <i type="int" name="NOMEGAPAR">    -1</i>
   <i name="DAMP_NEWTON">      0.80000001</i>
   <i name="LAMBDA">      1.00000000</i>
  </separator>
  <separator name="External order field" >
   <i name="OFIELD_KAPPA">      0.00000000</i>
   <v name="OFIELD_K">      0.00000000      0.00000000      0.00000000</v>
   <i name="OFIELD_Q6_NEAR">      0.00000000</i>
   <i name="OFIELD_Q6_FAR">      0.00000000</i>
   <i name="OFIELD_A">      0.00000000</i>
  </separator>
  <separator name="optional k-points parameters" >
   <i type="int" name="KPOINTS_OPT_MODE">     1</i>
   <i type="logical" name="LKPOINTS_OPT"> F  </i>
  </separator>
 </parameters>
 <atominfo>
  <atoms>      32 </atoms>
  <types>       1 </types>
  <array name="atoms" >
   <dimension dim="1">ion</dimension>
   <field type="string">element</field>
   <field type="int">atomtype</field>
   <set>
    <rc><c>Cu</c><c>   1</c></rc>
    <rc><c>Cu</c><c>   1</c></rc>
    <rc><c>Cu</c><c>   1</c></rc>
    <rc><c>Cu</c><c>   1</c></rc>
    <rc><c>Cu</c><c>   1</c></rc>
    <rc><c>Cu</c><c>   1</c></rc>
    <rc><c>Cu</c><c>   1</c></rc>
    <rc><c>Cu</c><c>   1</c></rc>
    <rc><c>Cu</c><c>   1</c></rc>
    <rc><c>Cu</c><c>   1</c></rc>
    <rc><c>Cu</c><c>   1</c></rc>
    <rc><c>Cu</c><c>   1</c></rc>
    <rc><c>Cu</c><c>   1</c></rc>
    <rc><c>Cu</c><c>   1</c></rc>
    <rc><c>Cu</c><c>   1</c></rc>
    <rc><c>Cu</c><c>   1</c></rc>
    <rc><c>Cu</c><c>   1</c></rc>
    <rc><c>Cu</c><c>   1</c></rc>
    <rc><c>Cu</c><c>   1</c></rc>
    <rc><c>Cu</c><c>   1</c></rc>
    <rc><c>Cu</c><c>   1</c></rc>
    <rc><c>Cu</c><c>   1</c></rc>
    <rc><c>Cu</c><c>   1</c></rc>
    <rc><c>Cu</c><c>   1</c></rc>
    <rc><c>Cu</c><c>   1</c></rc>
    <rc><c>Cu</c><c>   1</c></rc>
    <rc><c>Cu</c><c>   1</c></rc>
    <rc><c>Cu</c><c>   1</c></rc>
    <rc><c>Cu</c><c>   1</c></rc>
    <rc><c>Cu</c><c>   1</c></rc>
    <rc><c>Cu</c><c>   1</c></rc>
    <rc><c>Cu</c><c>   1</c></rc>
   </set>
  </array>
  <array name="atomtypes" >
   <dimension dim="1">type</dimension>
   <field type="int">atomspertype</field>
   <field type="string">element</field>
   <field>mass</field>
   <field>valence</field>
   <field type="string">pseudopotential</field>
   <set>
    <rc><c>  32</c><c>Cu</c><c>     63.54600000</c><c>     11.00000000</c><c>  PAW_PBE Cu 22Jun2005                  </c></rc>
   </set>
  </array>
 </atominfo>
 <structure name="initialpos" >
  <crystal>
   <varray name="basis" >
    <v>       5.13359547       0.00000000       0.00000000 </v>
    <v>       2.56679773       4.44582409       0.00000000 </v>
    <v>       0.00000000       0.00000000      29.67047119 </v>
   </varray>
   <i name="volume">    677.17101477 </i>
   <varray name="rec_basis" >
    <v>       0.19479525      -0.11246509       0.00000000 </v>
    <v>       0.00000000       0.22493018       0.00000000 </v>
    <v>       0.00000000       0.00000000       0.03370354 </v>
   </varray>
  </crystal>
  <varray name="positions" >
   <v>       0.00000000       0.00000000       0.00000000 </v>
   <v>       0.00000000       0.50000000       0.00000000 </v>
   <v>       0.50000000       0.00000000       0.00000000 </v>
   <v>       0.50000000       0.50000000       0.00000000 </v>
   <v>       0.16666667       0.16666667       0.07063526 </v>
   <v>       0.16666667       0.66666667       0.07063526 </v>
   <v>       0.66666667       0.16666667       0.07063526 </v>
   <v>       0.66666667       0.66666667       0.07063526 </v>
   <v>       0.33333333       0.33333333       0.14127053 </v>
   <v>       0.33333333       0.83333333       0.14127053 </v>
   <v>       0.83333333       0.33333333       0.14127053 </v>
   <v>       0.83333333       0.83333333       0.14127053 </v>
   <v>       0.00000000       0.00000000       0.21190579 </v>
   <v>       0.00000000       0.50000000       0.21190579 </v>
   <v>       0.50000000       0.00000000       0.21190579 </v>
   <v>       0.50000000       0.50000000       0.21190579 </v>
   <v>       0.16666667       0.16666667       0.28254106 </v>
   <v>       0.16666667       0.66666667       0.28254106 </v>
   <v>       0.66666667       0.16666667       0.28254106 </v>
   <v>       0.66666667       0.66666667       0.28254106 </v>
   <v>       0.33333333       0.33333333       0.35317632 </v>
   <v>       0.33333333       0.83333333       0.35317632 </v>
   <v>       0.83333333       0.33333333       0.35317632 </v>
   <v>       0.83333333       0.83333333       0.35317632 </v>
   <v>       0.00000000       0.00000000       0.42381158 </v>
   <v>       0.00000000       0.50000000       0.42381158 </v>
   <v>       0.50000000       0.00000000       0.42381158 </v>
   <v>       0.50000000       0.50000000       0.42381158 </v>
   <v>       0.16666667       0.16666667       0.49444685 </v>
   <v>       0.16666667       0.66666667       0.49444685 </v>
   <v>       0.66666667       0.16666667       0.49444685 </v>
   <v>       0.66666667       0.66666667       0.49444685 </v>
  </varray>
  <varray name="selective"  type="logical" >
   <v type="logical" >  F  F  F </v>
   <v type="logical" >  F  F  F </v>
   <v type="logical" >  F  F  F </v>
   <v type="logical" >  F  F  F </v>
   <v type="logical" >  F  F  F </v>
   <v type="logical" >  F  F  F </v>
   <v type="logical" >  F  F  F </v>
   <v type="logical" >  F  F  F </v>
   <v type="logical" >  T  T  T </v>
   <v type="logical" >  T  T  T </v>
   <v type="logical" >  T  T  T </v>
   <v type="logical" >  T  T  T </v>
   <v type="logical" >  T  T  T </v>
   <v type="logical" >  T  T  T </v>
   <v type="logical" >  T  T  T </v>
   <v type="logical" >  T  T  T </v>
   <v type="logical" >  T  T  T </v>
   <v type="logical" >  T  T  T </v>
   <v type="logical" >  T  T  T </v>
   <v type="logical" >  T  T  T </v>
   <v type="logical" >  T  T  T </v>
   <v type="logical" >  T  T  T </v>
   <v type="logical" >  T  T  T </v>
   <v type="logical" >  T  T  T </v>
   <v type="logical" >  T  T  T </v>
   <v type="logical" >  T  T  T </v>
   <v type="logical" >  T  T  T </v>
   <v type="logical" >  T  T  T </v>
   <v type="logical" >  T  T  T </v>
   <v type="logical" >  T  T  T </v>
   <v type="logical" >  T  T  T </v>
   <v type="logical" >  T  T  T </v>
  </varray>
  <nose>
   <v>      -3.00000000       0.00000000       0.00010000       0.00010000 </v>
  </nose>
 </structure>
 <calculation>
  <scstep>
   <time name="dav">    4.43    4.46</time>
   <time name="total">    4.51    4.54</time>
   <energy>
    <i name="alphaZ">   1105.89480878 </i>
    <i name="ewald"> 199197.39292895 </i>
    <i name="hartreedc">-243202.79875048 </i>
    <i name="XCdc">   1463.77898338 </i>
    <i name="pawpsdc">  39299.11987357 </i>
    <i name="pawaedc"> -42685.46980880 </i>
    <i name="eentropy">     -0.01165462 </i>
    <i name="bandstr">   3720.57477592 </i>
    <i name="atom">  44510.64448639 </i>
    <i name="e_fr_energy">   3409.12564309 </i>
    <i name="e_wo_entrp">   3409.13729771 </i>
    <i name="e_0_energy">   3409.12952797 </i>
   </energy>
  </scstep>
  <scstep>
   <time name="dav">    4.38    4.42</time>
   <time name="total">    4.39    4.42</time>
   <energy>
    <i name="e_fr_energy">    466.75791179 </i>
    <i name="e_wo_entrp">    466.76000854 </i>
    <i name="e_0_energy">    466.75861070 </i>
   </energy>
  </scstep>
  <scstep>
   <time name="dav">    4.37    4.41</time>
   <time name="total">    4.37    4.41</time>
   <energy>
    <i name="e_fr_energy">    -94.44760641 </i>
    <i name="e_wo_entrp">    -94.46187621 </i>
    <i name="e_0_energy">    -94.45236301 </i>
   </energy>
  </scstep>
  <scstep>
   <time name="dav">    4.63    4.67</time>
   <time name="total">    4.64    4.68</time>
   <energy>
    <i name="e_fr_energy">   -136.65535770 </i>
    <i name="e_wo_entrp">   -136.68972420 </i>
    <i name="e_0_energy">   -136.66681320 </i>
   </energy>
  </scstep>
  <scstep>
   <time name="dav">    4.69    4.73</time>
   <time name="total">    5.14    5.18</time>
   <energy>
    <i name="e_fr_energy">   -137.65469503 </i>
    <i name="e_wo_entrp">   -137.69145168 </i>
    <i name="e_0_energy">   -137.66694725 </i>
   </energy>
  </scstep>
  <scstep>
   <time name="dav">    4.62    4.66</time>
   <time name="total">    5.14    5.19</time>
   <energy>
    <i name="e_fr_energy">   -115.03853246 </i>
    <i name="e_wo_entrp">   -115.03126684 </i>
    <i name="e_0_energy">   -115.03611058 </i>
   </energy>
  </scstep>
  <scstep>
   <time name="dav">    4.63    4.67</time>
   <time name="total">    5.15    5.20</time>
   <energy>
    <i name="e_fr_energy">    -99.73192592 </i>
    <i name="e_wo_entrp">    -99.64309671 </i>
    <i name="e_0_energy">    -99.70231618 </i>
   </energy>
  </scstep>
  <scstep>
   <time name="dav">    4.93    4.97</time>
   <time name="total">    5.43    5.47</time>
   <energy>
    <i name="e_fr_energy">   -102.38442194 </i>
    <i name="e_wo_entrp">   -102.35041754 </i>
    <i name="e_0_energy">   -102.37308714 </i>
   </energy>
  </scstep>
  <scstep>
   <time name="dav">    5.49    5.53</time>
   <time name="total">    6.01    6.06</time>
   <energy>
    <i name="e_fr_energy">    -96.40669349 </i>
    <i name="e_wo_entrp">    -96.37499694 </i>
    <i name="e_0_energy">    -96.39612798 </i>
   </energy>
  </scstep>
  <scstep>
   <time name="dav">    5.88    5.93</time>
   <time name="total">    6.38    6.43</time>
   <energy>
    <i name="e_fr_energy">    -98.11409225 </i>
    <i name="e_wo_entrp">    -98.10390928 </i>
    <i name="e_0_energy">    -98.11069793 </i>
   </energy>
  </scstep>
  <scstep>
   <time name="dav">    5.47    5.52</time>
   <time name="total">    5.99    6.03</time>
   <energy>
    <i name="e_fr_energy">   -102.44701162 </i>
    <i name="e_wo_entrp">   -102.40817821 </i>
    <i name="e_0_energy">   -102.43406715 </i>
   </energy>
  </scstep>
  <scstep>
   <time name="dav">    5.73    5.78</time>
   <time name="total">    6.24    6.29</time>
   <energy>
    <i name="e_fr_energy">   -100.93783952 </i>
    <i name="e_wo_entrp">   -100.93427393 </i>
    <i name="e_0_energy">   -100.93665099 </i>
   </energy>
  </scstep>
  <scstep>
   <time name="dav">    6.32    6.38</time>
   <time name="total">    6.83    6.89</time>
   <energy>
    <i name="e_fr_energy">    -98.93743451 </i>
    <i name="e_wo_entrp">    -98.95050813 </i>
    <i name="e_0_energy">    -98.94179238 </i>
   </energy>
  </scstep>
  <scstep>
   <time name="dav">    5.43    5.48</time>
   <time name="total">    5.94    5.99</time>
   <energy>
    <i name="e_fr_energy">   -102.00904788 </i>
    <i name="e_wo_entrp">   -102.00425256 </i>
    <i name="e_0_energy">   -102.00744944 </i>
   </energy>
  </scstep>
  <scstep>
   <time name="dav">    5.14    5.19</time>
   <time name="total">    5.66    5.70</time>
   <energy>
    <i name="e_fr_energy">   -104.85952501 </i>
    <i name="e_wo_entrp">   -104.82376880 </i>
    <i name="e_0_energy">   -104.84760628 </i>
   </energy>
  </scstep>
  <scstep>
   <time name="dav">    5.60    5.65</time>
   <time name="total">    6.11    6.16</time>
   <energy>
    <i name="e_fr_energy">   -106.45808044 </i>
    <i name="e_wo_entrp">   -106.43052277 </i>
    <i name="e_0_energy">   -106.44889455 </i>
   </energy>
  </scstep>
  <scstep>
   <time name="dav">    5.54    5.59</time>
   <time name="total">    6.05    6.10</time>
   <energy>
    <i name="e_fr_energy">   -108.09710737 </i>
    <i name="e_wo_entrp">   -108.08377194 </i>
    <i name="e_0_energy">   -108.09266222 </i>
   </energy>
  </scstep>
  <scstep>
   <time name="dav">    5.44    5.49</time>
   <time name="total">    5.96    6.00</time>
   <energy>
    <i name="e_fr_energy">   -109.48801574 </i>
    <i name="e_wo_entrp">   -109.48442488 </i>
    <i name="e_0_energy">   -109.48681878 </i>
   </energy>
  </scstep>
  <scstep>
   <time name="dav">    4.98    5.02</time>
   <time name="total">    5.47    5.52</time>
   <energy>
    <i name="e_fr_energy">   -110.16433303 </i>
    <i name="e_wo_entrp">   -110.15123712 </i>
    <i name="e_0_energy">   -110.15996773 </i>
   </energy>
  </scstep>
  <scstep>
   <time name="dav">    5.07    5.11</time>
   <time name="total">    5.57    5.62</time>
   <energy>
    <i name="e_fr_energy">   -110.77567792 </i>
    <i name="e_wo_entrp">   -110.76552580 </i>
    <i name="e_0_energy">   -110.77229388 </i>
   </energy>
  </scstep>
  <scstep>
   <time name="dav">    5.77    5.82</time>
   <time name="total">    6.27    6.32</time>
   <energy>
    <i name="e_fr_energy">   -111.61052464 </i>
    <i name="e_wo_entrp">   -111.58888685 </i>
    <i name="e_0_energy">   -111.60331204 </i>
   </energy>
  </scstep>
  <scstep>
   <time name="dav">    5.62    5.67</time>
   <time name="total">    6.12    6.18</time>
   <energy>
    <i name="e_fr_energy">   -111.99182133 </i>
    <i name="e_wo_entrp">   -111.97810646 </i>
    <i name="e_0_energy">   -111.98724971 </i>
   </energy>
  </scstep>
  <scstep>
   <time name="dav">    5.70    5.75</time>
   <time name="total">    6.20    6.25</time>
   <energy>
    <i name="e_fr_energy">   -112.59646601 </i>
    <i name="e_wo_entrp">   -112.58260566 </i>
    <i name="e_0_energy">   -112.59184589 </i>
   </energy>
  </scstep>
  <scstep>
   <time name="dav">    4.92    4.96</time>
   <time name="total">    5.42    5.47</time>
   <energy>
    <i name="e_fr_energy">   -113.31251244 </i>
    <i name="e_wo_entrp">   -113.29491456 </i>
    <i name="e_0_energy">   -113.30664648 </i>
   </energy>
  </scstep>
  <scstep>
   <time name="dav">    5.00    5.04</time>
   <time name="total">    5.50    5.54</time>
   <energy>
    <i name="e_fr_energy">   -114.23930450 </i>
    <i name="e_wo_entrp">   -114.21925742 </i>
    <i name="e_0_energy">   -114.23262214 </i>
   </energy>
  </scstep>
  <scstep>
   <time name="dav">    5.61    5.66</time>
   <time name="total">    6.11    6.16</time>
   <energy>
    <i name="e_fr_energy">   -114.60136327 </i>
    <i name="e_wo_entrp">   -114.58125349 </i>
    <i name="e_0_energy">   -114.59466001 </i>
   </energy>
  </scstep>
  <scstep>
   <time name="dav">    4.88    4.93</time>
   <time name="total">    5.38    5.42</time>
   <energy>
    <i name="e_fr_energy">   -114.61773828 </i>
    <i name="e_wo_entrp">   -114.59742301 </i>
    <i name="e_0_energy">   -114.61096652 </i>
   </energy>
  </scstep>
  <scstep>
   <time name="dav">    4.78    4.82</time>
   <time name="total">    5.28    5.32</time>
   <energy>
    <i name="e_fr_energy">   -114.63517350 </i>
    <i name="e_wo_entrp">   -114.61520781 </i>
    <i name="e_0_energy">   -114.62851827 </i>
   </energy>
  </scstep>
  <scstep>
   <time name="dav">    3.86    3.89</time>
   <time name="total">    4.36    4.40</time>
   <energy>
    <i name="e_fr_energy">   -114.63473760 </i>
    <i name="e_wo_entrp">   -114.61465931 </i>
    <i name="e_0_energy">   -114.62804484 </i>
   </energy>
  </scstep>
  <scstep>
   <time name="dav">    3.23    3.26</time>
   <time name="total">    3.31    3.34</time>
   <energy>
    <i name="alphaZ">   1105.89480878 </i>
    <i name="ewald"> 199197.39292895 </i>
    <i name="hartreedc">-242646.49955563 </i>
    <i name="XCdc">   1426.26675776 </i>
    <i name="pawpsdc">  41792.26655694 </i>
    <i name="pawaedc"> -45238.45983411 </i>
    <i name="eentropy">     -0.02028166 </i>
    <i name="bandstr">   -262.12073442 </i>
    <i name="atom">  44510.64448639 </i>
    <i name="e_fr_energy">   -114.63486699 </i>
    <i name="e_wo_entrp">   -114.61458533 </i>
    <i name="e_0_energy">   -114.62810644 </i>
   </energy>
  </scstep>
  <dipole>
   <v name="dipole">      0.00000000       0.00000000       0.05844180 </v>
   <i name="Tr[quadrupol]">  -1670.24012142 </i>
   <i name="Echarged">      0.00000000 </i>
   <i name="Edipol_quadrupol">      0.00000000 </i>
   <i name="Eion">      0.00000000 </i>
  </dipole>
  <structure>
   <crystal>
    <varray name="basis" >
     <v>       5.13359547       0.00000000       0.00000000 </v>
     <v>       2.56679773       4.44582409       0.00000000 </v>
     <v>       0.00000000       0.00000000      29.67047119 </v>
    </varray>
    <i name="volume">    677.17101477 </i>
    <varray name="rec_basis" >
     <v>       0.19479525      -0.11246509       0.00000000 </v>
     <v>       0.00000000       0.22493018       0.00000000 </v>
     <v>       0.00000000       0.00000000       0.03370354 </v>
    </varray>
   </crystal>
   <varray name="positions" >
    <v>       0.00000000       0.00000000       0.00000000 </v>
    <v>       0.00000000       0.50000000       0.00000000 </v>
    <v>       0.50000000       0.00000000       0.00000000 </v>
    <v>       0.50000000       0.50000000       0.00000000 </v>
    <v>       0.16666667       0.16666667       0.07063526 </v>
    <v>       0.16666667       0.66666667       0.07063526 </v>
    <v>       0.66666667       0.16666667       0.07063526 </v>
    <v>       0.66666667       0.66666667       0.07063526 </v>
    <v>       0.33333333       0.33333333       0.14127053 </v>
    <v>       0.33333333       0.83333333       0.14127053 </v>
    <v>       0.83333333       0.33333333       0.14127053 </v>
    <v>       0.83333333       0.83333333       0.14127053 </v>
    <v>       0.00000000       0.00000000       0.21190579 </v>
    <v>       0.00000000       0.50000000       0.21190579 </v>
    <v>       0.50000000       0.00000000       0.21190579 </v>
    <v>       0.50000000       0.50000000       0.21190579 </v>
    <v>       0.16666667       0.16666667       0.28254106 </v>
    <v>       0.16666667       0.66666667       0.28254106 </v>
    <v>       0.66666667       0.16666667       0.28254106 </v>
    <v>       0.66666667       0.66666667       0.28254106 </v>
    <v>       0.33333333       0.33333333       0.35317632 </v>
    <v>       0.33333333       0.83333333       0.35317632 </v>
    <v>       0.83333333       0.33333333       0.35317632 </v>
    <v>       0.83333333       0.83333333       0.35317632 </v>
    <v>       0.00000000       0.00000000       0.42381158 </v>
    <v>       0.00000000       0.50000000       0.42381158 </v>
    <v>       0.50000000       0.00000000       0.42381158 </v>
    <v>       0.50000000       0.50000000       0.42381158 </v>
    <v>       0.16666667       0.16666667       0.49444685 </v>
    <v>       0.16666667       0.66666667       0.49444685 </v>
    <v>       0.66666667       0.16666667       0.49444685 </v>
    <v>       0.66666667       0.66666667       0.49444685 </v>
   </varray>
  </structure>
  <varray name="forces" >
   <v>      -0.00000000      -0.00000000       0.14605254 </v>
   <v>      -0.00000000       0.00000000       0.14605254 </v>
   <v>       0.00000000      -0.00000000       0.14605254 </v>
   <v>      -0.00000000      -0.00000000       0.14605254 </v>
   <v>       0.00000000       0.00000000       0.21790391 </v>
   <v>       0.00000000       0.00000000       0.21790391 </v>
   <v>       0.00000000       0.00000000       0.21790391 </v>
   <v>      -0.00000000       0.00000000       0.21790391 </v>
   <v>       0.00000000       0.00000000      -0.05647769 </v>
   <v>       0.00000000       0.00000000      -0.05647769 </v>
   <v>       0.00000000       0.00000000      -0.05647769 </v>
   <v>       0.00000000       0.00000000      -0.05647769 </v>
   <v>       0.00000000       0.00000000       0.00592367 </v>
   <v>      -0.00000000       0.00000000       0.00592367 </v>
   <v>       0.00000000       0.00000000       0.00592367 </v>
   <v>      -0.00000000       0.00000000       0.00592367 </v>
   <v>       0.00000000      -0.00000000      -0.00116584 </v>
   <v>       0.00000000      -0.00000000      -0.00116584 </v>
   <v>       0.00000000       0.00000000      -0.00116584 </v>
   <v>      -0.00000000       0.00000000      -0.00116584 </v>
   <v>      -0.00000000      -0.00000000       0.05201441 </v>
   <v>      -0.00000000       0.00000000       0.05201441 </v>
   <v>      -0.00000000      -0.00000000       0.05201441 </v>
   <v>      -0.00000000       0.00000000       0.05201441 </v>
   <v>       0.00000000      -0.00000000      -0.22198145 </v>
   <v>      -0.00000000       0.00000000      -0.22198145 </v>
   <v>      -0.00000000       0.00000000      -0.22198145 </v>
   <v>      -0.00000000       0.00000000      -0.22198145 </v>
   <v>      -0.00000000      -0.00000000      -0.14226955 </v>
   <v>      -0.00000000      -0.00000000      -0.14226955 </v>
   <v>      -0.00000000      -0.00000000      -0.14226955 </v>
   <v>      -0.00000000      -0.00000000      -0.14226955 </v>
  </varray>
  <varray name="stress" >
   <v>     -45.96961360      -0.00000000       0.00000000 </v>
   <v>       0.00000000     -45.96961360       0.00000000 </v>
   <v>       0.00000000       0.00000000     -39.97196580 </v>
  </varray>
  <energy>
   <i name="e_fr_energy">   -128.01387789 </i>
   <i name="e_wo_entrp">   -127.99359623 </i>
   <i name="e_0_energy">   -128.00711733 </i>
  </energy>
  <time name="totalsc">  173.47  174.94</time>
 </calculation>
 <calculation>
  <scstep>
   <time name="dav">    4.53    4.57</time>
   <time name="total">    5.02    5.07</time>
   <energy>
    <i name="alphaZ">   1105.89480878 </i>
    <i name="ewald"> 199485.06840839 </i>
    <i name="hartreedc">-242933.23574783 </i>
    <i name="XCdc">   1426.31050083 </i>
    <i name="pawpsdc">  41793.42832339 </i>
    <i name="pawaedc"> -45239.81581098 </i>
    <i name="eentropy">     -0.01828129 </i>
    <i name="bandstr">   -262.90985958 </i>
    <i name="atom">  44510.64448639 </i>
    <i name="e_fr_energy">   -114.63317188 </i>
    <i name="e_wo_entrp">   -114.61489059 </i>
    <i name="e_0_energy">   -114.62707812 </i>
   </energy>
  </scstep>
  <scstep>
   <time name="dav">    6.56    6.61</time>
   <time name="total">    7.06    7.12</time>
   <energy>
    <i name="e_fr_energy">   -114.64155426 </i>
    <i name="e_wo_entrp">   -114.62103196 </i>
    <i name="e_0_energy">   -114.63471350 </i>
   </energy>
  </scstep>
  <scstep>
   <time name="dav">    4.94    4.98</time>
   <time name="total">    5.44    5.48</time>
   <energy>
    <i name="e_fr_energy">   -114.64041390 </i>
    <i name="e_wo_entrp">   -114.62057813 </i>
    <i name="e_0_energy">   -114.63380198 </i>
   </energy>
  </scstep>
  <scstep>
   <time name="dav">    4.55    4.59</time>
   <time name="total">    5.04    5.08</time>
   <energy>
    <i name="e_fr_energy">   -114.64002118 </i>
    <i name="e_wo_entrp">   -114.62104447 </i>
    <i name="e_0_energy">   -114.63369561 </i>
   </energy>
  </scstep>
  <scstep>
   <time name="dav">    4.48    4.52</time>
   <time name="total">    4.56    4.60</time>
   <energy>
    <i name="alphaZ">   1105.89480878 </i>
    <i name="ewald"> 199485.06840839 </i>
    <i name="hartreedc">-242932.66070878 </i>
    <i name="XCdc">   1426.28913300 </i>
    <i name="pawpsdc">  41795.21773138 </i>
    <i name="pawaedc"> -45241.52361417 </i>
    <i name="eentropy">     -0.01918388 </i>
    <i name="bandstr">   -263.55109301 </i>
    <i name="atom">  44510.64448639 </i>
    <i name="e_fr_energy">   -114.64003189 </i>
    <i name="e_wo_entrp">   -114.62084801 </i>
    <i name="e_0_energy">   -114.63363727 </i>
   </energy>
  </scstep>
  <dipole>
   <v name="dipole">      0.00000000       0.00000000       0.00256692 </v>
   <i name="Tr[quadrupol]">  -1670.21772010 </i>
   <i name="Echarged">      0.00000000 </i>
   <i name="Edipol_quadrupol">      0.00000000 </i>
   <i name="Eion">      0.00000000 </i>
  </dipole>
  <structure>
   <crystal>
    <varray name="basis" >
     <v>       5.13359547       0.00000000       0.00000000 </v>
     <v>       2.56679773       4.44582409       0.00000000 </v>
     <v>       0.00000000       0.00000000      29.67047119 </v>
    </varray>
    <i name="volume">    677.17101477 </i>
    <varray name="rec_basis" >
     <v>       0.19479525      -0.11246509       0.00000000 </v>
     <v>       0.00000000       0.22493018       0.00000000 </v>
     <v>       0.00000000       0.00000000       0.03370354 </v>
    </varray>
   </crystal>
   <varray name="positions" >
    <v>       0.00000000       0.00000000       0.00000000 </v>
    <v>       0.00000000       0.50000000       0.00000000 </v>
    <v>       0.50000000       0.00000000       0.00000000 </v>
    <v>       0.50000000       0.50000000       0.00000000 </v>
    <v>       0.16666667       0.16666667       0.07063526 </v>
    <v>       0.16666667       0.66666667       0.07063526 </v>
    <v>       0.66666667       0.16666667       0.07063526 </v>
    <v>       0.66666667       0.66666667       0.07063526 </v>
    <v>       0.33333333       0.33333333       0.14117870 </v>
    <v>       0.33333333       0.83333333       0.14117870 </v>
    <v>       0.83333333       0.33333333       0.14117870 </v>
    <v>       0.83333333       0.83333333       0.14117870 </v>
    <v>       0.00000000       0.00000000       0.21191542 </v>
    <v>       0.00000000       0.50000000       0.21191542 </v>
    <v>       0.50000000       0.00000000       0.21191542 </v>
    <v>       0.50000000       0.50000000       0.21191542 </v>
    <v>       0.16666667       0.16666667       0.28253916 </v>
    <v>       0.16666667       0.66666667       0.28253916 </v>
    <v>       0.66666667       0.16666667       0.28253916 </v>
    <v>       0.66666667       0.66666667       0.28253916 </v>
    <v>       0.33333333       0.33333333       0.35326089 </v>
    <v>       0.33333333       0.83333333       0.35326089 </v>
    <v>       0.83333333       0.33333333       0.35326089 </v>
    <v>       0.83333333       0.83333333       0.35326089 </v>
    <v>       0.00000000      -0.00000000       0.42345065 </v>
    <v>       0.00000000       0.50000000       0.42345065 </v>
    <v>       0.50000000       0.00000000       0.42345065 </v>
    <v>       0.50000000       0.50000000       0.42345065 </v>
    <v>       0.16666667       0.16666667       0.49421553 </v>
    <v>       0.16666667       0.66666667       0.49421553 </v>
    <v>       0.66666667       0.16666667       0.49421553 </v>
    <v>       0.66666667       0.66666667       0.49421553 </v>
   </varray>
  </structure>
  <varray name="forces" >
   <v>       0.00000000      -0.00000000       0.13938249 </v>
   <v>       0.00000000      -0.00000000       0.13938249 </v>
   <v>       0.00000000      -0.00000000       0.13938249 </v>
   <v>       0.00000000      -0.00000000       0.13938249 </v>
   <v>      -0.00000000      -0.00000000       0.20650768 </v>
   <v>      -0.00000000      -0.00000000       0.20650768 </v>
   <v>      -0.00000000      -0.00000000       0.20650768 </v>
   <v>      -0.00000000      -0.00000000       0.20650768 </v>
   <v>      -0.00000000      -0.00000000      -0.03672746 </v>
   <v>      -0.00000000      -0.00000000      -0.03672746 </v>
   <v>      -0.00000000      -0.00000000      -0.03672746 </v>
   <v>      -0.00000000      -0.00000000      -0.03672746 </v>
   <v>       0.00000000       0.00000000      -0.01282786 </v>
   <v>       0.00000000       0.00000000      -0.01282786 </v>
   <v>       0.00000000       0.00000000      -0.01282786 </v>
   <v>       0.00000000       0.00000000      -0.01282786 </v>
   <v>      -0.00000000       0.00000000       0.00745260 </v>
   <v>      -0.00000000      -0.00000000       0.00745260 </v>
   <v>       0.00000000      -0.00000000       0.00745260 </v>
   <v>       0.00000000      -0.00000000       0.00745260 </v>
   <v>       0.00000000      -0.00000000      -0.00575221 </v>
   <v>       0.00000000       0.00000000      -0.00575221 </v>
   <v>       0.00000000       0.00000000      -0.00575221 </v>
   <v>       0.00000000       0.00000000      -0.00575221 </v>
   <v>       0.00000000       0.00000000      -0.15395245 </v>
   <v>       0.00000000      -0.00000000      -0.15395245 </v>
   <v>       0.00000000       0.00000000      -0.15395245 </v>
   <v>       0.00000000      -0.00000000      -0.15395245 </v>
   <v>       0.00000000      -0.00000000      -0.14408279 </v>
   <v>      -0.00000000      -0.00000000      -0.14408279 </v>
   <v>       0.00000000       0.00000000      -0.14408279 </v>
   <v>       0.00000000       0.00000000      -0.14408279 </v>
  </varray>
  <varray name="stress" >
   <v>     -45.44824525      -0.00000000      -0.00000000 </v>
   <v>      -0.00000000     -45.44824525       0.00000000 </v>
   <v>      -0.00000000      -0.00000000     -39.33751360 </v>
  </varray>
  <energy>
   <i name="e_fr_energy">   -128.02770969 </i>
   <i name="e_wo_entrp">   -128.00852581 </i>
   <i name="e_0_energy">   -128.02131507 </i>
  </energy>
  <time name="totalsc">   35.67   35.99</time>
 </calculation>
 <calculation>
  <scstep>
   <time name="dav">    4.59    4.63</time>
   <time name="total">    5.09    5.13</time>
   <energy>
    <i name="alphaZ">   1105.89480878 </i>
    <i name="ewald"> 200337.77455533 </i>
    <i name="hartreedc">-243783.98217125 </i>
    <i name="XCdc">   1426.43550600 </i>
    <i name="pawpsdc">  41795.47728917 </i>
    <i name="pawaedc"> -45241.82603858 </i>
    <i name="eentropy">     -0.01437261 </i>
    <i name="bandstr">   -264.97739506 </i>
    <i name="atom">  44510.64448639 </i>
    <i name="e_fr_energy">   -114.57333183 </i>
    <i name="e_wo_entrp">   -114.55895922 </i>
    <i name="e_0_energy">   -114.56854096 </i>
   </energy>
  </scstep>
  <scstep>
   <time name="dav">    5.84    5.89</time>
   <time name="total">    6.33    6.38</time>
   <energy>
    <i name="e_fr_energy">   -114.64004014 </i>
    <i name="e_wo_entrp">   -114.62023911 </i>
    <i name="e_0_energy">   -114.63343980 </i>
   </energy>
  </scstep>
  <scstep>
   <time name="dav">    4.73    4.77</time>
   <time name="total">    5.23    5.27</time>
   <energy>
    <i name="e_fr_energy">   -114.63998628 </i>
    <i name="e_wo_entrp">   -114.62393060 </i>
    <i name="e_0_energy">   -114.63463438 </i>
   </energy>
  </scstep>
  <scstep>
   <time name="dav">    5.08    5.12</time>
   <time name="total">    5.58    5.62</time>
   <energy>
    <i name="e_fr_energy">   -114.63835163 </i>
    <i name="e_wo_entrp">   -114.62196875 </i>
    <i name="e_0_energy">   -114.63289067 </i>
   </energy>
  </scstep>
  <scstep>
   <time name="dav">    5.14    5.18</time>
   <time name="total">    5.64    5.68</time>
   <energy>
    <i name="e_fr_energy">   -114.63775389 </i>
    <i name="e_wo_entrp">   -114.62126011 </i>
    <i name="e_0_energy">   -114.63225596 </i>
   </energy>
  </scstep>
  <scstep>
   <time name="dav">    5.87    5.92</time>
   <time name="total">    6.36    6.41</time>
   <energy>
    <i name="e_fr_energy">   -114.63626096 </i>
    <i name="e_wo_entrp">   -114.61727329 </i>
    <i name="e_0_energy">   -114.62993174 </i>
   </energy>
  </scstep>
  <scstep>
   <time name="dav">    6.85    6.90</time>
   <time name="total">    7.34    7.40</time>
   <energy>
    <i name="e_fr_energy">   -114.63441928 </i>
    <i name="e_wo_entrp">   -114.61689190 </i>
    <i name="e_0_energy">   -114.62857682 </i>
   </energy>
  </scstep>
  <scstep>
   <time name="dav">    4.74    4.78</time>
   <time name="total">    5.24    5.28</time>
   <energy>
    <i name="e_fr_energy">   -114.63396747 </i>
    <i name="e_wo_entrp">   -114.61876889 </i>
    <i name="e_0_energy">   -114.62890128 </i>
   </energy>
  </scstep>
  <scstep>
   <time name="dav">    4.23    4.26</time>
   <time name="total">    4.72    4.76</time>
   <energy>
    <i name="e_fr_energy">   -114.63368426 </i>
    <i name="e_wo_entrp">   -114.61665522 </i>
    <i name="e_0_energy">   -114.62800791 </i>
   </energy>
  </scstep>
  <scstep>
   <time name="dav">    3.84    3.87</time>
   <time name="total">    3.92    3.95</time>
   <energy>
    <i name="alphaZ">   1105.89480878 </i>
    <i name="ewald"> 200337.77455533 </i>
    <i name="hartreedc">-243781.06632188 </i>
    <i name="XCdc">   1426.38834868 </i>
    <i name="pawpsdc">  41813.05669796 </i>
    <i name="pawaedc"> -45259.89464067 </i>
    <i name="eentropy">     -0.01639295 </i>
    <i name="bandstr">   -267.41518935 </i>
    <i name="atom">  44510.64448639 </i>
    <i name="e_fr_energy">   -114.63364770 </i>
    <i name="e_wo_entrp">   -114.61725475 </i>
    <i name="e_0_energy">   -114.62818339 </i>
   </energy>
  </scstep>
  <dipole>
   <v name="dipole">      0.00000000       0.00000000      -0.00861162 </v>
   <i name="Tr[quadrupol]">  -1670.03868882 </i>
   <i name="Echarged">      0.00000000 </i>
   <i name="Edipol_quadrupol">      0.00000000 </i>
   <i name="Eion">      0.00000000 </i>
  </dipole>
  <structure>
   <crystal>
    <varray name="basis" >
     <v>       5.13359547       0.00000000       0.00000000 </v>
     <v>       2.56679773       4.44582409       0.00000000 </v>
     <v>       0.00000000       0.00000000      29.67047119 </v>
    </varray>
    <i name="volume">    677.17101477 </i>
    <varray name="rec_basis" >
     <v>       0.19479525      -0.11246509       0.00000000 </v>
     <v>       0.00000000       0.22493018       0.00000000 </v>
     <v>       0.00000000       0.00000000       0.03370354 </v>
    </varray>
   </crystal>
   <varray name="positions" >
    <v>       0.00000000       0.00000000       0.00000000 </v>
    <v>       0.00000000       0.50000000       0.00000000 </v>
    <v>       0.50000000       0.00000000       0.00000000 </v>
    <v>       0.50000000       0.50000000       0.00000000 </v>
    <v>       0.16666667       0.16666667       0.07063526 </v>
    <v>       0.16666667       0.66666667       0.07063526 </v>
    <v>       0.66666667       0.16666667       0.07063526 </v>
    <v>       0.66666667       0.66666667       0.07063526 </v>
    <v>       0.33333333       0.33333333       0.14090749 </v>
    <v>       0.33333333       0.83333333       0.14090749 </v>
    <v>       0.83333333       0.33333333       0.14090749 </v>
    <v>       0.83333333       0.83333333       0.14090749 </v>
    <v>       0.00000000       0.00000000       0.21194387 </v>
    <v>       0.00000000       0.50000000       0.21194387 </v>
    <v>       0.50000000       0.00000000       0.21194387 </v>
    <v>       0.50000000       0.50000000       0.21194387 </v>
    <v>       0.16666667       0.16666667       0.28253356 </v>
    <v>       0.16666667       0.66666667       0.28253356 </v>
    <v>       0.66666667       0.16666667       0.28253356 </v>
    <v>       0.66666667       0.66666667       0.28253356 </v>
    <v>       0.33333333       0.33333333       0.35351067 </v>
    <v>       0.33333333       0.83333333       0.35351067 </v>
    <v>       0.83333333       0.33333333       0.35351067 </v>
    <v>       0.83333333       0.83333333       0.35351067 </v>
    <v>       0.00000000      -0.00000000       0.42238469 </v>
    <v>       0.00000000       0.50000000       0.42238469 </v>
    <v>       0.50000000       0.00000000       0.42238469 </v>
    <v>       0.50000000       0.50000000       0.42238469 </v>
    <v>       0.16666667       0.16666667       0.49353234 </v>
    <v>       0.16666667       0.66666667       0.49353234 </v>
    <v>       0.66666667       0.16666667       0.49353234 </v>
    <v>       0.66666667       0.66666667       0.49353234 </v>
   </varray>
  </structure>
  <varray name="forces" >
   <v>      -0.00000000       0.00000000       0.13745372 </v>
   <v>       0.00000000      -0.00000000       0.13745372 </v>
   <v>       0.00000000      -0.00000000       0.13745372 </v>
   <v>      -0.00000000      -0.00000000       0.13745372 </v>
   <v>       0.00000000       0.00000000       0.17397515 </v>
   <v>       0.00000000       0.00000000       0.17397515 </v>
   <v>      -0.00000000       0.00000000       0.17397515 </v>
   <v>      -0.00000000      -0.00000000       0.17397515 </v>
   <v>      -0.00000000      -0.00000000       0.02311458 </v>
   <v>       0.00000000      -0.00000000       0.02311458 </v>
   <v>       0.00000000      -0.00000000       0.02311458 </v>
   <v>       0.00000000      -0.00000000       0.02311458 </v>
   <v>      -0.00000000      -0.00000000      -0.04660168 </v>
   <v>      -0.00000000      -0.00000000      -0.04660168 </v>
   <v>      -0.00000000      -0.00000000      -0.04660168 </v>
   <v>       0.00000000      -0.00000000      -0.04660168 </v>
   <v>      -0.00000000      -0.00000000       0.03779856 </v>
   <v>      -0.00000000       0.00000000       0.03779856 </v>
   <v>      -0.00000000       0.00000000       0.03779856 </v>
   <v>      -0.00000000       0.00000000       0.03779856 </v>
   <v>      -0.00000000      -0.00000000      -0.18694373 </v>
   <v>       0.00000000       0.00000000      -0.18694373 </v>
   <v>       0.00000000      -0.00000000      -0.18694373 </v>
   <v>      -0.00000000       0.00000000      -0.18694373 </v>
   <v>       0.00000000       0.00000000       0.04274041 </v>
   <v>       0.00000000      -0.00000000       0.04274041 </v>
   <v>       0.00000000      -0.00000000       0.04274041 </v>
   <v>       0.00000000      -0.00000000       0.04274041 </v>
   <v>       0.00000000       0.00000000      -0.18153702 </v>
   <v>       0.00000000       0.00000000      -0.18153702 </v>
   <v>      -0.00000000       0.00000000      -0.18153702 </v>
   <v>      -0.00000000      -0.00000000      -0.18153702 </v>
  </varray>
  <varray name="stress" >
   <v>     -49.09300909       0.00000000       0.00000000 </v>
   <v>      -0.00000000     -49.09300909       0.00000000 </v>
   <v>      -0.00000000       0.00000000     -41.46575199 </v>
  </varray>
  <energy>
   <i name="e_fr_energy">   -128.04573828 </i>
   <i name="e_wo_entrp">   -128.02934533 </i>
   <i name="e_0_energy">   -128.04027397 </i>
  </energy>
  <time name="totalsc">   63.96   64.49</time>
 </calculation>
 <calculation>
  <scstep>
   <time name="dav">    4.59    4.63</time>
   <time name="total">    5.09    5.13</time>
   <energy>
    <i name="alphaZ">   1105.89480878 </i>
    <i name="ewald"> 200767.32690375 </i>
    <i name="hartreedc">-244209.76889757 </i>
    <i name="XCdc">   1426.45305996 </i>
    <i name="pawpsdc">  41812.97274033 </i>
    <i name="pawaedc"> -45259.75473970 </i>
    <i name="eentropy">     -0.01595796 </i>
    <i name="bandstr">   -268.37959319 </i>
    <i name="atom">  44510.64448639 </i>
    <i name="e_fr_energy">   -114.62718919 </i>
    <i name="e_wo_entrp">   -114.61123123 </i>
    <i name="e_0_energy">   -114.62186987 </i>
   </energy>
  </scstep>
  <scstep>
   <time name="dav">    5.84    5.89</time>
   <time name="total">    6.33    6.38</time>
   <energy>
    <i name="e_fr_energy">   -114.63634313 </i>
    <i name="e_wo_entrp">   -114.61875309 </i>
    <i name="e_0_energy">   -114.63047978 </i>
   </energy>
  </scstep>
  <scstep>
   <time name="dav">    4.61    4.65</time>
   <time name="total">    5.10    5.14</time>
   <energy>
    <i name="e_fr_energy">   -114.63632293 </i>
    <i name="e_wo_entrp">   -114.61965533 </i>
    <i name="e_0_energy">   -114.63076706 </i>
   </energy>
  </scstep>
  <scstep>
   <time name="dav">    4.62    4.66</time>
   <time name="total">    5.11    5.16</time>
   <energy>
    <i name="e_fr_energy">   -114.63603224 </i>
    <i name="e_wo_entrp">   -114.61957945 </i>
    <i name="e_0_energy">   -114.63054798 </i>
   </energy>
  </scstep>
  <scstep>
   <time name="dav">    4.10    4.13</time>
   <time name="total">    4.59    4.63</time>
   <energy>
    <i name="e_fr_energy">   -114.63585932 </i>
    <i name="e_wo_entrp">   -114.61963428 </i>
    <i name="e_0_energy">   -114.63045098 </i>
   </energy>
  </scstep>
  <scstep>
   <time name="dav">    3.21    3.23</time>
   <time name="total">    3.28    3.31</time>
   <energy>
    <i name="alphaZ">   1105.89480878 </i>
    <i name="ewald"> 200767.32690375 </i>
    <i name="hartreedc">-244209.16449165 </i>
    <i name="XCdc">   1426.42717612 </i>
    <i name="pawpsdc">  41817.43582726 </i>
    <i name="pawaedc"> -45264.12170949 </i>
    <i name="eentropy">     -0.01697903 </i>
    <i name="bandstr">   -269.06168826 </i>
    <i name="atom">  44510.64448639 </i>
    <i name="e_fr_energy">   -114.63566611 </i>
    <i name="e_wo_entrp">   -114.61868708 </i>
    <i name="e_0_energy">   -114.63000644 </i>
   </energy>
  </scstep>
  <dipole>
   <v name="dipole">      0.00000000       0.00000000      -0.01043951 </v>
   <i name="Tr[quadrupol]">  -1670.00586581 </i>
   <i name="Echarged">      0.00000000 </i>
   <i name="Edipol_quadrupol">      0.00000000 </i>
   <i name="Eion">      0.00000000 </i>
  </dipole>
  <structure>
   <crystal>
    <varray name="basis" >
     <v>       5.13359547       0.00000000       0.00000000 </v>
     <v>       2.56679773       4.44582409       0.00000000 </v>
     <v>       0.00000000       0.00000000      29.67047119 </v>
    </varray>
    <i name="volume">    677.17101477 </i>
    <varray name="rec_basis" >
     <v>       0.19479525      -0.11246509       0.00000000 </v>
     <v>       0.00000000       0.22493018       0.00000000 </v>
     <v>       0.00000000       0.00000000       0.03370354 </v>
    </varray>
   </crystal>
   <varray name="positions" >
    <v>       0.00000000       0.00000000       0.00000000 </v>
    <v>       0.00000000       0.50000000       0.00000000 </v>
    <v>       0.50000000       0.00000000       0.00000000 </v>
    <v>       0.50000000       0.50000000       0.00000000 </v>
    <v>       0.16666667       0.16666667       0.07063526 </v>
    <v>       0.16666667       0.66666667       0.07063526 </v>
    <v>       0.66666667       0.16666667       0.07063526 </v>
    <v>       0.66666667       0.66666667       0.07063526 </v>
    <v>       0.33333333       0.33333333       0.14086944 </v>
    <v>       0.33333333       0.83333333       0.14086944 </v>
    <v>       0.83333333       0.33333333       0.14086944 </v>
    <v>       0.83333333       0.83333333       0.14086944 </v>
    <v>      -0.00000000       0.00000000       0.21188876 </v>
    <v>       0.00000000       0.50000000       0.21188876 </v>
    <v>       0.50000000       0.00000000       0.21188876 </v>
    <v>       0.50000000       0.50000000       0.21188876 </v>
    <v>       0.16666667       0.16666667       0.28258271 </v>
    <v>       0.16666667       0.66666667       0.28258271 </v>
    <v>       0.66666667       0.16666667       0.28258271 </v>
    <v>       0.66666667       0.66666667       0.28258271 </v>
    <v>       0.33333333       0.33333333       0.35332408 </v>
    <v>       0.33333333       0.83333333       0.35332408 </v>
    <v>       0.83333333       0.33333333       0.35332408 </v>
    <v>       0.83333333       0.83333333       0.35332408 </v>
    <v>       0.00000000      -0.00000000       0.42217076 </v>
    <v>       0.00000000       0.50000000       0.42217076 </v>
    <v>       0.50000000       0.00000000       0.42217076 </v>
    <v>       0.50000000       0.50000000       0.42217076 </v>
    <v>       0.16666667       0.16666667       0.49311570 </v>
    <v>       0.16666667       0.66666667       0.49311570 </v>
    <v>       0.66666667       0.16666667       0.49311570 </v>
    <v>       0.66666667       0.66666667       0.49311570 </v>
   </varray>
  </structure>
  <varray name="forces" >
   <v>       0.00000000      -0.00000000       0.13246349 </v>
   <v>       0.00000000      -0.00000000       0.13246349 </v>
   <v>       0.00000000      -0.00000000       0.13246349 </v>
   <v>       0.00000000      -0.00000000       0.13246349 </v>
   <v>       0.00000000      -0.00000000       0.16639540 </v>
   <v>       0.00000000       0.00000000       0.16639540 </v>
   <v>       0.00000000       0.00000000       0.16639540 </v>
   <v>       0.00000000       0.00000000       0.16639540 </v>
   <v>      -0.00000000      -0.00000000       0.02166600 </v>
   <v>      -0.00000000      -0.00000000       0.02166600 </v>
   <v>       0.00000000      -0.00000000       0.02166600 </v>
   <v>       0.00000000      -0.00000000       0.02166600 </v>
   <v>       0.00000000      -0.00000000      -0.03307697 </v>
   <v>       0.00000000      -0.00000000      -0.03307697 </v>
   <v>       0.00000000      -0.00000000      -0.03307697 </v>
   <v>       0.00000000      -0.00000000      -0.03307697 </v>
   <v>      -0.00000000      -0.00000000      -0.00772646 </v>
   <v>       0.00000000       0.00000000      -0.00772646 </v>
   <v>      -0.00000000      -0.00000000      -0.00772646 </v>
   <v>      -0.00000000       0.00000000      -0.00772646 </v>
   <v>      -0.00000000       0.00000000      -0.15719762 </v>
   <v>      -0.00000000       0.00000000      -0.15719762 </v>
   <v>      -0.00000000      -0.00000000      -0.15719762 </v>
   <v>      -0.00000000      -0.00000000      -0.15719762 </v>
   <v>       0.00000000       0.00000000       0.02832950 </v>
   <v>       0.00000000       0.00000000       0.02832950 </v>
   <v>      -0.00000000       0.00000000       0.02832950 </v>
   <v>      -0.00000000      -0.00000000       0.02832950 </v>
   <v>      -0.00000000      -0.00000000      -0.15085335 </v>
   <v>       0.00000000       0.00000000      -0.15085335 </v>
   <v>       0.00000000       0.00000000      -0.15085335 </v>
   <v>      -0.00000000       0.00000000      -0.15085335 </v>
  </varray>
  <varray name="stress" >
   <v>     -43.36833466       0.00000000      -0.00000000 </v>
   <v>       0.00000000     -43.36833466       0.00000000 </v>
   <v>       0.00000000       0.00000000     -35.18899158 </v>
  </varray>
  <energy>
   <i name="e_fr_energy">   -128.05787475 </i>
   <i name="e_wo_entrp">   -128.04089572 </i>
   <i name="e_0_energy">   -128.05221507 </i>
  </energy>
  <time name="totalsc">   38.04   38.36</time>
 </calculation>
 <calculation>
  <scstep>
   <time name="dav">    4.62    4.66</time>
   <time name="total">    5.12    5.16</time>
   <energy>
    <i name="alphaZ">   1105.89480878 </i>
    <i name="ewald"> 202059.56741333 </i>
    <i name="hartreedc">-245499.78540257 </i>
    <i name="XCdc">   1426.66372618 </i>
    <i name="pawpsdc">  41819.57404560 </i>
    <i name="pawaedc"> -45266.48683822 </i>
    <i name="eentropy">     -0.01538597 </i>
    <i name="bandstr">   -270.60876570 </i>
    <i name="atom">  44510.64448639 </i>
    <i name="e_fr_energy">   -114.55191217 </i>
    <i name="e_wo_entrp">   -114.53652620 </i>
    <i name="e_0_energy">   -114.54678351 </i>
   </energy>
  </scstep>
  <scstep>
   <time name="dav">    6.28    6.34</time>
   <time name="total">    6.77    6.83</time>
   <energy>
    <i name="e_fr_energy">   -114.65779125 </i>
    <i name="e_wo_entrp">   -114.63986114 </i>
    <i name="e_0_energy">   -114.65181455 </i>
   </energy>
  </scstep>
  <scstep>
   <time name="dav">    6.57    6.63</time>
   <time name="total">    7.07    7.13</time>
   <energy>
    <i name="e_fr_energy">   -114.67168230 </i>
    <i name="e_wo_entrp">   -114.65399901 </i>
    <i name="e_0_energy">   -114.66578787 </i>
   </energy>
  </scstep>
  <scstep>
   <time name="dav">    5.38    5.43</time>
   <time name="total">    5.87    5.92</time>
   <energy>
    <i name="e_fr_energy">   -114.63845636 </i>
    <i name="e_wo_entrp">   -114.62268605 </i>
    <i name="e_0_energy">   -114.63319959 </i>
   </energy>
  </scstep>
  <scstep>
   <time name="dav">    5.43    5.47</time>
   <time name="total">    5.92    5.97</time>
   <energy>
    <i name="e_fr_energy">   -114.63629137 </i>
    <i name="e_wo_entrp">   -114.62129858 </i>
    <i name="e_0_energy">   -114.63129378 </i>
   </energy>
  </scstep>
  <scstep>
   <time name="dav">    4.81    4.85</time>
   <time name="total">    5.30    5.34</time>
   <energy>
    <i name="e_fr_energy">   -114.63560466 </i>
    <i name="e_wo_entrp">   -114.61805282 </i>
    <i name="e_0_energy">   -114.62975405 </i>
   </energy>
  </scstep>
  <scstep>
   <time name="dav">    4.83    4.87</time>
   <time name="total">    5.32    5.37</time>
   <energy>
    <i name="e_fr_energy">   -114.63401752 </i>
    <i name="e_wo_entrp">   -114.61662384 </i>
    <i name="e_0_energy">   -114.62821963 </i>
   </energy>
  </scstep>
  <scstep>
   <time name="dav">    5.67    5.71</time>
   <time name="total">    6.15    6.21</time>
   <energy>
    <i name="e_fr_energy">   -114.63373116 </i>
    <i name="e_wo_entrp">   -114.61745044 </i>
    <i name="e_0_energy">   -114.62830425 </i>
   </energy>
  </scstep>
  <scstep>
   <time name="dav">    4.74    4.78</time>
   <time name="total">    5.24    5.28</time>
   <energy>
    <i name="e_fr_energy">   -114.63321877 </i>
    <i name="e_wo_entrp">   -114.61639579 </i>
    <i name="e_0_energy">   -114.62761111 </i>
   </energy>
  </scstep>
  <scstep>
   <time name="dav">    3.70    3.73</time>
   <time name="total">    3.77    3.81</time>
   <energy>
    <i name="alphaZ">   1105.89480878 </i>
    <i name="ewald"> 202059.56741333 </i>
    <i name="hartreedc">-245497.60421337 </i>
    <i name="XCdc">   1426.57236983 </i>
    <i name="pawpsdc">  41844.17210230 </i>
    <i name="pawaedc"> -45291.51256391 </i>
    <i name="eentropy">     -0.01591684 </i>
    <i name="bandstr">   -272.35169462 </i>
    <i name="atom">  44510.64448639 </i>
    <i name="e_fr_energy">   -114.63320809 </i>
    <i name="e_wo_entrp">   -114.61729125 </i>
    <i name="e_0_energy">   -114.62790248 </i>
   </energy>
  </scstep>
  <dipole>
   <v name="dipole">      0.00000000       0.00000000      -0.00448648 </v>
   <i name="Tr[quadrupol]">  -1669.93790093 </i>
   <i name="Echarged">      0.00000000 </i>
   <i name="Edipol_quadrupol">      0.00000000 </i>
   <i name="Eion">      0.00000000 </i>
  </dipole>
  <structure>
   <crystal>
    <varray name="basis" >
     <v>       5.13359547       0.00000000       0.00000000 </v>
     <v>       2.56679773       4.44582409       0.00000000 </v>
     <v>       0.00000000       0.00000000      29.67047119 </v>
    </varray>
    <i name="volume">    677.17101477 </i>
    <varray name="rec_basis" >
     <v>       0.19479525      -0.11246509       0.00000000 </v>
     <v>       0.00000000       0.22493018       0.00000000 </v>
     <v>       0.00000000       0.00000000       0.03370354 </v>
    </varray>
   </crystal>
   <varray name="positions" >
    <v>       0.00000000       0.00000000       0.00000000 </v>
    <v>       0.00000000       0.50000000       0.00000000 </v>
    <v>       0.50000000       0.00000000       0.00000000 </v>
    <v>       0.50000000       0.50000000       0.00000000 </v>
    <v>       0.16666667       0.16666667       0.07063526 </v>
    <v>       0.16666667       0.66666667       0.07063526 </v>
    <v>       0.66666667       0.16666667       0.07063526 </v>
    <v>       0.66666667       0.66666667       0.07063526 </v>
    <v>       0.33333333       0.33333333       0.14075528 </v>
    <v>       0.33333333       0.83333333       0.14075528 </v>
    <v>       0.83333333       0.33333333       0.14075528 </v>
    <v>       0.83333333       0.83333333       0.14075528 </v>
    <v>      -0.00000000       0.00000000       0.21172341 </v>
    <v>       0.00000000       0.50000000       0.21172341 </v>
    <v>       0.50000000       0.00000000       0.21172341 </v>
    <v>       0.50000000       0.50000000       0.21172341 </v>
    <v>       0.16666667       0.16666667       0.28273015 </v>
    <v>       0.16666667       0.66666667       0.28273015 </v>
    <v>       0.66666667       0.16666667       0.28273015 </v>
    <v>       0.66666667       0.66666667       0.28273015 </v>
    <v>       0.33333333       0.33333333       0.35276432 </v>
    <v>       0.33333333       0.83333333       0.35276432 </v>
    <v>       0.83333333       0.33333333       0.35276432 </v>
    <v>       0.83333333       0.83333333       0.35276432 </v>
    <v>       0.00000000      -0.00000000       0.42152895 </v>
    <v>       0.00000000       0.50000000       0.42152895 </v>
    <v>       0.50000000       0.00000000       0.42152895 </v>
    <v>       0.50000000       0.50000000       0.42152895 </v>
    <v>       0.16666667       0.16666667       0.49186577 </v>
    <v>       0.16666667       0.66666667       0.49186577 </v>
    <v>       0.66666667       0.16666667       0.49186577 </v>
    <v>       0.66666667       0.66666667       0.49186577 </v>
   </varray>
  </structure>
  <varray name="forces" >
   <v>       0.00000000      -0.00000000       0.14048393 </v>
   <v>      -0.00000000      -0.00000000       0.14048393 </v>
   <v>      -0.00000000       0.00000000       0.14048393 </v>
   <v>      -0.00000000       0.00000000       0.14048393 </v>
   <v>      -0.00000000       0.00000000       0.16019441 </v>
   <v>       0.00000000      -0.00000000       0.16019441 </v>
   <v>      -0.00000000       0.00000000       0.16019441 </v>
   <v>       0.00000000       0.00000000       0.16019441 </v>
   <v>       0.00000000      -0.00000000       0.03341938 </v>
   <v>      -0.00000000      -0.00000000       0.03341938 </v>
   <v>       0.00000000      -0.00000000       0.03341938 </v>
   <v>       0.00000000      -0.00000000       0.03341938 </v>
   <v>       0.00000000      -0.00000000       0.00665162 </v>
   <v>      -0.00000000      -0.00000000       0.00665162 </v>
   <v>      -0.00000000      -0.00000000       0.00665162 </v>
   <v>      -0.00000000      -0.00000000       0.00665162 </v>
   <v>       0.00000000       0.00000000      -0.10985145 </v>
   <v>       0.00000000      -0.00000000      -0.10985145 </v>
   <v>      -0.00000000      -0.00000000      -0.10985145 </v>
   <v>       0.00000000      -0.00000000      -0.10985145 </v>
   <v>       0.00000000       0.00000000      -0.09736064 </v>
   <v>       0.00000000      -0.00000000      -0.09736064 </v>
   <v>       0.00000000       0.00000000      -0.09736064 </v>
   <v>       0.00000000       0.00000000      -0.09736064 </v>
   <v>       0.00000000      -0.00000000      -0.02275787 </v>
   <v>      -0.00000000      -0.00000000      -0.02275787 </v>
   <v>      -0.00000000      -0.00000000      -0.02275787 </v>
   <v>      -0.00000000      -0.00000000      -0.02275787 </v>
   <v>      -0.00000000       0.00000000      -0.11077938 </v>
   <v>      -0.00000000       0.00000000      -0.11077938 </v>
   <v>      -0.00000000      -0.00000000      -0.11077938 </v>
   <v>      -0.00000000       0.00000000      -0.11077938 </v>
  </varray>
  <varray name="stress" >
   <v>     -46.80253479      -0.00000000       0.00000000 </v>
   <v>      -0.00000000     -46.80253479       0.00000000 </v>
   <v>      -0.00000000      -0.00000000     -37.08952671 </v>
  </varray>
  <energy>
   <i name="e_fr_energy">   -128.08599653 </i>
   <i name="e_wo_entrp">   -128.07007969 </i>
   <i name="e_0_energy">   -128.08069092 </i>
  </energy>
  <time name="totalsc">   65.07   65.63</time>
 </calculation>
 <calculation>
  <scstep>
   <time name="dav">    4.66    4.70</time>
   <time name="total">    5.15    5.19</time>
   <energy>
    <i name="alphaZ">   1105.89480878 </i>
    <i name="ewald"> 204660.15069023 </i>
    <i name="hartreedc">-248096.13203764 </i>
    <i name="XCdc">   1427.07709062 </i>
    <i name="pawpsdc">  41844.27716340 </i>
    <i name="pawaedc"> -45291.61216940 </i>
    <i name="eentropy">     -0.01288971 </i>
    <i name="bandstr">   -274.51066015 </i>
    <i name="atom">  44510.64448639 </i>
    <i name="e_fr_energy">   -114.22351746 </i>
    <i name="e_wo_entrp">   -114.21062775 </i>
    <i name="e_0_energy">   -114.21922089 </i>
   </energy>
  </scstep>
  <scstep>
   <time name="dav">    6.36    6.41</time>
   <time name="total">    6.85    6.91</time>
   <energy>
    <i name="e_fr_energy">   -114.70937712 </i>
    <i name="e_wo_entrp">   -114.68196764 </i>
    <i name="e_0_energy">   -114.70024062 </i>
   </energy>
  </scstep>
  <scstep>
   <time name="dav">    6.63    6.69</time>
   <time name="total">    7.13    7.19</time>
   <energy>
    <i name="e_fr_energy">   -114.77078786 </i>
    <i name="e_wo_entrp">   -114.75439399 </i>
    <i name="e_0_energy">   -114.76532324 </i>
   </energy>
  </scstep>
  <scstep>
   <time name="dav">    6.10    6.15</time>
   <time name="total">    6.59    6.64</time>
   <energy>
    <i name="e_fr_energy">   -114.60869387 </i>
    <i name="e_wo_entrp">   -114.59626746 </i>
    <i name="e_0_energy">   -114.60455173 </i>
   </energy>
  </scstep>
  <scstep>
   <time name="dav">    5.81    5.86</time>
   <time name="total">    6.31    6.36</time>
   <energy>
    <i name="e_fr_energy">   -114.60090947 </i>
    <i name="e_wo_entrp">   -114.59038042 </i>
    <i name="e_0_energy">   -114.59739978 </i>
   </energy>
  </scstep>
  <scstep>
   <time name="dav">    4.82    4.87</time>
   <time name="total">    5.31    5.36</time>
   <energy>
    <i name="e_fr_energy">   -114.59766176 </i>
    <i name="e_wo_entrp">   -114.57973076 </i>
    <i name="e_0_energy">   -114.59168476 </i>
   </energy>
  </scstep>
  <scstep>
   <time name="dav">    4.59    4.63</time>
   <time name="total">    5.08    5.13</time>
   <energy>
    <i name="e_fr_energy">   -114.59245570 </i>
    <i name="e_wo_entrp">   -114.57595358 </i>
    <i name="e_0_energy">   -114.58695499 </i>
   </energy>
  </scstep>
  <scstep>
   <time name="dav">    5.91    5.96</time>
   <time name="total">    6.40    6.45</time>
   <energy>
    <i name="e_fr_energy">   -114.59181006 </i>
    <i name="e_wo_entrp">   -114.57362578 </i>
    <i name="e_0_energy">   -114.58574863 </i>
   </energy>
  </scstep>
  <scstep>
   <time name="dav">    5.68    5.73</time>
   <time name="total">    6.18    6.23</time>
   <energy>
    <i name="e_fr_energy">   -114.58820958 </i>
    <i name="e_wo_entrp">   -114.57295252 </i>
    <i name="e_0_energy">   -114.58312389 </i>
   </energy>
  </scstep>
  <scstep>
   <time name="dav">    5.09    5.13</time>
   <time name="total">    5.58    5.63</time>
   <energy>
    <i name="e_fr_energy">   -114.58828014 </i>
    <i name="e_wo_entrp">   -114.57258491 </i>
    <i name="e_0_energy">   -114.58304840 </i>
   </energy>
  </scstep>
  <scstep>
   <time name="dav">    4.25    4.29</time>
   <time name="total">    4.33    4.37</time>
   <energy>
    <i name="alphaZ">   1105.89480878 </i>
    <i name="ewald"> 204660.15069023 </i>
    <i name="hartreedc">-248092.37916548 </i>
    <i name="XCdc">   1426.87697715 </i>
    <i name="pawpsdc">  41896.78738646 </i>
    <i name="pawaedc"> -45344.96276152 </i>
    <i name="eentropy">     -0.01630631 </i>
    <i name="bandstr">   -277.58438341 </i>
    <i name="atom">  44510.64448639 </i>
    <i name="e_fr_energy">   -114.58826770 </i>
    <i name="e_wo_entrp">   -114.57196139 </i>
    <i name="e_0_energy">   -114.58283226 </i>
   </energy>
  </scstep>
  <dipole>
   <v name="dipole">      0.00000000       0.00000000      -0.00465865 </v>
   <i name="Tr[quadrupol]">  -1669.92118711 </i>
   <i name="Echarged">      0.00000000 </i>
   <i name="Edipol_quadrupol">      0.00000000 </i>
   <i name="Eion">      0.00000000 </i>
  </dipole>
  <structure>
   <crystal>
    <varray name="basis" >
     <v>       5.13359547       0.00000000       0.00000000 </v>
     <v>       2.56679773       4.44582409       0.00000000 </v>
     <v>       0.00000000       0.00000000      29.67047119 </v>
    </varray>
    <i name="volume">    677.17101477 </i>
    <varray name="rec_basis" >
     <v>       0.19479525      -0.11246509       0.00000000 </v>
     <v>       0.00000000       0.22493018       0.00000000 </v>
     <v>       0.00000000       0.00000000       0.03370354 </v>
    </varray>
   </crystal>
   <varray name="positions" >
    <v>       0.00000000       0.00000000       0.00000000 </v>
    <v>       0.00000000       0.50000000       0.00000000 </v>
    <v>       0.50000000       0.00000000       0.00000000 </v>
    <v>       0.50000000       0.50000000       0.00000000 </v>
    <v>       0.16666667       0.16666667       0.07063526 </v>
    <v>       0.16666667       0.66666667       0.07063526 </v>
    <v>       0.66666667       0.16666667       0.07063526 </v>
    <v>       0.66666667       0.66666667       0.07063526 </v>
    <v>       0.33333333       0.33333333       0.14052695 </v>
    <v>       0.33333333       0.83333333       0.14052695 </v>
    <v>       0.83333333       0.33333333       0.14052695 </v>
    <v>       0.83333333       0.83333333       0.14052695 </v>
    <v>      -0.00000000      -0.00000000       0.21139273 </v>
    <v>       0.00000000       0.50000000       0.21139273 </v>
    <v>       0.50000000      -0.00000000       0.21139273 </v>
    <v>       0.50000000       0.50000000       0.21139273 </v>
    <v>       0.16666667       0.16666667       0.28302504 </v>
    <v>       0.16666667       0.66666667       0.28302504 </v>
    <v>       0.66666667       0.16666667       0.28302504 </v>
    <v>       0.66666667       0.66666667       0.28302504 </v>
    <v>       0.33333333       0.33333333       0.35164480 </v>
    <v>       0.33333333       0.83333333       0.35164480 </v>
    <v>       0.83333333       0.33333333       0.35164480 </v>
    <v>       0.83333333       0.83333333       0.35164480 </v>
    <v>       0.00000000      -0.00000000       0.42024535 </v>
    <v>       0.00000000       0.50000000       0.42024535 </v>
    <v>       0.50000000       0.00000000       0.42024535 </v>
    <v>       0.50000000       0.50000000       0.42024535 </v>
    <v>       0.16666667       0.16666667       0.48936592 </v>
    <v>       0.16666667       0.66666667       0.48936592 </v>
    <v>       0.66666667       0.16666667       0.48936592 </v>
    <v>       0.66666667       0.66666667       0.48936592 </v>
   </varray>
  </structure>
  <varray name="forces" >
   <v>       0.00000000      -0.00000000       0.13918673 </v>
   <v>       0.00000000       0.00000000       0.13918673 </v>
   <v>       0.00000000       0.00000000       0.13918673 </v>
   <v>      -0.00000000       0.00000000       0.13918673 </v>
   <v>       0.00000000       0.00000000       0.13412631 </v>
   <v>       0.00000000       0.00000000       0.13412631 </v>
   <v>       0.00000000       0.00000000       0.13412631 </v>
   <v>       0.00000000       0.00000000       0.13412631 </v>
   <v>      -0.00000000      -0.00000000       0.04675740 </v>
   <v>      -0.00000000      -0.00000000       0.04675740 </v>
   <v>      -0.00000000      -0.00000000       0.04675740 </v>
   <v>      -0.00000000       0.00000000       0.04675740 </v>
   <v>      -0.00000000       0.00000000       0.07622530 </v>
   <v>      -0.00000000       0.00000000       0.07622530 </v>
   <v>      -0.00000000       0.00000000       0.07622530 </v>
   <v>      -0.00000000       0.00000000       0.07622530 </v>
   <v>       0.00000000       0.00000000      -0.35040473 </v>
   <v>      -0.00000000       0.00000000      -0.35040473 </v>
   <v>      -0.00000000      -0.00000000      -0.35040473 </v>
   <v>      -0.00000000       0.00000000      -0.35040473 </v>
   <v>       0.00000000      -0.00000000       0.05471060 </v>
   <v>      -0.00000000      -0.00000000       0.05471060 </v>
   <v>      -0.00000000       0.00000000       0.05471060 </v>
   <v>       0.00000000      -0.00000000       0.05471060 </v>
   <v>       0.00000000      -0.00000000      -0.12897457 </v>
   <v>       0.00000000       0.00000000      -0.12897457 </v>
   <v>       0.00000000      -0.00000000      -0.12897457 </v>
[...]
       <r>    12.7308     0.0542   228.0143 </r>
       <r>    12.8096    -0.0945   228.0069 </r>
       <r>    12.8885    -0.0619   228.0020 </r>
       <r>    12.9673    -0.0205   228.0004 </r>
       <r>    13.0461    -0.0043   228.0001 </r>
       <r>    13.1250    -0.0006   228.0000 </r>
       <r>    13.2038    -0.0001   228.0000 </r>
       <r>    13.2827    -0.0000   228.0000 </r>
       <r>    13.3615    -0.0000   228.0000 </r>
       <r>    13.4404    -0.0000   228.0000 </r>
       <r>    13.5192    -0.0000   228.0000 </r>
       <r>    13.5981    -0.0000   228.0000 </r>
       <r>    13.6769    -0.0000   228.0000 </r>
       <r>    13.7558    -0.0000   228.0000 </r>
       <r>    13.8346     0.0000   228.0000 </r>
       <r>    13.9135     0.0000   228.0000 </r>
       <r>    13.9923     0.0000   228.0000 </r>
       <r>    14.0712     0.0000   228.0000 </r>
       <r>    14.1500     0.0000   228.0000 </r>
       <r>    14.2289     0.0000   228.0000 </r>
       <r>    14.3077     0.0000   228.0000 </r>
       <r>    14.3866     0.0000   228.0000 </r>
       <r>    14.4654     0.0000   228.0000 </r>
      </set>
      <set comment="spin 2">
       <r>    -9.1888     0.0000     0.0000 </r>
       <r>    -9.1100     0.0000     0.0000 </r>
       <r>    -9.0311     0.0000     0.0000 </r>
       <r>    -8.9523     0.0000     0.0000 </r>
       <r>    -8.8735     0.0000     0.0000 </r>
       <r>    -8.7946    -0.0000    -0.0000 </r>
       <r>    -8.7158    -0.0000    -0.0000 </r>
       <r>    -8.6369    -0.0000    -0.0000 </r>
       <r>    -8.5581    -0.0000    -0.0000 </r>
       <r>    -8.4792    -0.0000    -0.0000 </r>
       <r>    -8.4004    -0.0000    -0.0000 </r>
       <r>    -8.3215    -0.0000    -0.0000 </r>
       <r>    -8.2427    -0.0000    -0.0000 </r>
       <r>    -8.1638    -0.0000    -0.0000 </r>
       <r>    -8.0850    -0.0000    -0.0000 </r>
       <r>    -8.0061    -0.0000    -0.0000 </r>
       <r>    -7.9273    -0.0000    -0.0000 </r>
       <r>    -7.8484    -0.0000    -0.0000 </r>
       <r>    -7.7696    -0.0002    -0.0000 </r>
       <r>    -7.6907    -0.0013    -0.0001 </r>
       <r>    -7.6119    -0.0061    -0.0006 </r>
       <r>    -7.5330    -0.0172    -0.0020 </r>
       <r>    -7.4542    -0.0232    -0.0038 </r>
       <r>    -7.3753     0.0244    -0.0019 </r>
       <r>    -7.2965     0.1770     0.0121 </r>
       <r>    -7.2177     0.3759     0.0417 </r>
       <r>    -7.1388     0.4440     0.0767 </r>
       <r>    -7.0600     0.3062     0.1009 </r>
       <r>    -6.9811     0.1311     0.1112 </r>
       <r>    -6.9023     0.1336     0.1218 </r>
       <r>    -6.8234     0.3049     0.1458 </r>
       <r>    -6.7446     0.4103     0.1781 </r>
       <r>    -6.6657     0.2691     0.1994 </r>
       <r>    -6.5869     0.0263     0.2014 </r>
       <r>    -6.5080     0.1366     0.2122 </r>
       <r>    -6.4292     0.9736     0.2890 </r>
       <r>    -6.3503     2.1942     0.4620 </r>
       <r>    -6.2715     2.7589     0.6795 </r>
       <r>    -6.1926     2.1871     0.8520 </r>
       <r>    -6.1138     1.3566     0.9589 </r>
       <r>    -6.0349     1.4100     1.0701 </r>
       <r>    -5.9561     2.2624     1.2485 </r>
       <r>    -5.8772     2.7064     1.4619 </r>
       <r>    -5.7984     2.0037     1.6199 </r>
       <r>    -5.7196     0.7614     1.6799 </r>
       <r>    -5.6407    -0.0946     1.6725 </r>
       <r>    -5.5619    -0.2965     1.6491 </r>
       <r>    -5.4830     0.1766     1.6630 </r>
       <r>    -5.4042     1.3979     1.7732 </r>
       <r>    -5.3253     2.7969     1.9937 </r>
       <r>    -5.2465     3.1590     2.2428 </r>
       <r>    -5.1676     2.1053     2.4088 </r>
       <r>    -5.0888     0.6449     2.4597 </r>
       <r>    -5.0099    -0.1894     2.4447 </r>
       <r>    -4.9311    -0.1695     2.4314 </r>
       <r>    -4.8522     0.6064     2.4792 </r>
       <r>    -4.7734     1.8163     2.6224 </r>
       <r>    -4.6945     2.7865     2.8421 </r>
       <r>    -4.6157     3.2993     3.1022 </r>
       <r>    -4.5368     3.9227     3.4115 </r>
       <r>    -4.4580     4.7085     3.7828 </r>
       <r>    -4.3791     4.6941     4.1529 </r>
       <r>    -4.3003     3.4880     4.4279 </r>
       <r>    -4.2214     2.2077     4.6020 </r>
       <r>    -4.1426     1.9813     4.7582 </r>
       <r>    -4.0638     2.5711     4.9609 </r>
       <r>    -3.9849     3.4215     5.2307 </r>
       <r>    -3.9061     4.5658     5.5907 </r>
       <r>    -3.8272     5.6014     6.0324 </r>
       <r>    -3.7484     5.6724     6.4796 </r>
       <r>    -3.6695     4.8190     6.8596 </r>
       <r>    -3.5907     3.8598     7.1639 </r>
       <r>    -3.5118     3.3904     7.4313 </r>
       <r>    -3.4330     3.4599     7.7041 </r>
       <r>    -3.3541     3.6451     7.9915 </r>
       <r>    -3.2753     3.4809     8.2659 </r>
       <r>    -3.1964     3.1059     8.5108 </r>
       <r>    -3.1176     3.3898     8.7781 </r>
       <r>    -3.0387     4.8266     9.1587 </r>
       <r>    -2.9599     6.5925     9.6785 </r>
       <r>    -2.8810     8.1008    10.3172 </r>
       <r>    -2.8022    10.4953    11.1447 </r>
       <r>    -2.7233    14.8246    12.3136 </r>
       <r>    -2.6445    20.1810    13.9048 </r>
       <r>    -2.5657    24.5050    15.8370 </r>
       <r>    -2.4868    25.8633    17.8763 </r>
       <r>    -2.4080    23.6426    19.7404 </r>
       <r>    -2.3291    19.8132    21.3026 </r>
       <r>    -2.2503    17.9711    22.7196 </r>
       <r>    -2.1714    20.2488    24.3162 </r>
       <r>    -2.0926    25.8169    26.3518 </r>
       <r>    -2.0137    32.1728    28.8885 </r>
       <r>    -1.9349    36.7143    31.7834 </r>
       <r>    -1.8560    37.9946    34.7791 </r>
       <r>    -1.7772    36.3738    37.6471 </r>
       <r>    -1.6983    33.0094    40.2498 </r>
       <r>    -1.6195    29.5609    42.5806 </r>
       <r>    -1.5406    28.0837    44.7950 </r>
       <r>    -1.4618    29.4225    47.1148 </r>
       <r>    -1.3829    33.4183    49.7498 </r>
       <r>    -1.3041    39.7031    52.8803 </r>
       <r>    -1.2252    46.0995    56.5151 </r>
       <r>    -1.1464    49.2932    60.4018 </r>
       <r>    -1.0676    49.7795    64.3267 </r>
       <r>    -0.9887    52.3243    68.4524 </r>
       <r>    -0.9099    58.4611    73.0619 </r>
       <r>    -0.8310    63.5235    78.0706 </r>
       <r>    -0.7522    63.6554    83.0896 </r>
       <r>    -0.6733    60.3777    87.8502 </r>
       <r>    -0.5945    57.1027    92.3527 </r>
       <r>    -0.5156    55.2691    96.7105 </r>
       <r>    -0.4368    54.6901   101.0227 </r>
       <r>    -0.3579    54.7465   105.3393 </r>
       <r>    -0.2791    54.0207   109.5987 </r>
       <r>    -0.2002    51.9657   113.6960 </r>
       <r>    -0.1214    50.1632   117.6513 </r>
       <r>    -0.0425    49.7254   121.5720 </r>
       <r>     0.0363    51.7461   125.6520 </r>
       <r>     0.1152    58.3972   130.2565 </r>
       <r>     0.1940    67.8352   135.6052 </r>
       <r>     0.2729    73.8436   141.4275 </r>
       <r>     0.3517    74.5337   147.3043 </r>
       <r>     0.4306    73.9896   153.1382 </r>
       <r>     0.5094    72.8886   158.8853 </r>
       <r>     0.5882    64.8482   163.9984 </r>
       <r>     0.6671    45.9218   167.6192 </r>
       <r>     0.7459    22.5406   169.3965 </r>
       <r>     0.8248     5.4752   169.8282 </r>
       <r>     0.9036    -0.9468   169.7536 </r>
       <r>     0.9825    -0.3853   169.7232 </r>
       <r>     1.0613     1.7197   169.8588 </r>
       <r>     1.1402     2.8802   170.0859 </r>
       <r>     1.2190     3.4791   170.3602 </r>
       <r>     1.2979     4.3293   170.7016 </r>
       <r>     1.3767     5.1233   171.1055 </r>
       <r>     1.4556     4.7852   171.4828 </r>
       <r>     1.5344     3.0580   171.7239 </r>
       <r>     1.6133     1.6498   171.8540 </r>
       <r>     1.6921     2.8484   172.0786 </r>
       <r>     1.7710     6.6851   172.6057 </r>
       <r>     1.8498    10.4593   173.4304 </r>
       <r>     1.9287    11.6198   174.3466 </r>
       <r>     2.0075    10.4598   175.1713 </r>
       <r>     2.0863     9.2192   175.8982 </r>
       <r>     2.1652     8.7470   176.5879 </r>
       <r>     2.2440     7.5262   177.1813 </r>
       <r>     2.3229     4.8076   177.5604 </r>
       <r>     2.4017     2.5000   177.7575 </r>
       <r>     2.4806     2.4585   177.9514 </r>
       <r>     2.5594     4.1351   178.2774 </r>
       <r>     2.6383     5.9017   178.7428 </r>
       <r>     2.7171     6.6593   179.2678 </r>
       <r>     2.7960     6.1332   179.7514 </r>
       <r>     2.8748     5.1035   180.1538 </r>
       <r>     2.9537     4.3959   180.5004 </r>
       <r>     3.0325     3.5938   180.7838 </r>
       <r>     3.1114     2.3855   180.9719 </r>
       <r>     3.1902     1.7850   181.1126 </r>
       <r>     3.2691     2.6347   181.3204 </r>
       <r>     3.3479     4.6250   181.6850 </r>
       <r>     3.4268     7.1821   182.2513 </r>
       <r>     3.5056     9.6122   183.0092 </r>
       <r>     3.5844    10.4707   183.8348 </r>
       <r>     3.6633     8.7132   184.5218 </r>
       <r>     3.7421     5.5449   184.9590 </r>
       <r>     3.8210     3.3113   185.2201 </r>
       <r>     3.8998     2.5848   185.4239 </r>
       <r>     3.9787     2.0778   185.5877 </r>
       <r>     4.0575     1.0797   185.6729 </r>
       <r>     4.1364     0.1137   185.6818 </r>
       <r>     4.2152    -0.3792   185.6519 </r>
       <r>     4.2941    -0.3673   185.6230 </r>
       <r>     4.3729     0.5010   185.6625 </r>
       <r>     4.4518     2.5713   185.8652 </r>
       <r>     4.5306     4.8809   186.2501 </r>
       <r>     4.6095     5.6931   186.6989 </r>
       <r>     4.6883     4.8350   187.0802 </r>
       <r>     4.7672     3.5974   187.3638 </r>
       <r>     4.8460     2.4965   187.5607 </r>
       <r>     4.9249     1.2775   187.6614 </r>
       <r>     5.0037     0.1687   187.6747 </r>
       <r>     5.0826    -0.3729   187.6453 </r>
       <r>     5.1614    -0.0971   187.6376 </r>
       <r>     5.2402     1.2334   187.7349 </r>
       <r>     5.3191     3.4382   188.0060 </r>
       <r>     5.3979     5.4856   188.4385 </r>
       <r>     5.4768     6.5343   188.9537 </r>
       <r>     5.5556     6.9981   189.5055 </r>
       <r>     5.6345     7.4195   190.0905 </r>
       <r>     5.7133     7.2847   190.6649 </r>
       <r>     5.7922     6.2200   191.1553 </r>
       <r>     5.8710     4.8043   191.5341 </r>
       <r>     5.9499     3.4667   191.8075 </r>
       <r>     6.0287     2.2206   191.9826 </r>
       <r>     6.1076     1.5326   192.1034 </r>
       <r>     6.1864     2.3980   192.2925 </r>
       <r>     6.2653     5.0208   192.6884 </r>
       <r>     6.3441     7.5590   193.2844 </r>
       <r>     6.4230     7.6516   193.8877 </r>
       <r>     6.5018     5.3360   194.3084 </r>
       <r>     6.5807     2.9391   194.5401 </r>
       <r>     6.6595     2.4519   194.7335 </r>
       <r>     6.7383     3.9490   195.0448 </r>
       <r>     6.8172     5.9540   195.5143 </r>
       <r>     6.8960     6.8558   196.0548 </r>
       <r>     6.9749     6.3690   196.5570 </r>
       <r>     7.0537     5.5636   196.9957 </r>
       <r>     7.1326     5.5119   197.4303 </r>
       <r>     7.2114     6.6977   197.9584 </r>
       <r>     7.2903     8.6978   198.6442 </r>
       <r>     7.3691     9.4967   199.3930 </r>
       <r>     7.4480     7.4719   199.9821 </r>
       <r>     7.5268     4.1788   200.3116 </r>
       <r>     7.6057     2.3765   200.4990 </r>
       <r>     7.6845     2.4931   200.6956 </r>
       <r>     7.7634     3.3766   200.9618 </r>
       <r>     7.8422     4.5245   201.3185 </r>
       <r>     7.9211     5.5258   201.7542 </r>
       <r>     7.9999     5.2799   202.1705 </r>
       <r>     8.0788     3.8675   202.4755 </r>
       <r>     8.1576     3.3431   202.7391 </r>
       <r>     8.2364     5.0557   203.1377 </r>
       <r>     8.3153     8.1530   203.7806 </r>
       <r>     8.3941    11.1361   204.6586 </r>
       <r>     8.4730    12.6556   205.6565 </r>
       <r>     8.5518    11.3308   206.5499 </r>
       <r>     8.6307     7.2273   207.1197 </r>
       <r>     8.7095     3.0126   207.3573 </r>
       <r>     8.7884     1.7053   207.4917 </r>
       <r>     8.8672     3.3117   207.7528 </r>
       <r>     8.9461     4.8087   208.1320 </r>
       <r>     9.0249     3.9659   208.4447 </r>
       <r>     9.1038     2.3741   208.6319 </r>
       <r>     9.1826     3.3407   208.8953 </r>
       <r>     9.2615     7.0989   209.4550 </r>
       <r>     9.3403     9.8082   210.2284 </r>
       <r>     9.4192     8.2437   210.8784 </r>
       <r>     9.4980     3.9486   211.1897 </r>
       <r>     9.5769     1.0366   211.2714 </r>
       <r>     9.6557     1.4772   211.3879 </r>
       <r>     9.7346     3.9647   211.7005 </r>
       <r>     9.8134     6.3007   212.1973 </r>
       <r>     9.8922     8.1939   212.8434 </r>
       <r>     9.9711    10.9698   213.7083 </r>
       <r>    10.0499    14.0648   214.8173 </r>
       <r>    10.1288    14.4150   215.9539 </r>
       <r>    10.2076    10.6739   216.7955 </r>
       <r>    10.2865     5.2062   217.2060 </r>
       <r>    10.3653     1.3976   217.3162 </r>
       <r>    10.4442     1.3115   217.4196 </r>
       <r>    10.5230     4.7431   217.7936 </r>
       <r>    10.6019     8.4380   218.4589 </r>
       <r>    10.6807     8.6581   219.1416 </r>
       <r>    10.7596     6.1363   219.6254 </r>
       <r>    10.8384     5.0237   220.0215 </r>
       <r>    10.9173     6.5188   220.5355 </r>
       <r>    10.9961     8.1240   221.1760 </r>
       <r>    11.0750     8.7559   221.8664 </r>
       <r>    11.1538     9.4500   222.6115 </r>
       <r>    11.2327     9.7208   223.3780 </r>
       <r>    11.3115     8.2697   224.0300 </r>
       <r>    11.3903     6.5836   224.5491 </r>
       <r>    11.4692     7.4529   225.1368 </r>
       <r>    11.5480    10.2033   225.9413 </r>
       <r>    11.6269    10.8666   226.7981 </r>
       <r>    11.7057     7.5823   227.3959 </r>
       <r>    11.7846     2.9396   227.6277 </r>
       <r>    11.8634     0.1061   227.6361 </r>
       <r>    11.9423    -0.5572   227.5921 </r>
       <r>    12.0211    -0.3549   227.5642 </r>
       <r>    12.1000    -0.1702   227.5507 </r>
       <r>    12.1788    -0.1172   227.5415 </r>
       <r>    12.2577     0.0511   227.5455 </r>
       <r>    12.3365     0.6085   227.5935 </r>
       <r>    12.4154     1.4213   227.7056 </r>
       <r>    12.4942     1.8323   227.8500 </r>
       <r>    12.5731     1.4211   227.9621 </r>
       <r>    12.6519     0.6086   228.0101 </r>
       <r>    12.7308     0.0542   228.0143 </r>
       <r>    12.8096    -0.0945   228.0069 </r>
       <r>    12.8885    -0.0619   228.0020 </r>
       <r>    12.9673    -0.0205   228.0004 </r>
       <r>    13.0461    -0.0043   228.0001 </r>
       <r>    13.1250    -0.0006   228.0000 </r>
       <r>    13.2038    -0.0001   228.0000 </r>
       <r>    13.2827    -0.0000   228.0000 </r>
       <r>    13.3615    -0.0000   228.0000 </r>
       <r>    13.4404    -0.0000   228.0000 </r>
       <r>    13.5192    -0.0000   228.0000 </r>
       <r>    13.5981    -0.0000   228.0000 </r>
       <r>    13.6769    -0.0000   228.0000 </r>
       <r>    13.7558    -0.0000   228.0000 </r>
       <r>    13.8346     0.0000   228.0000 </r>
       <r>    13.9135     0.0000   228.0000 </r>
       <r>    13.9923     0.0000   228.0000 </r>
       <r>    14.0712     0.0000   228.0000 </r>
       <r>    14.1500     0.0000   228.0000 </r>
       <r>    14.2289     0.0000   228.0000 </r>
       <r>    14.3077     0.0000   228.0000 </r>
       <r>    14.3866     0.0000   228.0000 </r>
       <r>    14.4654     0.0000   228.0000 </r>
      </set>
     </set>
    </array>
   </total>
  </dos>
 </calculation>
 <structure name="finalpos" >
  <crystal>
   <varray name="basis" >
    <v>       5.13359547       0.00000000       0.00000000 </v>
    <v>       2.56679773       4.44582409       0.00000000 </v>
    <v>       0.00000000       0.00000000      29.67047119 </v>
   </varray>
   <i name="volume">    677.17101477 </i>
   <varray name="rec_basis" >
    <v>       0.19479525      -0.11246509       0.00000000 </v>
    <v>       0.00000000       0.22493018       0.00000000 </v>
    <v>       0.00000000       0.00000000       0.03370354 </v>
   </varray>
  </crystal>
  <varray name="positions" >
   <v>       0.00000000       0.00000000       0.00000000 </v>
   <v>       0.00000000       0.50000000       0.00000000 </v>
   <v>       0.50000000       0.00000000       0.00000000 </v>
   <v>       0.50000000       0.50000000       0.00000000 </v>
   <v>       0.16666667       0.16666667       0.07063526 </v>
   <v>       0.16666667       0.66666667       0.07063526 </v>
   <v>       0.66666667       0.16666667       0.07063526 </v>
   <v>       0.66666667       0.66666667       0.07063526 </v>
   <v>       0.33333333       0.33333333       0.13847021 </v>
   <v>       0.33333333       0.83333333       0.13847021 </v>
   <v>       0.83333333       0.33333333       0.13847021 </v>
   <v>       0.83333333       0.83333333       0.13847021 </v>
   <v>      -0.00000000      -0.00000000       0.20667428 </v>
   <v>       0.00000000       0.50000000       0.20667428 </v>
   <v>       0.50000000      -0.00000000       0.20667428 </v>
   <v>       0.50000000       0.50000000       0.20667428 </v>
   <v>       0.16666667       0.16666667       0.27488859 </v>
   <v>       0.16666667       0.66666667       0.27488859 </v>
   <v>       0.66666667       0.16666667       0.27488859 </v>
   <v>       0.66666667       0.66666667       0.27488859 </v>
   <v>       0.33333333       0.33333333       0.34319917 </v>
   <v>       0.33333333       0.83333333       0.34319917 </v>
   <v>       0.83333333       0.33333333       0.34319917 </v>
   <v>       0.83333333       0.83333333       0.34319917 </v>
   <v>       0.00000000       0.00000000       0.41105828 </v>
   <v>       0.00000000       0.50000000       0.41105828 </v>
   <v>       0.50000000       0.00000000       0.41105828 </v>
   <v>       0.50000000       0.50000000       0.41105828 </v>
   <v>       0.16666667       0.16666667       0.48054462 </v>
   <v>       0.16666667       0.66666667       0.48054462 </v>
   <v>       0.66666667       0.16666667       0.48054462 </v>
   <v>       0.66666667       0.66666667       0.48054462 </v>
  </varray>
  <varray name="selective"  type="logical" >
   <v type="logical" >  F  F  F </v>
   <v type="logical" >  F  F  F </v>
   <v type="logical" >  F  F  F </v>
   <v type="logical" >  F  F  F </v>
   <v type="logical" >  F  F  F </v>
   <v type="logical" >  F  F  F </v>
   <v type="logical" >  F  F  F </v>
   <v type="logical" >  F  F  F </v>
   <v type="logical" >  T  T  T </v>
   <v type="logical" >  T  T  T </v>
   <v type="logical" >  T  T  T </v>
   <v type="logical" >  T  T  T </v>
   <v type="logical" >  T  T  T </v>
   <v type="logical" >  T  T  T </v>
   <v type="logical" >  T  T  T </v>
   <v type="logical" >  T  T  T </v>
   <v type="logical" >  T  T  T </v>
   <v type="logical" >  T  T  T </v>
   <v type="logical" >  T  T  T </v>
   <v type="logical" >  T  T  T </v>
   <v type="logical" >  T  T  T </v>
   <v type="logical" >  T  T  T </v>
   <v type="logical" >  T  T  T </v>
   <v type="logical" >  T  T  T </v>
   <v type="logical" >  T  T  T </v>
   <v type="logical" >  T  T  T </v>
   <v type="logical" >  T  T  T </v>
   <v type="logical" >  T  T  T </v>
   <v type="logical" >  T  T  T </v>
   <v type="logical" >  T  T  T </v>
   <v type="logical" >  T  T  T </v>
   <v type="logical" >  T  T  T </v>
  </varray>
  <nose>
   <v>      -3.00000000       0.00000000       0.00010000       0.00010000 </v>
  </nose>
 </structure>
</modeling>
