       N       E                     dE             d eps       ncg     rms          rms(c)
DAV:   1     0.322964546093E+04    0.32296E+04   -0.12663E+05  3648   0.174E+03
DAV:   2     0.369598062932E+03   -0.28600E+04   -0.27376E+04  3648   0.408E+02
DAV:   3    -0.101149322160E+03   -0.47075E+03   -0.42399E+03  3648   0.209E+02
DAV:   4    -0.131993927763E+03   -0.30845E+02   -0.29941E+02  4088   0.759E+01
DAV:   5    -0.132706340610E+03   -0.71241E+00   -0.71034E+00  4072   0.107E+01    0.514E+01
DAV:   6    -0.108229793726E+03    0.24477E+02   -0.31602E+02  3900   0.122E+02    0.265E+01
DAV:   7    -0.932804889991E+02    0.14949E+02   -0.78112E+01  3968   0.787E+01    0.129E+01
DAV:   8    -0.915040996916E+02    0.17764E+01   -0.20758E+01  4232   0.703E+01    0.126E+01
DAV:   9    -0.889746411193E+02    0.25295E+01   -0.59078E+00  5092   0.351E+01    0.960E+00
DAV:  10    -0.893569790591E+02   -0.38234E+00   -0.42119E+00  5376   0.351E+01    0.921E+00
DAV:  11    -0.890509235077E+02    0.30606E+00   -0.62954E+00  4608   0.340E+01    0.715E+00
DAV:  12    -0.926603598411E+02   -0.36094E+01   -0.27139E+00  5100   0.160E+01    0.435E+00
DAV:  13    -0.960193909677E+02   -0.33590E+01   -0.27846E+00  4604   0.289E+01    0.380E+00
DAV:  14    -0.991490760365E+02   -0.31297E+01   -0.28452E+00  4892   0.252E+01    0.233E+00
DAV:  15    -0.103026815816E+03   -0.38777E+01   -0.29282E+00  5552   0.135E+01    0.190E+00
DAV:  16    -0.107029251259E+03   -0.40024E+01   -0.34891E+00  4160   0.858E+00    0.113E+00
DAV:  17    -0.108775741211E+03   -0.17465E+01   -0.12463E+00  3916   0.403E+00    0.995E-01
DAV:  18    -0.109701406510E+03   -0.92567E+00   -0.82638E-01  4908   0.446E+00    0.799E-01
DAV:  19    -0.110059676781E+03   -0.35827E+00   -0.17121E-01  4424   0.365E+00    0.612E-01
DAV:  20    -0.110469704968E+03   -0.41003E+00   -0.96987E-02  4384   0.257E+00    0.537E-01
DAV:  21    -0.110654298533E+03   -0.18459E+00   -0.53586E-02  5096   0.158E+00    0.375E-01
DAV:  22    -0.110921078378E+03   -0.26678E+00   -0.22704E-02  4708   0.140E+00    0.359E-01
DAV:  23    -0.111204513052E+03   -0.28343E+00   -0.24250E-02  4820   0.131E+00    0.253E-01
DAV:  24    -0.111311860593E+03   -0.10735E+00   -0.11622E-02  4816   0.643E-01    0.185E-01
DAV:  25    -0.111538077165E+03   -0.22622E+00   -0.62785E-03  4488   0.582E-01    0.144E-01
DAV:  26    -0.111614541923E+03   -0.76465E-01   -0.33556E-03  4692   0.393E-01    0.650E-02
DAV:  27    -0.111646942026E+03   -0.32400E-01   -0.14740E-03  3792   0.269E-01    0.458E-02
DAV:  28    -0.111655130336E+03   -0.81883E-02   -0.39889E-04  2588   0.213E-01    0.324E-02
DAV:  29    -0.111657500897E+03   -0.23706E-02   -0.24182E-04  2592   0.174E-01    0.190E-02
DAV:  30    -0.111658490106E+03   -0.98921E-03   -0.12931E-04  2512   0.566E-02    0.133E-02
DAV:  31    -0.111658598767E+03   -0.10866E-03   -0.40975E-05  2360   0.546E-02
   1 F= -.12352100E+03 E0= -.12350473E+03  d E =-.123521E+03  mag=    -0.0018
       N       E                     dE             d eps       ncg     rms          rms(c)
DAV:   1    -0.111674128956E+03   -0.15639E-01   -0.20501E+01  3996   0.946E+00    0.446E-01
DAV:   2    -0.111713386231E+03   -0.39257E-01   -0.41157E-01  5560   0.479E+00    0.630E-01
DAV:   3    -0.111709581297E+03    0.38049E-02   -0.31063E-02  4104   0.366E+00    0.284E-01
DAV:   4    -0.111709104705E+03    0.47659E-03   -0.84882E-03  4340   0.153E+00    0.256E-01
DAV:   5    -0.111709058848E+03    0.45857E-04   -0.40265E-03  3920   0.800E-01    0.215E-01
DAV:   6    -0.111708538484E+03    0.52036E-03   -0.21130E-03  3884   0.538E-01    0.128E-01
DAV:   7    -0.111708476199E+03    0.62286E-04   -0.18482E-03  4360   0.802E-01
   2 F= -.12358639E+03 E0= -.12357050E+03  d E =-.653881E-01  mag=    -0.0012
       N       E                     dE             d eps       ncg     rms          rms(c)
DAV:   1    -0.111384748800E+03    0.32379E+00   -0.19086E+02  4052   0.305E+01    0.144E+00
DAV:   2    -0.111806091905E+03   -0.42134E+00   -0.43756E+00  5736   0.159E+01    0.201E+00
DAV:   3    -0.111756293913E+03    0.49798E-01   -0.26765E-01  4100   0.114E+01    0.814E-01
DAV:   4    -0.111754327456E+03    0.19665E-02   -0.79982E-02  4328   0.441E+00    0.768E-01
DAV:   5    -0.111754125141E+03    0.20232E-03   -0.43662E-02  3860   0.278E+00    0.639E-01
DAV:   6    -0.111750230004E+03    0.38951E-02   -0.16423E-02  4344   0.154E+00    0.436E-01
DAV:   7    -0.111748868427E+03    0.13616E-02   -0.19273E-02  5852   0.229E+00    0.217E-01
DAV:   8    -0.111747824368E+03    0.10441E-02   -0.51298E-03  5220   0.156E+00    0.886E-02
DAV:   9    -0.111747863883E+03   -0.39515E-04   -0.17546E-03  3860   0.369E-01
   3 F= -.12367345E+03 E0= -.12365957E+03  d E =-.152453E+00  mag=    -0.0007
       N       E                     dE             d eps       ncg     rms          rms(c)
DAV:   1    -0.111728030501E+03    0.19794E-01   -0.14032E+01  3984   0.791E+00    0.307E-01
DAV:   2    -0.111753101395E+03   -0.25071E-01   -0.26334E-01  5480   0.323E+00    0.413E-01
DAV:   3    -0.111752046953E+03    0.10544E-02   -0.19083E-02  4056   0.215E+00    0.209E-01
DAV:   4    -0.111752037087E+03    0.98658E-05   -0.45289E-03  4000   0.790E-01    0.195E-01
DAV:   5    -0.111752093841E+03   -0.56754E-04   -0.20020E-03  3768   0.102E+00    0.185E-01
DAV:   6    -0.111751512789E+03    0.58105E-03   -0.12280E-03  3784   0.772E-01    0.859E-02
DAV:   7    -0.111751571436E+03   -0.58647E-04   -0.17083E-03  4564   0.721E-01
   4 F= -.12369566E+03 E0= -.12368303E+03  d E =-.222077E-01  mag=    -0.0004
       N       E                     dE             d eps       ncg     rms          rms(c)
DAV:   1    -0.111589101167E+03    0.16241E+00   -0.78349E+01  3976   0.190E+01    0.757E-01
DAV:   2    -0.111749417169E+03   -0.16032E+00   -0.16695E+00  5584   0.884E+00    0.110E+00
DAV:   3    -0.111735822431E+03    0.13595E-01   -0.82429E-02  4440   0.558E+00    0.521E-01
DAV:   4    -0.111736177332E+03   -0.35490E-03   -0.28883E-02  4284   0.240E+00    0.533E-01
DAV:   5    -0.111735335223E+03    0.84211E-03   -0.13074E-02  3952   0.218E+00    0.450E-01
DAV:   6    -0.111732274640E+03    0.30606E-02   -0.96676E-03  5556   0.148E+00    0.256E-01
DAV:   7    -0.111732049360E+03    0.22528E-03   -0.77389E-03  4424   0.173E+00    0.173E-01
DAV:   8    -0.111731758289E+03    0.29107E-03   -0.29912E-03  4792   0.814E-01    0.731E-02
DAV:   9    -0.111731693966E+03    0.64324E-04   -0.39360E-04  2464   0.271E-01
   5 F= -.12371957E+03 E0= -.12371041E+03  d E =-.461189E-01  mag=    -0.0002
       N       E                     dE             d eps       ncg     rms          rms(c)
DAV:   1    -0.111687504394E+03    0.44254E-01   -0.24563E+01  3988   0.106E+01    0.347E-01
DAV:   2    -0.111732977223E+03   -0.45473E-01   -0.45223E-01  5688   0.433E+00    0.550E-01
DAV:   3    -0.111730181224E+03    0.27960E-02   -0.31031E-02  4216   0.356E+00    0.319E-01
DAV:   4    -0.111729745109E+03    0.43612E-03   -0.10628E-02  3976   0.155E+00    0.278E-01
DAV:   5    -0.111729571319E+03    0.17379E-03   -0.44198E-03  3964   0.944E-01    0.251E-01
DAV:   6    -0.111728628040E+03    0.94328E-03   -0.69270E-03  5336   0.780E-01    0.111E-01
DAV:   7    -0.111728538581E+03    0.89459E-04   -0.82307E-04  3804   0.519E-01
   6 F= -.12374287E+03 E0= -.12373567E+03  d E =-.233024E-01  mag=    -0.0001
       N       E                     dE             d eps       ncg     rms          rms(c)
DAV:   1    -0.111283190184E+03    0.44544E+00   -0.22757E+02  4100   0.340E+01    0.117E+00
DAV:   2    -0.111766106906E+03   -0.48292E+00   -0.46578E+00  5960   0.172E+01    0.211E+00
DAV:   3    -0.111707499562E+03    0.58607E-01   -0.36891E-01  5364   0.128E+01    0.101E+00
DAV:   4    -0.111700133614E+03    0.73659E-02   -0.80344E-02  4292   0.424E+00    0.900E-01
DAV:   5    -0.111699696209E+03    0.43740E-03   -0.54259E-02  3968   0.268E+00    0.817E-01
DAV:   6    -0.111688203504E+03    0.11493E-01   -0.41561E-02  5092   0.239E+00    0.340E-01
DAV:   7    -0.111687261674E+03    0.94183E-03   -0.17907E-02  5888   0.180E+00    0.194E-01
DAV:   8    -0.111686728902E+03    0.53277E-03   -0.42880E-03  4336   0.136E+00    0.955E-02
DAV:   9    -0.111686729444E+03   -0.54198E-06   -0.12902E-03  3724   0.429E-01
   7 F= -.12378162E+03 E0= -.12378095E+03  d E =-.620497E-01  mag=    -0.0001
       N       E                     dE             d eps       ncg     rms          rms(c)
DAV:   1    -0.111641380084E+03    0.45349E-01   -0.15181E+01  3984   0.833E+00    0.270E-01
DAV:   2    -0.111669054552E+03   -0.27674E-01   -0.27474E-01  5720   0.330E+00    0.413E-01
DAV:   3    -0.111667655961E+03    0.13986E-02   -0.19604E-02  4112   0.275E+00    0.244E-01
DAV:   4    -0.111667427042E+03    0.22892E-03   -0.66422E-03  3880   0.122E+00    0.206E-01
DAV:   5    -0.111667334240E+03    0.92802E-04   -0.26588E-03  3860   0.745E-01    0.188E-01
DAV:   6    -0.111666842332E+03    0.49191E-03   -0.39290E-03  5336   0.572E-01    0.784E-02
DAV:   7    -0.111666795744E+03    0.46588E-04   -0.41793E-04  2700   0.382E-01
   8 F= -.12378313E+03 E0= -.12378408E+03  d E =-.635573E-01  mag=    -0.0000
       N       E                     dE             d eps       ncg     rms          rms(c)
DAV:   1    -0.111599378710E+03    0.67464E-01   -0.40405E+01  3968   0.138E+01    0.431E-01
DAV:   2    -0.111676854031E+03   -0.77475E-01   -0.73571E-01  6040   0.620E+00    0.781E-01
DAV:   3    -0.111668085460E+03    0.87686E-02   -0.67898E-02  4856   0.510E+00    0.404E-01
DAV:   4    -0.111668054215E+03    0.31246E-04   -0.19336E-02  3872   0.154E+00    0.370E-01
DAV:   5    -0.111667544880E+03    0.50934E-03   -0.82856E-03  4036   0.106E+00    0.321E-01
DAV:   6    -0.111666229626E+03    0.13153E-02   -0.13541E-02  4552   0.132E+00    0.185E-01
DAV:   7    -0.111665944950E+03    0.28468E-03   -0.26271E-03  4568   0.535E-01    0.181E-01
DAV:   8    -0.111665559937E+03    0.38501E-03   -0.26412E-03  3884   0.680E-01    0.785E-02
DAV:   9    -0.111665517156E+03    0.42781E-04   -0.64617E-04  3372   0.407E-01
   9 F= -.12380401E+03 E0= -.12380674E+03  d E =-.208804E-01  mag=    -0.0000
       N       E                     dE             d eps       ncg     rms          rms(c)
DAV:   1    -0.111069994692E+03    0.59557E+00   -0.32241E+02  4016   0.414E+01    0.134E+00
DAV:   2    -0.111744222520E+03   -0.67423E+00   -0.63901E+00  6192   0.199E+01    0.249E+00
DAV:   3    -0.111652103521E+03    0.92119E-01   -0.57654E-01  5104   0.152E+01    0.117E+00
DAV:   4    -0.111647865815E+03    0.42377E-02   -0.14173E-01  4116   0.454E+00    0.107E+00
DAV:   5    -0.111645791099E+03    0.20747E-02   -0.88801E-02  4112   0.297E+00    0.920E-01
DAV:   6    -0.111628967918E+03    0.16823E-01   -0.75573E-02  5496   0.339E+00    0.360E-01
DAV:   7    -0.111628838705E+03    0.12921E-03   -0.15816E-02  4976   0.174E+00    0.239E-01
DAV:   8    -0.111628332803E+03    0.50590E-03   -0.70602E-03  3792   0.163E+00    0.914E-02
DAV:   9    -0.111628318069E+03    0.14734E-04   -0.12322E-03  3992   0.487E-01
  10 F= -.12382936E+03 E0= -.12383661E+03  d E =-.462279E-01  mag=    -0.0000
       N       E                     dE             d eps       ncg     rms          rms(c)
DAV:   1    -0.111600293586E+03    0.28039E-01   -0.18571E+01  3988   0.933E+00    0.323E-01
DAV:   2    -0.111636308162E+03   -0.36015E-01   -0.36417E-01  5528   0.370E+00    0.474E-01
DAV:   3    -0.111635282667E+03    0.10255E-02   -0.31931E-02  3916   0.318E+00    0.310E-01
DAV:   4    -0.111634707430E+03    0.57524E-03   -0.79585E-03  3912   0.152E+00    0.227E-01
DAV:   5    -0.111634585873E+03    0.12156E-03   -0.38526E-03  4100   0.747E-01    0.207E-01
DAV:   6    -0.111634021914E+03    0.56396E-03   -0.38313E-03  5152   0.719E-01    0.707E-02
DAV:   7    -0.111634041452E+03   -0.19538E-04   -0.94149E-04  3528   0.572E-01
  11 F= -.12383320E+03 E0= -.12384172E+03  d E =-.384621E-02  mag=    -0.0000
       N       E                     dE             d eps       ncg     rms          rms(c)
DAV:   1    -0.111631011630E+03    0.30103E-02   -0.23074E+00  3988   0.327E+00    0.100E-01
DAV:   2    -0.111635164067E+03   -0.41524E-02   -0.41407E-02  5556   0.119E+00    0.168E-01
DAV:   3    -0.111635003038E+03    0.16103E-03   -0.39604E-03  3928   0.104E+00    0.106E-01
DAV:   4    -0.111634979509E+03    0.23529E-04   -0.77757E-04  3236   0.317E-01
  12 F= -.12383481E+03 E0= -.12384284E+03  d E =-.545916E-02  mag=    -0.0000
