 vasp.6.3.2 27Jun22 (build Aug 17 2022 15:43:34) complex                        
  
 executed on           tv2STDVTST date 2025.01.21  16:38:48
 running   20 mpi-ranks, with    1 threads/rank
 distrk:  each k-point on   20 cores,    1 groups
 distr:  one band on NCORE=   5 cores,    4 groups


--------------------------------------------------------------------------------------------------------


 -----------------------------------------------------------------------------
|                                                                             |
|           W    W    AA    RRRRR   N    N  II  N    N   GGGG   !!!           |
|           W    W   A  A   R    R  NN   N  II  NN   N  G    G  !!!           |
|           W    W  A    A  R    R  N N  N  II  N N  N  G       !!!           |
|           W WW W  AAAAAA  RRRRR   N  N N  II  N  N N  G  GGG   !            |
|           WW  WW  A    A  R   R   N   NN  II  N   NN  G    G                |
|           W    W  A    A  R    R  N    N  II  N    N   GGGG   !!!           |
|                                                                             |
|     Found issues when parsing the INCAR file                                |
|     In line 64: Tagname --- R W I G S contains invalid characters.          |
|     Please check if the interpretation in the OUTCAR file is correct.       |
|                                                                             |
 -----------------------------------------------------------------------------

 INCAR:
    = \=\=\=\=\=\=\=\=\=\=\=\=\=\=\=\=\=\=\=\=\=\=\=\=\=\=\=\=\=\=\=\=\=\=\=\=\=\=\=\=\=\=\=\=\=\=\=\=\=\=\=\=\=\=\=\=\=\=\=\=\=\=\=\=\=\=\=\=\=\=\=\=
    = \=\=\=\=\=\=\=\=\=\=\=\=\=\=\=\=\=\=\=\=\=\=\=\=\=\=\=\=\=\=\=\=\=\=\=\=\=\=\=\=\=\=\=\=\=\=\=\=\=\=\=\=\=\=\=\=\=\=\=\=\=\=\=\=\=\=\=\=\=\=\=\=
   ISTART = 0
   ICHARG = 2
   IPIPOL = 3
   IVDW = 11
   IDIPOL = 3
   IVDW = 11
    = \=\=\=\=\=\=\=\=\=\=\=\=\=\=\=\=\=\=\=\=\=\=\=\=\=\=\=\=\=\=\=\=\=\=\=\=\=\=\=\=\=\=\=\=\=\=\=\=\=\=\=\=\=\=\=\=\=\=\=\=\=\=\=\=\=\=\=\=\=\=\=\=
    = \=\=\=\=\=\=\=\=\=\=\=\=\=\=\=\=\=\=\=\=\=\=\=\=\=\=\=\=\=\=\=\=\=\=\=\=\=\=\=\=\=\=\=\=\=\=\=\=\=\=\=\=\=\=\=\=\=\=\=\=\=\=\=\=\=\=\=\=\=\=\=\=
   ISPIN = 2
    = \=\=\=\=\=\=\=\=\=\=\=\=\=\=\=\=\=\=\=\=\=\=\=\=\=\=\=\=\=\=\=\=\=\=\=\=\=\=\=\=\=\=\=\=\=\=\=\=\=\=\=\=\=\=\=\=\=\=\=\=\=\=\=\=\=\=\=\=\=\=\=\=
    = \=\=\=\=\=\=\=\=\=\=\=\=\=\=\=\=\=\=\=\=\=\=\=\=\=\=\=\=\=\=\=\=\=\=\=\=\=\=\=\=\=\=\=\=\=\=\=\=\=\=\=\=\=\=\=\=\=\=\=\=\=\=\=\=\=\=\=\=\=\=\=\=
   ENCUT = 400
   PREC = Normal
   EDIFF = 2E-04
   GGA = PE
   ISMEAR = 1
   SIGMA = 0.2
   LREAL = .FALSE.
    = \=\=\=\=\=\=\=\=\=\=\=\=\=\=\=\=\=\=\=\=\=\=\=\=\=\=\=\=\=\=\=\=\=\=\=\=\=\=\=\=\=\=\=\=\=\=\=\=\=\=\=\=\=\=\=\=\=\=\=\=\=\=\=\=\=\=\=\=\=\=\=\=
    = \=\=\=\=\=\=\=\=\=\=\=\=\=\=\=\=\=\=\=\=\=\=\=\=\=\=\=\=\=\=\=\=\=\=\=\=\=\=\=\=\=\=\=\=\=\=\=\=\=\=\=\=\=\=\=\=\=\=\=\=\=\=\=\=\=\=\=\=\=\=\=\=
   ISYM = 1
   NSW = 800
   IBRION = 2
   POTIM = 0.5
   ISIF = 2
   EDIFFG = -.03
    = \=\=\=\=\=\=\=\=\=\=\=\=\=\=\=\=\=\=\=\=\=\=\=\=\=\=\=\=\=\=\=\=\=\=\=\=\=\=\=\=\=\=\=\=\=\=\=\=\=\=\=\=\=\=\=\=\=\=\=\=\=\=\=\=\=\=\=\=\=\=\=\=
    = \=\=\=\=\=\=\=\=\=\=\=\=\=\=\=\=\=\=\=\=\=\=\=\=\=\=\=\=\=\=\=\=\=\=\=\=\=\=\=\=\=\=\=\=\=\=\=\=\=\=\=\=\=\=\=\=\=\=\=\=\=\=\=\=\=\=\=\=\=\=\=\=
   NPAR = 4
   LWAVE = .FALSE.
   LCHARG = .FALSE.

 POTCAR:    PAW_PBE Cu 22Jun2005                  
 -----------------------------------------------------------------------------
|                                                                             |
|           W    W    AA    RRRRR   N    N  II  N    N   GGGG   !!!           |
|           W    W   A  A   R    R  NN   N  II  NN   N  G    G  !!!           |
|           W    W  A    A  R    R  N N  N  II  N N  N  G       !!!           |
|           W WW W  AAAAAA  RRRRR   N  N N  II  N  N N  G  GGG   !            |
|           WW  WW  A    A  R   R   N   NN  II  N   NN  G    G                |
|           W    W  A    A  R    R  N    N  II  N    N   GGGG   !!!           |
|                                                                             |
|     You use a magnetic or noncollinear calculation, but did not specify     |
|     the initial magnetic moment with the MAGMOM tag. Note that a            |
|     default of 1 will be used for all atoms. This ferromagnetic setup       |
|     may break the symmetry of the crystal, in particular it may rule        |
|     out finding an antiferromagnetic solution. Thence, we recommend         |
|     setting the initial magnetic moment manually or verifying carefully     |
|     that this magnetic setup is desired.                                    |
|                                                                             |
 -----------------------------------------------------------------------------

 POTCAR:    PAW_PBE Cu 22Jun2005                  
   SHA256 =  0e71e558f37a4e8407882b4609ceaae59938afaad9ced71dfe8490308a0ab630 Cu/POTCAR             
   COPYR  = (c) Copyright 22Jun2005 Georg Kresse                                                    
   COPYR  = This file is part of the software VASP. Any use, copying, and all other rights are regul
   COPYR  = If you do not have a valid VASP license, you may not use, copy or distribute this file. 
   VRHFIN =Cu: d10 p1                                                                               
   LEXCH  = PE                                                                                      
   EATOM  =  1390.9808 eV,  102.2342 Ry                                                             
                                                                                                    
   TITEL  = PAW_PBE Cu 22Jun2005                                                                    
   LULTRA =        F    use ultrasoft PP ?                                                          
   IUNSCR =        1    unscreen: 0-lin 1-nonlin 2-no                                               
   RPACOR =    2.000    partial core radius                                                         
   POMASS =   63.546; ZVAL   =   11.000    mass and valenz                                          
   RCORE  =    2.300    outmost cutoff radius                                                       
   RWIGS  =    2.200; RWIGS  =    1.164    wigner-seitz radius (au A)                               
   ENMAX  =  295.446; ENMIN  =  221.585 eV                                                          
   ICORE  =        3    local potential                                                             
   LCOR   =        T    correct aug charges                                                         
   LPAW   =        T    paw PP                                                                      
   EAUG   =  586.980                                                                                
   DEXC   =    0.000                                                                                
   RMAX   =    2.344    core radius for proj-oper                                                   
   RAUG   =    1.300    factor for augmentation sphere                                              
   RDEP   =    2.302    radius for radial grids                                                     
   RDEPT  =    1.771    core radius for aug-charge                                                  
                                                                                                    
   Atomic configuration                                                                             
    9 entries                                                                                       
     n  l   j            E        occ.                                                              
     1  0  0.50     -8850.2468   2.0000                                                             
     2  0  0.50     -1062.3498   2.0000                                                             
     2  1  1.50      -916.8226   6.0000                                                             
     3  0  0.50      -114.6929   2.0000                                                             
     3  1  1.50       -72.1325   6.0000                                                             
     3  2  2.50        -5.0394  10.0000                                                             
     4  0  0.50        -4.6097   1.0000                                                             
     4  1  0.50        -4.0817   0.0000                                                             
     4  3  2.50        -1.3606   0.0000                                                             
   Description                                                                                      
     l       E           TYP  RCUT    TYP  RCUT                                                     
     2     -5.0393973     23  2.200                                                                 
     2     10.8846608     23  2.200                                                                 
     0     -4.6097109     23  2.200                                                                 
     0      8.2520465     23  2.200                                                                 
     1     -2.7211652     23  2.200                                                                 
     1     21.7055443     23  2.200                                                                 
     3      2.7211652     23  2.300                                                                 
  local pseudopotential read in
  partial core-charges read in
  partial kinetic energy density read in
  atomic valenz-charges read in
  non local Contribution for L=           2  read in
    real space projection operators read in
  non local Contribution for L=           2  read in
    real space projection operators read in
  non local Contribution for L=           0  read in
    real space projection operators read in
  non local Contribution for L=           0  read in
    real space projection operators read in
  non local Contribution for L=           1  read in
    real space projection operators read in
  non local Contribution for L=           1  read in
    real space projection operators read in
    PAW grid and wavefunctions read in
 
   number of l-projection  operators is LMAX  =           6
   number of lm-projection operators is LMMAX =          18
 
 -----------------------------------------------------------------------------
|                                                                             |
|               ----> ADVICE to this user running VASP <----                  |
|                                                                             |
|     You have a (more or less) 'large supercell' and for larger cells it     |
|     might be more efficient to use real-space projection operators.         |
|     Therefore, try LREAL= Auto in the INCAR file.                           |
|     Mind: For very accurate calculation, you might also keep the            |
|     reciprocal projection scheme (i.e. LREAL=.FALSE.).                      |
|                                                                             |
 -----------------------------------------------------------------------------

  PAW_PBE Cu 22Jun2005                  :
 energy of atom  1       EATOM=-1390.9808
 kinetic energy error for atom=    0.0232 (will be added to EATOM!!)
 
 
 POSCAR: FCC Cu
  positions in cartesian coordinates
  velocities in cartesian coordinates
  No initial velocities read in
 exchange correlation table for  LEXCH =        8
   RHO(1)=    0.500       N(1)  =     2000
   RHO(2)=  100.500       N(2)  =     4000

 VTST: version 4.2, (08/11/21)

 CHAIN: initializing optimizer
 
 OPT: Using VASP Conjugate-Gradient optimizer
 CHAIN: Read ICHAIN            0
 
 POSCAR: FCC Cu
  positions in cartesian coordinates
  velocities in cartesian coordinates
  No initial velocities read in
 


--------------------------------------------------------------------------------------------------------


 ion  position               nearest neighbor table
   1  0.000  0.000  0.000-   9 2.57   6 2.57   5 2.57   8 2.57   7 2.57   2 2.57   2 2.57
   2  0.000  0.500  0.000-  10 2.57   5 2.57   6 2.57   7 2.57   8 2.57   1 2.57   1 2.57
   3  0.500  0.000  0.000-  11 2.57   8 2.57   6 2.57   7 2.57   5 2.57   4 2.57   4 2.57
   4  0.500  0.500  0.000-  12 2.57   7 2.57   5 2.57   8 2.57   6 2.57   3 2.57   3 2.57
   5  0.250  0.250  0.054-  13 2.57  10 2.57  12 2.57   9 2.57  11 2.57   2 2.57   4 2.57   1 2.57
                             3 2.57   6 2.57   6 2.57
   6  0.250  0.750  0.054-  14 2.57   9 2.57  11 2.57  10 2.57  12 2.57   1 2.57   3 2.57   2 2.57
                             4 2.57   5 2.57   5 2.57
   7  0.750  0.250  0.054-  15 2.57  12 2.57  11 2.57  10 2.57   4 2.57   9 2.57   3 2.57   2 2.57
                             1 2.57   8 2.57   8 2.57
   8  0.750  0.750  0.054-  16 2.57  11 2.57  12 2.57   9 2.57  10 2.57   3 2.57   4 2.57   1 2.57
                             2 2.57   7 2.57   7 2.57
   9  0.000  0.000  0.107-   1 2.57  17 2.57   6 2.57   5 2.57   8 2.57   7 2.57  14 2.57  13 2.57
                            16 2.57  15 2.57  10 2.57  10 2.57
  10  0.000  0.500  0.107-   2 2.57  18 2.57   5 2.57   6 2.57   7 2.57  13 2.57   8 2.57  14 2.57
                            15 2.57  16 2.57   9 2.57   9 2.57
  11  0.500  0.000  0.107-   3 2.57  19 2.57   8 2.57   6 2.57   7 2.57   5 2.57  16 2.57  14 2.57
                            15 2.57  13 2.57  12 2.57  12 2.57
  12  0.500  0.500  0.107-   4 2.57  20 2.57   7 2.57   5 2.57   8 2.57   6 2.57  15 2.57  13 2.57
                            16 2.57  14 2.57  11 2.57  11 2.57
  13  0.250  0.250  0.161-   5 2.57  21 2.57  18 2.57  20 2.57  10 2.57  17 2.57  12 2.57  19 2.57
                             9 2.57  11 2.57  14 2.57  14 2.57
  14  0.250  0.750  0.161-   6 2.57  22 2.57  17 2.57  19 2.57  18 2.57  20 2.57   9 2.57  11 2.57
                            10 2.57  12 2.57  13 2.57  13 2.57
  15  0.750  0.250  0.161-   7 2.57  23 2.57  20 2.57  12 2.57  19 2.57  18 2.57  11 2.57  10 2.57
                            17 2.57   9 2.57  16 2.57  16 2.57
  16  0.750  0.750  0.161-   8 2.57  24 2.57  19 2.57  20 2.57  11 2.57  17 2.57  12 2.57  18 2.57
                             9 2.57  10 2.57  15 2.57  15 2.57
  17  0.000  0.000  0.214-  25 2.57   9 2.57  22 2.57  14 2.57  13 2.57  21 2.57  24 2.57  16 2.57
                            15 2.57  23 2.57  18 2.57  18 2.57
  18  0.000  0.500  0.214-  26 2.57  10 2.57  21 2.57  13 2.57  22 2.57  14 2.57  23 2.57  15 2.57
                            24 2.57  16 2.57  17 2.57  17 2.57
  19  0.500  0.000  0.214-  27 2.57  11 2.57  24 2.57  16 2.57  14 2.57  22 2.57  15 2.57  23 2.57
                            13 2.57  21 2.57  20 2.57  20 2.57
  20  0.500  0.500  0.214-  28 2.57  12 2.57  23 2.57  15 2.57  13 2.57  21 2.57  24 2.57  16 2.57
                            22 2.57  14 2.57  19 2.57  19 2.57
  21  0.250  0.250  0.268-  13 2.57  29 2.57  26 2.57  28 2.57  18 2.57  20 2.57  25 2.57  27 2.57
                            17 2.57  19 2.57  22 2.57  22 2.57
  22  0.250  0.750  0.268-  14 2.57  30 2.57  25 2.57  27 2.57  17 2.57  19 2.57  26 2.57  28 2.57
                            18 2.57  20 2.57  21 2.57  21 2.57
  23  0.750  0.250  0.268-  15 2.57  31 2.57  28 2.57  20 2.57  27 2.57  19 2.57  26 2.57  18 2.57
                            25 2.57  17 2.57  24 2.57  24 2.57
  24  0.750  0.750  0.268-  16 2.57  32 2.57  27 2.57  19 2.57  28 2.57  20 2.57  25 2.57  17 2.57
                            26 2.57  18 2.57  23 2.57  23 2.57
  25  0.000  0.000  0.321-  17 2.57  22 2.57  21 2.57  30 2.57  24 2.57  29 2.57  23 2.57  32 2.57
                            31 2.57  26 2.57  26 2.57
  26  0.000  0.500  0.321-  18 2.57  21 2.57  22 2.57  29 2.57  23 2.57  30 2.57  24 2.57  31 2.57
                            32 2.57  25 2.57  25 2.57
  27  0.500  0.000  0.321-  19 2.57  24 2.57  22 2.57  23 2.57  21 2.57  32 2.57  30 2.57  31 2.57
                            29 2.57  28 2.57  28 2.57
  28  0.500  0.500  0.321-  20 2.57  23 2.57  21 2.57  24 2.57  22 2.57  31 2.57  29 2.57  32 2.57
                            30 2.57  27 2.57  27 2.57
  29  0.250  0.250  0.375-  21 2.57  26 2.57  28 2.57  25 2.57  27 2.57  30 2.57  30 2.57
  30  0.250  0.750  0.375-  22 2.57  25 2.57  27 2.57  26 2.57  28 2.57  29 2.57  29 2.57
  31  0.750  0.250  0.375-  23 2.57  28 2.57  27 2.57  26 2.57  25 2.57  32 2.57  32 2.57
  32  0.750  0.750  0.375-  24 2.57  27 2.57  28 2.57  25 2.57  26 2.57  31 2.57  31 2.57
 
  LATTYP: Found a simple orthorhombic cell.
 ALAT       =     5.1335954666
 B/A-ratio  =     1.4142135422
 C/A-ratio  =     4.6719285747
  
  Lattice vectors:
  
 A1 = (   0.0000000000,  -5.1335954666,   0.0000000000)
 A2 = (   7.2600002289,   0.0000000000,   0.0000000000)
 A3 = (   0.0000000000,   0.0000000000,  23.9837913513)


Analysis of symmetry for initial positions (statically):
=====================================================================
 Subroutine PRICEL returns following result:
 
  LATTYP: Found a simple orthorhombic cell.
 ALAT       =     2.5667977330
 B/A-ratio  =     1.4142135422
 C/A-ratio  =     9.3438571505
  
  Lattice vectors:
  
 A1 = (   0.0000000000,  -2.5667977330,   0.0000000000)
 A2 = (   3.6300001140,   0.0000000000,   0.0000000000)
 A3 = (   0.0000000000,   0.0000000000,  23.9837913513)
 
   4 primitive cells build up your supercell.
 

 Routine SETGRP: Setting up the symmetry group for a 
 simple orthorhombic supercell.


 Subroutine GETGRP returns: Found  8 space group operations
 (whereof  4 operations were pure point group operations)
 out of a pool of  8 trial point group operations.


The static configuration has the point symmetry C_2v.
 The point group associated with its full space group is D_2h.


Analysis of symmetry for dynamics (positions and initial velocities):
=====================================================================
 Subroutine PRICEL returns following result:
 
  LATTYP: Found a simple orthorhombic cell.
 ALAT       =     2.5667977330
 B/A-ratio  =     1.4142135422
 C/A-ratio  =     9.3438571505
  
  Lattice vectors:
  
 A1 = (   0.0000000000,  -2.5667977330,   0.0000000000)
 A2 = (   3.6300001140,   0.0000000000,   0.0000000000)
 A3 = (   0.0000000000,   0.0000000000,  23.9837913513)
 
   4 primitive cells build up your supercell.
 

 Routine SETGRP: Setting up the symmetry group for a 
 simple orthorhombic supercell.


 Subroutine GETGRP returns: Found  8 space group operations
 (whereof  4 operations were pure point group operations)
 out of a pool of  8 trial point group operations.


The dynamic configuration has the point symmetry C_2v.
 The point group associated with its full space group is D_2h.


Analysis of constrained symmetry for selective dynamics:
=====================================================================
 Subroutine PRICEL returns following result:
 
  LATTYP: Found a simple orthorhombic cell.
 ALAT       =     2.5667977330
 B/A-ratio  =     1.4142135422
 C/A-ratio  =     9.3438571505
  
  Lattice vectors:
  
 A1 = (   0.0000000000,  -2.5667977330,   0.0000000000)
 A2 = (   3.6300001140,   0.0000000000,   0.0000000000)
 A3 = (   0.0000000000,   0.0000000000,  23.9837913513)
 
   4 primitive cells build up your supercell.
 

 Routine SETGRP: Setting up the symmetry group for a 
 simple orthorhombic supercell.


 Subroutine GETGRP returns: Found  4 space group operations
 (whereof  4 operations were pure point group operations)
 out of a pool of  8 trial point group operations.


The constrained configuration has the point symmetry C_2v.


Analysis of structural, dynamic, and magnetic symmetry:
=====================================================================
 Subroutine PRICEL returns following result:
 
  LATTYP: Found a simple orthorhombic cell.
 ALAT       =     2.5667977330
 B/A-ratio  =     1.4142135422
 C/A-ratio  =     9.3438571505
  
  Lattice vectors:
  
 A1 = (   0.0000000000,  -2.5667977330,   0.0000000000)
 A2 = (   3.6300001140,   0.0000000000,   0.0000000000)
 A3 = (   0.0000000000,   0.0000000000,  23.9837913513)
 
   4 primitive cells build up your supercell.
 

 Routine SETGRP: Setting up the symmetry group for a 
 simple orthorhombic supercell.


 Subroutine GETGRP returns: Found  4 space group operations
 (whereof  4 operations were pure point group operations)
 out of a pool of  8 trial point group operations.


The overall configuration has the point symmetry C_2v.


 Subroutine INISYM returns: Found  4 space group operations
 (whereof  4 operations are pure point group operations),
 and found     4 'primitive' translations


----------------------------------------------------------------------------------------

                                     Primitive cell                                     

  volume of cell :     223.4684

  direct lattice vectors                    reciprocal lattice vectors
     0.000000000 -2.566797733  0.000000000     0.000000000 -0.389590495  0.000000000
     3.630000114  0.000000000  0.000000000     0.275482085  0.000000000  0.000000000
     0.000000000  0.000000000 23.983791351     0.000000000  0.000000000  0.041694826

  length of vectors
     2.566797733  3.630000114 23.983791351     0.389590495  0.275482085  0.041694826

  position of ions in fractional coordinates (direct lattice)
     0.000000000  0.000000000  0.000000000
     0.500000000  0.500000000  0.053511090
     0.000000000  0.000000000  0.107022181
     0.500000000  0.500000000  0.160533271
     0.000000000  0.000000000  0.214044362
     0.500000000  0.500000000  0.267555452
     0.000000000  0.000000000  0.321066543
     0.500000000  0.500000000  0.374577633

  ion indices of the primitive-cell ions
   primitive index   ion index
                 1           1
                 2           6
                 3           9
                 4          14
                 5          17
                 6          22
                 7          25
                 8          30

----------------------------------------------------------------------------------------

 
 
 KPOINTS: Auto-mesh                               

Automatic generation of k-mesh.
 Grid dimensions read from file:
 generate k-points for:    3    3    1

 Generating k-lattice:

  Cartesian coordinates                     Fractional coordinates (reciprocal lattice)
     0.045913681  0.000000000  0.000000000     0.333333333  0.000000000  0.000000000
     0.000000000  0.064931749  0.000000000     0.000000000  0.333333333  0.000000000
     0.000000000  0.000000000  0.041694826     0.000000000  0.000000000  1.000000000

  Length of vectors
     0.045913681  0.064931749  0.041694826

  Shift w.r.t. Gamma in fractional coordinates (k-lattice)
     0.000000000  0.000000000  0.000000000

 
 Subroutine IBZKPT returns following result:
 ===========================================
 
 Found      4 irreducible k-points:
 
 Following reciprocal coordinates:
            Coordinates               Weight
  0.000000  0.000000  0.000000      1.000000
  0.333333  0.000000  0.000000      2.000000
  0.000000  0.333333  0.000000      2.000000
  0.333333  0.333333  0.000000      4.000000
 
 Following cartesian coordinates:
            Coordinates               Weight
  0.000000  0.000000  0.000000      1.000000
  0.045914  0.000000  0.000000      2.000000
  0.000000  0.064932  0.000000      2.000000
  0.045914  0.064932  0.000000      4.000000
 


--------------------------------------------------------------------------------------------------------




 Dimension of arrays:
   k-points           NKPTS =      4   k-points in BZ     NKDIM =      4   number of bands    NBANDS=    228
   number of dos      NEDOS =    301   number of ions     NIONS =     32
   non local maximal  LDIM  =      6   non local SUM 2l+1 LMDIM =     18
   total plane-waves  NPLWV = 120960
   max r-space proj   IRMAX =      1   max aug-charges    IRDMAX=   4119
   dimension x,y,z NGX =    36 NGY =   28 NGZ =  120
   dimension x,y,z NGXF=    72 NGYF=   56 NGZF=  240
   support grid    NGXF=    72 NGYF=   56 NGZF=  240
   ions per type =              32
   NGX,Y,Z   is equivalent  to a cutoff of   8.24,  9.07,  8.32 a.u.
   NGXF,Y,Z  is equivalent  to a cutoff of  16.49, 18.13, 16.64 a.u.

 SYSTEM =  unknown system                          
 POSCAR =  FCC Cu                                  

 Startparameter for this run:
   NWRITE =      2    write-flag & timer
   PREC   = normal    normal or accurate (medium, high low for compatibility)
   ISTART =      0    job   : 0-new  1-cont  2-samecut
   ICHARG =      2    charge: 1-file 2-atom 10-const
   ISPIN  =      2    spin polarized calculation?
   LNONCOLLINEAR =      F non collinear calculations
   LSORBIT =      F    spin-orbit coupling
   INIWAV =      1    electr: 0-lowe 1-rand  2-diag
   LASPH  =      F    aspherical Exc in radial PAW
 Electronic Relaxation 1
   ENCUT  =  400.0 eV  29.40 Ry    5.42 a.u.  11.84  8.37 39.11*2*pi/ulx,y,z
   ENINI  =  400.0     initial cutoff
   ENAUG  =  587.0 eV  augmentation charge cutoff
   NELM   =     60;   NELMIN=  2; NELMDL= -5     # of ELM steps 
   EDIFF  = 0.2E-03   stopping-criterion for ELM
   LREAL  =      F    real-space projection
   NLSPLINE    = F    spline interpolate recip. space projectors
   LCOMPAT=      F    compatible to vasp.4.4
   GGA_COMPAT  = T    GGA compatible to vasp.4.4-vasp.4.6
   LMAXPAW     = -100 max onsite density
   LMAXMIX     =    2 max onsite mixed and CHGCAR
   VOSKOWN=      0    Vosko Wilk Nusair interpolation
   ROPT   =    0.00000
 Ionic relaxation
   EDIFFG = -.3E-01   stopping-criterion for IOM
   NSW    =    800    number of steps for IOM
   NBLOCK =      1;   KBLOCK =    800    inner block; outer block 
   IBRION =      2    ionic relax: 0-MD 1-quasi-New 2-CG
   NFREE  =      1    steps in history (QN), initial steepest desc. (CG)
   ISIF   =      2    stress and relaxation
   IWAVPR =     11    prediction:  0-non 1-charg 2-wave 3-comb
   ISYM   =      1    0-nonsym 1-usesym 2-fastsym
   LCORR  =      T    Harris-Foulkes like correction to forces

   POTIM  = 0.5000    time-step for ionic-motion
   TEIN   =    0.0    initial temperature
   TEBEG  =    0.0;   TEEND  =   0.0 temperature during run
   SMASS  =  -3.00    Nose mass-parameter (am)
   estimated Nose-frequenzy (Omega)   =  0.10E-29 period in steps = 0.13E+47 mass=  -0.120E-26a.u.
   SCALEE = 1.0000    scale energy and forces
   NPACO  =    256;   APACO  = 10.0  distance and # of slots for P.C.
   PSTRESS=    0.0 pullay stress

  Mass of Ions in am
   POMASS =  63.55
  Ionic Valenz
   ZVAL   =  11.00
  Atomic Wigner-Seitz radii
   RWIGS  =  -1.00
  virtual crystal weights 
   VCA    =   1.00
   NELECT =     352.0000    total number of electrons
   NUPDOWN=      -1.0000    fix difference up-down

 DOS related values:
   EMIN   =  10.00;   EMAX   =-10.00  energy-range for DOS
   EFERMI =   0.00
   ISMEAR =     1;   SIGMA  =   0.20  broadening in eV -4-tet -1-fermi 0-gaus

 Electronic relaxation 2 (details)
   IALGO  =     38    algorithm
   LDIAG  =      T    sub-space diagonalisation (order eigenvalues)
   LSUBROT=      F    optimize rotation matrix (better conditioning)
   TURBO    =      0    0=normal 1=particle mesh
   IRESTART =      0    0=no restart 2=restart with 2 vectors
   NREBOOT  =      0    no. of reboots
   NMIN     =      0    reboot dimension
   EREF     =   0.00    reference energy to select bands
   IMIX   =      4    mixing-type and parameters
     AMIX     =   0.40;   BMIX     =  1.00
     AMIX_MAG =   1.60;   BMIX_MAG =  1.00
     AMIN     =   0.10
     WC   =   100.;   INIMIX=   1;  MIXPRE=   1;  MAXMIX= -45

 Intra band minimization:
   WEIMIN = 0.0010     energy-eigenvalue tresh-hold
   EBREAK =  0.22E-06  absolut break condition
   DEPER  =   0.30     relativ break condition  

   TIME   =   0.40     timestep for ELM

  volume/ion in A,a.u.               =      27.93       188.50
  Fermi-wavevector in a.u.,A,eV,Ry     =   1.199951  2.267579 19.590805  1.439884
  Thomas-Fermi vector in A             =   2.335800
 
 Write flags
   LWAVE        =      F    write WAVECAR
   LDOWNSAMPLE  =      F    k-point downsampling of WAVECAR
   LCHARG       =      F    write CHGCAR
   LVTOT        =      F    write LOCPOT, total local potential
   LVHAR        =      F    write LOCPOT, Hartree potential only
   LELF         =      F    write electronic localiz. function (ELF)
   LORBIT       =      0    0 simple, 1 ext, 2 COOP (PROOUT), +10 PAW based schemes


 Dipole corrections
   LMONO  =      F    monopole corrections only (constant potential shift)
   LDIPOL =      F    correct potential (dipole corrections)
   IDIPOL =      3    1-x, 2-y, 3-z, 4-all directions 
   EPSILON=  1.0000000 bulk dielectric constant

 Exchange correlation treatment:
   GGA     =    PE    GGA type
   LEXCH   =     8    internal setting for exchange type
   LIBXC   =     F    Libxc                    
   VOSKOWN =     0    Vosko Wilk Nusair interpolation
   LHFCALC =     F    Hartree Fock is set to
   LHFONE  =     F    Hartree Fock one center treatment
   AEXX    =    0.0000 exact exchange contribution

 Linear response parameters
   LEPSILON=     F    determine dielectric tensor
   LRPA    =     F    only Hartree local field effects (RPA)
   LNABLA  =     F    use nabla operator in PAW spheres
   LVEL    =     F    velocity operator in full k-point grid
   CSHIFT  =0.1000    complex shift for real part using Kramers Kronig
   OMEGAMAX=  -1.0    maximum frequency
   DEG_THRESHOLD= 0.2000000E-02 threshold for treating states as degnerate
   RTIME   =   -0.100 relaxation time in fs
  (WPLASMAI=    0.000 imaginary part of plasma frequency in eV, 0.658/RTIME)
   DFIELD  = 0.0000000 0.0000000 0.0000000 field for delta impulse in time
 
  Optional k-point grid parameters
   LKPOINTS_OPT  =     F    use optional k-point grid
   KPOINTS_OPT_MODE=     1    mode for optional k-point grid
 
 Orbital magnetization related:
   ORBITALMAG=     F  switch on orbital magnetization
   LCHIMAG   =     F  perturbation theory with respect to B field
   DQ        =  0.001000  dq finite difference perturbation B field
   LLRAUG    =     F  two centre corrections for induced B field



--------------------------------------------------------------------------------------------------------


 conjugate gradient relaxation of ions
   using selective dynamics as specified on POSCAR
   WARNING: If single coordinates had been selected the selection of coordinates
            is made according to the corresponding   d i r e c t   coordinates!
            Don't support selection of single cartesian coordinates -- sorry ...
  !
 charge density and potential will be updated during run
 spin polarized calculation
 Variant of blocked Davidson
 Davidson routine will perform the subspace rotation
 perform sub-space diagonalisation
    after iterative eigenvector-optimisation
 modified Broyden-mixing scheme, WC =      100.0
 initial mixing is a Kerker type mixing with AMIX =  0.4000 and BMIX =      1.0000
 Hartree-type preconditioning will be used
 using additional bands           52
 reciprocal scheme for non local part
 use partial core corrections
 calculate Harris-corrections to forces 
   (improved forces if not selfconsistent)
 use gradient corrections 
 use of overlap-Matrix (Vanderbilt PP)
 Methfessel and Paxton  Order N= 1 SIGMA  =   0.20


--------------------------------------------------------------------------------------------------------


  energy-cutoff  :      400.00
  volume of cell :      893.87
      direct lattice vectors                 reciprocal lattice vectors
     7.260000229  0.000000000  0.000000000     0.137741042  0.000000000  0.000000000
     0.000000000  5.133595467  0.000000000     0.000000000  0.194795248  0.000000000
     0.000000000  0.000000000 23.983791351     0.000000000  0.000000000  0.041694826

  length of vectors
     7.260000229  5.133595467 23.983791351     0.137741042  0.194795248  0.041694826


 
 k-points in units of 2pi/SCALE and weight: Auto-mesh                               
   0.00000000  0.00000000  0.00000000       0.111
   0.04591368  0.00000000  0.00000000       0.222
   0.00000000  0.06493175  0.00000000       0.222
   0.04591368  0.06493175  0.00000000       0.444
 
 k-points in reciprocal lattice and weights: Auto-mesh                               
   0.00000000  0.00000000  0.00000000       0.111
   0.33333333  0.00000000  0.00000000       0.222
   0.00000000  0.33333333  0.00000000       0.222
   0.33333333  0.33333333  0.00000000       0.444
 
 position of ions in fractional coordinates (direct lattice) 
   0.00000000  0.00000000  0.00000000
   0.00000000  0.50000000  0.00000000
   0.50000000  0.00000000  0.00000000
   0.50000000  0.50000000  0.00000000
   0.25000000  0.25000000  0.05351109
   0.25000000  0.75000000  0.05351109
   0.75000000  0.25000000  0.05351109
   0.75000000  0.75000000  0.05351109
   0.00000000  0.00000000  0.10702218
   0.00000000  0.50000000  0.10702218
   0.50000000  0.00000000  0.10702218
   0.50000000  0.50000000  0.10702218
   0.25000000  0.25000000  0.16053327
   0.25000000  0.75000000  0.16053327
   0.75000000  0.25000000  0.16053327
   0.75000000  0.75000000  0.16053327
   0.00000000  0.00000000  0.21404436
   0.00000000  0.50000000  0.21404436
   0.50000000  0.00000000  0.21404436
   0.50000000  0.50000000  0.21404436
   0.25000000  0.25000000  0.26755545
   0.25000000  0.75000000  0.26755545
   0.75000000  0.25000000  0.26755545
   0.75000000  0.75000000  0.26755545
   0.00000000  0.00000000  0.32106654
   0.00000000  0.50000000  0.32106654
   0.50000000  0.00000000  0.32106654
   0.50000000  0.50000000  0.32106654
   0.25000000  0.25000000  0.37457763
   0.25000000  0.75000000  0.37457763
   0.75000000  0.25000000  0.37457763
   0.75000000  0.75000000  0.37457763
 
 position of ions in cartesian coordinates  (Angst):
   0.00000000  0.00000000  0.00000000
   0.00000000  2.56679773  0.00000000
   3.63000011  0.00000000  0.00000000
   3.63000011  2.56679773  0.00000000
   1.81500006  1.28339887  1.28339883
   1.81500006  3.85019660  1.28339883
   5.44500017  1.28339887  1.28339883
   5.44500017  3.85019660  1.28339883
   0.00000000  0.00000000  2.56679766
   0.00000000  2.56679773  2.56679766
   3.63000011  0.00000000  2.56679766
   3.63000011  2.56679773  2.56679766
   1.81500006  1.28339887  3.85019648
   1.81500006  3.85019660  3.85019648
   5.44500017  1.28339887  3.85019648
   5.44500017  3.85019660  3.85019648
   0.00000000  0.00000000  5.13359531
   0.00000000  2.56679773  5.13359531
   3.63000011  0.00000000  5.13359531
   3.63000011  2.56679773  5.13359531
   1.81500006  1.28339887  6.41699414
   1.81500006  3.85019660  6.41699414
   5.44500017  1.28339887  6.41699414
   5.44500017  3.85019660  6.41699414
   0.00000000  0.00000000  7.70039297
   0.00000000  2.56679773  7.70039297
   3.63000011  0.00000000  7.70039297
   3.63000011  2.56679773  7.70039297
   1.81500006  1.28339887  8.98379180
   1.81500006  3.85019660  8.98379180
   5.44500017  1.28339887  8.98379180
   5.44500017  3.85019660  8.98379180
 


--------------------------------------------------------------------------------------------------------


 k-point   1 :   0.0000 0.0000 0.0000  plane waves:   16305
 k-point   2 :   0.3333 0.0000 0.0000  plane waves:   16258
 k-point   3 :   0.0000 0.3333 0.0000  plane waves:   16197
 k-point   4 :   0.3333 0.3333 0.0000  plane waves:   16263

 maximum and minimum number of plane-waves per node :      3283     3219

 maximum number of plane-waves:     16305
 maximum index in each direction: 
   IXMAX=   11   IYMAX=    8   IZMAX=   39
   IXMIN=  -12   IYMIN=   -8   IZMIN=  -39


 parallel 3D FFT for wavefunctions:
    minimum data exchange during FFTs selected (reduces bandwidth)
 parallel 3D FFT for charge:
    minimum data exchange during FFTs selected (reduces bandwidth)


 total amount of memory used by VASP MPI-rank0    67186. kBytes
=======================================================================

   base      :      30000. kBytes
   nonl-proj :       3555. kBytes
   fftplans  :       2584. kBytes
   grid      :       6053. kBytes
   one-center:        217. kBytes
   wavefun   :      24777. kBytes
 
     INWAV:  cpu time      0.0000: real time      0.0004
 Broyden mixing: mesh for mixing (old mesh)
   NGX = 23   NGY = 17   NGZ = 79
  (NGX  = 72   NGY  = 56   NGZ  =240)
  gives a total of  30889 points

 initial charge density was supplied:
 charge density of overlapping atoms calculated
 number of electron     352.0000000 magnetization      32.0000000
 keeping initial charge density in first step


--------------------------------------------------------------------------------------------------------


 Maximum index for augmentation-charges          307 (set IRDMAX)


--------------------------------------------------------------------------------------------------------


 First call to EWALD:  gamma=   0.184
 Maximum number of real-space cells 3x 5x 1
 Maximum number of reciprocal cells 2x 2x 6

    FEWALD:  cpu time      0.0020: real time      0.0020


--------------------------------------- Iteration      1(   1)  ---------------------------------------


    POTLOK:  cpu time      0.0726: real time      0.0751
    SETDIJ:  cpu time      0.0127: real time      0.0128
     EDDAV:  cpu time      7.3256: real time      7.3859
       DOS:  cpu time      0.0023: real time      0.0023
    --------------------------------------------
      LOOP:  cpu time      7.4132: real time      7.4762

 eigenvalue-minimisations  :  3648
 total energy-change (2. order) : 0.3229645E+04  (-0.1266318E+05)
 number of electron     352.0000000 magnetization      32.0000000
 augmentation part      352.0000000 magnetization      32.0000000

 Free energy of the ion-electron system (eV)
  ---------------------------------------------------
  alpha Z        PSCENC =       837.79172311
  Ewald energy   TEWEN  =    164200.35057137
  -Hartree energ DENC   =   -207326.95496889
  -exchange      EXHF   =         0.00000000
  -V(xc)+E(xc)   XCENC  =      1460.25868550
  PAW double counting   =     39299.11987357   -42685.46980880
  entropy T*S    EENTRO =        -0.00393364
  eigenvalues    EBANDS =      2933.90883232
  atomic energy  EATOM  =     44510.64448639
  Solvation  Ediel_sol  =         0.00000000
  ---------------------------------------------------
  free energy    TOTEN  =      3229.64546093 eV

  energy without entropy =     3229.64939457  energy(sigma->0) =     3229.64677214


--------------------------------------------------------------------------------------------------------




--------------------------------------- Iteration      1(   2)  ---------------------------------------


     EDDAV:  cpu time      7.1926: real time      7.2532
       DOS:  cpu time      0.0025: real time      0.0025
    --------------------------------------------
      LOOP:  cpu time      7.1951: real time      7.2557

 eigenvalue-minimisations  :  3648
 total energy-change (2. order) :-0.2860047E+04  (-0.2737573E+04)
 number of electron     352.0000000 magnetization      32.0000000
 augmentation part      352.0000000 magnetization      32.0000000

 Free energy of the ion-electron system (eV)
  ---------------------------------------------------
  alpha Z        PSCENC =       837.79172311
  Ewald energy   TEWEN  =    164200.35057137
  -Hartree energ DENC   =   -207326.95496889
  -exchange      EXHF   =         0.00000000
  -V(xc)+E(xc)   XCENC  =      1460.25868550
  PAW double counting   =     39299.11987357   -42685.46980880
  entropy T*S    EENTRO =        -0.00333269
  eigenvalues    EBANDS =        73.86083336
  atomic energy  EATOM  =     44510.64448639
  Solvation  Ediel_sol  =         0.00000000
  ---------------------------------------------------
  free energy    TOTEN  =       369.59806293 eV

  energy without entropy =      369.60139562  energy(sigma->0) =      369.59917383


--------------------------------------------------------------------------------------------------------




--------------------------------------- Iteration      1(   3)  ---------------------------------------


     EDDAV:  cpu time      7.2003: real time      7.2579
       DOS:  cpu time      0.0027: real time      0.0027
    --------------------------------------------
      LOOP:  cpu time      7.2030: real time      7.2606

 eigenvalue-minimisations  :  3648
 total energy-change (2. order) :-0.4707474E+03  (-0.4239895E+03)
 number of electron     352.0000000 magnetization      32.0000000
 augmentation part      352.0000000 magnetization      32.0000000

 Free energy of the ion-electron system (eV)
  ---------------------------------------------------
  alpha Z        PSCENC =       837.79172311
  Ewald energy   TEWEN  =    164200.35057137
  -Hartree energ DENC   =   -207326.95496889
  -exchange      EXHF   =         0.00000000
  -V(xc)+E(xc)   XCENC  =      1460.25868550
  PAW double counting   =     39299.11987357   -42685.46980880
  entropy T*S    EENTRO =         0.04654744
  eigenvalues    EBANDS =      -396.93643186
  atomic energy  EATOM  =     44510.64448639
  Solvation  Ediel_sol  =         0.00000000
  ---------------------------------------------------
  free energy    TOTEN  =      -101.14932216 eV

  energy without entropy =     -101.19586961  energy(sigma->0) =     -101.16483798


--------------------------------------------------------------------------------------------------------




--------------------------------------- Iteration      1(   4)  ---------------------------------------


     EDDAV:  cpu time      7.8498: real time      7.9129
       DOS:  cpu time      0.0028: real time      0.0028
    --------------------------------------------
      LOOP:  cpu time      7.8526: real time      7.9157

 eigenvalue-minimisations  :  4088
 total energy-change (2. order) :-0.3084461E+02  (-0.2994126E+02)
 number of electron     352.0000000 magnetization      32.0000000
 augmentation part      352.0000000 magnetization      32.0000000

 Free energy of the ion-electron system (eV)
  ---------------------------------------------------
  alpha Z        PSCENC =       837.79172311
  Ewald energy   TEWEN  =    164200.35057137
  -Hartree energ DENC   =   -207326.95496889
  -exchange      EXHF   =         0.00000000
  -V(xc)+E(xc)   XCENC  =      1460.25868550
  PAW double counting   =     39299.11987357   -42685.46980880
  entropy T*S    EENTRO =         0.04918903
  eigenvalues    EBANDS =      -427.78367905
  atomic energy  EATOM  =     44510.64448639
  Solvation  Ediel_sol  =         0.00000000
  ---------------------------------------------------
  free energy    TOTEN  =      -131.99392776 eV

  energy without entropy =     -132.04311679  energy(sigma->0) =     -132.01032411


--------------------------------------------------------------------------------------------------------




--------------------------------------- Iteration      1(   5)  ---------------------------------------


     EDDAV:  cpu time      7.8572: real time      7.9222
       DOS:  cpu time      0.0030: real time      0.0030
    CHARGE:  cpu time      0.4763: real time      0.4790
    MIXING:  cpu time      0.0071: real time      0.0071
    --------------------------------------------
      LOOP:  cpu time      8.3436: real time      8.4113

 eigenvalue-minimisations  :  4072
 total energy-change (2. order) :-0.7124128E+00  (-0.7103412E+00)
 number of electron     352.0003095 magnetization      29.3149294
 augmentation part      208.6765168 magnetization      28.7060171

 Broyden mixing:
  rms(total) = 0.51423E+01    rms(broyden)= 0.51420E+01
  rms(prec ) = 0.53143E+01
  weight for this iteration     100.00

 Free energy of the ion-electron system (eV)
  ---------------------------------------------------
  alpha Z        PSCENC =       837.79172311
  Ewald energy   TEWEN  =    164200.35057137
  -Hartree energ DENC   =   -207326.95496889
  -exchange      EXHF   =         0.00000000
  -V(xc)+E(xc)   XCENC  =      1460.25868550
  PAW double counting   =     39299.11987357   -42685.46980880
  entropy T*S    EENTRO =         0.04999091
  eigenvalues    EBANDS =      -428.49689378
  atomic energy  EATOM  =     44510.64448639
  Solvation  Ediel_sol  =         0.00000000
  ---------------------------------------------------
  free energy    TOTEN  =      -132.70634061 eV

  energy without entropy =     -132.75633152  energy(sigma->0) =     -132.72300425


--------------------------------------------------------------------------------------------------------




--------------------------------------- Iteration      1(   6)  ---------------------------------------


    POTLOK:  cpu time      0.0685: real time      0.0699
    SETDIJ:  cpu time      0.0163: real time      0.0164
     EDDAV:  cpu time      7.5324: real time      7.5942
       DOS:  cpu time      0.0025: real time      0.0025
    CHARGE:  cpu time      0.4504: real time      0.4527
    MIXING:  cpu time      0.0124: real time      0.0125
    --------------------------------------------
      LOOP:  cpu time      8.0826: real time      8.1481

 eigenvalue-minimisations  :  3900
 total energy-change (2. order) : 0.2447655E+02  (-0.3160244E+02)
 number of electron     352.0003460 magnetization      27.5960207
 augmentation part      235.0368668 magnetization      20.2664241

 Broyden mixing:
  rms(total) = 0.26536E+01    rms(broyden)= 0.26531E+01
  rms(prec ) = 0.27708E+01
  weight for this iteration     100.00

 eigenvalues of (default mixing * dielectric matrix)
  average eigenvalue GAMMA=   0.7930
  0.7930

 Free energy of the ion-electron system (eV)
  ---------------------------------------------------
  alpha Z        PSCENC =       837.79172311
  Ewald energy   TEWEN  =    164200.35057137
  -Hartree energ DENC   =   -206493.05958986
  -exchange      EXHF   =         0.00000000
  -V(xc)+E(xc)   XCENC  =      1423.49556692
  PAW double counting   =     39720.56856219   -42935.58738207
  entropy T*S    EENTRO =        -0.01443297
  eigenvalues    EBANDS =     -1372.41929882
  atomic energy  EATOM  =     44510.64448639
  Solvation  Ediel_sol  =         0.00000000
  ---------------------------------------------------
  free energy    TOTEN  =      -108.22979373 eV

  energy without entropy =     -108.21536075  energy(sigma->0) =     -108.22498273


--------------------------------------------------------------------------------------------------------




--------------------------------------- Iteration      1(   7)  ---------------------------------------


    POTLOK:  cpu time      0.0677: real time      0.0683
    SETDIJ:  cpu time      0.0142: real time      0.0143
     EDDAV:  cpu time      7.6386: real time      7.7009
       DOS:  cpu time      0.0026: real time      0.0027
    CHARGE:  cpu time      0.4606: real time      0.4631
    MIXING:  cpu time      0.0075: real time      0.0075
    --------------------------------------------
      LOOP:  cpu time      8.1913: real time      8.2568

 eigenvalue-minimisations  :  3968
 total energy-change (2. order) : 0.1494930E+02  (-0.7811204E+01)
 number of electron     352.0003342 magnetization      25.7958563
 augmentation part      225.7906755 magnetization      17.7058691

 Broyden mixing:
  rms(total) = 0.12856E+01    rms(broyden)= 0.12854E+01
  rms(prec ) = 0.13119E+01
  weight for this iteration     100.00

 eigenvalues of (default mixing * dielectric matrix)
  average eigenvalue GAMMA=   0.7980
  0.9600  0.6360

 Free energy of the ion-electron system (eV)
  ---------------------------------------------------
  alpha Z        PSCENC =       837.79172311
  Ewald energy   TEWEN  =    164200.35057137
  -Hartree energ DENC   =   -206959.04081208
  -exchange      EXHF   =         0.00000000
  -V(xc)+E(xc)   XCENC  =      1441.28564522
  PAW double counting   =     40540.07003985   -43915.89815358
  entropy T*S    EENTRO =        -0.00372293
  eigenvalues    EBANDS =      -748.48026636
  atomic energy  EATOM  =     44510.64448639
  Solvation  Ediel_sol  =         0.00000000
  ---------------------------------------------------
  free energy    TOTEN  =       -93.28048900 eV

  energy without entropy =      -93.27676607  energy(sigma->0) =      -93.27924802


--------------------------------------------------------------------------------------------------------




--------------------------------------- Iteration      1(   8)  ---------------------------------------


    POTLOK:  cpu time      0.0632: real time      0.0638
    SETDIJ:  cpu time      0.0119: real time      0.0120
     EDDAV:  cpu time      8.0363: real time      8.1015
       DOS:  cpu time      0.0026: real time      0.0028
    CHARGE:  cpu time      0.4477: real time      0.4502
    MIXING:  cpu time      0.0072: real time      0.0073
    --------------------------------------------
      LOOP:  cpu time      8.5690: real time      8.6376

 eigenvalue-minimisations  :  4232
 total energy-change (2. order) : 0.1776389E+01  (-0.2075812E+01)
 number of electron     352.0003304 magnetization      23.7962194
 augmentation part      224.7217950 magnetization      15.8338514

 Broyden mixing:
  rms(total) = 0.12641E+01    rms(broyden)= 0.12640E+01
  rms(prec ) = 0.13276E+01
  weight for this iteration     100.00

 eigenvalues of (default mixing * dielectric matrix)
  average eigenvalue GAMMA=   0.7203
  1.1189  0.6521  0.3899

 Free energy of the ion-electron system (eV)
  ---------------------------------------------------
  alpha Z        PSCENC =       837.79172311
  Ewald energy   TEWEN  =    164200.35057137
  -Hartree energ DENC   =   -206969.92633237
  -exchange      EXHF   =         0.00000000
  -V(xc)+E(xc)   XCENC  =      1443.33356601
  PAW double counting   =     40988.15845310   -44400.91707921
  entropy T*S    EENTRO =        -0.01797596
  eigenvalues    EBANDS =      -700.92151214
  atomic energy  EATOM  =     44510.64448639
  Solvation  Ediel_sol  =         0.00000000
  ---------------------------------------------------
  free energy    TOTEN  =       -91.50409969 eV

  energy without entropy =      -91.48612373  energy(sigma->0) =      -91.49810770


--------------------------------------------------------------------------------------------------------




--------------------------------------- Iteration      1(   9)  ---------------------------------------


    POTLOK:  cpu time      0.0649: real time      0.0671
    SETDIJ:  cpu time      0.0125: real time      0.0125
     EDDAV:  cpu time      9.3120: real time      9.3865
       DOS:  cpu time      0.0027: real time      0.0027
    CHARGE:  cpu time      0.4580: real time      0.4603
    MIXING:  cpu time      0.0102: real time      0.0103
    --------------------------------------------
      LOOP:  cpu time      9.8602: real time      9.9393

 eigenvalue-minimisations  :  5092
 total energy-change (2. order) : 0.2529459E+01  (-0.5907781E+00)
 number of electron     352.0003309 magnetization      20.1044506
 augmentation part      224.0954404 magnetization      11.7729627

 Broyden mixing:
  rms(total) = 0.96037E+00    rms(broyden)= 0.96034E+00
  rms(prec ) = 0.96948E+00
  weight for this iteration     100.00

 eigenvalues of (default mixing * dielectric matrix)
  average eigenvalue GAMMA=   0.8640
  1.1558  1.1558  0.7861  0.3582

 Free energy of the ion-electron system (eV)
  ---------------------------------------------------
  alpha Z        PSCENC =       837.79172311
  Ewald energy   TEWEN  =    164200.35057137
  -Hartree energ DENC   =   -207052.29137826
  -exchange      EXHF   =         0.00000000
  -V(xc)+E(xc)   XCENC  =      1443.69967028
  PAW double counting   =     41370.50085312   -44808.81027364
  entropy T*S    EENTRO =        -0.01408824
  eigenvalues    EBANDS =      -590.84620525
  atomic energy  EATOM  =     44510.64448639
  Solvation  Ediel_sol  =         0.00000000
  ---------------------------------------------------
  free energy    TOTEN  =       -88.97464112 eV

  energy without entropy =      -88.96055287  energy(sigma->0) =      -88.96994504


--------------------------------------------------------------------------------------------------------




--------------------------------------- Iteration      1(  10)  ---------------------------------------


    POTLOK:  cpu time      0.0646: real time      0.0682
    SETDIJ:  cpu time      0.0121: real time      0.0122
     EDDAV:  cpu time      9.7339: real time      9.8153
       DOS:  cpu time      0.0027: real time      0.0027
    CHARGE:  cpu time      0.4495: real time      0.4521
    MIXING:  cpu time      0.0088: real time      0.0088
    --------------------------------------------
      LOOP:  cpu time     10.2716: real time     10.3592

 eigenvalue-minimisations  :  5376
 total energy-change (2. order) :-0.3823379E+00  (-0.4211880E+00)
 number of electron     352.0003316 magnetization      12.9543605
 augmentation part      225.1626180 magnetization       5.5980928

 Broyden mixing:
  rms(total) = 0.92106E+00    rms(broyden)= 0.92101E+00
  rms(prec ) = 0.96489E+00
  weight for this iteration     100.00

 eigenvalues of (default mixing * dielectric matrix)
  average eigenvalue GAMMA=   1.1309
  3.0681  1.0976  0.7200  0.4328  0.3359

 Free energy of the ion-electron system (eV)
  ---------------------------------------------------
  alpha Z        PSCENC =       837.79172311
  Ewald energy   TEWEN  =    164200.35057137
  -Hartree energ DENC   =   -206991.38146452
  -exchange      EXHF   =         0.00000000
  -V(xc)+E(xc)   XCENC  =      1440.02487988
  PAW double counting   =     41723.90405565   -45167.97639699
  entropy T*S    EENTRO =        -0.02820904
  eigenvalues    EBANDS =      -642.68662491
  atomic energy  EATOM  =     44510.64448639
  Solvation  Ediel_sol  =         0.00000000
  ---------------------------------------------------
  free energy    TOTEN  =       -89.35697906 eV

  energy without entropy =      -89.32877002  energy(sigma->0) =      -89.34757604


--------------------------------------------------------------------------------------------------------




--------------------------------------- Iteration      1(  11)  ---------------------------------------


    POTLOK:  cpu time      0.0647: real time      0.0652
    SETDIJ:  cpu time      0.0125: real time      0.0125
     EDDAV:  cpu time      8.6428: real time      8.7162
       DOS:  cpu time      0.0027: real time      0.0027
    CHARGE:  cpu time      0.4655: real time      0.4679
    MIXING:  cpu time      0.0106: real time      0.0106
    --------------------------------------------
      LOOP:  cpu time      9.1987: real time      9.2751

 eigenvalue-minimisations  :  4608
 total energy-change (2. order) : 0.3060556E+00  (-0.6295404E+00)
 number of electron     352.0003347 magnetization       7.9487448
 augmentation part      226.6384747 magnetization       1.7162648

 Broyden mixing:
  rms(total) = 0.71515E+00    rms(broyden)= 0.71509E+00
  rms(prec ) = 0.73770E+00
  weight for this iteration     100.00

 eigenvalues of (default mixing * dielectric matrix)
  average eigenvalue GAMMA=   1.3790
  4.9155  1.0759  0.7788  0.7788  0.3898  0.3352

 Free energy of the ion-electron system (eV)
  ---------------------------------------------------
  alpha Z        PSCENC =       837.79172311
  Ewald energy   TEWEN  =    164200.35057137
  -Hartree energ DENC   =   -207028.03145783
  -exchange      EXHF   =         0.00000000
  -V(xc)+E(xc)   XCENC  =      1436.27134364
  PAW double counting   =     42326.65542886   -45788.12159619
  entropy T*S    EENTRO =        -0.02912462
  eigenvalues    EBANDS =      -584.58229825
  atomic energy  EATOM  =     44510.64448639
  Solvation  Ediel_sol  =         0.00000000
  ---------------------------------------------------
  free energy    TOTEN  =       -89.05092351 eV

  energy without entropy =      -89.02179889  energy(sigma->0) =      -89.04121530


--------------------------------------------------------------------------------------------------------




--------------------------------------- Iteration      1(  12)  ---------------------------------------


    POTLOK:  cpu time      0.0649: real time      0.0662
    SETDIJ:  cpu time      0.0122: real time      0.0123
     EDDAV:  cpu time      9.2816: real time      9.3602
       DOS:  cpu time      0.0031: real time      0.0031
    CHARGE:  cpu time      0.4669: real time      0.4691
    MIXING:  cpu time      0.0079: real time      0.0079
    --------------------------------------------
      LOOP:  cpu time      9.8367: real time      9.9189

 eigenvalue-minimisations  :  5100
 total energy-change (2. order) :-0.3609436E+01  (-0.2713909E+00)
 number of electron     352.0003326 magnetization       5.8949718
 augmentation part      225.6094384 magnetization       0.8051053

 Broyden mixing:
  rms(total) = 0.43533E+00    rms(broyden)= 0.43531E+00
  rms(prec ) = 0.47968E+00
  weight for this iteration     100.00

 eigenvalues of (default mixing * dielectric matrix)
  average eigenvalue GAMMA=   1.5713
  6.7071  1.2307  0.8462  0.8462  0.6351  0.3928  0.3408

 Free energy of the ion-electron system (eV)
  ---------------------------------------------------
  alpha Z        PSCENC =       837.79172311
  Ewald energy   TEWEN  =    164200.35057137
  -Hartree energ DENC   =   -207156.91750140
  -exchange      EXHF   =         0.00000000
  -V(xc)+E(xc)   XCENC  =      1435.78801199
  PAW double counting   =     42487.78339450   -45967.67191309
  entropy T*S    EENTRO =        -0.01513263
  eigenvalues    EBANDS =      -440.41400010
  atomic energy  EATOM  =     44510.64448639
  Solvation  Ediel_sol  =         0.00000000
  ---------------------------------------------------
  free energy    TOTEN  =       -92.66035984 eV

  energy without entropy =      -92.64522721  energy(sigma->0) =      -92.65531563


--------------------------------------------------------------------------------------------------------




--------------------------------------- Iteration      1(  13)  ---------------------------------------


    POTLOK:  cpu time      0.0631: real time      0.0647
    SETDIJ:  cpu time      0.0122: real time      0.0123
     EDDAV:  cpu time      8.5472: real time      8.6188
       DOS:  cpu time      0.0027: real time      0.0028
    CHARGE:  cpu time      0.4546: real time      0.4569
    MIXING:  cpu time      0.0079: real time      0.0080
    --------------------------------------------
      LOOP:  cpu time      9.0878: real time      9.1634

 eigenvalue-minimisations  :  4604
 total energy-change (2. order) :-0.3359031E+01  (-0.2784642E+00)
 number of electron     352.0003312 magnetization       4.4013718
 augmentation part      225.0180776 magnetization       0.0878958

 Broyden mixing:
  rms(total) = 0.37981E+00    rms(broyden)= 0.37973E+00
  rms(prec ) = 0.54203E+00
  weight for this iteration     100.00

 eigenvalues of (default mixing * dielectric matrix)
  average eigenvalue GAMMA=   1.6284
  8.0620  1.4527  0.8786  0.8786  0.7281  0.3957  0.3328  0.2986

 Free energy of the ion-electron system (eV)
  ---------------------------------------------------
  alpha Z        PSCENC =       837.79172311
  Ewald energy   TEWEN  =    164200.35057137
  -Hartree energ DENC   =   -207173.97573855
  -exchange      EXHF   =         0.00000000
  -V(xc)+E(xc)   XCENC  =      1434.91808606
  PAW double counting   =     42315.24427919   -45790.55819717
  entropy T*S    EENTRO =         0.00053029
  eigenvalues    EBANDS =      -430.43513168
  atomic energy  EATOM  =     44510.64448639
  Solvation  Ediel_sol  =         0.00000000
  ---------------------------------------------------
  free energy    TOTEN  =       -96.01939097 eV

  energy without entropy =      -96.01992126  energy(sigma->0) =      -96.01956773


--------------------------------------------------------------------------------------------------------




--------------------------------------- Iteration      1(  14)  ---------------------------------------


    POTLOK:  cpu time      0.0631: real time      0.0636
    SETDIJ:  cpu time      0.0120: real time      0.0120
     EDDAV:  cpu time      8.9779: real time      9.0531
       DOS:  cpu time      0.0028: real time      0.0028
    CHARGE:  cpu time      0.4614: real time      0.4639
    MIXING:  cpu time      0.0087: real time      0.0087
    --------------------------------------------
      LOOP:  cpu time      9.5258: real time      9.6042

 eigenvalue-minimisations  :  4892
 total energy-change (2. order) :-0.3129685E+01  (-0.2845217E+00)
 number of electron     352.0003305 magnetization       3.5057240
 augmentation part      224.6416912 magnetization      -0.1972944

 Broyden mixing:
  rms(total) = 0.23285E+00    rms(broyden)= 0.23273E+00
  rms(prec ) = 0.30470E+00
  weight for this iteration     100.00

 eigenvalues of (default mixing * dielectric matrix)
  average eigenvalue GAMMA=   1.6912
  9.3099  1.8944  0.8405  0.8405  0.8471  0.5463  0.3862  0.3466  0.2089

 Free energy of the ion-electron system (eV)
  ---------------------------------------------------
  alpha Z        PSCENC =       837.79172311
  Ewald energy   TEWEN  =    164200.35057137
  -Hartree energ DENC   =   -207167.06271856
  -exchange      EXHF   =         0.00000000
  -V(xc)+E(xc)   XCENC  =      1433.53684389
  PAW double counting   =     42099.75619442   -45566.51780388
  entropy T*S    EENTRO =         0.00058177
  eigenvalues    EBANDS =      -447.64895456
  atomic energy  EATOM  =     44510.64448639
  Solvation  Ediel_sol  =         0.00000000
  ---------------------------------------------------
  free energy    TOTEN  =       -99.14907604 eV

  energy without entropy =      -99.14965780  energy(sigma->0) =      -99.14926996


--------------------------------------------------------------------------------------------------------




--------------------------------------- Iteration      1(  15)  ---------------------------------------


    POTLOK:  cpu time      0.0631: real time      0.0637
    SETDIJ:  cpu time      0.0122: real time      0.0123
     EDDAV:  cpu time      9.9570: real time     10.0401
       DOS:  cpu time      0.0030: real time      0.0030
    CHARGE:  cpu time      0.4673: real time      0.4696
    MIXING:  cpu time      0.0089: real time      0.0090
    --------------------------------------------
      LOOP:  cpu time     10.5115: real time     10.5978

 eigenvalue-minimisations  :  5552
 total energy-change (2. order) :-0.3877740E+01  (-0.2928247E+00)
 number of electron     352.0003299 magnetization       3.0832014
 augmentation part      224.4584359 magnetization       0.0597496

 Broyden mixing:
  rms(total) = 0.19037E+00    rms(broyden)= 0.19033E+00
  rms(prec ) = 0.20886E+00
  weight for this iteration     100.00

 eigenvalues of (default mixing * dielectric matrix)
  average eigenvalue GAMMA=   1.6551
  9.6986  2.2969  0.8757  0.8388  0.8388  0.6125  0.4640  0.3949  0.3367  0.1939

 Free energy of the ion-electron system (eV)
  ---------------------------------------------------
  alpha Z        PSCENC =       837.79172311
  Ewald energy   TEWEN  =    164200.35057137
  -Hartree energ DENC   =   -207137.99817846
  -exchange      EXHF   =         0.00000000
  -V(xc)+E(xc)   XCENC  =      1431.20883881
  PAW double counting   =     41859.36517144   -45313.78766768
  entropy T*S    EENTRO =         0.00329094
  eigenvalues    EBANDS =      -490.60505175
  atomic energy  EATOM  =     44510.64448639
  Solvation  Ediel_sol  =         0.00000000
  ---------------------------------------------------
  free energy    TOTEN  =      -103.02681582 eV

  energy without entropy =     -103.03010676  energy(sigma->0) =     -103.02791280


--------------------------------------------------------------------------------------------------------




--------------------------------------- Iteration      1(  16)  ---------------------------------------


    POTLOK:  cpu time      0.0641: real time      0.0656
    SETDIJ:  cpu time      0.0119: real time      0.0120
     EDDAV:  cpu time      7.9083: real time      7.9757
       DOS:  cpu time      0.0033: real time      0.0034
    CHARGE:  cpu time      0.4588: real time      0.4614
    MIXING:  cpu time      0.0093: real time      0.0093
    --------------------------------------------
      LOOP:  cpu time      8.4557: real time      8.5273

 eigenvalue-minimisations  :  4160
 total energy-change (2. order) :-0.4002435E+01  (-0.3489095E+00)
 number of electron     352.0003306 magnetization       2.7382272
 augmentation part      224.7901460 magnetization       0.5908383

 Broyden mixing:
  rms(total) = 0.11312E+00    rms(broyden)= 0.11307E+00
  rms(prec ) = 0.11890E+00
  weight for this iteration     100.00

 eigenvalues of (default mixing * dielectric matrix)
  average eigenvalue GAMMA=   1.6848
 10.0084  2.8632  0.9686  0.9686  0.8683  0.8216  0.6959  0.4019  0.4019  0.3392
  0.1954

 Free energy of the ion-electron system (eV)
  ---------------------------------------------------
  alpha Z        PSCENC =       837.79172311
  Ewald energy   TEWEN  =    164200.35057137
  -Hartree energ DENC   =   -207076.45575534
  -exchange      EXHF   =         0.00000000
  -V(xc)+E(xc)   XCENC  =      1428.14783044
  PAW double counting   =     41604.04058226   -45041.72567324
  entropy T*S    EENTRO =        -0.01001245
  eigenvalues    EBANDS =      -569.81300381
  atomic energy  EATOM  =     44510.64448639
  Solvation  Ediel_sol  =         0.00000000
  ---------------------------------------------------
  free energy    TOTEN  =      -107.02925126 eV

  energy without entropy =     -107.01923881  energy(sigma->0) =     -107.02591378


--------------------------------------------------------------------------------------------------------




--------------------------------------- Iteration      1(  17)  ---------------------------------------


    POTLOK:  cpu time      0.0654: real time      0.0686
    SETDIJ:  cpu time      0.0122: real time      0.0123
     EDDAV:  cpu time      7.5283: real time      7.5912
       DOS:  cpu time      0.0028: real time      0.0028
    CHARGE:  cpu time      0.4496: real time      0.4518
    MIXING:  cpu time      0.0089: real time      0.0090
    --------------------------------------------
      LOOP:  cpu time      8.0671: real time      8.1357

 eigenvalue-minimisations  :  3916
 total energy-change (2. order) :-0.1746490E+01  (-0.1246341E+00)
 number of electron     352.0003307 magnetization       1.9905347
 augmentation part      224.8361421 magnetization       0.4745987

 Broyden mixing:
  rms(total) = 0.99500E-01    rms(broyden)= 0.99461E-01
  rms(prec ) = 0.10917E+00
  weight for this iteration     100.00

 eigenvalues of (default mixing * dielectric matrix)
  average eigenvalue GAMMA=   1.7524
 10.7332  3.3690  1.2965  1.0704  1.0704  0.7626  0.7626  0.6395  0.3397  0.3946
  0.3946  0.1961

 Free energy of the ion-electron system (eV)
  ---------------------------------------------------
  alpha Z        PSCENC =       837.79172311
  Ewald energy   TEWEN  =    164200.35057137
  -Hartree energ DENC   =   -207051.41578356
  -exchange      EXHF   =         0.00000000
  -V(xc)+E(xc)   XCENC  =      1426.99634501
  PAW double counting   =     41544.43113312   -44979.33848335
  entropy T*S    EENTRO =        -0.03454241
  eigenvalues    EBANDS =      -598.20119089
  atomic energy  EATOM  =     44510.64448639
  Solvation  Ediel_sol  =         0.00000000
  ---------------------------------------------------
  free energy    TOTEN  =      -108.77574121 eV

  energy without entropy =     -108.74119880  energy(sigma->0) =     -108.76422707


--------------------------------------------------------------------------------------------------------




--------------------------------------- Iteration      1(  18)  ---------------------------------------


    POTLOK:  cpu time      0.0706: real time      0.0712
    SETDIJ:  cpu time      0.0137: real time      0.0137
     EDDAV:  cpu time      8.9986: real time      9.0739
       DOS:  cpu time      0.0033: real time      0.0033
    CHARGE:  cpu time      0.4578: real time      0.4601
    MIXING:  cpu time      0.0095: real time      0.0095
    --------------------------------------------
      LOOP:  cpu time      9.5534: real time      9.6317

 eigenvalue-minimisations  :  4908
 total energy-change (2. order) :-0.9256653E+00  (-0.8263810E-01)
 number of electron     352.0003307 magnetization       1.5683654
 augmentation part      224.7929513 magnetization       0.7557482

 Broyden mixing:
  rms(total) = 0.79858E-01    rms(broyden)= 0.79817E-01
  rms(prec ) = 0.83546E-01
  weight for this iteration     100.00

 eigenvalues of (default mixing * dielectric matrix)
  average eigenvalue GAMMA=   1.7888
 11.6477  3.7774  1.8126  1.0091  1.0091  0.7963  0.7963  0.6283  0.4651  0.3408
  0.3978  0.3774  0.1962

 Free energy of the ion-electron system (eV)
  ---------------------------------------------------
  alpha Z        PSCENC =       837.79172311
  Ewald energy   TEWEN  =    164200.35057137
  -Hartree energ DENC   =   -207012.10108181
  -exchange      EXHF   =         0.00000000
  -V(xc)+E(xc)   XCENC  =      1426.54088206
  PAW double counting   =     41504.15666651   -44940.14770280
  entropy T*S    EENTRO =        -0.03233793
  eigenvalues    EBANDS =      -636.90461342
  atomic energy  EATOM  =     44510.64448639
  Solvation  Ediel_sol  =         0.00000000
  ---------------------------------------------------
  free energy    TOTEN  =      -109.70140651 eV

  energy without entropy =     -109.66906858  energy(sigma->0) =     -109.69062720


--------------------------------------------------------------------------------------------------------




--------------------------------------- Iteration      1(  19)  ---------------------------------------


    POTLOK:  cpu time      0.0648: real time      0.0663
    SETDIJ:  cpu time      0.0120: real time      0.0120
     EDDAV:  cpu time      8.2975: real time      8.3673
       DOS:  cpu time      0.0030: real time      0.0030
    CHARGE:  cpu time      0.4701: real time      0.4726
    MIXING:  cpu time      0.0097: real time      0.0097
    --------------------------------------------
      LOOP:  cpu time      8.8571: real time      8.9309

 eigenvalue-minimisations  :  4424
 total energy-change (2. order) :-0.3582703E+00  (-0.1712089E-01)
 number of electron     352.0003307 magnetization       1.3564198
 augmentation part      224.7820902 magnetization       0.7962777

 Broyden mixing:
  rms(total) = 0.61170E-01    rms(broyden)= 0.61152E-01
  rms(prec ) = 0.64841E-01
  weight for this iteration     100.00

 eigenvalues of (default mixing * dielectric matrix)
  average eigenvalue GAMMA=   1.7389
 11.9266  3.7825  1.9907  0.9634  0.9634  0.7915  0.7915  0.7199  0.7199  0.1962
  0.4021  0.4021  0.3424  0.3522

 Free energy of the ion-electron system (eV)
  ---------------------------------------------------
  alpha Z        PSCENC =       837.79172311
  Ewald energy   TEWEN  =    164200.35057137
  -Hartree energ DENC   =   -206997.53481518
  -exchange      EXHF   =         0.00000000
  -V(xc)+E(xc)   XCENC  =      1426.18496361
  PAW double counting   =     41529.02898019   -44967.40402945
  entropy T*S    EENTRO =        -0.03686878
  eigenvalues    EBANDS =      -649.08468806
  atomic energy  EATOM  =     44510.64448639
  Solvation  Ediel_sol  =         0.00000000
  ---------------------------------------------------
  free energy    TOTEN  =      -110.05967678 eV

  energy without entropy =     -110.02280800  energy(sigma->0) =     -110.04738719


--------------------------------------------------------------------------------------------------------




--------------------------------------- Iteration      1(  20)  ---------------------------------------


    POTLOK:  cpu time      0.0650: real time      0.0664
    SETDIJ:  cpu time      0.0122: real time      0.0122
     EDDAV:  cpu time      8.2218: real time      8.2903
       DOS:  cpu time      0.0033: real time      0.0033
    CHARGE:  cpu time      0.4619: real time      0.4642
    MIXING:  cpu time      0.0095: real time      0.0095
    --------------------------------------------
      LOOP:  cpu time      8.7736: real time      8.8460

 eigenvalue-minimisations  :  4384
 total energy-change (2. order) :-0.4100282E+00  (-0.9698699E-02)
 number of electron     352.0003306 magnetization       0.9740341
 augmentation part      224.7733618 magnetization       0.4576829

 Broyden mixing:
  rms(total) = 0.53671E-01    rms(broyden)= 0.53664E-01
  rms(prec ) = 0.63013E-01
  weight for this iteration     100.00

 eigenvalues of (default mixing * dielectric matrix)
  average eigenvalue GAMMA=   1.7722
 12.4933  4.1518  2.4001  1.1660  0.9118  0.9118  0.8144  0.7352  0.7352  0.6075
  0.1962  0.3940  0.3940  0.3395  0.3318

 Free energy of the ion-electron system (eV)
  ---------------------------------------------------
  alpha Z        PSCENC =       837.79172311
  Ewald energy   TEWEN  =    164200.35057137
  -Hartree energ DENC   =   -206995.37981856
  -exchange      EXHF   =         0.00000000
  -V(xc)+E(xc)   XCENC  =      1425.62814460
  PAW double counting   =     41591.21881708   -45032.50755346
  entropy T*S    EENTRO =        -0.04591679
  eigenvalues    EBANDS =      -648.17015871
  atomic energy  EATOM  =     44510.64448639
  Solvation  Ediel_sol  =         0.00000000
  ---------------------------------------------------
  free energy    TOTEN  =      -110.46970497 eV

  energy without entropy =     -110.42378817  energy(sigma->0) =     -110.45439937


--------------------------------------------------------------------------------------------------------




--------------------------------------- Iteration      1(  21)  ---------------------------------------


    POTLOK:  cpu time      0.0643: real time      0.0651
    SETDIJ:  cpu time      0.0121: real time      0.0121
     EDDAV:  cpu time      9.2504: real time      9.3278
       DOS:  cpu time      0.0030: real time      0.0030
    CHARGE:  cpu time      0.4513: real time      0.4536
    MIXING:  cpu time      0.0098: real time      0.0098
    --------------------------------------------
      LOOP:  cpu time      9.7910: real time      9.8715

 eigenvalue-minimisations  :  5096
 total energy-change (2. order) :-0.1845936E+00  (-0.5358622E-02)
 number of electron     352.0003307 magnetization       0.8511249
 augmentation part      224.8120758 magnetization       0.5599860

 Broyden mixing:
  rms(total) = 0.37549E-01    rms(broyden)= 0.37543E-01
  rms(prec ) = 0.40170E-01
  weight for this iteration     100.00

 eigenvalues of (default mixing * dielectric matrix)
  average eigenvalue GAMMA=   1.7300
 12.5047  3.9764  2.7258  1.4237  0.9273  0.9273  0.7947  0.7947  0.7161  0.7161
  0.5207  0.1962  0.3932  0.3932  0.3414  0.3288

 Free energy of the ion-electron system (eV)
  ---------------------------------------------------
  alpha Z        PSCENC =       837.79172311
  Ewald energy   TEWEN  =    164200.35057137
  -Hartree energ DENC   =   -206971.08524944
  -exchange      EXHF   =         0.00000000
  -V(xc)+E(xc)   XCENC  =      1425.37205307
  PAW double counting   =     41602.73933983   -45045.34398630
  entropy T*S    EENTRO =        -0.04662514
  eigenvalues    EBANDS =      -671.07661144
  atomic energy  EATOM  =     44510.64448639
  Solvation  Ediel_sol  =         0.00000000
  ---------------------------------------------------
  free energy    TOTEN  =      -110.65429853 eV

  energy without entropy =     -110.60767339  energy(sigma->0) =     -110.63875682


--------------------------------------------------------------------------------------------------------




--------------------------------------- Iteration      1(  22)  ---------------------------------------


    POTLOK:  cpu time      0.0646: real time      0.0652
    SETDIJ:  cpu time      0.0132: real time      0.0132
     EDDAV:  cpu time      8.6876: real time      8.7602
       DOS:  cpu time      0.0028: real time      0.0028
    CHARGE:  cpu time      0.4579: real time      0.4603
    MIXING:  cpu time      0.0101: real time      0.0101
    --------------------------------------------
      LOOP:  cpu time      9.2361: real time      9.3119

 eigenvalue-minimisations  :  4708
 total energy-change (2. order) :-0.2667798E+00  (-0.2270399E-02)
 number of electron     352.0003307 magnetization       0.6567612
 augmentation part      224.7963827 magnetization       0.3912836

 Broyden mixing:
  rms(total) = 0.35927E-01    rms(broyden)= 0.35926E-01
  rms(prec ) = 0.39545E-01
  weight for this iteration     100.00

 eigenvalues of (default mixing * dielectric matrix)
  average eigenvalue GAMMA=   1.7476
 12.5892  3.9991  3.4688  1.8348  0.9517  0.9517  0.8624  0.8624  0.7343  0.7343
  0.6333  0.1962  0.4336  0.4008  0.3865  0.3414  0.3281

 Free energy of the ion-electron system (eV)
  ---------------------------------------------------
  alpha Z        PSCENC =       837.79172311
  Ewald energy   TEWEN  =    164200.35057137
  -Hartree energ DENC   =   -206962.63491966
  -exchange      EXHF   =         0.00000000
  -V(xc)+E(xc)   XCENC  =      1425.10610514
  PAW double counting   =     41620.14204295   -45063.37522510
  entropy T*S    EENTRO =        -0.04904980
  eigenvalues    EBANDS =      -678.89681279
  atomic energy  EATOM  =     44510.64448639
  Solvation  Ediel_sol  =         0.00000000
  ---------------------------------------------------
  free energy    TOTEN  =      -110.92107838 eV

  energy without entropy =     -110.87202858  energy(sigma->0) =     -110.90472844


--------------------------------------------------------------------------------------------------------




--------------------------------------- Iteration      1(  23)  ---------------------------------------


    POTLOK:  cpu time      0.0641: real time      0.0656
    SETDIJ:  cpu time      0.0121: real time      0.0122
     EDDAV:  cpu time      8.8408: real time      8.9249
       DOS:  cpu time      0.0028: real time      0.0028
    CHARGE:  cpu time      0.4517: real time      0.4538
    MIXING:  cpu time      0.0105: real time      0.0105
    --------------------------------------------
      LOOP:  cpu time      9.3820: real time      9.4698

 eigenvalue-minimisations  :  4820
 total energy-change (2. order) :-0.2834347E+00  (-0.2424966E-02)
 number of electron     352.0003307 magnetization       0.4187804
 augmentation part      224.7987310 magnetization       0.2208880

 Broyden mixing:
  rms(total) = 0.25251E-01    rms(broyden)= 0.25249E-01
  rms(prec ) = 0.28436E-01
  weight for this iteration     100.00

 eigenvalues of (default mixing * dielectric matrix)
  average eigenvalue GAMMA=   1.7536
 12.7390  4.6582  3.5672  1.9953  0.9891  0.9891  0.9746  0.8158  0.8158  0.6829
  0.6829  0.5884  0.1962  0.4155  0.4014  0.3829  0.3416  0.3282

 Free energy of the ion-electron system (eV)
  ---------------------------------------------------
  alpha Z        PSCENC =       837.79172311
  Ewald energy   TEWEN  =    164200.35057137
  -Hartree energ DENC   =   -206947.38067330
  -exchange      EXHF   =         0.00000000
  -V(xc)+E(xc)   XCENC  =      1424.80086496
  PAW double counting   =     41629.38016623   -45072.68887458
  entropy T*S    EENTRO =        -0.05030871
  eigenvalues    EBANDS =      -694.05246854
  atomic energy  EATOM  =     44510.64448639
  Solvation  Ediel_sol  =         0.00000000
[...]
 -0.000   0.000  -1.264   0.000   0.022   0.000  -0.000   7.884
 -0.000   0.000   0.000  -1.276   0.000  -0.000  -0.000  -0.000
 -0.000  -0.000   0.022   0.000  -1.242   0.000   0.000  -0.016
  0.000   0.000  -0.006   0.000  -0.006   0.000   0.000   0.004
  0.000   0.000  -0.011   0.000  -0.011   0.000   0.000   0.007
  0.000  -0.017  -0.000   0.000  -0.000  -0.000   0.013   0.000
  0.000   0.000  -0.018   0.000   0.001   0.000  -0.000   0.012
  0.000   0.000  -0.000  -0.015   0.000  -0.000   0.000   0.000
  0.000  -0.019  -0.000  -0.000  -0.000   0.000   0.014  -0.000
 -0.000   0.000  -0.019   0.000   0.001   0.000   0.000   0.012
  0.000  -0.000  -0.000  -0.016   0.000   0.000   0.000  -0.000
 pseudopotential strength for first ion, spin component:           2
 -7.516  -0.000   0.000   0.000   0.000  -1.245   0.000  -0.000
 -0.000  -7.508  -0.000  -0.000   0.000   0.000  -1.253   0.000
  0.000  -0.000  -7.496  -0.000  -0.029  -0.000   0.000  -1.264
  0.000  -0.000  -0.000  -7.478  -0.000  -0.000   0.000   0.000
  0.000   0.000  -0.029  -0.000  -7.519  -0.000  -0.000   0.022
 -1.245   0.000  -0.000  -0.000  -0.000   7.869  -0.000   0.000
  0.000  -1.253   0.000   0.000  -0.000  -0.000   7.876  -0.000
 -0.000   0.000  -1.264   0.000   0.022   0.000  -0.000   7.884
 -0.000   0.000   0.000  -1.276   0.000  -0.000  -0.000  -0.000
 -0.000  -0.000   0.022   0.000  -1.242   0.000   0.000  -0.016
  0.000   0.000  -0.006   0.000  -0.006   0.000   0.000   0.004
  0.000   0.000  -0.011   0.000  -0.011   0.000   0.000   0.007
  0.000  -0.017  -0.000   0.000  -0.000  -0.000   0.013   0.000
  0.000   0.000  -0.018   0.000   0.001   0.000  -0.000   0.012
  0.000   0.000  -0.000  -0.015   0.000  -0.000   0.000   0.000
  0.000  -0.019  -0.000  -0.000  -0.000   0.000   0.014  -0.000
 -0.000   0.000  -0.019   0.000   0.001   0.000   0.000   0.012
  0.000  -0.000  -0.000  -0.016   0.000   0.000   0.000  -0.000
 total augmentation occupancy for first ion, spin component:           1
  1.922   0.000  -0.000   0.000   0.000  -0.019   0.000   0.000   0.000   0.000   0.000  -0.000   0.000  -0.000   0.000  -0.000
  0.000   1.942   0.000   0.000   0.000   0.000  -0.030  -0.000   0.000   0.000   0.000   0.000   0.019  -0.000   0.000  -0.021
 -0.000   0.000   1.932   0.000  -0.014  -0.000   0.000  -0.021   0.000   0.010   0.002   0.010   0.000   0.057   0.000   0.000
  0.000   0.000   0.000   1.937   0.000   0.000   0.000   0.000  -0.028   0.000  -0.000  -0.000   0.000   0.000   0.063   0.000
 -0.000   0.000  -0.014   0.000   1.913   0.000   0.000   0.010  -0.000  -0.018  -0.007   0.005   0.000   0.028  -0.000   0.000
 -0.019   0.000  -0.000   0.000   0.000   0.009   0.000  -0.000   0.000   0.000  -0.000  -0.000   0.000   0.000   0.000   0.000
  0.000  -0.030   0.000   0.000   0.000   0.000   0.009   0.000  -0.000   0.000  -0.000   0.000   0.020   0.000  -0.000  -0.001
  0.000  -0.000  -0.021   0.000   0.010   0.000   0.000   0.010   0.000   0.002  -0.019  -0.001   0.000   0.018   0.000   0.000
  0.000  -0.000  -0.000  -0.028  -0.000   0.000  -0.000   0.000   0.010   0.000   0.000   0.000  -0.000  -0.000   0.026  -0.000
 -0.000   0.000   0.010   0.000  -0.018   0.000   0.000   0.002  -0.000   0.009  -0.024   0.001   0.000   0.002  -0.000   0.000
  0.000   0.000   0.002  -0.000  -0.007  -0.000  -0.000  -0.019   0.000  -0.024   1.597  -0.113   0.000   0.193  -0.000   0.000
 -0.000   0.000   0.010   0.000   0.005   0.000   0.000  -0.001   0.000   0.001  -0.113   0.013   0.000  -0.025  -0.000  -0.000
 -0.000   0.019   0.000  -0.000   0.000   0.000   0.020   0.000   0.000   0.000   0.000   0.000   0.176   0.000  -0.000  -0.010
 -0.000  -0.000   0.057   0.000   0.028  -0.000   0.000   0.018   0.000   0.002   0.193  -0.025   0.000   0.101   0.000   0.000
  0.000  -0.000   0.000   0.063  -0.000  -0.000   0.000   0.000   0.026  -0.000  -0.000  -0.000  -0.000   0.000   0.134   0.000
  0.000  -0.021  -0.000   0.000   0.000   0.000  -0.001   0.000   0.000   0.000  -0.000  -0.000  -0.010   0.000   0.000   0.001
  0.000   0.000  -0.026   0.000  -0.001  -0.000   0.000  -0.001  -0.000  -0.000  -0.026   0.003   0.000  -0.009   0.000  -0.000
  0.000  -0.000   0.000  -0.024   0.000   0.000   0.000   0.000  -0.001   0.000  -0.000   0.000   0.000   0.000  -0.008   0.000
 total augmentation occupancy for first ion, spin component:           2
  0.000   0.000   0.000   0.000  -0.000   0.000   0.000   0.000   0.000   0.000   0.000   0.000   0.000   0.000   0.000   0.000
  0.000   0.000   0.000   0.000   0.000   0.000   0.000  -0.000  -0.000  -0.000   0.000   0.000   0.000   0.000   0.000  -0.000
  0.000   0.000  -0.000   0.000  -0.000   0.000   0.000  -0.000   0.000   0.000   0.000  -0.000   0.000   0.000   0.000   0.000
  0.000   0.000   0.000   0.000   0.000   0.000   0.000   0.000   0.000   0.000   0.000  -0.000   0.000  -0.000   0.000  -0.000
 -0.000   0.000  -0.000  -0.000   0.000   0.000   0.000  -0.000   0.000   0.000  -0.000   0.000   0.000   0.000   0.000   0.000
  0.000   0.000   0.000   0.000   0.000   0.000   0.000  -0.000   0.000   0.000   0.000  -0.000   0.000   0.000   0.000   0.000
  0.000   0.000   0.000   0.000   0.000   0.000  -0.000   0.000   0.000   0.000   0.000  -0.000   0.000   0.000   0.000  -0.000
  0.000  -0.000  -0.000   0.000  -0.000  -0.000   0.000   0.000  -0.000  -0.000  -0.000   0.000   0.000  -0.000   0.000   0.000
  0.000  -0.000  -0.000   0.000  -0.000   0.000   0.000  -0.000  -0.000   0.000  -0.000   0.000  -0.000  -0.000   0.000   0.000
  0.000  -0.000   0.000   0.000   0.000   0.000   0.000  -0.000   0.000   0.000   0.000  -0.000  -0.000  -0.000   0.000  -0.000
  0.000   0.000   0.000   0.000  -0.000   0.000   0.000  -0.000   0.000   0.000   0.000   0.000   0.000   0.000  -0.000   0.000
  0.000   0.000  -0.000   0.000   0.000  -0.000   0.000   0.000   0.000  -0.000   0.000  -0.000   0.000   0.000  -0.000   0.000
  0.000   0.000   0.000   0.000   0.000   0.000   0.000   0.000  -0.000   0.000   0.000   0.000   0.000   0.000   0.000   0.000
  0.000   0.000   0.000  -0.000   0.000   0.000   0.000  -0.000  -0.000  -0.000   0.000   0.000   0.000  -0.000   0.000   0.000
  0.000   0.000   0.000   0.000   0.000   0.000   0.000   0.000   0.000   0.000  -0.000  -0.000   0.000   0.000   0.000   0.000
  0.000  -0.000   0.000  -0.000   0.000  -0.000  -0.000   0.000   0.000   0.000   0.000   0.000   0.000   0.000   0.000   0.000
  0.000   0.000   0.000  -0.000  -0.000   0.000   0.000   0.000  -0.000   0.000   0.000   0.000  -0.000   0.000   0.000  -0.000
  0.000  -0.000   0.000  -0.000  -0.000   0.000   0.000   0.000   0.000   0.000  -0.000  -0.000   0.000  -0.000   0.000   0.000


------------------------ aborting loop because EDIFF is reached ----------------------------------------



 DIPCOR: dipole corrections for dipol
 direction  3 min pos   170,
 dipolmoment           0.000000      0.000000      0.002830 electrons x Angstroem
 Tr[quadrupol]     -2606.207033

 energy correction for charged system         0.000000 eV
 dipol+quadrupol energy correction            0.000001 eV
 added-field ion interaction          0.000000 eV  (added to PSCEN)

 
  *************** adding dipol energy to TOTEN NOW **************** 
    CHARGE:  cpu time      0.4671: real time      0.4694
    FORLOC:  cpu time      0.0118: real time      0.0119
    FORNL :  cpu time      7.1554: real time      7.1833
    STRESS:  cpu time      5.6060: real time      5.6423
    FORCOR:  cpu time      0.0720: real time      0.0724
    FORHAR:  cpu time      0.0141: real time      0.0142
    MIXING:  cpu time      0.0020: real time      0.0021
    OFIELD:  cpu time      0.0000: real time      0.0000

 ---------------------------------------------------------------------------------------------

         DFTD3 V3.0 Rev 1        
 Edisp (eV)  -12.19984

 E6    (eV) :    -4.8673
 E8    (eV) :    -7.3325
 % E8        : 60.10
    FORVDW:  cpu time      0.1440: real time      0.1446

  FORCE on cell =-STRESS in cart. coord.  units (eV):
  Direction    XX          YY          ZZ          XY          YZ          ZX
  --------------------------------------------------------------------------------------
  Alpha Z   837.79172   837.79172   837.79172
  Ewald  196162.63022196779.24907************    -0.00000    -0.00000     0.00000
  Hartree208324.80523208755.37865************    -0.00000    -0.00000    -0.00000
  E(xc)   -2056.82854 -2056.10200 -2058.83533    -0.00000     0.00000    -0.00000
  Local  ************************416490.95903     0.00000     0.00000    -0.00000
  n-local  -691.77692  -687.73040  -693.27164     3.09451     0.00000    -0.00000
  augment  3029.50529  3026.60730  3030.81505    -0.00000    -0.00000    -0.00000
  Kinetic  2873.37806  2872.00256  2879.06357     2.29533     0.00000    -0.00000
  Fock        0.00000     0.00000     0.00000     0.00000     0.00000     0.00000
  vdW       -14.92041   -14.86609   -10.46941    -0.00000     0.00000    -0.00000
  -------------------------------------------------------------------------------------
  Total     -16.52858   -15.03990    -3.11748     0.00000     0.00000     0.00000
  in kB     -29.62580   -26.95749    -5.58777     0.00000     0.00000     0.00000
  external pressure =      -20.72 kB  Pullay stress =        0.00 kB


 VOLUME and BASIS-vectors are now :
 -----------------------------------------------------------------------------
  energy-cutoff  :      400.00
  volume of cell :      893.87
      direct lattice vectors                 reciprocal lattice vectors
     7.260000229  0.000000000  0.000000000     0.137741042  0.000000000  0.000000000
     0.000000000  5.133595467  0.000000000     0.000000000  0.194795248  0.000000000
     0.000000000  0.000000000 23.983791351     0.000000000  0.000000000  0.041694826

  length of vectors
     7.260000229  5.133595467 23.983791351     0.137741042  0.194795248  0.041694826


 FORCES acting on ions
    electron-ion (+dipol)            ewald-force                    non-local-force                 convergence-correction
 -----------------------------------------------------------------------------------------------
   -.116E-12 -.165E-12 0.458E+04   -.304E-06 -.144E-06 -.458E+04   0.000E+00 0.000E+00 -.546E+01   0.100E-09 -.233E-10 -.322E-01
   -.126E-12 0.116E-05 0.458E+04   -.304E-06 0.196E-06 -.458E+04   0.662E-23 0.000E+00 -.546E+01   0.100E-09 -.130E-10 -.322E-01
   0.183E-05 -.733E-13 0.458E+04   0.163E-06 -.144E-06 -.458E+04   0.149E-22 0.000E+00 -.546E+01   -.128E-09 -.235E-10 -.322E-01
   0.183E-05 0.116E-05 0.458E+04   0.163E-06 0.196E-06 -.458E+04   0.149E-22 0.000E+00 -.546E+01   -.127E-09 -.134E-10 -.322E-01
   0.838E-06 -.132E-05 0.347E+04   -.165E-06 -.236E-06 -.347E+04   0.000E+00 0.662E-23 0.113E-01   -.617E-10 -.279E-10 0.430E-01
   0.838E-06 -.188E-06 0.347E+04   -.165E-06 0.130E-06 -.347E+04   0.000E+00 -.132E-22 0.113E-01   -.623E-10 0.644E-11 0.430E-01
   0.252E-05 -.132E-05 0.347E+04   0.449E-06 -.236E-06 -.347E+04   -.993E-23 -.662E-23 0.113E-01   -.272E-09 -.277E-10 0.430E-01
   0.252E-05 -.188E-06 0.347E+04   0.449E-06 0.130E-06 -.347E+04   0.132E-22 -.265E-22 0.113E-01   -.271E-09 0.581E-11 0.430E-01
   -.131E-12 0.860E-12 0.207E+04   -.498E-06 -.148E-06 -.207E+04   0.000E+00 0.662E-23 -.129E+01   -.313E-09 0.794E-10 0.449E+00
   -.133E-12 0.113E-05 0.207E+04   -.498E-06 0.258E-06 -.207E+04   0.199E-22 0.993E-23 -.129E+01   -.314E-09 -.537E-10 0.449E+00
   0.169E-05 0.395E-12 0.207E+04   0.206E-06 -.148E-06 -.207E+04   0.199E-22 -.132E-22 -.129E+01   -.721E-09 0.811E-10 0.449E+00
   0.169E-05 0.113E-05 0.207E+04   0.206E-06 0.258E-06 -.207E+04   0.132E-22 0.132E-22 -.129E+01   -.720E-09 -.542E-10 0.449E+00
   0.846E-06 -.132E-05 0.698E+03   -.208E-06 -.260E-06 -.699E+03   0.529E-22 0.000E+00 -.192E+00   0.264E-09 0.159E-09 0.561E+00
   0.846E-06 -.188E-06 0.698E+03   -.208E-06 0.150E-06 -.699E+03   0.000E+00 -.662E-23 -.192E+00   0.264E-09 0.563E-11 0.561E+00
   0.254E-05 -.132E-05 0.698E+03   0.504E-06 -.260E-06 -.699E+03   -.265E-22 0.000E+00 -.192E+00   -.209E-09 0.160E-09 0.561E+00
   0.254E-05 -.188E-06 0.698E+03   0.504E-06 0.150E-06 -.699E+03   -.331E-23 0.000E+00 -.192E+00   -.209E-09 0.122E-11 0.561E+00
   -.120E-12 0.347E-12 -.695E+03   -.506E-06 -.147E-06 0.695E+03   0.662E-23 0.000E+00 -.139E+00   0.588E-09 -.364E-10 0.178E+00
   -.116E-12 0.113E-05 -.695E+03   -.506E-06 0.260E-06 0.695E+03   0.132E-22 0.265E-22 -.139E+00   0.588E-09 -.117E-09 0.178E+00
   0.168E-05 -.938E-12 -.695E+03   0.206E-06 -.147E-06 0.695E+03   -.414E-23 0.265E-22 -.139E+00   0.488E-09 -.378E-10 0.178E+00
   0.168E-05 0.113E-05 -.695E+03   0.206E-06 0.260E-06 0.695E+03   0.993E-23 0.000E+00 -.139E+00   0.489E-09 -.115E-09 0.178E+00
   0.852E-06 -.132E-05 -.204E+04   -.209E-06 -.258E-06 0.204E+04   -.132E-22 -.132E-22 0.133E+01   0.491E-11 -.114E-10 0.389E-01
   0.852E-06 -.189E-06 -.204E+04   -.209E-06 0.152E-06 0.204E+04   -.132E-22 0.000E+00 0.133E+01   0.553E-11 -.255E-10 0.389E-01
   0.256E-05 -.132E-05 -.204E+04   0.493E-06 -.258E-06 0.204E+04   0.662E-23 -.132E-22 0.133E+01   -.220E-10 -.122E-10 0.389E-01
   0.256E-05 -.189E-06 -.204E+04   0.493E-06 0.152E-06 0.204E+04   -.662E-23 -.331E-23 0.133E+01   -.226E-10 -.237E-10 0.389E-01
   -.144E-12 0.903E-12 -.350E+04   -.461E-06 -.127E-06 0.350E+04   0.000E+00 0.662E-23 -.904E+00   -.594E-09 0.415E-10 0.155E+00
   -.132E-12 0.113E-05 -.350E+04   -.461E-06 0.239E-06 0.350E+04   0.199E-22 0.662E-23 -.904E+00   -.594E-09 0.793E-10 0.155E+00
   0.166E-05 0.708E-12 -.350E+04   0.163E-06 -.127E-06 0.350E+04   -.993E-23 0.662E-23 -.904E+00   -.316E-09 0.406E-10 0.155E+00
   0.166E-05 0.113E-05 -.350E+04   0.163E-06 0.239E-06 0.350E+04   0.290E-23 0.662E-23 -.904E+00   -.316E-09 0.798E-10 0.155E+00
   0.902E-06 -.135E-05 -.459E+04   -.166E-06 -.206E-06 0.459E+04   0.000E+00 0.000E+00 0.532E+01   -.136E-09 0.244E-10 0.322E+00
   0.902E-06 -.192E-06 -.459E+04   -.166E-06 0.143E-06 0.459E+04   0.000E+00 0.265E-22 0.532E+01   -.136E-09 0.509E-10 0.322E+00
   0.271E-05 -.135E-05 -.459E+04   0.332E-06 -.206E-06 0.459E+04   0.000E+00 0.000E+00 0.532E+01   0.129E-09 0.247E-10 0.322E+00
   0.271E-05 -.192E-06 -.459E+04   0.332E-06 0.143E-06 0.459E+04   0.000E+00 0.132E-22 0.532E+01   0.129E-09 0.495E-10 0.322E+00
 -----------------------------------------------------------------------------------------------
   0.412E-04 -.304E-05 -.156E+01   0.236E-12 0.991E-13 0.146E-10   0.128E-21 0.596E-22 -.532E+01   -.239E-08 0.272E-09 0.686E+01
 
 
 POSITION                                       TOTAL-FORCE (eV/Angst)
 -----------------------------------------------------------------------------------
      0.00000      0.00000      0.00000        -0.000000     -0.000000      0.453368
      0.00000      2.56680      0.00000        -0.000000      0.000000      0.453368
      3.63000      0.00000      0.00000         0.000000      0.000000      0.453368
      3.63000      2.56680      0.00000         0.000000      0.000000      0.453368
      1.81500      1.28340      1.28340         0.000000     -0.000000     -0.459935
      1.81500      3.85020      1.28340         0.000000     -0.000000     -0.459935
      5.44500      1.28340      1.28340         0.000000     -0.000000     -0.459935
      5.44500      3.85020      1.28340        -0.000000     -0.000000     -0.459935
      0.00000      0.00000      2.52822        -0.000000     -0.000000     -0.014823
     -0.00000      2.56680      2.52822         0.000000      0.000000     -0.014823
      3.63000      0.00000      2.52822        -0.000000     -0.000000     -0.014823
      3.63000      2.56680      2.52822         0.000000      0.000000     -0.014823
      1.81500      1.28340      3.76906        -0.000000     -0.000000      0.007916
      1.81500      3.85020      3.76906        -0.000000      0.000000      0.007916
      5.44500      1.28340      3.76906         0.000000     -0.000000      0.007916
      5.44500      3.85020      3.76906         0.000000      0.000000      0.007916
      0.00000      0.00000      5.00452         0.000000      0.000000      0.002821
     -0.00000      2.56680      5.00452        -0.000000     -0.000000      0.002821
      3.63000      0.00000      5.00452         0.000000      0.000000      0.002821
      3.63000      2.56680      5.00452        -0.000000     -0.000000      0.002821
      1.81500      1.28340      6.22331        -0.000000     -0.000000     -0.001207
      1.81500      3.85020      6.22331        -0.000000      0.000000     -0.001207
      5.44500      1.28340      6.22331        -0.000000      0.000000     -0.001207
      5.44500      3.85020      6.22331        -0.000000     -0.000000     -0.001207
     -0.00000      0.00000      7.53461        -0.000000      0.000000      0.013080
     -0.00000      2.56680      7.53461        -0.000000      0.000000      0.013080
      3.63000     -0.00000      7.53461        -0.000000     -0.000000      0.013080
      3.63000      2.56680      7.53461        -0.000000      0.000000      0.013080
      1.81500      1.28340      8.67777         0.000000      0.000000     -0.001219
      1.81500      3.85020      8.67777        -0.000000      0.000000     -0.001219
      5.44500      1.28340      8.67777        -0.000000     -0.000000     -0.001219
      5.44500      3.85020      8.67777         0.000000      0.000000     -0.001219
 -----------------------------------------------------------------------------------
    total drift:                                0.000041     -0.000003     -0.021346


--------------------------------------------------------------------------------------------------------



  FREE ENERGIE OF THE ION-ELECTRON SYSTEM (eV)
  ---------------------------------------------------
  free  energy   TOTEN  =      -123.83481417 eV

  energy  without entropy=     -123.85889792  energy(sigma->0) =     -123.84284209
 
 d Force = 0.1526162E-02[-0.704E-04, 0.312E-02]  d Energy = 0.1612947E-02-0.868E-04
 d Force = 0.2951112E+02[ 0.295E+02, 0.296E+02]  d Ewald  = 0.2951111E+02 0.498E-05


--------------------------------------------------------------------------------------------------------


    POTLOK:  cpu time      0.0767: real time      0.0771


--------------------------------------------------------------------------------------------------------


 stress matrix after NEB project (eV)
    -16.52858      0.00000      0.00000
      0.00000    -15.03990      0.00000
      0.00000      0.00000     -3.11748
  FORCES: max atom, RMS     0.014823    0.007619
  FORCE total and by dimension    0.043098    0.014823
  Stress total and by dimension   22.563496   16.528582


--------------------------------------------------------------------------------------------------------


  
 reached required accuracy - stopping structural energy minimisation
     LOOP+:  cpu time     46.8405: real time     47.2112
    4ORBIT:  cpu time      0.0000: real time      0.0000

 total amount of memory used by VASP MPI-rank0    67186. kBytes
=======================================================================

   base      :      30000. kBytes
   nonl-proj :       3555. kBytes
   fftplans  :       2584. kBytes
   grid      :       6053. kBytes
   one-center:        217. kBytes
   wavefun   :      24777. kBytes
 
  
  
 General timing and accounting informations for this job:
 ========================================================
  
                  Total CPU time used (sec):     1173.092
                            User time (sec):     1135.691
                          System time (sec):       37.401
                         Elapsed time (sec):     1183.198
  
                   Maximum memory used (kb):      299560.
                   Average memory used (kb):          N/A
  
                          Minor page faults:       647190
                          Major page faults:         6694
                 Voluntary context switches:        12956
