unknown system                          
           1
     7.260000    0.000000    0.000000
     0.000000    5.133595    0.000000
     0.000000    0.000000   23.983791
   Cu
    32
Direct configuration=     1
   0.00000000  0.00000000  0.00000000
   0.00000000  0.50000000  0.00000000
   0.50000000  0.00000000  0.00000000
   0.50000000  0.50000000  0.00000000
   0.25000000  0.25000000  0.05351109
   0.25000000  0.75000000  0.05351109
   0.75000000  0.25000000  0.05351109
   0.75000000  0.75000000  0.05351109
   0.00000000  0.00000000  0.10702218
   0.00000000  0.50000000  0.10702218
   0.50000000  0.00000000  0.10702218
   0.50000000  0.50000000  0.10702218
   0.25000000  0.25000000  0.16053327
   0.25000000  0.75000000  0.16053327
   0.75000000  0.25000000  0.16053327
   0.75000000  0.75000000  0.16053327
   0.00000000  0.00000000  0.21404436
   0.00000000  0.50000000  0.21404436
   0.50000000  0.00000000  0.21404436
   0.50000000  0.50000000  0.21404436
   0.25000000  0.25000000  0.26755545
   0.25000000  0.75000000  0.26755545
   0.75000000  0.25000000  0.26755545
   0.75000000  0.75000000  0.26755545
   0.00000000  0.00000000  0.32106654
   0.00000000  0.50000000  0.32106654
   0.50000000  0.00000000  0.32106654
   0.50000000  0.50000000  0.32106654
   0.25000000  0.25000000  0.37457763
   0.25000000  0.75000000  0.37457763
   0.75000000  0.25000000  0.37457763
   0.75000000  0.75000000  0.37457763
Direct configuration=     2
   0.00000000  0.00000000  0.00000000
   0.00000000  0.50000000  0.00000000
   0.50000000  0.00000000  0.00000000
   0.50000000  0.50000000  0.00000000
   0.25000000  0.25000000  0.05351109
   0.25000000  0.75000000  0.05351109
   0.75000000  0.25000000  0.05351109
   0.75000000  0.75000000  0.05351109
  -0.00000000 -0.00000000  0.10737086
  -0.00000000  0.50000000  0.10737086
   0.50000000 -0.00000000  0.10737086
   0.50000000  0.50000000  0.10737086
   0.25000000  0.25000000  0.16063707
   0.25000000  0.75000000  0.16063707
   0.75000000  0.25000000  0.16063707
   0.75000000  0.75000000  0.16063707
  -0.00000000  0.00000000  0.21393018
  -0.00000000  0.50000000  0.21393018
   0.50000000  0.00000000  0.21393018
   0.50000000  0.50000000  0.21393018
   0.25000000  0.25000000  0.26720312
   0.25000000  0.75000000  0.26720312
   0.75000000  0.25000000  0.26720312
   0.75000000  0.75000000  0.26720312
  -0.00000000 -0.00000000  0.32154570
  -0.00000000  0.50000000  0.32154570
   0.50000000 -0.00000000  0.32154570
   0.50000000  0.50000000  0.32154570
   0.25000000  0.25000000  0.37354908
   0.25000000  0.75000000  0.37354908
   0.75000000  0.25000000  0.37354908
   0.75000000  0.75000000  0.37354908
Direct configuration=     3
   0.00000000  0.00000000  0.00000000
   0.00000000  0.50000000  0.00000000
   0.50000000  0.00000000  0.00000000
   0.50000000  0.50000000  0.00000000
   0.25000000  0.25000000  0.05351109
   0.25000000  0.75000000  0.05351109
   0.75000000  0.25000000  0.05351109
   0.75000000  0.75000000  0.05351109
  -0.00000000 -0.00000000  0.10841692
  -0.00000000  0.50000000  0.10841692
   0.50000000 -0.00000000  0.10841692
   0.50000000  0.50000000  0.10841692
   0.25000000  0.25000000  0.16094845
   0.25000000  0.75000000  0.16094845
   0.75000000  0.25000000  0.16094845
   0.75000000  0.75000000  0.16094845
  -0.00000000  0.00000000  0.21358764
  -0.00000000  0.50000000  0.21358764
   0.50000000  0.00000000  0.21358764
   0.50000000  0.50000000  0.21358764
   0.25000000  0.25000000  0.26614612
   0.25000000  0.75000000  0.26614612
   0.75000000  0.25000000  0.26614612
   0.75000000  0.75000000  0.26614612
  -0.00000000 -0.00000000  0.32298317
  -0.00000000  0.50000000  0.32298317
   0.50000000 -0.00000000  0.32298317
   0.50000000  0.50000000  0.32298317
   0.25000000  0.25000000  0.37046341
   0.25000000  0.75000000  0.37046341
   0.75000000  0.25000000  0.37046341
   0.75000000  0.75000000  0.37046341
Direct configuration=     4
   0.00000000  0.00000000  0.00000000
   0.00000000  0.50000000  0.00000000
   0.50000000  0.00000000  0.00000000
   0.50000000  0.50000000  0.00000000
   0.25000000  0.25000000  0.05351109
   0.25000000  0.75000000  0.05351109
   0.75000000  0.25000000  0.05351109
   0.75000000  0.75000000  0.05351109
  -0.00000000 -0.00000000  0.10828162
  -0.00000000  0.50000000  0.10828162
   0.50000000 -0.00000000  0.10828162
   0.50000000  0.50000000  0.10828162
   0.25000000  0.25000000  0.16087773
   0.25000000  0.75000000  0.16087773
   0.75000000  0.25000000  0.16087773
   0.75000000  0.75000000  0.16087773
  -0.00000000  0.00000000  0.21387869
  -0.00000000  0.50000000  0.21387869
   0.50000000  0.00000000  0.21387869
   0.50000000  0.50000000  0.21387869
   0.25000000  0.25000000  0.26581334
   0.25000000  0.75000000  0.26581334
   0.75000000  0.25000000  0.26581334
   0.75000000  0.75000000  0.26581334
  -0.00000000 -0.00000000  0.32244943
  -0.00000000  0.50000000  0.32244943
   0.50000000 -0.00000000  0.32244943
   0.50000000  0.50000000  0.32244943
   0.25000000  0.25000000  0.36970850
   0.25000000  0.75000000  0.36970850
   0.75000000  0.25000000  0.36970850
   0.75000000  0.75000000  0.36970850
Direct configuration=     5
   0.00000000  0.00000000  0.00000000
   0.00000000  0.50000000  0.00000000
   0.50000000  0.00000000  0.00000000
   0.50000000  0.50000000  0.00000000
   0.25000000  0.25000000  0.05351109
   0.25000000  0.75000000  0.05351109
   0.75000000  0.25000000  0.05351109
   0.75000000  0.75000000  0.05351109
   0.00000000  0.00000000  0.10796344
  -0.00000000  0.50000000  0.10796344
   0.50000000  0.00000000  0.10796344
   0.50000000  0.50000000  0.10796344
   0.25000000  0.25000000  0.16071141
   0.25000000  0.75000000  0.16071141
   0.75000000  0.25000000  0.16071141
   0.75000000  0.75000000  0.16071141
   0.00000000  0.00000000  0.21456315
   0.00000000  0.50000000  0.21456315
   0.50000000  0.00000000  0.21456315
   0.50000000  0.50000000  0.21456315
   0.25000000  0.25000000  0.26503075
   0.25000000  0.75000000  0.26503075
   0.75000000  0.25000000  0.26503075
   0.75000000  0.75000000  0.26503075
  -0.00000000  0.00000000  0.32119426
  -0.00000000  0.50000000  0.32119426
   0.50000000 -0.00000000  0.32119426
   0.50000000  0.50000000  0.32119426
   0.25000000  0.25000000  0.36793322
   0.25000000  0.75000000  0.36793322
   0.75000000  0.25000000  0.36793322
   0.75000000  0.75000000  0.36793322
Direct configuration=     6
   0.00000000  0.00000000  0.00000000
   0.00000000  0.50000000  0.00000000
   0.50000000  0.00000000  0.00000000
   0.50000000  0.50000000  0.00000000
   0.25000000  0.25000000  0.05351109
   0.25000000  0.75000000  0.05351109
   0.75000000  0.25000000  0.05351109
   0.75000000  0.75000000  0.05351109
   0.00000000  0.00000000  0.10799531
  -0.00000000  0.50000000  0.10799531
   0.50000000  0.00000000  0.10799531
   0.50000000  0.50000000  0.10799531
   0.25000000  0.25000000  0.16053765
   0.25000000  0.75000000  0.16053765
   0.75000000  0.25000000  0.16053765
   0.75000000  0.75000000  0.16053765
   0.00000000  0.00000000  0.21398096
   0.00000000  0.50000000  0.21398096
   0.50000000  0.00000000  0.21398096
   0.50000000  0.50000000  0.21398096
   0.25000000  0.25000000  0.26459004
   0.25000000  0.75000000  0.26459004
   0.75000000  0.25000000  0.26459004
   0.75000000  0.75000000  0.26459004
  -0.00000000  0.00000000  0.32023082
  -0.00000000  0.50000000  0.32023082
   0.50000000 -0.00000000  0.32023082
   0.50000000  0.50000000  0.32023082
   0.25000000  0.25000000  0.36729745
   0.25000000  0.75000000  0.36729745
   0.75000000  0.25000000  0.36729745
   0.75000000  0.75000000  0.36729745
Direct configuration=     7
   0.00000000  0.00000000  0.00000000
   0.00000000  0.50000000  0.00000000
   0.50000000  0.00000000  0.00000000
   0.50000000  0.50000000  0.00000000
   0.25000000  0.25000000  0.05351109
   0.25000000  0.75000000  0.05351109
   0.75000000  0.25000000  0.05351109
   0.75000000  0.75000000  0.05351109
   0.00000000  0.00000000  0.10809092
  -0.00000000  0.50000000  0.10809092
   0.50000000  0.00000000  0.10809092
   0.50000000  0.50000000  0.10809092
   0.25000000  0.25000000  0.16001637
   0.25000000  0.75000000  0.16001637
   0.75000000  0.25000000  0.16001637
   0.75000000  0.75000000  0.16001637
   0.00000000  0.00000000  0.21223440
   0.00000000  0.50000000  0.21223440
   0.50000000  0.00000000  0.21223440
   0.50000000  0.50000000  0.21223440
   0.25000000  0.25000000  0.26326790
   0.25000000  0.75000000  0.26326790
   0.75000000  0.25000000  0.26326790
   0.75000000  0.75000000  0.26326790
  -0.00000000  0.00000000  0.31734049
  -0.00000000  0.50000000  0.31734049
   0.50000000 -0.00000000  0.31734049
   0.50000000  0.50000000  0.31734049
   0.25000000  0.25000000  0.36539013
   0.25000000  0.75000000  0.36539013
   0.75000000  0.25000000  0.36539013
   0.75000000  0.75000000  0.36539013
Direct configuration=     8
   0.00000000  0.00000000  0.00000000
   0.00000000  0.50000000  0.00000000
   0.50000000  0.00000000  0.00000000
   0.50000000  0.50000000  0.00000000
   0.25000000  0.25000000  0.05351109
   0.25000000  0.75000000  0.05351109
   0.75000000  0.25000000  0.05351109
   0.75000000  0.75000000  0.05351109
   0.00000000  0.00000000  0.10811601
  -0.00000000  0.50000000  0.10811601
   0.50000000  0.00000000  0.10811601
   0.50000000  0.50000000  0.10811601
   0.25000000  0.25000000  0.15987961
   0.25000000  0.75000000  0.15987961
   0.75000000  0.25000000  0.15987961
   0.75000000  0.75000000  0.15987961
   0.00000000  0.00000000  0.21177621
   0.00000000  0.50000000  0.21177621
   0.50000000  0.00000000  0.21177621
   0.50000000  0.50000000  0.21177621
   0.25000000  0.25000000  0.26292105
   0.25000000  0.75000000  0.26292105
   0.75000000  0.25000000  0.26292105
   0.75000000  0.75000000  0.26292105
  -0.00000000  0.00000000  0.31658225
  -0.00000000  0.50000000  0.31658225
   0.50000000 -0.00000000  0.31658225
   0.50000000  0.50000000  0.31658225
   0.25000000  0.25000000  0.36488977
   0.25000000  0.75000000  0.36488977
   0.75000000  0.25000000  0.36488977
   0.75000000  0.75000000  0.36488977
Direct configuration=     9
   0.00000000  0.00000000  0.00000000
   0.00000000  0.50000000  0.00000000
   0.50000000  0.00000000  0.00000000
   0.50000000  0.50000000  0.00000000
   0.25000000  0.25000000  0.05351109
   0.25000000  0.75000000  0.05351109
   0.75000000  0.25000000  0.05351109
   0.75000000  0.75000000  0.05351109
   0.00000000  0.00000000  0.10751326
  -0.00000000  0.50000000  0.10751326
   0.50000000  0.00000000  0.10751326
   0.50000000  0.50000000  0.10751326
   0.25000000  0.25000000  0.15929460
   0.25000000  0.75000000  0.15929460
   0.75000000  0.25000000  0.15929460
   0.75000000  0.75000000  0.15929460
   0.00000000  0.00000000  0.21096169
   0.00000000  0.50000000  0.21096169
   0.50000000  0.00000000  0.21096169
   0.50000000  0.50000000  0.21096169
   0.25000000  0.25000000  0.26198263
   0.25000000  0.75000000  0.26198263
   0.75000000  0.25000000  0.26198263
   0.75000000  0.75000000  0.26198263
  -0.00000000  0.00000000  0.31596282
  -0.00000000  0.50000000  0.31596282
   0.50000000 -0.00000000  0.31596282
   0.50000000  0.50000000  0.31596282
   0.25000000  0.25000000  0.36417946
   0.25000000  0.75000000  0.36417946
   0.75000000  0.25000000  0.36417946
   0.75000000  0.75000000  0.36417946
Direct configuration=    10
   0.00000000  0.00000000  0.00000000
   0.00000000  0.50000000  0.00000000
   0.50000000  0.00000000  0.00000000
   0.50000000  0.50000000  0.00000000
   0.25000000  0.25000000  0.05351109
   0.25000000  0.75000000  0.05351109
   0.75000000  0.25000000  0.05351109
   0.75000000  0.75000000  0.05351109
   0.00000000  0.00000000  0.10582982
  -0.00000000  0.50000000  0.10582982
   0.50000000  0.00000000  0.10582982
   0.50000000  0.50000000  0.10582982
   0.25000000  0.25000000  0.15766068
   0.25000000  0.75000000  0.15766068
   0.75000000  0.25000000  0.15766068
   0.75000000  0.75000000  0.15766068
   0.00000000  0.00000000  0.20868677
  -0.00000000  0.50000000  0.20868677
   0.50000000  0.00000000  0.20868677
   0.50000000  0.50000000  0.20868677
   0.25000000  0.25000000  0.25936166
   0.25000000  0.75000000  0.25936166
   0.75000000  0.25000000  0.25936166
   0.75000000  0.75000000  0.25936166
  -0.00000000  0.00000000  0.31423278
  -0.00000000  0.50000000  0.31423278
   0.50000000 -0.00000000  0.31423278
   0.50000000  0.50000000  0.31423278
   0.25000000  0.25000000  0.36219560
   0.25000000  0.75000000  0.36219560
   0.75000000  0.25000000  0.36219560
   0.75000000  0.75000000  0.36219560
Direct configuration=    11
   0.00000000  0.00000000  0.00000000
   0.00000000  0.50000000  0.00000000
   0.50000000  0.00000000  0.00000000
   0.50000000  0.50000000  0.00000000
   0.25000000  0.25000000  0.05351109
   0.25000000  0.75000000  0.05351109
   0.75000000  0.25000000  0.05351109
   0.75000000  0.75000000  0.05351109
   0.00000000  0.00000000  0.10518710
  -0.00000000  0.50000000  0.10518710
   0.50000000  0.00000000  0.10518710
   0.50000000  0.50000000  0.10518710
   0.25000000  0.25000000  0.15687205
   0.25000000  0.75000000  0.15687205
   0.75000000  0.25000000  0.15687205
   0.75000000  0.75000000  0.15687205
   0.00000000  0.00000000  0.20864939
   0.00000000  0.50000000  0.20864939
   0.50000000  0.00000000  0.20864939
   0.50000000  0.50000000  0.20864939
   0.25000000  0.25000000  0.25954391
   0.25000000  0.75000000  0.25954391
   0.75000000  0.25000000  0.25954391
   0.75000000  0.75000000  0.25954391
  -0.00000000  0.00000000  0.31411133
  -0.00000000  0.50000000  0.31411133
   0.50000000 -0.00000000  0.31411133
   0.50000000  0.50000000  0.31411133
   0.25000000  0.25000000  0.36161235
   0.25000000  0.75000000  0.36161235
   0.75000000  0.25000000  0.36161235
   0.75000000  0.75000000  0.36161235
Direct configuration=    12
   0.00000000  0.00000000  0.00000000
   0.00000000  0.50000000  0.00000000
   0.50000000  0.00000000  0.00000000
   0.50000000  0.50000000  0.00000000
   0.25000000  0.25000000  0.05351109
   0.25000000  0.75000000  0.05351109
   0.75000000  0.25000000  0.05351109
   0.75000000  0.75000000  0.05351109
   0.00000000  0.00000000  0.10541371
  -0.00000000  0.50000000  0.10541371
   0.50000000  0.00000000  0.10541371
   0.50000000  0.50000000  0.10541371
   0.25000000  0.25000000  0.15715010
   0.25000000  0.75000000  0.15715010
   0.75000000  0.25000000  0.15715010
   0.75000000  0.75000000  0.15715010
   0.00000000  0.00000000  0.20866257
  -0.00000000  0.50000000  0.20866257
   0.50000000  0.00000000  0.20866257
   0.50000000  0.50000000  0.20866257
   0.25000000  0.25000000  0.25947965
   0.25000000  0.75000000  0.25947965
   0.75000000  0.25000000  0.25947965
   0.75000000  0.75000000  0.25947965
  -0.00000000  0.00000000  0.31415415
  -0.00000000  0.50000000  0.31415415
   0.50000000 -0.00000000  0.31415415
   0.50000000  0.50000000  0.31415415
   0.25000000  0.25000000  0.36181799
   0.25000000  0.75000000  0.36181799
   0.75000000  0.25000000  0.36181799
   0.75000000  0.75000000  0.36181799
