<?xml version="1.0" encoding="ISO-8859-1"?>
<modeling>
 <generator>
  <i name="program" type="string">vasp </i>
  <i name="version" type="string">6.3.2  </i>
  <i name="subversion" type="string">27Jun22 (build Aug 17 2022 15:43:34) complex                          parallel </i>
  <i name="platform" type="string">tv2STDVTST </i>
  <i name="date" type="string">2025 01 21 </i>
  <i name="time" type="string">22:14:30 </i>
 </generator>
 <incar>
  <i type="int" name="ISTART">     0</i>
  <i type="string" name="PREC">Normal</i>
  <i type="int" name="ISPIN">     2</i>
  <i type="int" name="ICHARG">     2</i>
  <i type="int" name="IBRION">     2</i>
  <i name="EDIFF">      0.00020000</i>
  <i name="EDIFFG">     -0.03000000</i>
  <i type="int" name="NSW">   800</i>
  <i type="int" name="ISIF">     2</i>
  <i type="int" name="ISYM">     1</i>
  <i name="ENCUT">    400.00000000</i>
  <i name="POTIM">      0.50000000</i>
  <i type="logical" name="LREAL"> F  </i>
  <i type="int" name="ISMEAR">     1</i>
  <i name="SIGMA">      0.20000000</i>
  <i type="logical" name="LWAVE"> F  </i>
  <i type="logical" name="LCHARG"> F  </i>
  <i type="string" name="GGA">PE</i>
  <i type="int" name="IDIPOL">     3</i>
  <i type="int" name="IVDW">    11</i>
 </incar>
 <primitive_cell>
  <structure name="primitive_cell" >
   <crystal>
    <varray name="basis" >
     <v>       1.81500006      -1.81500006       0.00000000 </v>
     <v>       1.81500006       1.81500006       0.00000000 </v>
     <v>       0.00000000       0.00000000      27.70499992 </v>
    </varray>
    <i name="volume">    182.53301821 </i>
    <varray name="rec_basis" >
     <v>       0.27548209      -0.27548209       0.00000000 </v>
     <v>       0.27548209       0.27548209       0.00000000 </v>
     <v>       0.00000000       0.00000000       0.03609457 </v>
    </varray>
   </crystal>
   <varray name="positions" >
    <v>       0.00000000       0.00000000       0.00000000 </v>
    <v>       0.50000000       0.50000000       0.06551164 </v>
    <v>       0.00000000       0.00000000       0.13102328 </v>
    <v>       0.50000000       0.50000000       0.19653492 </v>
    <v>       0.00000000       0.00000000       0.26204657 </v>
    <v>       0.50000000       0.50000000       0.32755821 </v>
    <v>       0.00000000       0.00000000       0.39306985 </v>
    <v>       0.50000000       0.50000000       0.45858149 </v>
   </varray>
  </structure>
  <varray name="primitive_index" >
   <v type="int" >        1 </v>
   <v type="int" >       19 </v>
   <v type="int" >       37 </v>
   <v type="int" >       55 </v>
   <v type="int" >       73 </v>
   <v type="int" >       91 </v>
   <v type="int" >      109 </v>
   <v type="int" >      127 </v>
  </varray>
 </primitive_cell>
 <kpoints>
  <generation param="Monkhorst-Pack">
   <v type="int" name="divisions">       3        3        1 </v>
   <v name="usershift">      0.00000000       0.00000000       0.00000000 </v>
   <v name="genvec1">      0.33333333       0.00000000       0.00000000 </v>
   <v name="genvec2">      0.00000000       0.33333333       0.00000000 </v>
   <v name="genvec3">      0.00000000       0.00000000       1.00000000 </v>
   <v name="shift">      0.00000000       0.00000000       0.00000000 </v>
  </generation>
  <varray name="kpointlist" >
   <v>       0.00000000       0.00000000       0.00000000 </v>
   <v>       0.33333333       0.00000000       0.00000000 </v>
   <v>       0.33333333       0.33333333       0.00000000 </v>
  </varray>
  <varray name="weights" >
   <v>       0.11111111 </v>
   <v>       0.44444444 </v>
   <v>       0.44444444 </v>
  </varray>
 </kpoints>
 <parameters>
  <separator name="general" >
   <i type="string" name="SYSTEM">unknown system</i>
   <i type="logical" name="LCOMPAT"> F  </i>
  </separator>
  <separator name="electronic" >
   <i type="string" name="PREC">normal</i>
   <i name="ENMAX">    400.00000000</i>
   <i name="ENAUG">    586.98000000</i>
   <i name="EDIFF">      0.00020000</i>
   <i type="int" name="IALGO">    38</i>
   <i type="int" name="IWAVPR">    11</i>
   <i type="int" name="NBANDS">  1024</i>
   <i type="int" name="NBANDSLOW">    -1</i>
   <i type="int" name="NBANDSHIGH">    -1</i>
   <i name="NELECT">   1584.00000000</i>
   <i type="int" name="TURBO">     0</i>
   <i type="int" name="IRESTART">     0</i>
   <i type="int" name="NREBOOT">     0</i>
   <i type="int" name="NMIN">     0</i>
   <i name="EREF">      0.00000000</i>
   <separator name="electronic smearing" >
    <i type="int" name="ISMEAR">     1</i>
    <i name="SIGMA">      0.20000000</i>
    <i name="KSPACING">      0.50000000</i>
    <i type="logical" name="KGAMMA"> T  </i>
    <i type="logical" name="KBLOWUP"> T  </i>
   </separator>
   <separator name="electronic projectors" >
    <i type="logical" name="LREAL"> F  </i>
    <v name="ROPT">      0.00000000</v>
    <i type="int" name="LMAXPAW">  -100</i>
    <i type="int" name="LMAXMIX">     2</i>
    <i type="logical" name="NLSPLINE"> F  </i>
   </separator>
   <separator name="electronic startup" >
    <i type="int" name="ISTART">     0</i>
    <i type="int" name="ICHARG">     2</i>
    <i type="int" name="INIWAV">     1</i>
   </separator>
   <separator name="electronic spin" >
    <i type="int" name="ISPIN">     2</i>
    <i type="logical" name="LNONCOLLINEAR"> F  </i>
    <v name="MAGMOM">      1.00000000      1.00000000      1.00000000      1.00000000      1.00000000      1.00000000      1.00000000      1.00000000      1.00000000      1.00000000      1.00000000      1.00000000      1.00000000      1.00000000      1.00000000      1.00000000      1.00000000      1.00000000      1.00000000      1.00000000
      1.00000000      1.00000000      1.00000000      1.00000000      1.00000000      1.00000000      1.00000000      1.00000000      1.00000000      1.00000000      1.00000000      1.00000000      1.00000000      1.00000000      1.00000000      1.00000000      1.00000000      1.00000000      1.00000000      1.00000000
      1.00000000      1.00000000      1.00000000      1.00000000      1.00000000      1.00000000      1.00000000      1.00000000      1.00000000      1.00000000      1.00000000      1.00000000      1.00000000      1.00000000      1.00000000      1.00000000      1.00000000      1.00000000      1.00000000      1.00000000
      1.00000000      1.00000000      1.00000000      1.00000000      1.00000000      1.00000000      1.00000000      1.00000000      1.00000000      1.00000000      1.00000000      1.00000000      1.00000000      1.00000000      1.00000000      1.00000000      1.00000000      1.00000000      1.00000000      1.00000000
      1.00000000      1.00000000      1.00000000      1.00000000      1.00000000      1.00000000      1.00000000      1.00000000      1.00000000      1.00000000      1.00000000      1.00000000      1.00000000      1.00000000      1.00000000      1.00000000      1.00000000      1.00000000      1.00000000      1.00000000
      1.00000000      1.00000000      1.00000000      1.00000000      1.00000000      1.00000000      1.00000000      1.00000000      1.00000000      1.00000000      1.00000000      1.00000000      1.00000000      1.00000000      1.00000000      1.00000000      1.00000000      1.00000000      1.00000000      1.00000000
      1.00000000      1.00000000      1.00000000      1.00000000      1.00000000      1.00000000      1.00000000      1.00000000      1.00000000      1.00000000      1.00000000      1.00000000      1.00000000      1.00000000      1.00000000      1.00000000      1.00000000      1.00000000      1.00000000      1.00000000
      1.00000000      1.00000000      1.00000000      1.00000000</v>
    <i name="NUPDOWN">     -1.00000000</i>
    <i type="logical" name="LSORBIT"> F  </i>
    <v name="SAXIS">      0.00000000      0.00000000      1.00000000</v>
    <i type="logical" name="LSPIRAL"> F  </i>
    <v name="QSPIRAL">      0.00000000      0.00000000      0.00000000</v>
    <i type="logical" name="LZEROZ"> F  </i>
   </separator>
   <separator name="electronic exchange-correlation" >
    <i type="logical" name="LASPH"> F  </i>
    <i type="logical" name="LMETAGGA"> F  </i>
   </separator>
   <separator name="electronic convergence" >
    <i type="int" name="NELM">    60</i>
    <i type="int" name="NELMDL">    -5</i>
    <i type="int" name="NELMIN">     2</i>
    <i name="ENINI">    400.00000000</i>
    <separator name="electronic convergence detail" >
     <i type="logical" name="LDIAG"> T  </i>
     <i type="logical" name="LSUBROT"> F  </i>
     <i name="WEIMIN">      0.00100000</i>
     <i name="EBREAK">      0.00000005</i>
     <i name="DEPER">      0.30000000</i>
     <i type="int" name="NRMM">     4</i>
     <i name="TIME">      0.40000000</i>
    </separator>
   </separator>
   <separator name="electronic mixer" >
    <i name="AMIX">      0.40000000</i>
    <i name="BMIX">      1.00000000</i>
    <i name="AMIN">      0.10000000</i>
    <i name="AMIX_MAG">      1.60000000</i>
    <i name="BMIX_MAG">      1.00000000</i>
    <separator name="electronic mixer details" >
     <i type="int" name="IMIX">     4</i>
     <i type="logical" name="MIXFIRST"> F  </i>
     <i type="int" name="MAXMIX">   -45</i>
     <i name="WC">    100.00000000</i>
     <i type="int" name="INIMIX">     1</i>
     <i type="int" name="MIXPRE">     1</i>
     <i type="int" name="MREMOVE">     5</i>
    </separator>
   </separator>
   <separator name="electronic dipolcorrection" >
    <i type="logical" name="LDIPOL"> F  </i>
    <i type="logical" name="LMONO"> F  </i>
    <i type="int" name="IDIPOL">     3</i>
    <i name="EPSILON">      1.00000000</i>
    <v name="DIPOL">   -100.00000000   -100.00000000   -100.00000000</v>
    <i name="EFIELD">      0.00000000</i>
   </separator>
  </separator>
  <separator name="grids" >
   <i type="int" name="NGX">    54</i>
   <i type="int" name="NGY">    54</i>
   <i type="int" name="NGZ">   140</i>
   <i type="int" name="NGXF">   108</i>
   <i type="int" name="NGYF">   108</i>
   <i type="int" name="NGZF">   280</i>
   <i type="logical" name="ADDGRID"> F  </i>
  </separator>
  <separator name="ionic" >
   <i type="int" name="NSW">   800</i>
   <i type="int" name="IBRION">     2</i>
   <i type="int" name="MDALGO">     0</i>
   <i type="int" name="ISIF">     2</i>
   <i name="PSTRESS">      0.00000000</i>
   <i name="EDIFFG">     -0.03000000</i>
   <i type="int" name="NFREE">     1</i>
   <i name="POTIM">      0.50000000</i>
   <i name="SMASS">     -3.00000000</i>
   <i name="SCALEE">      1.00000000</i>
  </separator>
  <separator name="ionic md" >
   <i name="TEBEG">      0.00010000</i>
   <i name="TEEND">      0.00010000</i>
   <i type="int" name="NBLOCK">     1</i>
   <i type="int" name="KBLOCK">   800</i>
   <i type="int" name="NPACO">   256</i>
   <i name="APACO">     10.00000000</i>
  </separator>
  <separator name="symmetry" >
   <i type="int" name="ISYM">     1</i>
   <i name="SYMPREC">      0.00001000</i>
  </separator>
  <separator name="dos" >
   <i type="int" name="LORBIT">     0</i>
   <v name="RWIGS">     -1.00000000</v>
   <i type="int" name="NEDOS">   301</i>
   <i name="EMIN">     10.00000000</i>
   <i name="EMAX">    -10.00000000</i>
   <i name="EFERMI">      0.00000000</i>
  </separator>
  <separator name="writing" >
   <i type="int" name="NWRITE">     2</i>
   <i type="logical" name="LWAVE"> F  </i>
   <i type="logical" name="LDOWNSAMPLE"> F  </i>
   <i type="logical" name="LCHARG"> F  </i>
   <i type="logical" name="LPARD"> F  </i>
   <i type="logical" name="LVTOT"> F  </i>
   <i type="logical" name="LVHAR"> F  </i>
   <i type="logical" name="LELF"> F  </i>
   <i type="logical" name="LOPTICS"> F  </i>
   <v name="STM">      0.00000000      0.00000000      0.00000000      0.00000000      0.00000000      0.00000000      0.00000000</v>
  </separator>
  <separator name="performance" >
   <i type="int" name="NPAR">     4</i>
   <i type="int" name="NSIM">     4</i>
   <i type="int" name="NBLK">    -1</i>
   <i type="logical" name="LPLANE"> T  </i>
   <i type="logical" name="LSCALAPACK"> T  </i>
   <i type="logical" name="LSCAAWARE"> F  </i>
   <i type="logical" name="LSCALU"> F  </i>
   <i type="logical" name="LASYNC"> F  </i>
   <i type="logical" name="LORBITALREAL"> F  </i>
  </separator>
  <separator name="miscellaneous" >
   <i type="int" name="IDIOT">     3</i>
   <i type="int" name="PHON_NSTRUCT">    -1</i>
   <i type="logical" name="LMUSIC"> F  </i>
   <v name="POMASS">     63.54600000</v>
   <v name="DARWINR">      0.00000000</v>
   <v name="DARWINV">      1.00000000</v>
   <i type="logical" name="LCORR"> T  </i>
  </separator>
  <i type="logical" name="GGA_COMPAT"> T  </i>
  <i type="logical" name="LBERRY"> F  </i>
  <i type="int" name="ICORELEVEL">     0</i>
  <i type="logical" name="LDAU"> F  </i>
  <i type="int" name="I_CONSTRAINED_M">     0</i>
  <separator name="electronic exchange-correlation" >
   <i type="string" name="GGA">PE</i>
   <i type="int" name="VOSKOWN">     0</i>
   <i type="logical" name="LHFCALC"> F  </i>
   <i type="string" name="PRECFOCK"></i>
   <i type="logical" name="LSYMGRAD"> F  </i>
   <i type="logical" name="LHFONE"> F  </i>
   <i type="logical" name="LRHFCALC"> F  </i>
   <i type="logical" name="LTHOMAS"> F  </i>
   <i type="logical" name="LMODELHF"> F  </i>
   <i type="logical" name="LFOCKACE"> F  </i>
   <i name="ENCUT4O">     -1.00000000</i>
   <i type="int" name="EXXOEP">     0</i>
   <i type="int" name="FOURORBIT">     0</i>
   <i name="AEXX">      0.00000000</i>
   <i name="HFALPHA">      0.00000000</i>
   <i name="MCALPHA">      0.00000000</i>
   <i name="ALDAX">      1.00000000</i>
   <i name="AGGAX">      1.00000000</i>
   <i name="ALDAC">      1.00000000</i>
   <i name="AGGAC">      1.00000000</i>
   <i type="int" name="NKREDX">     1</i>
   <i type="int" name="NKREDY">     1</i>
   <i type="int" name="NKREDZ">     1</i>
   <i type="logical" name="SHIFTRED"> F  </i>
   <i type="logical" name="ODDONLY"> F  </i>
   <i type="logical" name="EVENONLY"> F  </i>
   <i type="int" name="LMAXFOCK">     0</i>
   <i type="int" name="NMAXFOCKAE">     0</i>
   <i type="logical" name="LFOCKAEDFT"> F  </i>
   <i name="HFSCREEN">      0.00000000</i>
   <i name="HFSCREENC">      0.00000000</i>
   <i type="int" name="NBANDSGWLOW">     0</i>
  </separator>
  <separator name="vdW DFT" >
   <i type="logical" name="LUSE_VDW"> F  </i>
   <i name="Zab_VDW">     -0.84910000</i>
   <i name="PARAM1">      0.12340000</i>
   <i name="PARAM2">      1.00000000</i>
   <i name="PARAM3">      0.00000000</i>
  </separator>
  <separator name="model GW" >
   <i type="int" name="MODEL_GW">     0</i>
   <i name="MODEL_EPS0">     13.68997637</i>
   <i name="MODEL_ALPHA">      1.00000000</i>
  </separator>
  <separator name="linear response parameters" >
   <i type="logical" name="LEPSILON"> F  </i>
   <i type="logical" name="LRPA"> F  </i>
   <i type="logical" name="LNABLA"> F  </i>
   <i type="logical" name="LVEL"> F  </i>
   <i name="CSHIFT">      0.10000000</i>
   <i name="OMEGAMAX">     -1.00000000</i>
   <i name="DEG_THRESHOLD">      0.00200000</i>
   <i name="RTIME">     -0.10000000</i>
   <i name="WPLASMAI">      0.00000000</i>
   <v name="DFIELD">      0.00000000      0.00000000      0.00000000</v>
   <v name="WPLASMA">      0.00000000      0.00000000      0.00000000      0.00000000      0.00000000      0.00000000      0.00000000      0.00000000      0.00000000</v>
  </separator>
  <separator name="orbital magnetization" >
   <i type="logical" name="NUCIND"> F  </i>
   <v name="MAGPOS">      0.00000000      0.00000000      0.00000000</v>
   <i type="logical" name="LNICSALL"> T  </i>
   <i type="logical" name="ORBITALMAG"> F  </i>
   <i type="logical" name="LMAGBLOCH"> F  </i>
   <i type="logical" name="LCHIMAG"> F  </i>
   <i type="logical" name="LGAUGE"> T  </i>
   <i type="int" name="MAGATOM">     0</i>
   <v name="MAGDIPOL">      0.00000000      0.00000000      0.00000000</v>
   <v name="AVECCONST">      0.00000000      0.00000000      0.00000000</v>
  </separator>
  <separator name="response functions" >
   <i type="logical" name="LFINITE_TEMPERATURE"> F  </i>
   <i type="logical" name="LADDER"> F  </i>
   <i type="logical" name="LRPAFORCE"> F  </i>
   <i type="logical" name="LFXC"> F  </i>
   <i type="logical" name="LHARTREE"> T  </i>
   <i type="int" name="IBSE">     0</i>
   <v type="int" name="KPOINT">    -1     0     0     0</v>
   <i type="logical" name="LTCTC"> F  </i>
   <i type="logical" name="LTCTE"> F  </i>
   <i type="logical" name="LTETE"> F  </i>
   <i type="logical" name="LTRIPLET"> F  </i>
   <i type="logical" name="LFXCEPS"> F  </i>
   <i type="logical" name="LFXHEG"> F  </i>
   <i type="int" name="NATURALO">     2</i>
   <i type="logical" name="LHOLEGF"> F  </i>
   <i type="logical" name="L2ORDER"> F  </i>
   <i type="logical" name="LDMP1"> F  </i>
   <i type="logical" name="LMP2LT"> F  </i>
   <i type="logical" name="LSMP2LT"> F  </i>
   <i type="logical" name="LGWLF"> F  </i>
   <i name="ENCUTGW">     -2.00000000</i>
   <i name="ENCUTGWSOFT">     -2.00000000</i>
   <i name="ENCUTLF">     -1.00000000</i>
   <i type="logical" name="LESF_SPLINES"> F  </i>
   <i type="int" name="LMAXMP2">    -1</i>
   <i name="SCISSOR">      0.00000000</i>
   <i type="int" name="NOMEGA">     0</i>
   <i type="int" name="NOMEGAR">     0</i>
   <i type="int" name="NBANDSGW">    -1</i>
   <i type="int" name="NBANDSO">    -1</i>
   <i type="int" name="NBANDSV">    -1</i>
   <i type="int" name="NELMGW">     1</i>
   <i type="int" name="NELMHF">     1</i>
   <i type="int" name="DIM">     3</i>
   <i type="int" name="IESPILON">     4</i>
   <i type="int" name="ANTIRES">     0</i>
   <i name="OMEGAMAX">    -30.00000000</i>
   <i name="OMEGAMIN">    -30.00000000</i>
   <i name="OMEGATL">   -200.00000000</i>
   <i type="int" name="OMEGAGRID">     0</i>
   <i name="CSHIFT">     -0.10000000</i>
   <i type="logical" name="LSELFENERGY"> F  </i>
   <i type="logical" name="LSPECTRAL"> F  </i>
   <i type="logical" name="LSPECTRALGW"> F  </i>
   <i type="logical" name="LSINGLES"> F  </i>
   <i type="logical" name="LFERMIGW"> F  </i>
   <i type="logical" name="ODDONLYGW"> F  </i>
   <i type="logical" name="EVENONLYGW"> F  </i>
   <i type="int" name="NKREDLFX">     1</i>
   <i type="int" name="NKREDLFY">     1</i>
   <i type="int" name="NKREDLFZ">     1</i>
   <i type="int" name="MAXMEM">  2800</i>
   <i type="int" name="TELESCOPE">     0</i>
   <i type="int" name="NTAUPAR">    -1</i>
   <i type="int" name="NOMEGAPAR">    -1</i>
   <i name="DAMP_NEWTON">      0.80000001</i>
   <i name="LAMBDA">      1.00000000</i>
  </separator>
  <separator name="External order field" >
   <i name="OFIELD_KAPPA">      0.00000000</i>
   <v name="OFIELD_K">      0.00000000      0.00000000      0.00000000</v>
   <i name="OFIELD_Q6_NEAR">      0.00000000</i>
   <i name="OFIELD_Q6_FAR">      0.00000000</i>
   <i name="OFIELD_A">      0.00000000</i>
  </separator>
  <separator name="optional k-points parameters" >
   <i type="int" name="KPOINTS_OPT_MODE">     1</i>
   <i type="logical" name="LKPOINTS_OPT"> F  </i>
  </separator>
 </parameters>
 <atominfo>
  <atoms>     144 </atoms>
  <types>       1 </types>
  <array name="atoms" >
   <dimension dim="1">ion</dimension>
   <field type="string">element</field>
   <field type="int">atomtype</field>
   <set>
    <rc><c>Cu</c><c>   1</c></rc>
    <rc><c>Cu</c><c>   1</c></rc>
    <rc><c>Cu</c><c>   1</c></rc>
    <rc><c>Cu</c><c>   1</c></rc>
    <rc><c>Cu</c><c>   1</c></rc>
    <rc><c>Cu</c><c>   1</c></rc>
    <rc><c>Cu</c><c>   1</c></rc>
    <rc><c>Cu</c><c>   1</c></rc>
    <rc><c>Cu</c><c>   1</c></rc>
    <rc><c>Cu</c><c>   1</c></rc>
    <rc><c>Cu</c><c>   1</c></rc>
    <rc><c>Cu</c><c>   1</c></rc>
    <rc><c>Cu</c><c>   1</c></rc>
    <rc><c>Cu</c><c>   1</c></rc>
    <rc><c>Cu</c><c>   1</c></rc>
    <rc><c>Cu</c><c>   1</c></rc>
    <rc><c>Cu</c><c>   1</c></rc>
    <rc><c>Cu</c><c>   1</c></rc>
    <rc><c>Cu</c><c>   1</c></rc>
    <rc><c>Cu</c><c>   1</c></rc>
    <rc><c>Cu</c><c>   1</c></rc>
    <rc><c>Cu</c><c>   1</c></rc>
    <rc><c>Cu</c><c>   1</c></rc>
    <rc><c>Cu</c><c>   1</c></rc>
    <rc><c>Cu</c><c>   1</c></rc>
    <rc><c>Cu</c><c>   1</c></rc>
    <rc><c>Cu</c><c>   1</c></rc>
    <rc><c>Cu</c><c>   1</c></rc>
    <rc><c>Cu</c><c>   1</c></rc>
    <rc><c>Cu</c><c>   1</c></rc>
    <rc><c>Cu</c><c>   1</c></rc>
    <rc><c>Cu</c><c>   1</c></rc>
    <rc><c>Cu</c><c>   1</c></rc>
    <rc><c>Cu</c><c>   1</c></rc>
    <rc><c>Cu</c><c>   1</c></rc>
    <rc><c>Cu</c><c>   1</c></rc>
    <rc><c>Cu</c><c>   1</c></rc>
    <rc><c>Cu</c><c>   1</c></rc>
    <rc><c>Cu</c><c>   1</c></rc>
    <rc><c>Cu</c><c>   1</c></rc>
    <rc><c>Cu</c><c>   1</c></rc>
    <rc><c>Cu</c><c>   1</c></rc>
    <rc><c>Cu</c><c>   1</c></rc>
    <rc><c>Cu</c><c>   1</c></rc>
    <rc><c>Cu</c><c>   1</c></rc>
    <rc><c>Cu</c><c>   1</c></rc>
    <rc><c>Cu</c><c>   1</c></rc>
    <rc><c>Cu</c><c>   1</c></rc>
    <rc><c>Cu</c><c>   1</c></rc>
    <rc><c>Cu</c><c>   1</c></rc>
    <rc><c>Cu</c><c>   1</c></rc>
    <rc><c>Cu</c><c>   1</c></rc>
    <rc><c>Cu</c><c>   1</c></rc>
    <rc><c>Cu</c><c>   1</c></rc>
    <rc><c>Cu</c><c>   1</c></rc>
    <rc><c>Cu</c><c>   1</c></rc>
    <rc><c>Cu</c><c>   1</c></rc>
    <rc><c>Cu</c><c>   1</c></rc>
    <rc><c>Cu</c><c>   1</c></rc>
    <rc><c>Cu</c><c>   1</c></rc>
    <rc><c>Cu</c><c>   1</c></rc>
    <rc><c>Cu</c><c>   1</c></rc>
    <rc><c>Cu</c><c>   1</c></rc>
    <rc><c>Cu</c><c>   1</c></rc>
    <rc><c>Cu</c><c>   1</c></rc>
    <rc><c>Cu</c><c>   1</c></rc>
    <rc><c>Cu</c><c>   1</c></rc>
    <rc><c>Cu</c><c>   1</c></rc>
    <rc><c>Cu</c><c>   1</c></rc>
    <rc><c>Cu</c><c>   1</c></rc>
    <rc><c>Cu</c><c>   1</c></rc>
    <rc><c>Cu</c><c>   1</c></rc>
    <rc><c>Cu</c><c>   1</c></rc>
    <rc><c>Cu</c><c>   1</c></rc>
    <rc><c>Cu</c><c>   1</c></rc>
    <rc><c>Cu</c><c>   1</c></rc>
    <rc><c>Cu</c><c>   1</c></rc>
    <rc><c>Cu</c><c>   1</c></rc>
    <rc><c>Cu</c><c>   1</c></rc>
    <rc><c>Cu</c><c>   1</c></rc>
    <rc><c>Cu</c><c>   1</c></rc>
    <rc><c>Cu</c><c>   1</c></rc>
    <rc><c>Cu</c><c>   1</c></rc>
    <rc><c>Cu</c><c>   1</c></rc>
    <rc><c>Cu</c><c>   1</c></rc>
    <rc><c>Cu</c><c>   1</c></rc>
    <rc><c>Cu</c><c>   1</c></rc>
    <rc><c>Cu</c><c>   1</c></rc>
    <rc><c>Cu</c><c>   1</c></rc>
    <rc><c>Cu</c><c>   1</c></rc>
    <rc><c>Cu</c><c>   1</c></rc>
    <rc><c>Cu</c><c>   1</c></rc>
    <rc><c>Cu</c><c>   1</c></rc>
    <rc><c>Cu</c><c>   1</c></rc>
    <rc><c>Cu</c><c>   1</c></rc>
    <rc><c>Cu</c><c>   1</c></rc>
    <rc><c>Cu</c><c>   1</c></rc>
    <rc><c>Cu</c><c>   1</c></rc>
    <rc><c>Cu</c><c>   1</c></rc>
    <rc><c>Cu</c><c>   1</c></rc>
    <rc><c>Cu</c><c>   1</c></rc>
    <rc><c>Cu</c><c>   1</c></rc>
    <rc><c>Cu</c><c>   1</c></rc>
    <rc><c>Cu</c><c>   1</c></rc>
    <rc><c>Cu</c><c>   1</c></rc>
    <rc><c>Cu</c><c>   1</c></rc>
    <rc><c>Cu</c><c>   1</c></rc>
    <rc><c>Cu</c><c>   1</c></rc>
    <rc><c>Cu</c><c>   1</c></rc>
    <rc><c>Cu</c><c>   1</c></rc>
    <rc><c>Cu</c><c>   1</c></rc>
    <rc><c>Cu</c><c>   1</c></rc>
    <rc><c>Cu</c><c>   1</c></rc>
    <rc><c>Cu</c><c>   1</c></rc>
    <rc><c>Cu</c><c>   1</c></rc>
    <rc><c>Cu</c><c>   1</c></rc>
    <rc><c>Cu</c><c>   1</c></rc>
    <rc><c>Cu</c><c>   1</c></rc>
    <rc><c>Cu</c><c>   1</c></rc>
    <rc><c>Cu</c><c>   1</c></rc>
    <rc><c>Cu</c><c>   1</c></rc>
    <rc><c>Cu</c><c>   1</c></rc>
    <rc><c>Cu</c><c>   1</c></rc>
    <rc><c>Cu</c><c>   1</c></rc>
    <rc><c>Cu</c><c>   1</c></rc>
    <rc><c>Cu</c><c>   1</c></rc>
    <rc><c>Cu</c><c>   1</c></rc>
    <rc><c>Cu</c><c>   1</c></rc>
    <rc><c>Cu</c><c>   1</c></rc>
    <rc><c>Cu</c><c>   1</c></rc>
    <rc><c>Cu</c><c>   1</c></rc>
    <rc><c>Cu</c><c>   1</c></rc>
    <rc><c>Cu</c><c>   1</c></rc>
    <rc><c>Cu</c><c>   1</c></rc>
    <rc><c>Cu</c><c>   1</c></rc>
    <rc><c>Cu</c><c>   1</c></rc>
    <rc><c>Cu</c><c>   1</c></rc>
    <rc><c>Cu</c><c>   1</c></rc>
    <rc><c>Cu</c><c>   1</c></rc>
    <rc><c>Cu</c><c>   1</c></rc>
    <rc><c>Cu</c><c>   1</c></rc>
    <rc><c>Cu</c><c>   1</c></rc>
    <rc><c>Cu</c><c>   1</c></rc>
    <rc><c>Cu</c><c>   1</c></rc>
   </set>
  </array>
  <array name="atomtypes" >
   <dimension dim="1">type</dimension>
   <field type="int">atomspertype</field>
   <field type="string">element</field>
   <field>mass</field>
   <field>valence</field>
   <field type="string">pseudopotential</field>
   <set>
    <rc><c> 144</c><c>Cu</c><c>     63.54600000</c><c>     11.00000000</c><c>  PAW_PBE Cu 22Jun2005                  </c></rc>
   </set>
  </array>
 </atominfo>
 <structure name="initialpos" >
  <crystal>
   <varray name="basis" >
    <v>      10.89000034       0.00000000       0.00000000 </v>
    <v>       0.00000000      10.89000034       0.00000000 </v>
    <v>       0.00000000       0.00000000      27.70499992 </v>
   </varray>
   <i name="volume">   3285.59432860 </i>
   <varray name="rec_basis" >
    <v>       0.09182736       0.00000000       0.00000000 </v>
    <v>       0.00000000       0.09182736       0.00000000 </v>
    <v>       0.00000000       0.00000000       0.03609457 </v>
   </varray>
  </crystal>
  <varray name="positions" >
   <v>       0.00000000       0.00000000       0.00000000 </v>
   <v>       0.00000000       0.33333333       0.00000000 </v>
   <v>       0.00000000       0.66666667       0.00000000 </v>
   <v>       0.33333333       0.00000000       0.00000000 </v>
   <v>       0.33333333       0.33333333       0.00000000 </v>
   <v>       0.33333333       0.66666667       0.00000000 </v>
   <v>       0.66666667       0.00000000       0.00000000 </v>
   <v>       0.66666667       0.33333333       0.00000000 </v>
   <v>       0.66666667       0.66666667       0.00000000 </v>
   <v>       0.16666667       0.16666667       0.00000000 </v>
   <v>       0.16666667       0.50000000       0.00000000 </v>
   <v>       0.16666667       0.83333333       0.00000000 </v>
   <v>       0.50000000       0.16666667       0.00000000 </v>
   <v>       0.50000000       0.50000000       0.00000000 </v>
   <v>       0.50000000       0.83333333       0.00000000 </v>
   <v>       0.83333333       0.16666667       0.00000000 </v>
   <v>       0.83333333       0.50000000       0.00000000 </v>
   <v>       0.83333333       0.83333333       0.00000000 </v>
   <v>       0.00000000       0.16666667       0.06551164 </v>
   <v>       0.00000000       0.50000000       0.06551164 </v>
   <v>       0.00000000       0.83333333       0.06551164 </v>
   <v>       0.33333333       0.16666667       0.06551164 </v>
   <v>       0.33333333       0.50000000       0.06551164 </v>
   <v>       0.33333333       0.83333333       0.06551164 </v>
   <v>       0.66666667       0.16666667       0.06551164 </v>
   <v>       0.66666667       0.50000000       0.06551164 </v>
   <v>       0.66666667       0.83333333       0.06551164 </v>
   <v>       0.16666667       0.00000000       0.06551164 </v>
   <v>       0.16666667       0.33333333       0.06551164 </v>
   <v>       0.16666667       0.66666667       0.06551164 </v>
   <v>       0.50000000       0.00000000       0.06551164 </v>
   <v>       0.50000000       0.33333333       0.06551164 </v>
   <v>       0.50000000       0.66666667       0.06551164 </v>
   <v>       0.83333333       0.00000000       0.06551164 </v>
   <v>       0.83333333       0.33333333       0.06551164 </v>
   <v>       0.83333333       0.66666667       0.06551164 </v>
   <v>       0.00000000       0.00000000       0.13102328 </v>
   <v>       0.00000000       0.33333333       0.13102328 </v>
   <v>       0.00000000       0.66666667       0.13102328 </v>
   <v>       0.33333333       0.00000000       0.13102328 </v>
   <v>       0.33333333       0.33333333       0.13102328 </v>
   <v>       0.33333333       0.66666667       0.13102328 </v>
   <v>       0.66666667       0.00000000       0.13102328 </v>
   <v>       0.66666667       0.33333333       0.13102328 </v>
   <v>       0.66666667       0.66666667       0.13102328 </v>
   <v>       0.16666667       0.16666667       0.13102328 </v>
   <v>       0.16666667       0.50000000       0.13102328 </v>
   <v>       0.16666667       0.83333333       0.13102328 </v>
   <v>       0.50000000       0.16666667       0.13102328 </v>
   <v>       0.50000000       0.50000000       0.13102328 </v>
   <v>       0.50000000       0.83333333       0.13102328 </v>
   <v>       0.83333333       0.16666667       0.13102328 </v>
   <v>       0.83333333       0.50000000       0.13102328 </v>
   <v>       0.83333333       0.83333333       0.13102328 </v>
   <v>       0.00000000       0.16666667       0.19653492 </v>
   <v>       0.00000000       0.50000000       0.19653492 </v>
   <v>       0.00000000       0.83333333       0.19653492 </v>
   <v>       0.33333333       0.16666667       0.19653492 </v>
   <v>       0.33333333       0.50000000       0.19653492 </v>
   <v>       0.33333333       0.83333333       0.19653492 </v>
   <v>       0.66666667       0.16666667       0.19653492 </v>
   <v>       0.66666667       0.50000000       0.19653492 </v>
   <v>       0.66666667       0.83333333       0.19653492 </v>
   <v>       0.16666667       0.00000000       0.19653492 </v>
   <v>       0.16666667       0.33333333       0.19653492 </v>
   <v>       0.16666667       0.66666667       0.19653492 </v>
   <v>       0.50000000       0.00000000       0.19653492 </v>
   <v>       0.50000000       0.33333333       0.19653492 </v>
   <v>       0.50000000       0.66666667       0.19653492 </v>
   <v>       0.83333333       0.00000000       0.19653492 </v>
   <v>       0.83333333       0.33333333       0.19653492 </v>
   <v>       0.83333333       0.66666667       0.19653492 </v>
   <v>       0.00000000       0.00000000       0.26204657 </v>
   <v>       0.00000000       0.33333333       0.26204657 </v>
   <v>       0.00000000       0.66666667       0.26204657 </v>
   <v>       0.33333333       0.00000000       0.26204657 </v>
   <v>       0.33333333       0.33333333       0.26204657 </v>
   <v>       0.33333333       0.66666667       0.26204657 </v>
   <v>       0.66666667       0.00000000       0.26204657 </v>
   <v>       0.66666667       0.33333333       0.26204657 </v>
   <v>       0.66666667       0.66666667       0.26204657 </v>
   <v>       0.16666667       0.16666667       0.26204657 </v>
   <v>       0.16666667       0.50000000       0.26204657 </v>
   <v>       0.16666667       0.83333333       0.26204657 </v>
   <v>       0.50000000       0.16666667       0.26204657 </v>
   <v>       0.50000000       0.50000000       0.26204657 </v>
   <v>       0.50000000       0.83333333       0.26204657 </v>
   <v>       0.83333333       0.16666667       0.26204657 </v>
   <v>       0.83333333       0.50000000       0.26204657 </v>
   <v>       0.83333333       0.83333333       0.26204657 </v>
   <v>       0.00000000       0.16666667       0.32755821 </v>
   <v>       0.00000000       0.50000000       0.32755821 </v>
   <v>       0.00000000       0.83333333       0.32755821 </v>
   <v>       0.33333333       0.16666667       0.32755821 </v>
   <v>       0.33333333       0.50000000       0.32755821 </v>
   <v>       0.33333333       0.83333333       0.32755821 </v>
   <v>       0.66666667       0.16666667       0.32755821 </v>
   <v>       0.66666667       0.50000000       0.32755821 </v>
   <v>       0.66666667       0.83333333       0.32755821 </v>
   <v>       0.16666667       0.00000000       0.32755821 </v>
   <v>       0.16666667       0.33333333       0.32755821 </v>
   <v>       0.16666667       0.66666667       0.32755821 </v>
   <v>       0.50000000       0.00000000       0.32755821 </v>
   <v>       0.50000000       0.33333333       0.32755821 </v>
   <v>       0.50000000       0.66666667       0.32755821 </v>
   <v>       0.83333333       0.00000000       0.32755821 </v>
   <v>       0.83333333       0.33333333       0.32755821 </v>
   <v>       0.83333333       0.66666667       0.32755821 </v>
   <v>       0.00000000       0.00000000       0.39306985 </v>
   <v>       0.00000000       0.33333333       0.39306985 </v>
   <v>       0.00000000       0.66666667       0.39306985 </v>
   <v>       0.33333333       0.00000000       0.39306985 </v>
   <v>       0.33333333       0.33333333       0.39306985 </v>
   <v>       0.33333333       0.66666667       0.39306985 </v>
   <v>       0.66666667       0.00000000       0.39306985 </v>
   <v>       0.66666667       0.33333333       0.39306985 </v>
   <v>       0.66666667       0.66666667       0.39306985 </v>
   <v>       0.16666667       0.16666667       0.39306985 </v>
   <v>       0.16666667       0.50000000       0.39306985 </v>
   <v>       0.16666667       0.83333333       0.39306985 </v>
   <v>       0.50000000       0.16666667       0.39306985 </v>
   <v>       0.50000000       0.50000000       0.39306985 </v>
   <v>       0.50000000       0.83333333       0.39306985 </v>
   <v>       0.83333333       0.16666667       0.39306985 </v>
   <v>       0.83333333       0.50000000       0.39306985 </v>
   <v>       0.83333333       0.83333333       0.39306985 </v>
   <v>       0.00000000       0.16666667       0.45858149 </v>
   <v>       0.00000000       0.50000000       0.45858149 </v>
   <v>       0.00000000       0.83333333       0.45858149 </v>
   <v>       0.33333333       0.16666667       0.45858149 </v>
   <v>       0.33333333       0.50000000       0.45858149 </v>
   <v>       0.33333333       0.83333333       0.45858149 </v>
   <v>       0.66666667       0.16666667       0.45858149 </v>
   <v>       0.66666667       0.50000000       0.45858149 </v>
   <v>       0.66666667       0.83333333       0.45858149 </v>
   <v>       0.16666667       0.00000000       0.45858149 </v>
   <v>       0.16666667       0.33333333       0.45858149 </v>
   <v>       0.16666667       0.66666667       0.45858149 </v>
   <v>       0.50000000       0.00000000       0.45858149 </v>
   <v>       0.50000000       0.33333333       0.45858149 </v>
   <v>       0.50000000       0.66666667       0.45858149 </v>
   <v>       0.83333333       0.00000000       0.45858149 </v>
   <v>       0.83333333       0.33333333       0.45858149 </v>
   <v>       0.83333333       0.66666667       0.45858149 </v>
  </varray>
  <varray name="selective"  type="logical" >
   <v type="logical" >  F  F  F </v>
   <v type="logical" >  F  F  F </v>
   <v type="logical" >  F  F  F </v>
   <v type="logical" >  F  F  F </v>
   <v type="logical" >  F  F  F </v>
   <v type="logical" >  F  F  F </v>
   <v type="logical" >  F  F  F </v>
   <v type="logical" >  F  F  F </v>
   <v type="logical" >  F  F  F </v>
   <v type="logical" >  F  F  F </v>
   <v type="logical" >  F  F  F </v>
   <v type="logical" >  F  F  F </v>
   <v type="logical" >  F  F  F </v>
   <v type="logical" >  F  F  F </v>
   <v type="logical" >  F  F  F </v>
   <v type="logical" >  F  F  F </v>
   <v type="logical" >  F  F  F </v>
   <v type="logical" >  F  F  F </v>
   <v type="logical" >  F  F  F </v>
   <v type="logical" >  F  F  F </v>
   <v type="logical" >  F  F  F </v>
   <v type="logical" >  F  F  F </v>
   <v type="logical" >  F  F  F </v>
   <v type="logical" >  F  F  F </v>
   <v type="logical" >  F  F  F </v>
   <v type="logical" >  F  F  F </v>
   <v type="logical" >  F  F  F </v>
   <v type="logical" >  F  F  F </v>
   <v type="logical" >  F  F  F </v>
   <v type="logical" >  F  F  F </v>
   <v type="logical" >  F  F  F </v>
   <v type="logical" >  F  F  F </v>
   <v type="logical" >  F  F  F </v>
   <v type="logical" >  F  F  F </v>
   <v type="logical" >  F  F  F </v>
   <v type="logical" >  F  F  F </v>
   <v type="logical" >  T  T  T </v>
   <v type="logical" >  T  T  T </v>
   <v type="logical" >  T  T  T </v>
   <v type="logical" >  T  T  T </v>
   <v type="logical" >  T  T  T </v>
   <v type="logical" >  T  T  T </v>
   <v type="logical" >  T  T  T </v>
   <v type="logical" >  T  T  T </v>
   <v type="logical" >  T  T  T </v>
   <v type="logical" >  T  T  T </v>
   <v type="logical" >  T  T  T </v>
   <v type="logical" >  T  T  T </v>
   <v type="logical" >  T  T  T </v>
   <v type="logical" >  T  T  T </v>
   <v type="logical" >  T  T  T </v>
   <v type="logical" >  T  T  T </v>
   <v type="logical" >  T  T  T </v>
   <v type="logical" >  T  T  T </v>
   <v type="logical" >  T  T  T </v>
   <v type="logical" >  T  T  T </v>
   <v type="logical" >  T  T  T </v>
   <v type="logical" >  T  T  T </v>
   <v type="logical" >  T  T  T </v>
   <v type="logical" >  T  T  T </v>
   <v type="logical" >  T  T  T </v>
   <v type="logical" >  T  T  T </v>
   <v type="logical" >  T  T  T </v>
   <v type="logical" >  T  T  T </v>
   <v type="logical" >  T  T  T </v>
   <v type="logical" >  T  T  T </v>
   <v type="logical" >  T  T  T </v>
   <v type="logical" >  T  T  T </v>
   <v type="logical" >  T  T  T </v>
   <v type="logical" >  T  T  T </v>
   <v type="logical" >  T  T  T </v>
   <v type="logical" >  T  T  T </v>
   <v type="logical" >  T  T  T </v>
   <v type="logical" >  T  T  T </v>
   <v type="logical" >  T  T  T </v>
   <v type="logical" >  T  T  T </v>
   <v type="logical" >  T  T  T </v>
   <v type="logical" >  T  T  T </v>
   <v type="logical" >  T  T  T </v>
   <v type="logical" >  T  T  T </v>
   <v type="logical" >  T  T  T </v>
   <v type="logical" >  T  T  T </v>
   <v type="logical" >  T  T  T </v>
   <v type="logical" >  T  T  T </v>
   <v type="logical" >  T  T  T </v>
   <v type="logical" >  T  T  T </v>
   <v type="logical" >  T  T  T </v>
   <v type="logical" >  T  T  T </v>
   <v type="logical" >  T  T  T </v>
   <v type="logical" >  T  T  T </v>
   <v type="logical" >  T  T  T </v>
   <v type="logical" >  T  T  T </v>
   <v type="logical" >  T  T  T </v>
   <v type="logical" >  T  T  T </v>
   <v type="logical" >  T  T  T </v>
   <v type="logical" >  T  T  T </v>
   <v type="logical" >  T  T  T </v>
   <v type="logical" >  T  T  T </v>
   <v type="logical" >  T  T  T </v>
   <v type="logical" >  T  T  T </v>
   <v type="logical" >  T  T  T </v>
   <v type="logical" >  T  T  T </v>
   <v type="logical" >  T  T  T </v>
   <v type="logical" >  T  T  T </v>
   <v type="logical" >  T  T  T </v>
   <v type="logical" >  T  T  T </v>
   <v type="logical" >  T  T  T </v>
   <v type="logical" >  T  T  T </v>
   <v type="logical" >  T  T  T </v>
   <v type="logical" >  T  T  T </v>
   <v type="logical" >  T  T  T </v>
   <v type="logical" >  T  T  T </v>
   <v type="logical" >  T  T  T </v>
   <v type="logical" >  T  T  T </v>
   <v type="logical" >  T  T  T </v>
   <v type="logical" >  T  T  T </v>
   <v type="logical" >  T  T  T </v>
   <v type="logical" >  T  T  T </v>
   <v type="logical" >  T  T  T </v>
   <v type="logical" >  T  T  T </v>
   <v type="logical" >  T  T  T </v>
   <v type="logical" >  T  T  T </v>
   <v type="logical" >  T  T  T </v>
   <v type="logical" >  T  T  T </v>
   <v type="logical" >  T  T  T </v>
   <v type="logical" >  T  T  T </v>
   <v type="logical" >  T  T  T </v>
   <v type="logical" >  T  T  T </v>
   <v type="logical" >  T  T  T </v>
   <v type="logical" >  T  T  T </v>
   <v type="logical" >  T  T  T </v>
   <v type="logical" >  T  T  T </v>
   <v type="logical" >  T  T  T </v>
   <v type="logical" >  T  T  T </v>
   <v type="logical" >  T  T  T </v>
   <v type="logical" >  T  T  T </v>
   <v type="logical" >  T  T  T </v>
   <v type="logical" >  T  T  T </v>
   <v type="logical" >  T  T  T </v>
   <v type="logical" >  T  T  T </v>
   <v type="logical" >  T  T  T </v>
   <v type="logical" >  T  T  T </v>
   <v type="logical" >  T  T  T </v>
   <v type="logical" >  T  T  T </v>
  </varray>
  <nose>
   <v>      -3.00000000       0.00000000       0.00010000       0.00010000 </v>
  </nose>
 </structure>
 <calculation>
  <scstep>
   <time name="dav">  553.05  559.48</time>
   <time name="total">  553.35  559.78</time>
   <energy>
    <i name="alphaZ">   4615.54795223 </i>
    <i name="ewald"> 860215.94623055 </i>
    <i name="hartreedc">**************** </i>
    <i name="XCdc">   6582.34125179 </i>
    <i name="pawpsdc"> 176846.03943105 </i>
    <i name="pawaedc">-192084.61413960 </i>
    <i name="eentropy">     -0.00569093 </i>
    <i name="bandstr">  16010.33743174 </i>
    <i name="atom"> 200297.90018877 </i>
    <i name="e_fr_energy">  15425.07763296 </i>
    <i name="e_wo_entrp">  15425.08332389 </i>
    <i name="e_0_energy">  15425.07952994 </i>
   </energy>
  </scstep>
  <scstep>
   <time name="dav">  553.34  560.07</time>
   <time name="total">  553.35  560.09</time>
   <energy>
    <i name="e_fr_energy">   2220.93990594 </i>
    <i name="e_wo_entrp">   2220.94494611 </i>
    <i name="e_0_energy">   2220.94158600 </i>
   </energy>
  </scstep>
  <scstep>
   <time name="dav">  556.05  563.24</time>
   <time name="total">  556.06  563.25</time>
   <energy>
    <i name="e_fr_energy">   -389.61738110 </i>
    <i name="e_wo_entrp">   -389.70484889 </i>
    <i name="e_0_energy">   -389.64653703 </i>
   </energy>
  </scstep>
  <scstep>
   <time name="dav">  594.48  600.49</time>
   <time name="total">  594.49  600.50</time>
   <energy>
    <i name="e_fr_energy">   -606.42364779 </i>
    <i name="e_wo_entrp">   -606.68266398 </i>
    <i name="e_0_energy">   -606.50998652 </i>
   </energy>
  </scstep>
  <scstep>
   <time name="dav">  600.34  607.12</time>
   <time name="total">  605.16  611.96</time>
   <energy>
    <i name="e_fr_energy">   -612.18433500 </i>
    <i name="e_wo_entrp">   -612.44965821 </i>
    <i name="e_0_energy">   -612.27277607 </i>
   </energy>
  </scstep>
  <scstep>
   <time name="dav">  599.16  605.82</time>
   <time name="total">  604.07  610.76</time>
   <energy>
    <i name="e_fr_energy">   -506.18793319 </i>
    <i name="e_wo_entrp">   -506.11158756 </i>
    <i name="e_0_energy">   -506.16248464 </i>
   </energy>
  </scstep>
  <scstep>
   <time name="dav">  595.03  601.26</time>
   <time name="total">  600.04  606.30</time>
   <energy>
    <i name="e_fr_energy">   -440.11999957 </i>
    <i name="e_wo_entrp">   -440.13568081 </i>
    <i name="e_0_energy">   -440.12522665 </i>
   </energy>
  </scstep>
  <scstep>
   <time name="dav">  624.60  631.50</time>
   <time name="total">  629.61  636.54</time>
   <energy>
    <i name="e_fr_energy">   -438.86850593 </i>
    <i name="e_wo_entrp">   -438.83142201 </i>
    <i name="e_0_energy">   -438.85614462 </i>
   </energy>
  </scstep>
  <scstep>
   <time name="dav">  736.04  743.99</time>
   <time name="total">  741.07  749.06</time>
   <energy>
    <i name="e_fr_energy">   -427.97755838 </i>
    <i name="e_wo_entrp">   -427.88050526 </i>
    <i name="e_0_energy">   -427.94520734 </i>
   </energy>
  </scstep>
  <scstep>
   <time name="dav">  765.10  774.56</time>
   <time name="total">  770.10  779.59</time>
   <energy>
    <i name="e_fr_energy">   -430.29636855 </i>
    <i name="e_wo_entrp">   -430.21826840 </i>
    <i name="e_0_energy">   -430.27033517 </i>
   </energy>
  </scstep>
  <scstep>
   <time name="dav">  631.82  639.11</time>
   <time name="total">  636.82  644.14</time>
   <energy>
    <i name="e_fr_energy">   -437.26204716 </i>
    <i name="e_wo_entrp">   -437.20844139 </i>
    <i name="e_0_energy">   -437.24417857 </i>
   </energy>
  </scstep>
  <scstep>
   <time name="dav">  678.68  686.49</time>
   <time name="total">  683.70  691.54</time>
   <energy>
    <i name="e_fr_energy">   -440.65301480 </i>
    <i name="e_wo_entrp">   -440.56907740 </i>
    <i name="e_0_energy">   -440.62503567 </i>
   </energy>
  </scstep>
  <scstep>
   <time name="dav">  802.12  811.71</time>
   <time name="total">  807.14  816.77</time>
   <energy>
    <i name="e_fr_energy">   -446.20140191 </i>
    <i name="e_wo_entrp">   -446.17384197 </i>
    <i name="e_0_energy">   -446.19221527 </i>
   </energy>
  </scstep>
  <scstep>
   <time name="dav">  666.32  673.98</time>
   <time name="total">  671.32  679.02</time>
   <energy>
    <i name="e_fr_energy">   -465.73107598 </i>
    <i name="e_wo_entrp">   -465.76850181 </i>
    <i name="e_0_energy">   -465.74355126 </i>
   </energy>
  </scstep>
  <scstep>
   <time name="dav">  683.72  692.00</time>
   <time name="total">  689.19  697.59</time>
   <energy>
    <i name="e_fr_energy">   -476.63684012 </i>
    <i name="e_wo_entrp">   -476.68346625 </i>
    <i name="e_0_energy">   -476.65238216 </i>
   </energy>
  </scstep>
  <scstep>
   <time name="dav">  652.81  658.87</time>
   <time name="total">  657.84  663.93</time>
   <energy>
    <i name="e_fr_energy">   -487.45093384 </i>
    <i name="e_wo_entrp">   -487.54141588 </i>
    <i name="e_0_energy">   -487.48109452 </i>
   </energy>
  </scstep>
  <scstep>
   <time name="dav">  615.94  621.95</time>
   <time name="total">  620.96  627.01</time>
   <energy>
    <i name="e_fr_energy">   -496.07169084 </i>
    <i name="e_wo_entrp">   -496.16164132 </i>
    <i name="e_0_energy">   -496.10167433 </i>
   </energy>
  </scstep>
  <scstep>
   <time name="dav">  618.81  624.67</time>
   <time name="total">  623.75  629.65</time>
   <energy>
    <i name="e_fr_energy">   -499.12107610 </i>
    <i name="e_wo_entrp">   -499.20932154 </i>
    <i name="e_0_energy">   -499.15049125 </i>
   </energy>
  </scstep>
  <scstep>
   <time name="dav">  677.04  683.30</time>
   <time name="total">  682.02  688.32</time>
   <energy>
    <i name="e_fr_energy">   -502.80941085 </i>
    <i name="e_wo_entrp">   -502.90180469 </i>
    <i name="e_0_energy">   -502.84020880 </i>
   </energy>
  </scstep>
  <scstep>
   <time name="dav">  711.49  717.94</time>
   <time name="total">  716.45  722.93</time>
   <energy>
    <i name="e_fr_energy">   -507.53633848 </i>
    <i name="e_wo_entrp">   -507.62637525 </i>
    <i name="e_0_energy">   -507.56635074 </i>
   </energy>
  </scstep>
  <scstep>
   <time name="dav">  706.33  712.84</time>
   <time name="total">  711.30  717.83</time>
   <energy>
    <i name="e_fr_energy">   -510.12784280 </i>
    <i name="e_wo_entrp">   -510.21417741 </i>
    <i name="e_0_energy">   -510.15662101 </i>
   </energy>
  </scstep>
  <scstep>
   <time name="dav">  681.26  687.48</time>
   <time name="total">  686.20  692.45</time>
   <energy>
    <i name="e_fr_energy">   -512.35115974 </i>
    <i name="e_wo_entrp">   -512.44448713 </i>
    <i name="e_0_energy">   -512.38226887 </i>
   </energy>
  </scstep>
  <scstep>
   <time name="dav">  654.65  660.98</time>
   <time name="total">  659.68  666.04</time>
   <energy>
    <i name="e_fr_energy">   -513.13595794 </i>
    <i name="e_wo_entrp">   -513.23280595 </i>
    <i name="e_0_energy">   -513.16824061 </i>
   </energy>
  </scstep>
  <scstep>
   <time name="dav">  671.52  680.38</time>
   <time name="total">  676.89  685.88</time>
   <energy>
    <i name="e_fr_energy">   -514.10467052 </i>
    <i name="e_wo_entrp">   -514.20099192 </i>
    <i name="e_0_energy">   -514.13677765 </i>
   </energy>
  </scstep>
  <scstep>
   <time name="dav">  630.60  638.13</time>
   <time name="total">  635.59  643.15</time>
   <energy>
    <i name="e_fr_energy">   -514.80304909 </i>
    <i name="e_wo_entrp">   -514.90132414 </i>
    <i name="e_0_energy">   -514.83580744 </i>
   </energy>
  </scstep>
  <scstep>
   <time name="dav">  730.31  738.57</time>
   <time name="total">  735.27  743.56</time>
   <energy>
    <i name="e_fr_energy">   -515.49392813 </i>
    <i name="e_wo_entrp">   -515.59179972 </i>
    <i name="e_0_energy">   -515.52655199 </i>
   </energy>
  </scstep>
  <scstep>
   <time name="dav">  628.24  635.60</time>
   <time name="total">  633.26  640.65</time>
   <energy>
    <i name="e_fr_energy">   -515.76783318 </i>
    <i name="e_wo_entrp">   -515.86599740 </i>
    <i name="e_0_energy">   -515.80055459 </i>
   </energy>
  </scstep>
  <scstep>
   <time name="dav">  613.60  620.90</time>
   <time name="total">  618.64  625.98</time>
   <energy>
    <i name="e_fr_energy">   -515.84229908 </i>
    <i name="e_wo_entrp">   -515.94092181 </i>
    <i name="e_0_energy">   -515.87517333 </i>
   </energy>
  </scstep>
  <scstep>
   <time name="dav">  554.14  561.77</time>
   <time name="total">  559.13  566.80</time>
   <energy>
    <i name="e_fr_energy">   -515.87293272 </i>
    <i name="e_wo_entrp">   -515.97134418 </i>
    <i name="e_0_energy">   -515.90573654 </i>
   </energy>
  </scstep>
  <scstep>
   <time name="dav">  506.15  513.25</time>
   <time name="total">  511.17  518.30</time>
   <energy>
    <i name="e_fr_energy">   -515.87488455 </i>
    <i name="e_wo_entrp">   -515.97318385 </i>
    <i name="e_0_energy">   -515.90765098 </i>
   </energy>
  </scstep>
  <scstep>
   <time name="dav">  420.17  425.73</time>
   <time name="total">  425.29  430.87</time>
   <energy>
    <i name="e_fr_energy">   -515.87537034 </i>
    <i name="e_wo_entrp">   -515.97361899 </i>
    <i name="e_0_energy">   -515.90811989 </i>
   </energy>
  </scstep>
  <scstep>
   <time name="dav">  403.54  408.67</time>
   <time name="total">  403.86  408.98</time>
   <energy>
    <i name="alphaZ">   4615.54795223 </i>
    <i name="ewald"> 860215.94623055 </i>
    <i name="hartreedc">**************** </i>
    <i name="XCdc">   6416.99995024 </i>
    <i name="pawpsdc"> 187825.69757549 </i>
    <i name="pawaedc">-203324.94029916 </i>
    <i name="eentropy">      0.09829568 </i>
    <i name="bandstr">  -1719.63914279 </i>
    <i name="atom"> 200297.90018877 </i>
    <i name="e_fr_energy">   -515.87529367 </i>
    <i name="e_wo_entrp">   -515.97358936 </i>
    <i name="e_0_energy">   -515.90805890 </i>
   </energy>
  </scstep>
  <dipole>
   <v name="dipole">      0.00000000       0.00000000       0.09268218 </v>
   <i name="Tr[quadrupol]"> -33030.80951919 </i>
   <i name="Echarged">      0.00000000 </i>
   <i name="Edipol_quadrupol">      0.00000000 </i>
   <i name="Eion">      0.00000000 </i>
  </dipole>
  <structure>
   <crystal>
    <varray name="basis" >
     <v>      10.89000034       0.00000000       0.00000000 </v>
     <v>       0.00000000      10.89000034       0.00000000 </v>
     <v>       0.00000000       0.00000000      27.70499992 </v>
    </varray>
    <i name="volume">   3285.59432860 </i>
    <varray name="rec_basis" >
     <v>       0.09182736       0.00000000       0.00000000 </v>
     <v>       0.00000000       0.09182736       0.00000000 </v>
     <v>       0.00000000       0.00000000       0.03609457 </v>
    </varray>
   </crystal>
   <varray name="positions" >
    <v>       0.00000000       0.00000000       0.00000000 </v>
    <v>       0.00000000       0.33333333       0.00000000 </v>
    <v>       0.00000000       0.66666667       0.00000000 </v>
    <v>       0.33333333       0.00000000       0.00000000 </v>
    <v>       0.33333333       0.33333333       0.00000000 </v>
    <v>       0.33333333       0.66666667       0.00000000 </v>
    <v>       0.66666667       0.00000000       0.00000000 </v>
    <v>       0.66666667       0.33333333       0.00000000 </v>
    <v>       0.66666667       0.66666667       0.00000000 </v>
    <v>       0.16666667       0.16666667       0.00000000 </v>
    <v>       0.16666667       0.50000000       0.00000000 </v>
    <v>       0.16666667       0.83333333       0.00000000 </v>
    <v>       0.50000000       0.16666667       0.00000000 </v>
    <v>       0.50000000       0.50000000       0.00000000 </v>
    <v>       0.50000000       0.83333333       0.00000000 </v>
    <v>       0.83333333       0.16666667       0.00000000 </v>
    <v>       0.83333333       0.50000000       0.00000000 </v>
    <v>       0.83333333       0.83333333       0.00000000 </v>
    <v>       0.00000000       0.16666667       0.06551164 </v>
    <v>       0.00000000       0.50000000       0.06551164 </v>
    <v>       0.00000000       0.83333333       0.06551164 </v>
    <v>       0.33333333       0.16666667       0.06551164 </v>
    <v>       0.33333333       0.50000000       0.06551164 </v>
    <v>       0.33333333       0.83333333       0.06551164 </v>
    <v>       0.66666667       0.16666667       0.06551164 </v>
    <v>       0.66666667       0.50000000       0.06551164 </v>
    <v>       0.66666667       0.83333333       0.06551164 </v>
    <v>       0.16666667       0.00000000       0.06551164 </v>
    <v>       0.16666667       0.33333333       0.06551164 </v>
    <v>       0.16666667       0.66666667       0.06551164 </v>
    <v>       0.50000000       0.00000000       0.06551164 </v>
    <v>       0.50000000       0.33333333       0.06551164 </v>
    <v>       0.50000000       0.66666667       0.06551164 </v>
    <v>       0.83333333       0.00000000       0.06551164 </v>
    <v>       0.83333333       0.33333333       0.06551164 </v>
    <v>       0.83333333       0.66666667       0.06551164 </v>
    <v>       0.00000000       0.00000000       0.13102328 </v>
    <v>       0.00000000       0.33333333       0.13102328 </v>
    <v>       0.00000000       0.66666667       0.13102328 </v>
    <v>       0.33333333       0.00000000       0.13102328 </v>
    <v>       0.33333333       0.33333333       0.13102328 </v>
    <v>       0.33333333       0.66666667       0.13102328 </v>
    <v>       0.66666667       0.00000000       0.13102328 </v>
    <v>       0.66666667       0.33333333       0.13102328 </v>
    <v>       0.66666667       0.66666667       0.13102328 </v>
    <v>       0.16666667       0.16666667       0.13102328 </v>
    <v>       0.16666667       0.50000000       0.13102328 </v>
    <v>       0.16666667       0.83333333       0.13102328 </v>
    <v>       0.50000000       0.16666667       0.13102328 </v>
    <v>       0.50000000       0.50000000       0.13102328 </v>
    <v>       0.50000000       0.83333333       0.13102328 </v>
    <v>       0.83333333       0.16666667       0.13102328 </v>
    <v>       0.83333333       0.50000000       0.13102328 </v>
    <v>       0.83333333       0.83333333       0.13102328 </v>
    <v>       0.00000000       0.16666667       0.19653492 </v>
    <v>       0.00000000       0.50000000       0.19653492 </v>
    <v>       0.00000000       0.83333333       0.19653492 </v>
    <v>       0.33333333       0.16666667       0.19653492 </v>
    <v>       0.33333333       0.50000000       0.19653492 </v>
    <v>       0.33333333       0.83333333       0.19653492 </v>
    <v>       0.66666667       0.16666667       0.19653492 </v>
    <v>       0.66666667       0.50000000       0.19653492 </v>
    <v>       0.66666667       0.83333333       0.19653492 </v>
    <v>       0.16666667       0.00000000       0.19653492 </v>
    <v>       0.16666667       0.33333333       0.19653492 </v>
    <v>       0.16666667       0.66666667       0.19653492 </v>
    <v>       0.50000000       0.00000000       0.19653492 </v>
    <v>       0.50000000       0.33333333       0.19653492 </v>
    <v>       0.50000000       0.66666667       0.19653492 </v>
    <v>       0.83333333       0.00000000       0.19653492 </v>
    <v>       0.83333333       0.33333333       0.19653492 </v>
    <v>       0.83333333       0.66666667       0.19653492 </v>
    <v>       0.00000000       0.00000000       0.26204657 </v>
    <v>       0.00000000       0.33333333       0.26204657 </v>
    <v>       0.00000000       0.66666667       0.26204657 </v>
    <v>       0.33333333       0.00000000       0.26204657 </v>
    <v>       0.33333333       0.33333333       0.26204657 </v>
    <v>       0.33333333       0.66666667       0.26204657 </v>
    <v>       0.66666667       0.00000000       0.26204657 </v>
    <v>       0.66666667       0.33333333       0.26204657 </v>
    <v>       0.66666667       0.66666667       0.26204657 </v>
    <v>       0.16666667       0.16666667       0.26204657 </v>
    <v>       0.16666667       0.50000000       0.26204657 </v>
    <v>       0.16666667       0.83333333       0.26204657 </v>
    <v>       0.50000000       0.16666667       0.26204657 </v>
    <v>       0.50000000       0.50000000       0.26204657 </v>
    <v>       0.50000000       0.83333333       0.26204657 </v>
    <v>       0.83333333       0.16666667       0.26204657 </v>
    <v>       0.83333333       0.50000000       0.26204657 </v>
    <v>       0.83333333       0.83333333       0.26204657 </v>
    <v>       0.00000000       0.16666667       0.32755821 </v>
    <v>       0.00000000       0.50000000       0.32755821 </v>
    <v>       0.00000000       0.83333333       0.32755821 </v>
    <v>       0.33333333       0.16666667       0.32755821 </v>
    <v>       0.33333333       0.50000000       0.32755821 </v>
    <v>       0.33333333       0.83333333       0.32755821 </v>
    <v>       0.66666667       0.16666667       0.32755821 </v>
    <v>       0.66666667       0.50000000       0.32755821 </v>
    <v>       0.66666667       0.83333333       0.32755821 </v>
    <v>       0.16666667       0.00000000       0.32755821 </v>
    <v>       0.16666667       0.33333333       0.32755821 </v>
    <v>       0.16666667       0.66666667       0.32755821 </v>
    <v>       0.50000000       0.00000000       0.32755821 </v>
    <v>       0.50000000       0.33333333       0.32755821 </v>
    <v>       0.50000000       0.66666667       0.32755821 </v>
    <v>       0.83333333       0.00000000       0.32755821 </v>
    <v>       0.83333333       0.33333333       0.32755821 </v>
    <v>       0.83333333       0.66666667       0.32755821 </v>
    <v>       0.00000000       0.00000000       0.39306985 </v>
    <v>       0.00000000       0.33333333       0.39306985 </v>
    <v>       0.00000000       0.66666667       0.39306985 </v>
    <v>       0.33333333       0.00000000       0.39306985 </v>
    <v>       0.33333333       0.33333333       0.39306985 </v>
    <v>       0.33333333       0.66666667       0.39306985 </v>
    <v>       0.66666667       0.00000000       0.39306985 </v>
    <v>       0.66666667       0.33333333       0.39306985 </v>
    <v>       0.66666667       0.66666667       0.39306985 </v>
    <v>       0.16666667       0.16666667       0.39306985 </v>
    <v>       0.16666667       0.50000000       0.39306985 </v>
    <v>       0.16666667       0.83333333       0.39306985 </v>
    <v>       0.50000000       0.16666667       0.39306985 </v>
    <v>       0.50000000       0.50000000       0.39306985 </v>
    <v>       0.50000000       0.83333333       0.39306985 </v>
    <v>       0.83333333       0.16666667       0.39306985 </v>
    <v>       0.83333333       0.50000000       0.39306985 </v>
    <v>       0.83333333       0.83333333       0.39306985 </v>
    <v>       0.00000000       0.16666667       0.45858149 </v>
    <v>       0.00000000       0.50000000       0.45858149 </v>
    <v>       0.00000000       0.83333333       0.45858149 </v>
    <v>       0.33333333       0.16666667       0.45858149 </v>
    <v>       0.33333333       0.50000000       0.45858149 </v>
    <v>       0.33333333       0.83333333       0.45858149 </v>
    <v>       0.66666667       0.16666667       0.45858149 </v>
    <v>       0.66666667       0.50000000       0.45858149 </v>
    <v>       0.66666667       0.83333333       0.45858149 </v>
    <v>       0.16666667       0.00000000       0.45858149 </v>
    <v>       0.16666667       0.33333333       0.45858149 </v>
    <v>       0.16666667       0.66666667       0.45858149 </v>
    <v>       0.50000000       0.00000000       0.45858149 </v>
    <v>       0.50000000       0.33333333       0.45858149 </v>
    <v>       0.50000000       0.66666667       0.45858149 </v>
    <v>       0.83333333       0.00000000       0.45858149 </v>
    <v>       0.83333333       0.33333333       0.45858149 </v>
    <v>       0.83333333       0.66666667       0.45858149 </v>
   </varray>
  </structure>
  <varray name="forces" >
   <v>      -0.00000000       0.00000000       0.31147814 </v>
   <v>      -0.00000000      -0.00000000       0.31147814 </v>
   <v>      -0.00000000       0.00000000       0.31147814 </v>
   <v>      -0.00000000       0.00000000       0.31147814 </v>
   <v>      -0.00000000      -0.00000000       0.31147814 </v>
   <v>      -0.00000000       0.00000000       0.31147814 </v>
   <v>       0.00000000       0.00000000       0.31147814 </v>
   <v>      -0.00000000      -0.00000000       0.31147814 </v>
   <v>       0.00000000       0.00000000       0.31147814 </v>
   <v>      -0.00000000      -0.00000000       0.31147814 </v>
   <v>      -0.00000000      -0.00000000       0.31147814 </v>
   <v>      -0.00000000       0.00000000       0.31147814 </v>
   <v>      -0.00000000      -0.00000000       0.31147814 </v>
   <v>      -0.00000000      -0.00000000       0.31147814 </v>
   <v>       0.00000000       0.00000000       0.31147814 </v>
   <v>      -0.00000000      -0.00000000       0.31147814 </v>
   <v>      -0.00000000      -0.00000000       0.31147814 </v>
   <v>      -0.00000000       0.00000000       0.31147814 </v>
   <v>      -0.00000000      -0.00000000      -0.09777227 </v>
   <v>      -0.00000000       0.00000000      -0.09777227 </v>
   <v>      -0.00000000       0.00000000      -0.09777227 </v>
   <v>       0.00000000      -0.00000000      -0.09777227 </v>
   <v>      -0.00000000       0.00000000      -0.09777227 </v>
   <v>      -0.00000000       0.00000000      -0.09777227 </v>
   <v>      -0.00000000      -0.00000000      -0.09777227 </v>
   <v>      -0.00000000       0.00000000      -0.09777227 </v>
   <v>       0.00000000       0.00000000      -0.09777227 </v>
   <v>      -0.00000000       0.00000000      -0.09777227 </v>
   <v>      -0.00000000      -0.00000000      -0.09777227 </v>
   <v>      -0.00000000       0.00000000      -0.09777227 </v>
   <v>       0.00000000       0.00000000      -0.09777227 </v>
   <v>       0.00000000      -0.00000000      -0.09777227 </v>
   <v>      -0.00000000       0.00000000      -0.09777227 </v>
   <v>      -0.00000000      -0.00000000      -0.09777227 </v>
   <v>      -0.00000000      -0.00000000      -0.09777227 </v>
   <v>      -0.00000000       0.00000000      -0.09777227 </v>
   <v>       0.00000000       0.00000000       0.06987023 </v>
   <v>       0.00000000      -0.00000000       0.06987023 </v>
   <v>       0.00000000      -0.00000000       0.06987023 </v>
   <v>      -0.00000000       0.00000000       0.06987023 </v>
   <v>      -0.00000000       0.00000000       0.06987023 </v>
   <v>       0.00000000      -0.00000000       0.06987023 </v>
   <v>       0.00000000      -0.00000000       0.06987023 </v>
   <v>       0.00000000      -0.00000000       0.06987023 </v>
   <v>       0.00000000       0.00000000       0.06987023 </v>
   <v>       0.00000000       0.00000000       0.06987023 </v>
   <v>       0.00000000       0.00000000       0.06987023 </v>
   <v>      -0.00000000      -0.00000000       0.06987023 </v>
   <v>       0.00000000       0.00000000       0.06987023 </v>
   <v>      -0.00000000      -0.00000000       0.06987023 </v>
   <v>      -0.00000000       0.00000000       0.06987023 </v>
   <v>       0.00000000      -0.00000000       0.06987023 </v>
   <v>      -0.00000000       0.00000000       0.06987023 </v>
   <v>       0.00000000       0.00000000       0.06987023 </v>
   <v>       0.00000000      -0.00000000       0.00956071 </v>
   <v>       0.00000000      -0.00000000       0.00956071 </v>
   <v>       0.00000000      -0.00000000       0.00956071 </v>
   <v>       0.00000000       0.00000000       0.00956071 </v>
   <v>       0.00000000      -0.00000000       0.00956071 </v>
   <v>       0.00000000      -0.00000000       0.00956071 </v>
   <v>      -0.00000000      -0.00000000       0.00956071 </v>
   <v>      -0.00000000       0.00000000       0.00956071 </v>
   <v>       0.00000000      -0.00000000       0.00956071 </v>
   <v>       0.00000000       0.00000000       0.00956071 </v>
   <v>       0.00000000      -0.00000000       0.00956071 </v>
   <v>       0.00000000      -0.00000000       0.00956071 </v>
   <v>       0.00000000      -0.00000000       0.00956071 </v>
   <v>      -0.00000000      -0.00000000       0.00956071 </v>
   <v>       0.00000000      -0.00000000       0.00956071 </v>
   <v>       0.00000000      -0.00000000       0.00956071 </v>
   <v>       0.00000000       0.00000000       0.00956071 </v>
   <v>       0.00000000      -0.00000000       0.00956071 </v>
   <v>       0.00000000       0.00000000      -0.01541236 </v>
   <v>      -0.00000000      -0.00000000      -0.01541236 </v>
   <v>       0.00000000       0.00000000      -0.01541236 </v>
   <v>      -0.00000000      -0.00000000      -0.01541236 </v>
   <v>      -0.00000000       0.00000000      -0.01541236 </v>
   <v>      -0.00000000       0.00000000      -0.01541236 </v>
   <v>       0.00000000      -0.00000000      -0.01541236 </v>
   <v>       0.00000000       0.00000000      -0.01541236 </v>
   <v>       0.00000000       0.00000000      -0.01541236 </v>
   <v>      -0.00000000      -0.00000000      -0.01541236 </v>
   <v>       0.00000000      -0.00000000      -0.01541236 </v>
   <v>      -0.00000000       0.00000000      -0.01541236 </v>
   <v>      -0.00000000      -0.00000000      -0.01541236 </v>
   <v>      -0.00000000       0.00000000      -0.01541236 </v>
   <v>      -0.00000000       0.00000000      -0.01541236 </v>
   <v>       0.00000000      -0.00000000      -0.01541236 </v>
   <v>      -0.00000000       0.00000000      -0.01541236 </v>
   <v>      -0.00000000      -0.00000000      -0.01541236 </v>
   <v>       0.00000000       0.00000000      -0.05322777 </v>
   <v>       0.00000000       0.00000000      -0.05322777 </v>
   <v>       0.00000000      -0.00000000      -0.05322777 </v>
   <v>       0.00000000       0.00000000      -0.05322777 </v>
   <v>       0.00000000       0.00000000      -0.05322777 </v>
   <v>       0.00000000      -0.00000000      -0.05322777 </v>
   <v>      -0.00000000       0.00000000      -0.05322777 </v>
   <v>      -0.00000000       0.00000000      -0.05322777 </v>
   <v>      -0.00000000      -0.00000000      -0.05322777 </v>
   <v>       0.00000000       0.00000000      -0.05322777 </v>
   <v>       0.00000000       0.00000000      -0.05322777 </v>
   <v>      -0.00000000      -0.00000000      -0.05322777 </v>
   <v>       0.00000000       0.00000000      -0.05322777 </v>
   <v>      -0.00000000       0.00000000      -0.05322777 </v>
   <v>       0.00000000      -0.00000000      -0.05322777 </v>
   <v>       0.00000000      -0.00000000      -0.05322777 </v>
   <v>       0.00000000       0.00000000      -0.05322777 </v>
   <v>       0.00000000      -0.00000000      -0.05322777 </v>
   <v>       0.00000000       0.00000000       0.08757125 </v>
   <v>      -0.00000000       0.00000000       0.08757125 </v>
   <v>       0.00000000      -0.00000000       0.08757125 </v>
   <v>       0.00000000       0.00000000       0.08757125 </v>
   <v>       0.00000000      -0.00000000       0.08757125 </v>
   <v>       0.00000000      -0.00000000       0.08757125 </v>
   <v>       0.00000000       0.00000000       0.08757125 </v>
   <v>       0.00000000      -0.00000000       0.08757125 </v>
   <v>      -0.00000000       0.00000000       0.08757125 </v>
   <v>      -0.00000000       0.00000000       0.08757125 </v>
   <v>      -0.00000000       0.00000000       0.08757125 </v>
   <v>       0.00000000      -0.00000000       0.08757125 </v>
   <v>       0.00000000      -0.00000000       0.08757125 </v>
   <v>       0.00000000       0.00000000       0.08757125 </v>
   <v>       0.00000000       0.00000000       0.08757125 </v>
   <v>      -0.00000000      -0.00000000       0.08757125 </v>
   <v>      -0.00000000      -0.00000000       0.08757125 </v>
   <v>      -0.00000000       0.00000000       0.08757125 </v>
   <v>       0.00000000       0.00000000      -0.31206794 </v>
   <v>       0.00000000      -0.00000000      -0.31206794 </v>
   <v>       0.00000000       0.00000000      -0.31206794 </v>
   <v>      -0.00000000       0.00000000      -0.31206794 </v>
   <v>      -0.00000000      -0.00000000      -0.31206794 </v>
   <v>       0.00000000      -0.00000000      -0.31206794 </v>
   <v>      -0.00000000       0.00000000      -0.31206794 </v>
   <v>      -0.00000000       0.00000000      -0.31206794 </v>
   <v>      -0.00000000      -0.00000000      -0.31206794 </v>
   <v>       0.00000000       0.00000000      -0.31206794 </v>
   <v>       0.00000000       0.00000000      -0.31206794 </v>
   <v>       0.00000000      -0.00000000      -0.31206794 </v>
   <v>      -0.00000000       0.00000000      -0.31206794 </v>
   <v>      -0.00000000      -0.00000000      -0.31206794 </v>
   <v>      -0.00000000      -0.00000000      -0.31206794 </v>
   <v>       0.00000000      -0.00000000      -0.31206794 </v>
   <v>      -0.00000000       0.00000000      -0.31206794 </v>
   <v>       0.00000000       0.00000000      -0.31206794 </v>
  </varray>
  <varray name="stress" >
   <v>     -50.31297856       0.00000000       0.00000000 </v>
   <v>       0.00000000     -50.31297856       0.00000000 </v>
   <v>       0.00000000       0.00000000     -34.98838625 </v>
  </varray>
  <energy>
   <i name="e_fr_energy">   -574.50456553 </i>
   <i name="e_wo_entrp">   -574.60286122 </i>
   <i name="e_0_energy">   -574.53733076 </i>
  </energy>
  <time name="totalsc">21532.8621775.81</time>
 </calculation>
 <calculation>
  <scstep>
   <time name="dav">  600.61  607.53</time>
   <time name="total">  605.61  612.56</time>
   <energy>
    <i name="alphaZ">   4615.54795223 </i>
    <i name="ewald"> 861670.09115725 </i>
    <i name="hartreedc">**************** </i>
    <i name="XCdc">   6417.45144438 </i>
    <i name="pawpsdc"> 187825.47288757 </i>
    <i name="pawaedc">-203324.73354772 </i>
    <i name="eentropy">      0.09738505 </i>
    <i name="bandstr">  -1726.18769028 </i>
    <i name="atom"> 200297.90018877 </i>
    <i name="e_fr_energy">   -515.87983730 </i>
    <i name="e_wo_entrp">   -515.97722236 </i>
    <i name="e_0_energy">   -515.91229899 </i>
   </energy>
  </scstep>
  <scstep>
   <time name="dav">  791.79  800.63</time>
   <time name="total">  796.69  805.57</time>
   <energy>
    <i name="e_fr_energy">   -515.92952556 </i>
    <i name="e_wo_entrp">   -516.02968218 </i>
    <i name="e_0_energy">   -515.96291110 </i>
   </energy>
  </scstep>
  <scstep>
   <time name="dav">  615.53  623.17</time>
   <time name="total">  620.60  628.27</time>
   <energy>
    <i name="e_fr_energy">   -515.92770819 </i>
    <i name="e_wo_entrp">   -516.02574074 </i>
    <i name="e_0_energy">   -515.96038571 </i>
   </energy>
  </scstep>
  <scstep>
   <time name="dav">  621.54  628.64</time>
   <time name="total">  626.50  633.63</time>
   <energy>
    <i name="e_fr_energy">   -515.92552817 </i>
    <i name="e_wo_entrp">   -516.02360976 </i>
    <i name="e_0_energy">   -515.95822203 </i>
   </energy>
  </scstep>
  <scstep>
   <time name="dav">  599.91  607.67</time>
   <time name="total">  604.95  612.75</time>
   <energy>
    <i name="e_fr_energy">   -515.92576580 </i>
    <i name="e_wo_entrp">   -516.02455796 </i>
    <i name="e_0_energy">   -515.95869652 </i>
   </energy>
  </scstep>
  <scstep>
   <time name="dav">  582.20  589.48</time>
   <time name="total">  587.68  595.03</time>
   <energy>
    <i name="e_fr_energy">   -515.92555598 </i>
    <i name="e_wo_entrp">   -516.02384021 </i>
    <i name="e_0_energy">   -515.95831739 </i>
   </energy>
  </scstep>
  <scstep>
   <time name="dav">  656.07  663.86</time>
   <time name="total">  661.09  668.92</time>
   <energy>
    <i name="e_fr_energy">   -515.92531191 </i>
    <i name="e_wo_entrp">   -516.02342760 </i>
    <i name="e_0_energy">   -515.95801714 </i>
   </energy>
  </scstep>
  <scstep>
   <time name="dav">  513.85  520.00</time>
   <time name="total">  514.14  520.30</time>
   <energy>
    <i name="alphaZ">   4615.54795223 </i>
    <i name="ewald"> 861670.09115725 </i>
    <i name="hartreedc">**************** </i>
    <i name="XCdc">   6417.30185821 </i>
    <i name="pawpsdc"> 187873.95038002 </i>
    <i name="pawaedc">-203374.23171730 </i>
    <i name="eentropy">      0.09811254 </i>
    <i name="bandstr">  -1730.54791377 </i>
    <i name="atom"> 200297.90018877 </i>
    <i name="e_fr_energy">   -515.92513287 </i>
    <i name="e_wo_entrp">   -516.02324541 </i>
    <i name="e_0_energy">   -515.95783705 </i>
   </energy>
  </scstep>
  <dipole>
   <v name="dipole">      0.00000000       0.00000000      -0.01418821 </v>
   <i name="Tr[quadrupol]"> -33030.44301787 </i>
   <i name="Echarged">      0.00000000 </i>
   <i name="Edipol_quadrupol">      0.00000000 </i>
   <i name="Eion">      0.00000000 </i>
  </dipole>
  <structure>
   <crystal>
    <varray name="basis" >
     <v>      10.89000034       0.00000000       0.00000000 </v>
     <v>       0.00000000      10.89000034       0.00000000 </v>
     <v>       0.00000000       0.00000000      27.70499992 </v>
    </varray>
    <i name="volume">   3285.59432860 </i>
    <varray name="rec_basis" >
     <v>       0.09182736       0.00000000       0.00000000 </v>
     <v>       0.00000000       0.09182736       0.00000000 </v>
     <v>       0.00000000       0.00000000       0.03609457 </v>
    </varray>
   </crystal>
   <varray name="positions" >
    <v>       0.00000000       0.00000000       0.00000000 </v>
    <v>       0.00000000       0.33333333       0.00000000 </v>
    <v>       0.00000000       0.66666667       0.00000000 </v>
    <v>       0.33333333       0.00000000       0.00000000 </v>
    <v>       0.33333333       0.33333333       0.00000000 </v>
    <v>       0.33333333       0.66666667       0.00000000 </v>
    <v>       0.66666667       0.00000000       0.00000000 </v>
    <v>       0.66666667       0.33333333       0.00000000 </v>
    <v>       0.66666667       0.66666667       0.00000000 </v>
    <v>       0.16666667       0.16666667       0.00000000 </v>
    <v>       0.16666667       0.50000000       0.00000000 </v>
    <v>       0.16666667       0.83333333       0.00000000 </v>
    <v>       0.50000000       0.16666667       0.00000000 </v>
    <v>       0.50000000       0.50000000       0.00000000 </v>
    <v>       0.50000000       0.83333333       0.00000000 </v>
    <v>       0.83333333       0.16666667       0.00000000 </v>
    <v>       0.83333333       0.50000000       0.00000000 </v>
    <v>       0.83333333       0.83333333       0.00000000 </v>
    <v>       0.00000000       0.16666667       0.06551164 </v>
    <v>       0.00000000       0.50000000       0.06551164 </v>
    <v>       0.00000000       0.83333333       0.06551164 </v>
    <v>       0.33333333       0.16666667       0.06551164 </v>
    <v>       0.33333333       0.50000000       0.06551164 </v>
    <v>       0.33333333       0.83333333       0.06551164 </v>
    <v>       0.66666667       0.16666667       0.06551164 </v>
    <v>       0.66666667       0.50000000       0.06551164 </v>
    <v>       0.66666667       0.83333333       0.06551164 </v>
    <v>       0.16666667       0.00000000       0.06551164 </v>
    <v>       0.16666667       0.33333333       0.06551164 </v>
    <v>       0.16666667       0.66666667       0.06551164 </v>
    <v>       0.50000000       0.00000000       0.06551164 </v>
    <v>       0.50000000       0.33333333       0.06551164 </v>
    <v>       0.50000000       0.66666667       0.06551164 </v>
    <v>       0.83333333       0.00000000       0.06551164 </v>
    <v>       0.83333333       0.33333333       0.06551164 </v>
    <v>       0.83333333       0.66666667       0.06551164 </v>
    <v>       0.00000000       0.00000000       0.13114495 </v>
    <v>       0.00000000       0.33333333       0.13114495 </v>
    <v>       0.00000000       0.66666667       0.13114495 </v>
    <v>       0.33333333       0.00000000       0.13114495 </v>
    <v>       0.33333333       0.33333333       0.13114495 </v>
    <v>       0.33333333       0.66666667       0.13114495 </v>
    <v>       0.66666667      -0.00000000       0.13114495 </v>
    <v>       0.66666667       0.33333333       0.13114495 </v>
    <v>       0.66666667       0.66666667       0.13114495 </v>
    <v>       0.16666667       0.16666667       0.13114495 </v>
    <v>       0.16666667       0.50000000       0.13114495 </v>
    <v>       0.16666667       0.83333333       0.13114495 </v>
    <v>       0.50000000       0.16666667       0.13114495 </v>
    <v>       0.50000000       0.50000000       0.13114495 </v>
    <v>       0.50000000       0.83333333       0.13114495 </v>
    <v>       0.83333333       0.16666667       0.13114495 </v>
    <v>       0.83333333       0.50000000       0.13114495 </v>
    <v>       0.83333333       0.83333333       0.13114495 </v>
    <v>       0.00000000       0.16666667       0.19655157 </v>
    <v>       0.00000000       0.50000000       0.19655157 </v>
    <v>       0.00000000       0.83333333       0.19655157 </v>
    <v>       0.33333333       0.16666667       0.19655157 </v>
    <v>       0.33333333       0.50000000       0.19655157 </v>
    <v>       0.33333333       0.83333333       0.19655157 </v>
    <v>       0.66666667       0.16666667       0.19655157 </v>
    <v>       0.66666667       0.50000000       0.19655157 </v>
    <v>       0.66666667       0.83333333       0.19655157 </v>
    <v>       0.16666667       0.00000000       0.19655157 </v>
    <v>       0.16666667       0.33333333       0.19655157 </v>
    <v>       0.16666667       0.66666667       0.19655157 </v>
    <v>       0.50000000      -0.00000000       0.19655157 </v>
    <v>       0.50000000       0.33333333       0.19655157 </v>
    <v>       0.50000000       0.66666667       0.19655157 </v>
    <v>       0.83333333      -0.00000000       0.19655157 </v>
    <v>       0.83333333       0.33333333       0.19655157 </v>
    <v>       0.83333333       0.66666667       0.19655157 </v>
    <v>       0.00000000       0.00000000       0.26201973 </v>
    <v>      -0.00000000       0.33333333       0.26201973 </v>
    <v>       0.00000000       0.66666667       0.26201973 </v>
    <v>       0.33333333      -0.00000000       0.26201973 </v>
    <v>       0.33333333       0.33333333       0.26201973 </v>
    <v>       0.33333333       0.66666667       0.26201973 </v>
    <v>       0.66666667      -0.00000000       0.26201973 </v>
    <v>       0.66666667       0.33333333       0.26201973 </v>
    <v>       0.66666667       0.66666667       0.26201973 </v>
    <v>       0.16666667       0.16666667       0.26201973 </v>
    <v>       0.16666667       0.50000000       0.26201973 </v>
    <v>       0.16666667       0.83333333       0.26201973 </v>
    <v>       0.50000000       0.16666667       0.26201973 </v>
    <v>       0.50000000       0.50000000       0.26201973 </v>
    <v>       0.50000000       0.83333333       0.26201973 </v>
    <v>       0.83333333       0.16666667       0.26201973 </v>
    <v>       0.83333333       0.50000000       0.26201973 </v>
    <v>       0.83333333       0.83333333       0.26201973 </v>
    <v>       0.00000000       0.16666667       0.32746552 </v>
    <v>       0.00000000       0.50000000       0.32746552 </v>
    <v>       0.00000000       0.83333333       0.32746552 </v>
    <v>       0.33333333       0.16666667       0.32746552 </v>
    <v>       0.33333333       0.50000000       0.32746552 </v>
    <v>       0.33333333       0.83333333       0.32746552 </v>
    <v>       0.66666667       0.16666667       0.32746552 </v>
    <v>       0.66666667       0.50000000       0.32746552 </v>
    <v>       0.66666667       0.83333333       0.32746552 </v>
    <v>       0.16666667       0.00000000       0.32746552 </v>
    <v>       0.16666667       0.33333333       0.32746552 </v>
    <v>       0.16666667       0.66666667       0.32746552 </v>
    <v>       0.50000000       0.00000000       0.32746552 </v>
    <v>       0.50000000       0.33333333       0.32746552 </v>
    <v>       0.50000000       0.66666667       0.32746552 </v>
[...]
    <v>       0.50000000       0.66666667       0.06551164 </v>
    <v>       0.83333333       0.00000000       0.06551164 </v>
    <v>       0.83333333       0.33333333       0.06551164 </v>
    <v>       0.83333333       0.66666667       0.06551164 </v>
    <v>       0.00000000       0.00000000       0.13119553 </v>
    <v>      -0.00000000       0.33333333       0.13119553 </v>
    <v>       0.00000000       0.66666667       0.13119553 </v>
    <v>       0.33333333      -0.00000000       0.13119553 </v>
    <v>       0.33333333       0.33333333       0.13119553 </v>
    <v>       0.33333333       0.66666667       0.13119553 </v>
    <v>       0.66666667       0.00000000       0.13119553 </v>
    <v>       0.66666667       0.33333333       0.13119553 </v>
    <v>       0.66666667       0.66666667       0.13119553 </v>
    <v>       0.16666667       0.16666667       0.13119553 </v>
    <v>       0.16666667       0.50000000       0.13119553 </v>
    <v>       0.16666667       0.83333333       0.13119553 </v>
    <v>       0.50000000       0.16666667       0.13119553 </v>
    <v>       0.50000000       0.50000000       0.13119553 </v>
    <v>       0.50000000       0.83333333       0.13119553 </v>
    <v>       0.83333333       0.16666667       0.13119553 </v>
    <v>       0.83333333       0.50000000       0.13119553 </v>
    <v>       0.83333333       0.83333333       0.13119553 </v>
    <v>      -0.00000000       0.16666667       0.19620680 </v>
    <v>      -0.00000000       0.50000000       0.19620680 </v>
    <v>      -0.00000000       0.83333333       0.19620680 </v>
    <v>       0.33333333       0.16666667       0.19620680 </v>
    <v>       0.33333333       0.50000000       0.19620680 </v>
    <v>       0.33333333       0.83333333       0.19620680 </v>
    <v>       0.66666667       0.16666667       0.19620680 </v>
    <v>       0.66666667       0.50000000       0.19620680 </v>
    <v>       0.66666667       0.83333333       0.19620680 </v>
    <v>       0.16666667       0.00000000       0.19620680 </v>
    <v>       0.16666667       0.33333333       0.19620680 </v>
    <v>       0.16666667       0.66666667       0.19620680 </v>
    <v>       0.50000000      -0.00000000       0.19620680 </v>
    <v>       0.50000000       0.33333333       0.19620680 </v>
    <v>       0.50000000       0.66666667       0.19620680 </v>
    <v>       0.83333333      -0.00000000       0.19620680 </v>
    <v>       0.83333333       0.33333333       0.19620680 </v>
    <v>       0.83333333       0.66666667       0.19620680 </v>
    <v>       0.00000000       0.00000000       0.25873860 </v>
    <v>      -0.00000000       0.33333333       0.25873860 </v>
    <v>      -0.00000000       0.66666667       0.25873860 </v>
    <v>       0.33333333       0.00000000       0.25873860 </v>
    <v>       0.33333333       0.33333333       0.25873860 </v>
    <v>       0.33333333       0.66666667       0.25873860 </v>
    <v>       0.66666667      -0.00000000       0.25873860 </v>
    <v>       0.66666667       0.33333333       0.25873860 </v>
    <v>       0.66666667       0.66666667       0.25873860 </v>
    <v>       0.16666667       0.16666667       0.25873860 </v>
    <v>       0.16666667       0.50000000       0.25873860 </v>
    <v>       0.16666667       0.83333333       0.25873860 </v>
    <v>       0.50000000       0.16666667       0.25873860 </v>
    <v>       0.50000000       0.50000000       0.25873860 </v>
    <v>       0.50000000       0.83333333       0.25873860 </v>
    <v>       0.83333333       0.16666667       0.25873860 </v>
    <v>       0.83333333       0.50000000       0.25873860 </v>
    <v>       0.83333333       0.83333333       0.25873860 </v>
    <v>       0.00000000       0.16666667       0.32119954 </v>
    <v>       0.00000000       0.50000000       0.32119954 </v>
    <v>       0.00000000       0.83333333       0.32119954 </v>
    <v>       0.33333333       0.16666667       0.32119954 </v>
    <v>       0.33333333       0.50000000       0.32119954 </v>
    <v>       0.33333333       0.83333333       0.32119954 </v>
    <v>       0.66666667       0.16666667       0.32119954 </v>
    <v>       0.66666667       0.50000000       0.32119954 </v>
    <v>       0.66666667       0.83333333       0.32119954 </v>
    <v>       0.16666667      -0.00000000       0.32119954 </v>
    <v>       0.16666667       0.33333333       0.32119954 </v>
    <v>       0.16666667       0.66666667       0.32119954 </v>
    <v>       0.50000000      -0.00000000       0.32119954 </v>
    <v>       0.50000000       0.33333333       0.32119954 </v>
    <v>       0.50000000       0.66666667       0.32119954 </v>
    <v>       0.83333333       0.00000000       0.32119954 </v>
    <v>       0.83333333       0.33333333       0.32119954 </v>
    <v>       0.83333333       0.66666667       0.32119954 </v>
    <v>      -0.00000000       0.00000000       0.38476372 </v>
    <v>      -0.00000000       0.33333333       0.38476372 </v>
    <v>      -0.00000000       0.66666667       0.38476372 </v>
    <v>       0.33333333      -0.00000000       0.38476372 </v>
    <v>       0.33333333       0.33333333       0.38476372 </v>
    <v>       0.33333333       0.66666667       0.38476372 </v>
    <v>       0.66666667       0.00000000       0.38476372 </v>
    <v>       0.66666667       0.33333333       0.38476372 </v>
    <v>       0.66666667       0.66666667       0.38476372 </v>
    <v>       0.16666667       0.16666667       0.38476372 </v>
    <v>       0.16666667       0.50000000       0.38476372 </v>
    <v>       0.16666667       0.83333333       0.38476372 </v>
    <v>       0.50000000       0.16666667       0.38476372 </v>
    <v>       0.50000000       0.50000000       0.38476372 </v>
    <v>       0.50000000       0.83333333       0.38476372 </v>
    <v>       0.83333333       0.16666667       0.38476372 </v>
    <v>       0.83333333       0.50000000       0.38476372 </v>
    <v>       0.83333333       0.83333333       0.38476372 </v>
    <v>       0.00000000       0.16666667       0.44736473 </v>
    <v>       0.00000000       0.50000000       0.44736473 </v>
    <v>       0.00000000       0.83333333       0.44736473 </v>
    <v>       0.33333333       0.16666667       0.44736473 </v>
    <v>       0.33333333       0.50000000       0.44736473 </v>
    <v>       0.33333333       0.83333333       0.44736473 </v>
    <v>       0.66666667       0.16666667       0.44736473 </v>
    <v>       0.66666667       0.50000000       0.44736473 </v>
    <v>       0.66666667       0.83333333       0.44736473 </v>
    <v>       0.16666667       0.00000000       0.44736473 </v>
    <v>       0.16666667       0.33333333       0.44736473 </v>
    <v>       0.16666667       0.66666667       0.44736473 </v>
    <v>       0.50000000       0.00000000       0.44736473 </v>
    <v>       0.50000000       0.33333333       0.44736473 </v>
    <v>       0.50000000       0.66666667       0.44736473 </v>
    <v>       0.83333333      -0.00000000       0.44736473 </v>
    <v>       0.83333333       0.33333333       0.44736473 </v>
    <v>       0.83333333       0.66666667       0.44736473 </v>
   </varray>
  </structure>
  <varray name="forces" >
   <v>      -0.00000000       0.00000000       0.30840272 </v>
   <v>      -0.00000000      -0.00000000       0.30840272 </v>
   <v>      -0.00000000       0.00000000       0.30840272 </v>
   <v>      -0.00000000       0.00000000       0.30840272 </v>
   <v>      -0.00000000      -0.00000000       0.30840272 </v>
   <v>      -0.00000000      -0.00000000       0.30840272 </v>
   <v>      -0.00000000       0.00000000       0.30840272 </v>
   <v>      -0.00000000      -0.00000000       0.30840272 </v>
   <v>      -0.00000000       0.00000000       0.30840272 </v>
   <v>      -0.00000000      -0.00000000       0.30840272 </v>
   <v>      -0.00000000      -0.00000000       0.30840272 </v>
   <v>      -0.00000000       0.00000000       0.30840272 </v>
   <v>      -0.00000000      -0.00000000       0.30840272 </v>
   <v>       0.00000000       0.00000000       0.30840272 </v>
   <v>      -0.00000000       0.00000000       0.30840272 </v>
   <v>      -0.00000000      -0.00000000       0.30840272 </v>
   <v>      -0.00000000       0.00000000       0.30840272 </v>
   <v>      -0.00000000       0.00000000       0.30840272 </v>
   <v>       0.00000000      -0.00000000      -0.07788269 </v>
   <v>      -0.00000000      -0.00000000      -0.07788269 </v>
   <v>       0.00000000      -0.00000000      -0.07788269 </v>
   <v>      -0.00000000      -0.00000000      -0.07788269 </v>
   <v>       0.00000000      -0.00000000      -0.07788269 </v>
   <v>       0.00000000      -0.00000000      -0.07788269 </v>
   <v>       0.00000000      -0.00000000      -0.07788269 </v>
   <v>      -0.00000000       0.00000000      -0.07788269 </v>
   <v>      -0.00000000       0.00000000      -0.07788269 </v>
   <v>      -0.00000000       0.00000000      -0.07788269 </v>
   <v>      -0.00000000       0.00000000      -0.07788269 </v>
   <v>       0.00000000      -0.00000000      -0.07788269 </v>
   <v>      -0.00000000       0.00000000      -0.07788269 </v>
   <v>      -0.00000000       0.00000000      -0.07788269 </v>
   <v>      -0.00000000      -0.00000000      -0.07788269 </v>
   <v>      -0.00000000      -0.00000000      -0.07788269 </v>
   <v>      -0.00000000       0.00000000      -0.07788269 </v>
   <v>      -0.00000000      -0.00000000      -0.07788269 </v>
   <v>      -0.00000000      -0.00000000      -0.00675740 </v>
   <v>      -0.00000000      -0.00000000      -0.00675740 </v>
   <v>       0.00000000       0.00000000      -0.00675740 </v>
   <v>      -0.00000000       0.00000000      -0.00675740 </v>
   <v>       0.00000000       0.00000000      -0.00675740 </v>
   <v>      -0.00000000       0.00000000      -0.00675740 </v>
   <v>       0.00000000       0.00000000      -0.00675740 </v>
   <v>       0.00000000       0.00000000      -0.00675740 </v>
   <v>      -0.00000000      -0.00000000      -0.00675740 </v>
   <v>       0.00000000      -0.00000000      -0.00675740 </v>
   <v>       0.00000000       0.00000000      -0.00675740 </v>
   <v>      -0.00000000       0.00000000      -0.00675740 </v>
   <v>      -0.00000000      -0.00000000      -0.00675740 </v>
   <v>      -0.00000000      -0.00000000      -0.00675740 </v>
   <v>      -0.00000000       0.00000000      -0.00675740 </v>
   <v>       0.00000000       0.00000000      -0.00675740 </v>
   <v>      -0.00000000       0.00000000      -0.00675740 </v>
   <v>      -0.00000000      -0.00000000      -0.00675740 </v>
   <v>       0.00000000      -0.00000000      -0.26842496 </v>
   <v>       0.00000000       0.00000000      -0.26842496 </v>
   <v>       0.00000000      -0.00000000      -0.26842496 </v>
   <v>       0.00000000      -0.00000000      -0.26842496 </v>
   <v>       0.00000000       0.00000000      -0.26842496 </v>
   <v>       0.00000000      -0.00000000      -0.26842496 </v>
   <v>      -0.00000000      -0.00000000      -0.26842496 </v>
   <v>      -0.00000000       0.00000000      -0.26842496 </v>
   <v>      -0.00000000      -0.00000000      -0.26842496 </v>
   <v>       0.00000000      -0.00000000      -0.26842496 </v>
   <v>       0.00000000       0.00000000      -0.26842496 </v>
   <v>       0.00000000      -0.00000000      -0.26842496 </v>
   <v>      -0.00000000      -0.00000000      -0.26842496 </v>
   <v>      -0.00000000       0.00000000      -0.26842496 </v>
   <v>      -0.00000000      -0.00000000      -0.26842496 </v>
   <v>       0.00000000      -0.00000000      -0.26842496 </v>
   <v>       0.00000000      -0.00000000      -0.26842496 </v>
   <v>       0.00000000      -0.00000000      -0.26842496 </v>
   <v>       0.00000000      -0.00000000      -0.02836807 </v>
   <v>      -0.00000000      -0.00000000      -0.02836807 </v>
   <v>      -0.00000000       0.00000000      -0.02836807 </v>
   <v>      -0.00000000       0.00000000      -0.02836807 </v>
   <v>      -0.00000000      -0.00000000      -0.02836807 </v>
   <v>       0.00000000       0.00000000      -0.02836807 </v>
   <v>       0.00000000      -0.00000000      -0.02836807 </v>
   <v>       0.00000000      -0.00000000      -0.02836807 </v>
   <v>       0.00000000       0.00000000      -0.02836807 </v>
   <v>      -0.00000000      -0.00000000      -0.02836807 </v>
   <v>      -0.00000000      -0.00000000      -0.02836807 </v>
   <v>      -0.00000000       0.00000000      -0.02836807 </v>
   <v>      -0.00000000      -0.00000000      -0.02836807 </v>
   <v>       0.00000000      -0.00000000      -0.02836807 </v>
   <v>       0.00000000       0.00000000      -0.02836807 </v>
   <v>       0.00000000      -0.00000000      -0.02836807 </v>
   <v>      -0.00000000       0.00000000      -0.02836807 </v>
   <v>       0.00000000      -0.00000000      -0.02836807 </v>
   <v>      -0.00000000       0.00000000       0.05227441 </v>
   <v>      -0.00000000       0.00000000       0.05227441 </v>
   <v>      -0.00000000       0.00000000       0.05227441 </v>
   <v>      -0.00000000      -0.00000000       0.05227441 </v>
   <v>      -0.00000000      -0.00000000       0.05227441 </v>
   <v>      -0.00000000       0.00000000       0.05227441 </v>
   <v>       0.00000000       0.00000000       0.05227441 </v>
   <v>      -0.00000000       0.00000000       0.05227441 </v>
   <v>       0.00000000      -0.00000000       0.05227441 </v>
   <v>      -0.00000000       0.00000000       0.05227441 </v>
   <v>       0.00000000       0.00000000       0.05227441 </v>
   <v>      -0.00000000       0.00000000       0.05227441 </v>
   <v>      -0.00000000       0.00000000       0.05227441 </v>
   <v>       0.00000000       0.00000000       0.05227441 </v>
   <v>      -0.00000000      -0.00000000       0.05227441 </v>
   <v>      -0.00000000       0.00000000       0.05227441 </v>
   <v>      -0.00000000       0.00000000       0.05227441 </v>
   <v>      -0.00000000       0.00000000       0.05227441 </v>
   <v>       0.00000000      -0.00000000       0.02341658 </v>
   <v>       0.00000000       0.00000000       0.02341658 </v>
   <v>       0.00000000       0.00000000       0.02341658 </v>
   <v>       0.00000000      -0.00000000       0.02341658 </v>
   <v>       0.00000000       0.00000000       0.02341658 </v>
   <v>       0.00000000      -0.00000000       0.02341658 </v>
   <v>      -0.00000000      -0.00000000       0.02341658 </v>
   <v>      -0.00000000       0.00000000       0.02341658 </v>
   <v>      -0.00000000       0.00000000       0.02341658 </v>
   <v>       0.00000000      -0.00000000       0.02341658 </v>
   <v>       0.00000000      -0.00000000       0.02341658 </v>
   <v>      -0.00000000       0.00000000       0.02341658 </v>
   <v>       0.00000000       0.00000000       0.02341658 </v>
   <v>       0.00000000       0.00000000       0.02341658 </v>
   <v>       0.00000000       0.00000000       0.02341658 </v>
   <v>      -0.00000000      -0.00000000       0.02341658 </v>
   <v>       0.00000000       0.00000000       0.02341658 </v>
   <v>       0.00000000       0.00000000       0.02341658 </v>
   <v>       0.00000000       0.00000000      -0.00266060 </v>
   <v>      -0.00000000       0.00000000      -0.00266060 </v>
   <v>       0.00000000      -0.00000000      -0.00266060 </v>
   <v>      -0.00000000      -0.00000000      -0.00266060 </v>
   <v>       0.00000000      -0.00000000      -0.00266060 </v>
   <v>       0.00000000      -0.00000000      -0.00266060 </v>
   <v>      -0.00000000      -0.00000000      -0.00266060 </v>
   <v>       0.00000000      -0.00000000      -0.00266060 </v>
   <v>       0.00000000       0.00000000      -0.00266060 </v>
   <v>       0.00000000      -0.00000000      -0.00266060 </v>
   <v>       0.00000000      -0.00000000      -0.00266060 </v>
   <v>       0.00000000       0.00000000      -0.00266060 </v>
   <v>      -0.00000000      -0.00000000      -0.00266060 </v>
   <v>      -0.00000000      -0.00000000      -0.00266060 </v>
   <v>      -0.00000000       0.00000000      -0.00266060 </v>
   <v>       0.00000000       0.00000000      -0.00266060 </v>
   <v>       0.00000000       0.00000000      -0.00266060 </v>
   <v>       0.00000000      -0.00000000      -0.00266060 </v>
  </varray>
  <varray name="stress" >
   <v>     -36.88642880       0.00000000       0.00000000 </v>
   <v>       0.00000000     -36.88642880       0.00000000 </v>
   <v>       0.00000000       0.00000000     -15.37257426 </v>
  </varray>
  <energy>
   <i name="e_fr_energy">   -575.23911379 </i>
   <i name="e_wo_entrp">   -575.35149576 </i>
   <i name="e_0_energy">   -575.27657445 </i>
  </energy>
  <time name="totalsc"> 7232.16 7316.15</time>
 </calculation>
 <calculation>
  <scstep>
   <time name="dav">  603.72  611.09</time>
   <time name="total">  608.67  616.07</time>
   <energy>
    <i name="alphaZ">   4615.54795223 </i>
    <i name="ewald"> 927546.93844901 </i>
    <i name="hartreedc">**************** </i>
    <i name="XCdc">   6425.62671547 </i>
    <i name="pawpsdc"> 188954.66872581 </i>
    <i name="pawaedc">-204474.03714803 </i>
    <i name="eentropy">      0.12239410 </i>
    <i name="bandstr">  -1820.03306337 </i>
    <i name="atom"> 200297.90018877 </i>
    <i name="e_fr_energy">   -513.08532518 </i>
    <i name="e_wo_entrp">   -513.20771928 </i>
    <i name="e_0_energy">   -513.12612321 </i>
   </energy>
  </scstep>
  <scstep>
   <time name="dav">  837.21  847.36</time>
   <time name="total">  842.18  852.36</time>
   <energy>
    <i name="e_fr_energy">   -515.27554384 </i>
    <i name="e_wo_entrp">   -515.36568276 </i>
    <i name="e_0_energy">   -515.30559015 </i>
   </energy>
  </scstep>
  <scstep>
   <time name="dav">  797.12  806.00</time>
   <time name="total">  802.09  810.99</time>
   <energy>
    <i name="e_fr_energy">   -515.13980501 </i>
    <i name="e_wo_entrp">   -515.25578733 </i>
    <i name="e_0_energy">   -515.17846578 </i>
   </energy>
  </scstep>
  <scstep>
   <time name="dav">  680.15  688.23</time>
   <time name="total">  685.56  693.81</time>
   <energy>
    <i name="e_fr_energy">   -515.02736786 </i>
    <i name="e_wo_entrp">   -515.14952229 </i>
    <i name="e_0_energy">   -515.06808600 </i>
   </energy>
  </scstep>
  <scstep>
   <time name="dav">  622.65  629.93</time>
   <time name="total">  627.64  634.96</time>
   <energy>
    <i name="e_fr_energy">   -515.02943143 </i>
    <i name="e_wo_entrp">   -515.14031902 </i>
    <i name="e_0_energy">   -515.06639396 </i>
   </energy>
  </scstep>
  <scstep>
   <time name="dav">  614.88  622.73</time>
   <time name="total">  619.84  627.72</time>
   <energy>
    <i name="e_fr_energy">   -514.97289107 </i>
    <i name="e_wo_entrp">   -515.09080875 </i>
    <i name="e_0_energy">   -515.01219696 </i>
   </energy>
  </scstep>
  <scstep>
   <time name="dav">  832.75  842.32</time>
   <time name="total">  837.67  847.27</time>
   <energy>
    <i name="e_fr_energy">   -514.96609956 </i>
    <i name="e_wo_entrp">   -515.08603225 </i>
    <i name="e_0_energy">   -515.00607712 </i>
   </energy>
  </scstep>
  <scstep>
   <time name="dav">  693.71  702.19</time>
   <time name="total">  698.71  707.21</time>
   <energy>
    <i name="e_fr_energy">   -514.96235395 </i>
    <i name="e_wo_entrp">   -515.08718451 </i>
    <i name="e_0_energy">   -515.00396414 </i>
   </energy>
  </scstep>
  <scstep>
   <time name="dav">  594.60  600.93</time>
   <time name="total">  599.67  606.02</time>
   <energy>
    <i name="e_fr_energy">   -514.96200017 </i>
    <i name="e_wo_entrp">   -515.08268150 </i>
    <i name="e_0_energy">   -515.00222728 </i>
   </energy>
  </scstep>
  <scstep>
   <time name="dav">  586.44  592.99</time>
   <time name="total">  591.86  598.56</time>
   <energy>
    <i name="e_fr_energy">   -514.96241890 </i>
    <i name="e_wo_entrp">   -515.08283152 </i>
    <i name="e_0_energy">   -515.00255644 </i>
   </energy>
  </scstep>
  <scstep>
