unknown system                          
           1
    10.890000    0.000000    0.000000
     0.000000   10.890000    0.000000
     0.000000    0.000000   27.705000
   Cu
   144
Direct configuration=     1
   0.00000000  0.00000000  0.00000000
   0.00000000  0.33333333  0.00000000
   0.00000000  0.66666667  0.00000000
   0.33333333  0.00000000  0.00000000
   0.33333333  0.33333333  0.00000000
   0.33333333  0.66666667  0.00000000
   0.66666667  0.00000000  0.00000000
   0.66666667  0.33333333  0.00000000
   0.66666667  0.66666667  0.00000000
   0.16666667  0.16666667  0.00000000
   0.16666667  0.50000000  0.00000000
   0.16666667  0.83333333  0.00000000
   0.50000000  0.16666667  0.00000000
   0.50000000  0.50000000  0.00000000
   0.50000000  0.83333333  0.00000000
   0.83333333  0.16666667  0.00000000
   0.83333333  0.50000000  0.00000000
   0.83333333  0.83333333  0.00000000
   0.00000000  0.16666667  0.06551164
   0.00000000  0.50000000  0.06551164
   0.00000000  0.83333333  0.06551164
   0.33333333  0.16666667  0.06551164
   0.33333333  0.50000000  0.06551164
   0.33333333  0.83333333  0.06551164
   0.66666667  0.16666667  0.06551164
   0.66666667  0.50000000  0.06551164
   0.66666667  0.83333333  0.06551164
   0.16666667  0.00000000  0.06551164
   0.16666667  0.33333333  0.06551164
   0.16666667  0.66666667  0.06551164
   0.50000000  0.00000000  0.06551164
   0.50000000  0.33333333  0.06551164
   0.50000000  0.66666667  0.06551164
   0.83333333  0.00000000  0.06551164
   0.83333333  0.33333333  0.06551164
   0.83333333  0.66666667  0.06551164
   0.00000000  0.00000000  0.13102328
   0.00000000  0.33333333  0.13102328
   0.00000000  0.66666667  0.13102328
   0.33333333  0.00000000  0.13102328
   0.33333333  0.33333333  0.13102328
   0.33333333  0.66666667  0.13102328
   0.66666667  0.00000000  0.13102328
   0.66666667  0.33333333  0.13102328
   0.66666667  0.66666667  0.13102328
   0.16666667  0.16666667  0.13102328
   0.16666667  0.50000000  0.13102328
   0.16666667  0.83333333  0.13102328
   0.50000000  0.16666667  0.13102328
   0.50000000  0.50000000  0.13102328
   0.50000000  0.83333333  0.13102328
   0.83333333  0.16666667  0.13102328
   0.83333333  0.50000000  0.13102328
   0.83333333  0.83333333  0.13102328
   0.00000000  0.16666667  0.19653492
   0.00000000  0.50000000  0.19653492
   0.00000000  0.83333333  0.19653492
   0.33333333  0.16666667  0.19653492
   0.33333333  0.50000000  0.19653492
   0.33333333  0.83333333  0.19653492
   0.66666667  0.16666667  0.19653492
   0.66666667  0.50000000  0.19653492
   0.66666667  0.83333333  0.19653492
   0.16666667  0.00000000  0.19653492
   0.16666667  0.33333333  0.19653492
   0.16666667  0.66666667  0.19653492
   0.50000000  0.00000000  0.19653492
   0.50000000  0.33333333  0.19653492
   0.50000000  0.66666667  0.19653492
   0.83333333  0.00000000  0.19653492
   0.83333333  0.33333333  0.19653492
   0.83333333  0.66666667  0.19653492
   0.00000000  0.00000000  0.26204657
   0.00000000  0.33333333  0.26204657
   0.00000000  0.66666667  0.26204657
   0.33333333  0.00000000  0.26204657
   0.33333333  0.33333333  0.26204657
   0.33333333  0.66666667  0.26204657
   0.66666667  0.00000000  0.26204657
   0.66666667  0.33333333  0.26204657
   0.66666667  0.66666667  0.26204657
   0.16666667  0.16666667  0.26204657
   0.16666667  0.50000000  0.26204657
   0.16666667  0.83333333  0.26204657
   0.50000000  0.16666667  0.26204657
   0.50000000  0.50000000  0.26204657
   0.50000000  0.83333333  0.26204657
   0.83333333  0.16666667  0.26204657
   0.83333333  0.50000000  0.26204657
   0.83333333  0.83333333  0.26204657
   0.00000000  0.16666667  0.32755821
   0.00000000  0.50000000  0.32755821
   0.00000000  0.83333333  0.32755821
   0.33333333  0.16666667  0.32755821
   0.33333333  0.50000000  0.32755821
   0.33333333  0.83333333  0.32755821
   0.66666667  0.16666667  0.32755821
   0.66666667  0.50000000  0.32755821
   0.66666667  0.83333333  0.32755821
   0.16666667  0.00000000  0.32755821
   0.16666667  0.33333333  0.32755821
   0.16666667  0.66666667  0.32755821
   0.50000000  0.00000000  0.32755821
   0.50000000  0.33333333  0.32755821
   0.50000000  0.66666667  0.32755821
   0.83333333  0.00000000  0.32755821
   0.83333333  0.33333333  0.32755821
   0.83333333  0.66666667  0.32755821
   0.00000000  0.00000000  0.39306985
   0.00000000  0.33333333  0.39306985
   0.00000000  0.66666667  0.39306985
   0.33333333  0.00000000  0.39306985
   0.33333333  0.33333333  0.39306985
   0.33333333  0.66666667  0.39306985
   0.66666667  0.00000000  0.39306985
   0.66666667  0.33333333  0.39306985
   0.66666667  0.66666667  0.39306985
   0.16666667  0.16666667  0.39306985
   0.16666667  0.50000000  0.39306985
   0.16666667  0.83333333  0.39306985
   0.50000000  0.16666667  0.39306985
   0.50000000  0.50000000  0.39306985
   0.50000000  0.83333333  0.39306985
   0.83333333  0.16666667  0.39306985
   0.83333333  0.50000000  0.39306985
   0.83333333  0.83333333  0.39306985
   0.00000000  0.16666667  0.45858149
   0.00000000  0.50000000  0.45858149
   0.00000000  0.83333333  0.45858149
   0.33333333  0.16666667  0.45858149
   0.33333333  0.50000000  0.45858149
   0.33333333  0.83333333  0.45858149
   0.66666667  0.16666667  0.45858149
   0.66666667  0.50000000  0.45858149
   0.66666667  0.83333333  0.45858149
   0.16666667  0.00000000  0.45858149
   0.16666667  0.33333333  0.45858149
   0.16666667  0.66666667  0.45858149
   0.50000000  0.00000000  0.45858149
   0.50000000  0.33333333  0.45858149
   0.50000000  0.66666667  0.45858149
   0.83333333  0.00000000  0.45858149
   0.83333333  0.33333333  0.45858149
   0.83333333  0.66666667  0.45858149
Direct configuration=     2
   0.00000000  0.00000000  0.00000000
   0.00000000  0.33333333  0.00000000
   0.00000000  0.66666667  0.00000000
   0.33333333  0.00000000  0.00000000
   0.33333333  0.33333333  0.00000000
   0.33333333  0.66666667  0.00000000
   0.66666667  0.00000000  0.00000000
   0.66666667  0.33333333  0.00000000
   0.66666667  0.66666667  0.00000000
   0.16666667  0.16666667  0.00000000
   0.16666667  0.50000000  0.00000000
   0.16666667  0.83333333  0.00000000
   0.50000000  0.16666667  0.00000000
   0.50000000  0.50000000  0.00000000
   0.50000000  0.83333333  0.00000000
   0.83333333  0.16666667  0.00000000
   0.83333333  0.50000000  0.00000000
   0.83333333  0.83333333  0.00000000
   0.00000000  0.16666667  0.06551164
   0.00000000  0.50000000  0.06551164
   0.00000000  0.83333333  0.06551164
   0.33333333  0.16666667  0.06551164
   0.33333333  0.50000000  0.06551164
   0.33333333  0.83333333  0.06551164
   0.66666667  0.16666667  0.06551164
   0.66666667  0.50000000  0.06551164
   0.66666667  0.83333333  0.06551164
   0.16666667  0.00000000  0.06551164
   0.16666667  0.33333333  0.06551164
   0.16666667  0.66666667  0.06551164
   0.50000000  0.00000000  0.06551164
   0.50000000  0.33333333  0.06551164
   0.50000000  0.66666667  0.06551164
   0.83333333  0.00000000  0.06551164
   0.83333333  0.33333333  0.06551164
   0.83333333  0.66666667  0.06551164
   0.00000000  0.00000000  0.13114495
   0.00000000  0.33333333  0.13114495
   0.00000000  0.66666667  0.13114495
   0.33333333  0.00000000  0.13114495
   0.33333333  0.33333333  0.13114495
   0.33333333  0.66666667  0.13114495
   0.66666667 -0.00000000  0.13114495
   0.66666667  0.33333333  0.13114495
   0.66666667  0.66666667  0.13114495
   0.16666667  0.16666667  0.13114495
   0.16666667  0.50000000  0.13114495
   0.16666667  0.83333333  0.13114495
   0.50000000  0.16666667  0.13114495
   0.50000000  0.50000000  0.13114495
   0.50000000  0.83333333  0.13114495
   0.83333333  0.16666667  0.13114495
   0.83333333  0.50000000  0.13114495
   0.83333333  0.83333333  0.13114495
   0.00000000  0.16666667  0.19655157
   0.00000000  0.50000000  0.19655157
   0.00000000  0.83333333  0.19655157
   0.33333333  0.16666667  0.19655157
   0.33333333  0.50000000  0.19655157
   0.33333333  0.83333333  0.19655157
   0.66666667  0.16666667  0.19655157
   0.66666667  0.50000000  0.19655157
   0.66666667  0.83333333  0.19655157
   0.16666667  0.00000000  0.19655157
   0.16666667  0.33333333  0.19655157
   0.16666667  0.66666667  0.19655157
   0.50000000 -0.00000000  0.19655157
   0.50000000  0.33333333  0.19655157
   0.50000000  0.66666667  0.19655157
   0.83333333 -0.00000000  0.19655157
   0.83333333  0.33333333  0.19655157
   0.83333333  0.66666667  0.19655157
   0.00000000  0.00000000  0.26201973
  -0.00000000  0.33333333  0.26201973
   0.00000000  0.66666667  0.26201973
   0.33333333 -0.00000000  0.26201973
   0.33333333  0.33333333  0.26201973
   0.33333333  0.66666667  0.26201973
   0.66666667 -0.00000000  0.26201973
   0.66666667  0.33333333  0.26201973
   0.66666667  0.66666667  0.26201973
   0.16666667  0.16666667  0.26201973
   0.16666667  0.50000000  0.26201973
   0.16666667  0.83333333  0.26201973
   0.50000000  0.16666667  0.26201973
   0.50000000  0.50000000  0.26201973
   0.50000000  0.83333333  0.26201973
   0.83333333  0.16666667  0.26201973
   0.83333333  0.50000000  0.26201973
   0.83333333  0.83333333  0.26201973
   0.00000000  0.16666667  0.32746552
   0.00000000  0.50000000  0.32746552
   0.00000000  0.83333333  0.32746552
   0.33333333  0.16666667  0.32746552
   0.33333333  0.50000000  0.32746552
   0.33333333  0.83333333  0.32746552
   0.66666667  0.16666667  0.32746552
   0.66666667  0.50000000  0.32746552
   0.66666667  0.83333333  0.32746552
   0.16666667  0.00000000  0.32746552
   0.16666667  0.33333333  0.32746552
   0.16666667  0.66666667  0.32746552
   0.50000000  0.00000000  0.32746552
   0.50000000  0.33333333  0.32746552
   0.50000000  0.66666667  0.32746552
   0.83333333 -0.00000000  0.32746552
   0.83333333  0.33333333  0.32746552
   0.83333333  0.66666667  0.32746552
   0.00000000  0.00000000  0.39322234
  -0.00000000  0.33333333  0.39322234
   0.00000000  0.66666667  0.39322234
   0.33333333  0.00000000  0.39322234
   0.33333333  0.33333333  0.39322234
   0.33333333  0.66666667  0.39322234
   0.66666667  0.00000000  0.39322234
   0.66666667  0.33333333  0.39322234
   0.66666667  0.66666667  0.39322234
   0.16666667  0.16666667  0.39322234
   0.16666667  0.50000000  0.39322234
   0.16666667  0.83333333  0.39322234
   0.50000000  0.16666667  0.39322234
   0.50000000  0.50000000  0.39322234
   0.50000000  0.83333333  0.39322234
   0.83333333  0.16666667  0.39322234
   0.83333333  0.50000000  0.39322234
   0.83333333  0.83333333  0.39322234
   0.00000000  0.16666667  0.45803809
   0.00000000  0.50000000  0.45803809
   0.00000000  0.83333333  0.45803809
   0.33333333  0.16666667  0.45803809
   0.33333333  0.50000000  0.45803809
   0.33333333  0.83333333  0.45803809
   0.66666667  0.16666667  0.45803809
   0.66666667  0.50000000  0.45803809
   0.66666667  0.83333333  0.45803809
   0.16666667  0.00000000  0.45803809
   0.16666667  0.33333333  0.45803809
   0.16666667  0.66666667  0.45803809
   0.50000000  0.00000000  0.45803809
   0.50000000  0.33333333  0.45803809
   0.50000000  0.66666667  0.45803809
   0.83333333 -0.00000000  0.45803809
   0.83333333  0.33333333  0.45803809
   0.83333333  0.66666667  0.45803809
Direct configuration=     3
   0.00000000  0.00000000  0.00000000
   0.00000000  0.33333333  0.00000000
   0.00000000  0.66666667  0.00000000
   0.33333333  0.00000000  0.00000000
   0.33333333  0.33333333  0.00000000
   0.33333333  0.66666667  0.00000000
   0.66666667  0.00000000  0.00000000
   0.66666667  0.33333333  0.00000000
   0.66666667  0.66666667  0.00000000
   0.16666667  0.16666667  0.00000000
   0.16666667  0.50000000  0.00000000
   0.16666667  0.83333333  0.00000000
   0.50000000  0.16666667  0.00000000
   0.50000000  0.50000000  0.00000000
   0.50000000  0.83333333  0.00000000
   0.83333333  0.16666667  0.00000000
   0.83333333  0.50000000  0.00000000
   0.83333333  0.83333333  0.00000000
   0.00000000  0.16666667  0.06551164
   0.00000000  0.50000000  0.06551164
   0.00000000  0.83333333  0.06551164
   0.33333333  0.16666667  0.06551164
   0.33333333  0.50000000  0.06551164
   0.33333333  0.83333333  0.06551164
   0.66666667  0.16666667  0.06551164
   0.66666667  0.50000000  0.06551164
   0.66666667  0.83333333  0.06551164
   0.16666667  0.00000000  0.06551164
   0.16666667  0.33333333  0.06551164
   0.16666667  0.66666667  0.06551164
   0.50000000  0.00000000  0.06551164
   0.50000000  0.33333333  0.06551164
   0.50000000  0.66666667  0.06551164
   0.83333333  0.00000000  0.06551164
   0.83333333  0.33333333  0.06551164
   0.83333333  0.66666667  0.06551164
   0.00000000  0.00000000  0.13129702
   0.00000000  0.33333333  0.13129702
   0.00000000  0.66666667  0.13129702
   0.33333333  0.00000000  0.13129702
   0.33333333  0.33333333  0.13129702
   0.33333333  0.66666667  0.13129702
   0.66666667 -0.00000000  0.13129702
   0.66666667  0.33333333  0.13129702
   0.66666667  0.66666667  0.13129702
   0.16666667  0.16666667  0.13129702
   0.16666667  0.50000000  0.13129702
   0.16666667  0.83333333  0.13129702
   0.50000000  0.16666667  0.13129702
   0.50000000  0.50000000  0.13129702
   0.50000000  0.83333333  0.13129702
   0.83333333  0.16666667  0.13129702
   0.83333333  0.50000000  0.13129702
   0.83333333  0.83333333  0.13129702
   0.00000000  0.16666667  0.19657238
   0.00000000  0.50000000  0.19657238
   0.00000000  0.83333333  0.19657238
   0.33333333  0.16666667  0.19657238
   0.33333333  0.50000000  0.19657238
   0.33333333  0.83333333  0.19657238
   0.66666667  0.16666667  0.19657238
   0.66666667  0.50000000  0.19657238
   0.66666667  0.83333333  0.19657238
   0.16666667  0.00000000  0.19657238
   0.16666667  0.33333333  0.19657238
   0.16666667  0.66666667  0.19657238
   0.50000000 -0.00000000  0.19657238
   0.50000000  0.33333333  0.19657238
   0.50000000  0.66666667  0.19657238
   0.83333333 -0.00000000  0.19657238
   0.83333333  0.33333333  0.19657238
   0.83333333  0.66666667  0.19657238
   0.00000000  0.00000000  0.26198618
  -0.00000000  0.33333333  0.26198618
   0.00000000  0.66666667  0.26198618
   0.33333333 -0.00000000  0.26198618
   0.33333333  0.33333333  0.26198618
   0.33333333  0.66666667  0.26198618
   0.66666667 -0.00000000  0.26198618
   0.66666667  0.33333333  0.26198618
   0.66666667  0.66666667  0.26198618
   0.16666667  0.16666667  0.26198618
   0.16666667  0.50000000  0.26198618
   0.16666667  0.83333333  0.26198618
   0.50000000  0.16666667  0.26198618
   0.50000000  0.50000000  0.26198618
   0.50000000  0.83333333  0.26198618
   0.83333333  0.16666667  0.26198618
   0.83333333  0.50000000  0.26198618
   0.83333333  0.83333333  0.26198618
   0.00000000  0.16666667  0.32734968
   0.00000000  0.50000000  0.32734968
   0.00000000  0.83333333  0.32734968
   0.33333333  0.16666667  0.32734968
   0.33333333  0.50000000  0.32734968
   0.33333333  0.83333333  0.32734968
   0.66666667  0.16666667  0.32734968
   0.66666667  0.50000000  0.32734968
   0.66666667  0.83333333  0.32734968
   0.16666667  0.00000000  0.32734968
   0.16666667  0.33333333  0.32734968
   0.16666667  0.66666667  0.32734968
   0.50000000  0.00000000  0.32734968
   0.50000000  0.33333333  0.32734968
   0.50000000  0.66666667  0.32734968
   0.83333333 -0.00000000  0.32734968
   0.83333333  0.33333333  0.32734968
   0.83333333  0.66666667  0.32734968
   0.00000000  0.00000000  0.39341293
  -0.00000000  0.33333333  0.39341293
   0.00000000  0.66666667  0.39341293
   0.33333333  0.00000000  0.39341293
   0.33333333  0.33333333  0.39341293
   0.33333333  0.66666667  0.39341293
   0.66666667  0.00000000  0.39341293
   0.66666667  0.33333333  0.39341293
   0.66666667  0.66666667  0.39341293
   0.16666667  0.16666667  0.39341293
   0.16666667  0.50000000  0.39341293
   0.16666667  0.83333333  0.39341293
   0.50000000  0.16666667  0.39341293
   0.50000000  0.50000000  0.39341293
   0.50000000  0.83333333  0.39341293
   0.83333333  0.16666667  0.39341293
   0.83333333  0.50000000  0.39341293
   0.83333333  0.83333333  0.39341293
   0.00000000  0.16666667  0.45735889
   0.00000000  0.50000000  0.45735889
   0.00000000  0.83333333  0.45735889
   0.33333333  0.16666667  0.45735889
   0.33333333  0.50000000  0.45735889
   0.33333333  0.83333333  0.45735889
   0.66666667  0.16666667  0.45735889
   0.66666667  0.50000000  0.45735889
   0.66666667  0.83333333  0.45735889
   0.16666667  0.00000000  0.45735889
   0.16666667  0.33333333  0.45735889
   0.16666667  0.66666667  0.45735889
   0.50000000  0.00000000  0.45735889
   0.50000000  0.33333333  0.45735889
   0.50000000  0.66666667  0.45735889
   0.83333333 -0.00000000  0.45735889
   0.83333333  0.33333333  0.45735889
   0.83333333  0.66666667  0.45735889
Direct configuration=     4
   0.00000000  0.00000000  0.00000000
   0.00000000  0.33333333  0.00000000
   0.00000000  0.66666667  0.00000000
   0.33333333  0.00000000  0.00000000
   0.33333333  0.33333333  0.00000000
   0.33333333  0.66666667  0.00000000
   0.66666667  0.00000000  0.00000000
   0.66666667  0.33333333  0.00000000
   0.66666667  0.66666667  0.00000000
   0.16666667  0.16666667  0.00000000
   0.16666667  0.50000000  0.00000000
   0.16666667  0.83333333  0.00000000
   0.50000000  0.16666667  0.00000000
   0.50000000  0.50000000  0.00000000
   0.50000000  0.83333333  0.00000000
   0.83333333  0.16666667  0.00000000
   0.83333333  0.50000000  0.00000000
   0.83333333  0.83333333  0.00000000
   0.00000000  0.16666667  0.06551164
   0.00000000  0.50000000  0.06551164
   0.00000000  0.83333333  0.06551164
   0.33333333  0.16666667  0.06551164
   0.33333333  0.50000000  0.06551164
   0.33333333  0.83333333  0.06551164
   0.66666667  0.16666667  0.06551164
   0.66666667  0.50000000  0.06551164
   0.66666667  0.83333333  0.06551164
   0.16666667  0.00000000  0.06551164
   0.16666667  0.33333333  0.06551164
   0.16666667  0.66666667  0.06551164
   0.50000000  0.00000000  0.06551164
   0.50000000  0.33333333  0.06551164
   0.50000000  0.66666667  0.06551164
   0.83333333  0.00000000  0.06551164
   0.83333333  0.33333333  0.06551164
   0.83333333  0.66666667  0.06551164
   0.00000000  0.00000000  0.13160115
   0.00000000  0.33333333  0.13160115
   0.00000000  0.66666667  0.13160115
   0.33333333  0.00000000  0.13160115
   0.33333333  0.33333333  0.13160115
   0.33333333  0.66666667  0.13160115
   0.66666667 -0.00000000  0.13160115
   0.66666667  0.33333333  0.13160115
   0.66666667  0.66666667  0.13160115
   0.16666667  0.16666667  0.13160115
   0.16666667  0.50000000  0.13160115
   0.16666667  0.83333333  0.13160115
   0.50000000  0.16666667  0.13160115
   0.50000000  0.50000000  0.13160115
   0.50000000  0.83333333  0.13160115
   0.83333333  0.16666667  0.13160115
   0.83333333  0.50000000  0.13160115
   0.83333333  0.83333333  0.13160115
   0.00000000  0.16666667  0.19661400
   0.00000000  0.50000000  0.19661400
   0.00000000  0.83333333  0.19661400
   0.33333333  0.16666667  0.19661400
   0.33333333  0.50000000  0.19661400
   0.33333333  0.83333333  0.19661400
   0.66666667  0.16666667  0.19661400
   0.66666667  0.50000000  0.19661400
   0.66666667  0.83333333  0.19661400
   0.16666667  0.00000000  0.19661400
   0.16666667  0.33333333  0.19661400
   0.16666667  0.66666667  0.19661400
   0.50000000 -0.00000000  0.19661400
   0.50000000  0.33333333  0.19661400
   0.50000000  0.66666667  0.19661400
   0.83333333 -0.00000000  0.19661400
   0.83333333  0.33333333  0.19661400
   0.83333333  0.66666667  0.19661400
   0.00000000  0.00000000  0.26191910
  -0.00000000  0.33333333  0.26191910
   0.00000000  0.66666667  0.26191910
   0.33333333 -0.00000000  0.26191910
   0.33333333  0.33333333  0.26191910
   0.33333333  0.66666667  0.26191910
   0.66666667 -0.00000000  0.26191910
   0.66666667  0.33333333  0.26191910
   0.66666667  0.66666667  0.26191910
   0.16666667  0.16666667  0.26191910
   0.16666667  0.50000000  0.26191910
   0.16666667  0.83333333  0.26191910
   0.50000000  0.16666667  0.26191910
   0.50000000  0.50000000  0.26191910
   0.50000000  0.83333333  0.26191910
   0.83333333  0.16666667  0.26191910
   0.83333333  0.50000000  0.26191910
   0.83333333  0.83333333  0.26191910
   0.00000000  0.16666667  0.32711798
   0.00000000  0.50000000  0.32711798
   0.00000000  0.83333333  0.32711798
   0.33333333  0.16666667  0.32711798
   0.33333333  0.50000000  0.32711798
   0.33333333  0.83333333  0.32711798
   0.66666667  0.16666667  0.32711798
   0.66666667  0.50000000  0.32711798
   0.66666667  0.83333333  0.32711798
   0.16666667  0.00000000  0.32711798
   0.16666667  0.33333333  0.32711798
   0.16666667  0.66666667  0.32711798
   0.50000000  0.00000000  0.32711798
   0.50000000  0.33333333  0.32711798
   0.50000000  0.66666667  0.32711798
   0.83333333 -0.00000000  0.32711798
   0.83333333  0.33333333  0.32711798
   0.83333333  0.66666667  0.32711798
   0.00000000  0.00000000  0.39379412
  -0.00000000  0.33333333  0.39379412
   0.00000000  0.66666667  0.39379412
   0.33333333  0.00000000  0.39379412
   0.33333333  0.33333333  0.39379412
   0.33333333  0.66666667  0.39379412
   0.66666667  0.00000000  0.39379412
   0.66666667  0.33333333  0.39379412
   0.66666667  0.66666667  0.39379412
   0.16666667  0.16666667  0.39379412
   0.16666667  0.50000000  0.39379412
   0.16666667  0.83333333  0.39379412
   0.50000000  0.16666667  0.39379412
   0.50000000  0.50000000  0.39379412
   0.50000000  0.83333333  0.39379412
   0.83333333  0.16666667  0.39379412
   0.83333333  0.50000000  0.39379412
   0.83333333  0.83333333  0.39379412
   0.00000000  0.16666667  0.45600050
   0.00000000  0.50000000  0.45600050
   0.00000000  0.83333333  0.45600050
   0.33333333  0.16666667  0.45600050
   0.33333333  0.50000000  0.45600050
   0.33333333  0.83333333  0.45600050
   0.66666667  0.16666667  0.45600050
   0.66666667  0.50000000  0.45600050
   0.66666667  0.83333333  0.45600050
   0.16666667  0.00000000  0.45600050
   0.16666667  0.33333333  0.45600050
   0.16666667  0.66666667  0.45600050
   0.50000000  0.00000000  0.45600050
   0.50000000  0.33333333  0.45600050
   0.50000000  0.66666667  0.45600050
   0.83333333 -0.00000000  0.45600050
   0.83333333  0.33333333  0.45600050
   0.83333333  0.66666667  0.45600050
Direct configuration=     5
   0.00000000  0.00000000  0.00000000
   0.00000000  0.33333333  0.00000000
   0.00000000  0.66666667  0.00000000
   0.33333333  0.00000000  0.00000000
   0.33333333  0.33333333  0.00000000
   0.33333333  0.66666667  0.00000000
   0.66666667  0.00000000  0.00000000
   0.66666667  0.33333333  0.00000000
   0.66666667  0.66666667  0.00000000
   0.16666667  0.16666667  0.00000000
   0.16666667  0.50000000  0.00000000
   0.16666667  0.83333333  0.00000000
   0.50000000  0.16666667  0.00000000
   0.50000000  0.50000000  0.00000000
   0.50000000  0.83333333  0.00000000
   0.83333333  0.16666667  0.00000000
   0.83333333  0.50000000  0.00000000
   0.83333333  0.83333333  0.00000000
   0.00000000  0.16666667  0.06551164
   0.00000000  0.50000000  0.06551164
   0.00000000  0.83333333  0.06551164
   0.33333333  0.16666667  0.06551164
   0.33333333  0.50000000  0.06551164
   0.33333333  0.83333333  0.06551164
   0.66666667  0.16666667  0.06551164
   0.66666667  0.50000000  0.06551164
   0.66666667  0.83333333  0.06551164
   0.16666667  0.00000000  0.06551164
   0.16666667  0.33333333  0.06551164
   0.16666667  0.66666667  0.06551164
   0.50000000  0.00000000  0.06551164
   0.50000000  0.33333333  0.06551164
   0.50000000  0.66666667  0.06551164
   0.83333333  0.00000000  0.06551164
   0.83333333  0.33333333  0.06551164
   0.83333333  0.66666667  0.06551164
   0.00000000  0.00000000  0.13143025
   0.00000000  0.33333333  0.13143025
   0.00000000  0.66666667  0.13143025
   0.33333333  0.00000000  0.13143025
   0.33333333  0.33333333  0.13143025
   0.33333333  0.66666667  0.13143025
   0.66666667 -0.00000000  0.13143025
   0.66666667  0.33333333  0.13143025
   0.66666667  0.66666667  0.13143025
   0.16666667  0.16666667  0.13143025
   0.16666667  0.50000000  0.13143025
   0.16666667  0.83333333  0.13143025
   0.50000000  0.16666667  0.13143025
   0.50000000  0.50000000  0.13143025
   0.50000000  0.83333333  0.13143025
   0.83333333  0.16666667  0.13143025
   0.83333333  0.50000000  0.13143025
   0.83333333  0.83333333  0.13143025
   0.00000000  0.16666667  0.19659061
   0.00000000  0.50000000  0.19659061
   0.00000000  0.83333333  0.19659061
   0.33333333  0.16666667  0.19659061
   0.33333333  0.50000000  0.19659061
   0.33333333  0.83333333  0.19659061
   0.66666667  0.16666667  0.19659061
   0.66666667  0.50000000  0.19659061
   0.66666667  0.83333333  0.19659061
   0.16666667  0.00000000  0.19659061
   0.16666667  0.33333333  0.19659061
   0.16666667  0.66666667  0.19659061
   0.50000000 -0.00000000  0.19659061
   0.50000000  0.33333333  0.19659061
   0.50000000  0.66666667  0.19659061
   0.83333333 -0.00000000  0.19659061
   0.83333333  0.33333333  0.19659061
   0.83333333  0.66666667  0.19659061
   0.00000000  0.00000000  0.26195680
  -0.00000000  0.33333333  0.26195680
   0.00000000  0.66666667  0.26195680
   0.33333333 -0.00000000  0.26195680
   0.33333333  0.33333333  0.26195680
   0.33333333  0.66666667  0.26195680
   0.66666667 -0.00000000  0.26195680
   0.66666667  0.33333333  0.26195680
   0.66666667  0.66666667  0.26195680
   0.16666667  0.16666667  0.26195680
   0.16666667  0.50000000  0.26195680
   0.16666667  0.83333333  0.26195680
   0.50000000  0.16666667  0.26195680
   0.50000000  0.50000000  0.26195680
   0.50000000  0.83333333  0.26195680
   0.83333333  0.16666667  0.26195680
   0.83333333  0.50000000  0.26195680
   0.83333333  0.83333333  0.26195680
   0.00000000  0.16666667  0.32724818
   0.00000000  0.50000000  0.32724818
   0.00000000  0.83333333  0.32724818
   0.33333333  0.16666667  0.32724818
   0.33333333  0.50000000  0.32724818
   0.33333333  0.83333333  0.32724818
   0.66666667  0.16666667  0.32724818
   0.66666667  0.50000000  0.32724818
   0.66666667  0.83333333  0.32724818
   0.16666667  0.00000000  0.32724818
   0.16666667  0.33333333  0.32724818
   0.16666667  0.66666667  0.32724818
   0.50000000  0.00000000  0.32724818
   0.50000000  0.33333333  0.32724818
   0.50000000  0.66666667  0.32724818
   0.83333333 -0.00000000  0.32724818
   0.83333333  0.33333333  0.32724818
   0.83333333  0.66666667  0.32724818
   0.00000000  0.00000000  0.39357991
  -0.00000000  0.33333333  0.39357991
   0.00000000  0.66666667  0.39357991
   0.33333333  0.00000000  0.39357991
   0.33333333  0.33333333  0.39357991
   0.33333333  0.66666667  0.39357991
   0.66666667  0.00000000  0.39357991
   0.66666667  0.33333333  0.39357991
   0.66666667  0.66666667  0.39357991
   0.16666667  0.16666667  0.39357991
   0.16666667  0.50000000  0.39357991
   0.16666667  0.83333333  0.39357991
   0.50000000  0.16666667  0.39357991
   0.50000000  0.50000000  0.39357991
   0.50000000  0.83333333  0.39357991
   0.83333333  0.16666667  0.39357991
   0.83333333  0.50000000  0.39357991
   0.83333333  0.83333333  0.39357991
   0.00000000  0.16666667  0.45676383
   0.00000000  0.50000000  0.45676383
   0.00000000  0.83333333  0.45676383
   0.33333333  0.16666667  0.45676383
   0.33333333  0.50000000  0.45676383
   0.33333333  0.83333333  0.45676383
   0.66666667  0.16666667  0.45676383
   0.66666667  0.50000000  0.45676383
   0.66666667  0.83333333  0.45676383
   0.16666667  0.00000000  0.45676383
   0.16666667  0.33333333  0.45676383
   0.16666667  0.66666667  0.45676383
   0.50000000  0.00000000  0.45676383
   0.50000000  0.33333333  0.45676383
   0.50000000  0.66666667  0.45676383
   0.83333333 -0.00000000  0.45676383
   0.83333333  0.33333333  0.45676383
   0.83333333  0.66666667  0.45676383
Direct configuration=     6
   0.00000000  0.00000000  0.00000000
   0.00000000  0.33333333  0.00000000
   0.00000000  0.66666667  0.00000000
   0.33333333  0.00000000  0.00000000
   0.33333333  0.33333333  0.00000000
   0.33333333  0.66666667  0.00000000
   0.66666667  0.00000000  0.00000000
   0.66666667  0.33333333  0.00000000
   0.66666667  0.66666667  0.00000000
   0.16666667  0.16666667  0.00000000
   0.16666667  0.50000000  0.00000000
   0.16666667  0.83333333  0.00000000
   0.50000000  0.16666667  0.00000000
   0.50000000  0.50000000  0.00000000
   0.50000000  0.83333333  0.00000000
   0.83333333  0.16666667  0.00000000
   0.83333333  0.50000000  0.00000000
   0.83333333  0.83333333  0.00000000
   0.00000000  0.16666667  0.06551164
   0.00000000  0.50000000  0.06551164
   0.00000000  0.83333333  0.06551164
   0.33333333  0.16666667  0.06551164
   0.33333333  0.50000000  0.06551164
   0.33333333  0.83333333  0.06551164
   0.66666667  0.16666667  0.06551164
   0.66666667  0.50000000  0.06551164
   0.66666667  0.83333333  0.06551164
   0.16666667  0.00000000  0.06551164
   0.16666667  0.33333333  0.06551164
   0.16666667  0.66666667  0.06551164
   0.50000000  0.00000000  0.06551164
   0.50000000  0.33333333  0.06551164
   0.50000000  0.66666667  0.06551164
   0.83333333  0.00000000  0.06551164
   0.83333333  0.33333333  0.06551164
   0.83333333  0.66666667  0.06551164
   0.00000000  0.00000000  0.13150668
   0.00000000  0.33333333  0.13150668
   0.00000000  0.66666667  0.13150668
   0.33333333  0.00000000  0.13150668
   0.33333333  0.33333333  0.13150668
   0.33333333  0.66666667  0.13150668
   0.66666667 -0.00000000  0.13150668
   0.66666667  0.33333333  0.13150668
   0.66666667  0.66666667  0.13150668
   0.16666667  0.16666667  0.13150668
   0.16666667  0.50000000  0.13150668
   0.16666667  0.83333333  0.13150668
   0.50000000  0.16666667  0.13150668
   0.50000000  0.50000000  0.13150668
   0.50000000  0.83333333  0.13150668
   0.83333333  0.16666667  0.13150668
   0.83333333  0.50000000  0.13150668
   0.83333333  0.83333333  0.13150668
   0.00000000  0.16666667  0.19666914
   0.00000000  0.50000000  0.19666914
   0.00000000  0.83333333  0.19666914
   0.33333333  0.16666667  0.19666914
   0.33333333  0.50000000  0.19666914
   0.33333333  0.83333333  0.19666914