  66  66   0   0
  0.2212521E+02  0.7260000E-09  0.7260000E-09  0.2770500E-08  0.5000000E-15
  1.000000000000000E-004
  CAR 
 unknown system                          
     13.39762983     -9.47924253  301      1.92675926      1.00000000
     -9.479  0.0000E+00  0.0000E+00  0.0000E+00  0.0000E+00
     -9.403  0.0000E+00  0.0000E+00  0.0000E+00  0.0000E+00
     -9.327  0.0000E+00  0.0000E+00  0.0000E+00  0.0000E+00
     -9.250  0.0000E+00  0.0000E+00  0.0000E+00  0.0000E+00
     -9.174  0.0000E+00  0.0000E+00  0.0000E+00  0.0000E+00
     -9.098 -0.1479E-30 -0.1479E-30 -0.1128E-31 -0.1128E-31
     -9.022 -0.5823E-28 -0.5823E-28 -0.4452E-29 -0.4452E-29
     -8.945 -0.1713E-25 -0.1713E-25 -0.1311E-26 -0.1311E-26
     -8.869 -0.3756E-23 -0.3756E-23 -0.2878E-24 -0.2878E-24
     -8.793 -0.6138E-21 -0.6138E-21 -0.4710E-22 -0.4710E-22
     -8.717 -0.7471E-19 -0.7471E-19 -0.5744E-20 -0.5744E-20
     -8.640 -0.6565E-17 -0.6565E-17 -0.5064E-18 -0.5064E-18
     -8.564 -0.4407E-15 -0.4407E-15 -0.3411E-16 -0.3411E-16
     -8.488 -0.2194E-13 -0.2194E-13 -0.1707E-14 -0.1707E-14
     -8.412 -0.8095E-12 -0.8095E-12 -0.6343E-13 -0.6343E-13
     -8.335 -0.2208E-10 -0.2208E-10 -0.1747E-11 -0.1747E-11
     -8.259 -0.4440E-09 -0.4440E-09 -0.3561E-10 -0.3561E-10
     -8.183 -0.6552E-08 -0.6552E-08 -0.5352E-09 -0.5352E-09
     -8.107 -0.7048E-07 -0.7048E-07 -0.5910E-08 -0.5910E-08
     -8.030 -0.5469E-06 -0.5469E-06 -0.4762E-07 -0.4762E-07
     -7.954 -0.3006E-05 -0.3006E-05 -0.2768E-06 -0.2768E-06
     -7.878 -0.1127E-04 -0.1127E-04 -0.1136E-05 -0.1136E-05
     -7.802 -0.2628E-04 -0.2628E-04 -0.3140E-05 -0.3140E-05
     -7.725 -0.2482E-04 -0.2482E-04 -0.5033E-05 -0.5033E-05
     -7.649  0.5396E-04  0.5396E-04 -0.9183E-06 -0.9183E-06
     -7.573  0.2400E-03  0.2400E-03  0.1738E-04  0.1738E-04
     -7.497  0.4191E-03  0.4191E-03  0.4933E-04  0.4933E-04
     -7.420  0.4406E-03  0.4406E-03  0.8293E-04  0.8293E-04
     -7.344  0.4562E-03  0.4562E-03  0.1177E-03  0.1177E-03
     -7.268  0.8662E-03  0.8662E-03  0.1838E-03  0.1838E-03
     -7.192  0.1643E-02  0.1643E-02  0.3091E-03  0.3091E-03
     -7.115  0.2150E-02  0.2150E-02  0.4731E-03  0.4731E-03
     -7.039  0.2170E-02  0.2170E-02  0.6385E-03  0.6385E-03
     -6.963  0.2562E-02  0.2562E-02  0.8339E-03  0.8339E-03
     -6.887  0.4049E-02  0.4049E-02  0.1143E-02  0.1143E-02
     -6.810  0.5817E-02  0.5817E-02  0.1586E-02  0.1586E-02
     -6.734  0.6313E-02  0.6313E-02  0.2068E-02  0.2068E-02
     -6.658  0.5226E-02  0.5226E-02  0.2466E-02  0.2466E-02
     -6.582  0.3679E-02  0.3679E-02  0.2747E-02  0.2747E-02
     -6.505  0.2575E-02  0.2575E-02  0.2943E-02  0.2943E-02
     -6.429  0.1963E-02  0.1963E-02  0.3093E-02  0.3093E-02
     -6.353  0.2011E-02  0.2011E-02  0.3246E-02  0.3246E-02
     -6.276  0.2949E-02  0.2949E-02  0.3471E-02  0.3471E-02
     -6.200  0.3967E-02  0.3967E-02  0.3774E-02  0.3774E-02
     -6.124  0.3901E-02  0.3901E-02  0.4071E-02  0.4071E-02
     -6.048  0.3151E-02  0.3151E-02  0.4311E-02  0.4311E-02
     -5.971  0.3257E-02  0.3257E-02  0.4560E-02  0.4560E-02
     -5.895  0.4552E-02  0.4552E-02  0.4907E-02  0.4907E-02
     -5.819  0.5741E-02  0.5741E-02  0.5345E-02  0.5345E-02
     -5.743  0.5808E-02  0.5808E-02  0.5787E-02  0.5787E-02
     -5.666  0.4996E-02  0.4996E-02  0.6168E-02  0.6168E-02
     -5.590  0.4186E-02  0.4186E-02  0.6488E-02  0.6488E-02
     -5.514  0.4292E-02  0.4292E-02  0.6815E-02  0.6815E-02
     -5.438  0.5427E-02  0.5427E-02  0.7229E-02  0.7229E-02
     -5.361  0.6189E-02  0.6189E-02  0.7701E-02  0.7701E-02
     -5.285  0.5106E-02  0.5106E-02  0.8090E-02  0.8090E-02
     -5.209  0.2810E-02  0.2810E-02  0.8304E-02  0.8304E-02
     -5.133  0.1375E-02  0.1375E-02  0.8409E-02  0.8409E-02
     -5.056  0.1735E-02  0.1735E-02  0.8542E-02  0.8542E-02
     -4.980  0.2978E-02  0.2978E-02  0.8769E-02  0.8769E-02
     -4.904  0.4043E-02  0.4043E-02  0.9077E-02  0.9077E-02
     -4.828  0.5152E-02  0.5152E-02  0.9470E-02  0.9470E-02
     -4.751  0.7218E-02  0.7218E-02  0.1002E-01  0.1002E-01
     -4.675  0.1011E-01  0.1011E-01  0.1079E-01  0.1079E-01
     -4.599  0.1221E-01  0.1221E-01  0.1172E-01  0.1172E-01
     -4.523  0.1208E-01  0.1208E-01  0.1264E-01  0.1264E-01
     -4.446  0.9860E-02  0.9860E-02  0.1340E-01  0.1340E-01
     -4.370  0.6835E-02  0.6835E-02  0.1392E-01  0.1392E-01
     -4.294  0.4410E-02  0.4410E-02  0.1425E-01  0.1425E-01
     -4.218  0.3633E-02  0.3633E-02  0.1453E-01  0.1453E-01
     -4.141  0.4698E-02  0.4698E-02  0.1489E-01  0.1489E-01
     -4.065  0.6525E-02  0.6525E-02  0.1539E-01  0.1539E-01
     -3.989  0.7859E-02  0.7859E-02  0.1599E-01  0.1599E-01
     -3.913  0.8872E-02  0.8872E-02  0.1666E-01  0.1666E-01
     -3.836  0.1030E-01  0.1030E-01  0.1745E-01  0.1745E-01
     -3.760  0.1194E-01  0.1194E-01  0.1836E-01  0.1836E-01
     -3.684  0.1360E-01  0.1360E-01  0.1939E-01  0.1939E-01
     -3.608  0.1551E-01  0.1551E-01  0.2058E-01  0.2058E-01
     -3.531  0.1704E-01  0.1704E-01  0.2188E-01  0.2188E-01
     -3.455  0.1716E-01  0.1716E-01  0.2319E-01  0.2319E-01
     -3.379  0.1589E-01  0.1589E-01  0.2440E-01  0.2440E-01
     -3.302  0.1426E-01  0.1426E-01  0.2548E-01  0.2548E-01
     -3.226  0.1416E-01  0.1416E-01  0.2656E-01  0.2656E-01
     -3.150  0.1846E-01  0.1846E-01  0.2797E-01  0.2797E-01
     -3.074  0.2859E-01  0.2859E-01  0.3015E-01  0.3015E-01
     -2.997  0.4091E-01  0.4091E-01  0.3327E-01  0.3327E-01
     -2.921  0.4782E-01  0.4782E-01  0.3692E-01  0.3692E-01
     -2.845  0.4582E-01  0.4582E-01  0.4041E-01  0.4041E-01
     -2.769  0.4064E-01  0.4064E-01  0.4351E-01  0.4351E-01
     -2.692  0.4075E-01  0.4075E-01  0.4662E-01  0.4662E-01
     -2.616  0.4738E-01  0.4738E-01  0.5023E-01  0.5023E-01
     -2.540  0.5570E-01  0.5570E-01  0.5448E-01  0.5448E-01
     -2.464  0.6435E-01  0.6435E-01  0.5939E-01  0.5939E-01
     -2.387  0.7705E-01  0.7705E-01  0.6526E-01  0.6526E-01
     -2.311  0.9284E-01  0.9284E-01  0.7234E-01  0.7234E-01
     -2.235  0.1014E+00  0.1014E+00  0.8008E-01  0.8008E-01
     -2.159  0.9442E-01  0.9442E-01  0.8728E-01  0.8728E-01
     -2.082  0.7773E-01  0.7773E-01  0.9321E-01  0.9321E-01
     -2.006  0.6621E-01  0.6621E-01  0.9825E-01  0.9825E-01
     -1.930  0.6766E-01  0.6766E-01  0.1034E+00  0.1034E+00
     -1.854  0.7774E-01  0.7774E-01  0.1093E+00  0.1093E+00
     -1.777  0.8773E-01  0.8773E-01  0.1160E+00  0.1160E+00
     -1.701  0.9246E-01  0.9246E-01  0.1231E+00  0.1231E+00
     -1.625  0.9272E-01  0.9272E-01  0.1302E+00  0.1302E+00
     -1.549  0.9362E-01  0.9362E-01  0.1373E+00  0.1373E+00
     -1.472  0.9998E-01  0.9998E-01  0.1449E+00  0.1449E+00
     -1.396  0.1120E+00  0.1120E+00  0.1535E+00  0.1535E+00
     -1.320  0.1248E+00  0.1248E+00  0.1630E+00  0.1630E+00
     -1.244  0.1331E+00  0.1331E+00  0.1731E+00  0.1731E+00
     -1.167  0.1369E+00  0.1369E+00  0.1836E+00  0.1836E+00
     -1.091  0.1394E+00  0.1394E+00  0.1942E+00  0.1942E+00
     -1.015  0.1398E+00  0.1398E+00  0.2049E+00  0.2049E+00
     -0.939  0.1349E+00  0.1349E+00  0.2151E+00  0.2151E+00
     -0.862  0.1265E+00  0.1265E+00  0.2248E+00  0.2248E+00
     -0.786  0.1194E+00  0.1194E+00  0.2339E+00  0.2339E+00
     -0.710  0.1165E+00  0.1165E+00  0.2428E+00  0.2428E+00
     -0.634  0.1202E+00  0.1202E+00  0.2520E+00  0.2520E+00
     -0.557  0.1308E+00  0.1308E+00  0.2619E+00  0.2619E+00
     -0.481  0.1419E+00  0.1419E+00  0.2728E+00  0.2728E+00
     -0.405  0.1460E+00  0.1460E+00  0.2839E+00  0.2839E+00
     -0.328  0.1440E+00  0.1440E+00  0.2949E+00  0.2949E+00
     -0.252  0.1419E+00  0.1419E+00  0.3057E+00  0.3057E+00
     -0.176  0.1422E+00  0.1422E+00  0.3165E+00  0.3165E+00
     -0.100  0.1439E+00  0.1439E+00  0.3275E+00  0.3275E+00
     -0.023  0.1494E+00  0.1494E+00  0.3389E+00  0.3389E+00
      0.053  0.1641E+00  0.1641E+00  0.3514E+00  0.3514E+00
      0.129  0.1863E+00  0.1863E+00  0.3656E+00  0.3656E+00
      0.205  0.2011E+00  0.2011E+00  0.3810E+00  0.3810E+00
      0.282  0.1920E+00  0.1920E+00  0.3956E+00  0.3956E+00
      0.358  0.1553E+00  0.1553E+00  0.4074E+00  0.4074E+00
      0.434  0.1041E+00  0.1041E+00  0.4154E+00  0.4154E+00
      0.510  0.5866E-01  0.5866E-01  0.4199E+00  0.4199E+00
      0.587  0.3115E-01  0.3115E-01  0.4222E+00  0.4222E+00
      0.663  0.1976E-01  0.1976E-01  0.4237E+00  0.4237E+00
      0.739  0.1665E-01  0.1665E-01  0.4250E+00  0.4250E+00
      0.815  0.1666E-01  0.1666E-01  0.4263E+00  0.4263E+00
      0.892  0.1755E-01  0.1755E-01  0.4276E+00  0.4276E+00
      0.968  0.1835E-01  0.1835E-01  0.4290E+00  0.4290E+00
      1.044  0.1909E-01  0.1909E-01  0.4305E+00  0.4305E+00
      1.120  0.1929E-01  0.1929E-01  0.4319E+00  0.4319E+00
      1.197  0.1739E-01  0.1739E-01  0.4333E+00  0.4333E+00
      1.273  0.1312E-01  0.1312E-01  0.4343E+00  0.4343E+00
      1.349  0.8377E-02  0.8377E-02  0.4349E+00  0.4349E+00
      1.425  0.5100E-02  0.5100E-02  0.4353E+00  0.4353E+00
      1.502  0.3639E-02  0.3639E-02  0.4356E+00  0.4356E+00
      1.578  0.3591E-02  0.3591E-02  0.4358E+00  0.4358E+00
      1.654  0.5298E-02  0.5298E-02  0.4363E+00  0.4363E+00
      1.730  0.9691E-02  0.9691E-02  0.4370E+00  0.4370E+00
      1.807  0.1662E-01  0.1662E-01  0.4383E+00  0.4383E+00
      1.883  0.2369E-01  0.2369E-01  0.4401E+00  0.4401E+00
      1.959  0.2711E-01  0.2711E-01  0.4421E+00  0.4421E+00
      2.035  0.2436E-01  0.2436E-01  0.4440E+00  0.4440E+00
      2.112  0.1673E-01  0.1673E-01  0.4453E+00  0.4453E+00
      2.188  0.8642E-02  0.8642E-02  0.4459E+00  0.4459E+00
      2.264  0.4205E-02  0.4205E-02  0.4462E+00  0.4462E+00
      2.340  0.4238E-02  0.4238E-02  0.4466E+00  0.4466E+00
      2.417  0.6449E-02  0.6449E-02  0.4471E+00  0.4471E+00
      2.493  0.8402E-02  0.8402E-02  0.4477E+00  0.4477E+00
      2.569  0.9786E-02  0.9786E-02  0.4484E+00  0.4484E+00
      2.645  0.1145E-01  0.1145E-01  0.4493E+00  0.4493E+00
      2.722  0.1357E-01  0.1357E-01  0.4504E+00  0.4504E+00
      2.798  0.1514E-01  0.1514E-01  0.4515E+00  0.4515E+00
      2.874  0.1444E-01  0.1444E-01  0.4526E+00  0.4526E+00
      2.951  0.1119E-01  0.1119E-01  0.4535E+00  0.4535E+00
      3.027  0.8440E-02  0.8440E-02  0.4541E+00  0.4541E+00
      3.103  0.9730E-02  0.9730E-02  0.4549E+00  0.4549E+00
      3.179  0.1452E-01  0.1452E-01  0.4560E+00  0.4560E+00
      3.256  0.1849E-01  0.1849E-01  0.4574E+00  0.4574E+00
      3.332  0.1832E-01  0.1832E-01  0.4588E+00  0.4588E+00
      3.408  0.1457E-01  0.1457E-01  0.4599E+00  0.4599E+00
      3.484  0.9953E-02  0.9953E-02  0.4606E+00  0.4606E+00
      3.561  0.6419E-02  0.6419E-02  0.4611E+00  0.4611E+00
      3.637  0.5021E-02  0.5021E-02  0.4615E+00  0.4615E+00
      3.713  0.6629E-02  0.6629E-02  0.4620E+00  0.4620E+00
      3.789  0.1029E-01  0.1029E-01  0.4628E+00  0.4628E+00
      3.866  0.1281E-01  0.1281E-01  0.4638E+00  0.4638E+00
      3.942  0.1207E-01  0.1207E-01  0.4647E+00  0.4647E+00
      4.018  0.9294E-02  0.9294E-02  0.4654E+00  0.4654E+00
      4.094  0.7249E-02  0.7249E-02  0.4660E+00  0.4660E+00
      4.171  0.7476E-02  0.7476E-02  0.4665E+00  0.4665E+00
      4.247  0.8887E-02  0.8887E-02  0.4672E+00  0.4672E+00
      4.323  0.9301E-02  0.9301E-02  0.4679E+00  0.4679E+00
      4.399  0.8429E-02  0.8429E-02  0.4686E+00  0.4686E+00
      4.476  0.7712E-02  0.7712E-02  0.4691E+00  0.4691E+00
      4.552  0.7971E-02  0.7971E-02  0.4698E+00  0.4698E+00
      4.628  0.9303E-02  0.9303E-02  0.4705E+00  0.4705E+00
      4.704  0.1162E-01  0.1162E-01  0.4713E+00  0.4713E+00
      4.781  0.1372E-01  0.1372E-01  0.4724E+00  0.4724E+00
      4.857  0.1370E-01  0.1370E-01  0.4734E+00  0.4734E+00
      4.933  0.1138E-01  0.1138E-01  0.4743E+00  0.4743E+00
      5.009  0.9158E-02  0.9158E-02  0.4750E+00  0.4750E+00
      5.086  0.9223E-02  0.9223E-02  0.4757E+00  0.4757E+00
      5.162  0.1083E-01  0.1083E-01  0.4765E+00  0.4765E+00
      5.238  0.1153E-01  0.1153E-01  0.4774E+00  0.4774E+00
      5.314  0.1056E-01  0.1056E-01  0.4782E+00  0.4782E+00
      5.391  0.9900E-02  0.9900E-02  0.4790E+00  0.4790E+00
      5.467  0.1166E-01  0.1166E-01  0.4799E+00  0.4799E+00
      5.543  0.1455E-01  0.1455E-01  0.4810E+00  0.4810E+00
      5.619  0.1453E-01  0.1453E-01  0.4821E+00  0.4821E+00
      5.696  0.1022E-01  0.1022E-01  0.4829E+00  0.4829E+00
      5.772  0.5480E-02  0.5480E-02  0.4833E+00  0.4833E+00
      5.848  0.5084E-02  0.5084E-02  0.4837E+00  0.4837E+00
      5.925  0.9289E-02  0.9289E-02  0.4844E+00  0.4844E+00
      6.001  0.1388E-01  0.1388E-01  0.4854E+00  0.4854E+00
      6.077  0.1500E-01  0.1500E-01  0.4866E+00  0.4866E+00
      6.153  0.1279E-01  0.1279E-01  0.4875E+00  0.4875E+00
      6.230  0.1025E-01  0.1025E-01  0.4883E+00  0.4883E+00
      6.306  0.1026E-01  0.1026E-01  0.4891E+00  0.4891E+00
      6.382  0.1354E-01  0.1354E-01  0.4901E+00  0.4901E+00
      6.458  0.1808E-01  0.1808E-01  0.4915E+00  0.4915E+00
      6.535  0.2065E-01  0.2065E-01  0.4931E+00  0.4931E+00
      6.611  0.1971E-01  0.1971E-01  0.4946E+00  0.4946E+00
      6.687  0.1675E-01  0.1675E-01  0.4959E+00  0.4959E+00
      6.763  0.1455E-01  0.1455E-01  0.4970E+00  0.4970E+00
      6.840  0.1447E-01  0.1447E-01  0.4981E+00  0.4981E+00
      6.916  0.1514E-01  0.1514E-01  0.4992E+00  0.4992E+00
      6.992  0.1437E-01  0.1437E-01  0.5003E+00  0.5003E+00
      7.068  0.1206E-01  0.1206E-01  0.5013E+00  0.5013E+00
      7.145  0.1011E-01  0.1011E-01  0.5020E+00  0.5020E+00
      7.221  0.9845E-02  0.9845E-02  0.5028E+00  0.5028E+00
      7.297  0.1091E-01  0.1091E-01  0.5036E+00  0.5036E+00
      7.373  0.1219E-01  0.1219E-01  0.5045E+00  0.5045E+00
      7.450  0.1308E-01  0.1308E-01  0.5055E+00  0.5055E+00
      7.526  0.1392E-01  0.1392E-01  0.5066E+00  0.5066E+00
      7.602  0.1529E-01  0.1529E-01  0.5078E+00  0.5078E+00
      7.678  0.1714E-01  0.1714E-01  0.5091E+00  0.5091E+00
      7.755  0.1895E-01  0.1895E-01  0.5105E+00  0.5105E+00
      7.831  0.2053E-01  0.2053E-01  0.5121E+00  0.5121E+00
      7.907  0.2173E-01  0.2173E-01  0.5137E+00  0.5137E+00
      7.983  0.2130E-01  0.2130E-01  0.5154E+00  0.5154E+00
      8.060  0.1780E-01  0.1780E-01  0.5167E+00  0.5167E+00
      8.136  0.1219E-01  0.1219E-01  0.5177E+00  0.5177E+00
      8.212  0.8290E-02  0.8290E-02  0.5183E+00  0.5183E+00
      8.288  0.9700E-02  0.9700E-02  0.5190E+00  0.5190E+00
      8.365  0.1571E-01  0.1571E-01  0.5202E+00  0.5202E+00
      8.441  0.2083E-01  0.2083E-01  0.5218E+00  0.5218E+00
      8.517  0.2037E-01  0.2037E-01  0.5234E+00  0.5234E+00
      8.593  0.1578E-01  0.1578E-01  0.5246E+00  0.5246E+00
      8.670  0.1209E-01  0.1209E-01  0.5255E+00  0.5255E+00
      8.746  0.1149E-01  0.1149E-01  0.5264E+00  0.5264E+00
      8.822  0.1278E-01  0.1278E-01  0.5273E+00  0.5273E+00
      8.899  0.1506E-01  0.1506E-01  0.5285E+00  0.5285E+00
      8.975  0.1831E-01  0.1831E-01  0.5299E+00  0.5299E+00
      9.051  0.2153E-01  0.2153E-01  0.5315E+00  0.5315E+00
      9.127  0.2294E-01  0.2294E-01  0.5333E+00  0.5333E+00
      9.204  0.2208E-01  0.2208E-01  0.5350E+00  0.5350E+00
      9.280  0.2030E-01  0.2030E-01  0.5365E+00  0.5365E+00
      9.356  0.1893E-01  0.1893E-01  0.5380E+00  0.5380E+00
      9.432  0.1821E-01  0.1821E-01  0.5393E+00  0.5393E+00
      9.509  0.1789E-01  0.1789E-01  0.5407E+00  0.5407E+00
      9.585  0.1765E-01  0.1765E-01  0.5421E+00  0.5421E+00
      9.661  0.1688E-01  0.1688E-01  0.5433E+00  0.5433E+00
      9.737  0.1549E-01  0.1549E-01  0.5445E+00  0.5445E+00
      9.814  0.1454E-01  0.1454E-01  0.5456E+00  0.5456E+00
      9.890  0.1480E-01  0.1480E-01  0.5468E+00  0.5468E+00
      9.966  0.1547E-01  0.1547E-01  0.5479E+00  0.5479E+00
     10.042  0.1531E-01  0.1531E-01  0.5491E+00  0.5491E+00
     10.119  0.1439E-01  0.1439E-01  0.5502E+00  0.5502E+00
     10.195  0.1447E-01  0.1447E-01  0.5513E+00  0.5513E+00
     10.271  0.1738E-01  0.1738E-01  0.5526E+00  0.5526E+00
     10.347  0.2294E-01  0.2294E-01  0.5544E+00  0.5544E+00
     10.424  0.2817E-01  0.2817E-01  0.5565E+00  0.5565E+00
     10.500  0.2916E-01  0.2916E-01  0.5588E+00  0.5588E+00
     10.576  0.2460E-01  0.2460E-01  0.5606E+00  0.5606E+00
     10.652  0.1727E-01  0.1727E-01  0.5619E+00  0.5619E+00
     10.729  0.1140E-01  0.1140E-01  0.5628E+00  0.5628E+00
     10.805  0.9039E-02  0.9039E-02  0.5635E+00  0.5635E+00
     10.881  0.9842E-02  0.9842E-02  0.5643E+00  0.5643E+00
     10.957  0.1257E-01  0.1257E-01  0.5652E+00  0.5652E+00
     11.034  0.1502E-01  0.1502E-01  0.5664E+00  0.5664E+00
     11.110  0.1458E-01  0.1458E-01  0.5675E+00  0.5675E+00
     11.186  0.1101E-01  0.1101E-01  0.5683E+00  0.5683E+00
     11.262  0.7125E-02  0.7125E-02  0.5689E+00  0.5689E+00
     11.339  0.5260E-02  0.5260E-02  0.5693E+00  0.5693E+00
     11.415  0.4700E-02  0.4700E-02  0.5696E+00  0.5696E+00
     11.491  0.3589E-02  0.3589E-02  0.5699E+00  0.5699E+00
     11.567  0.1737E-02  0.1737E-02  0.5700E+00  0.5700E+00
     11.644  0.2776E-03  0.2776E-03  0.5700E+00  0.5700E+00
     11.720 -0.2433E-03 -0.2433E-03  0.5700E+00  0.5700E+00
     11.796 -0.2084E-03 -0.2084E-03  0.5700E+00  0.5700E+00
     11.873 -0.8399E-04 -0.8399E-04  0.5700E+00  0.5700E+00
     11.949 -0.2158E-04 -0.2158E-04  0.5700E+00  0.5700E+00
     12.025 -0.3819E-05 -0.3820E-05  0.5700E+00  0.5700E+00
     12.101 -0.4807E-06 -0.4807E-06  0.5700E+00  0.5700E+00
     12.178 -0.4374E-07 -0.4374E-07  0.5700E+00  0.5700E+00
     12.254 -0.2906E-08 -0.2906E-08  0.5700E+00  0.5700E+00
     12.330 -0.1418E-09 -0.1419E-09  0.5700E+00  0.5700E+00
     12.406 -0.5107E-11 -0.5108E-11  0.5700E+00  0.5700E+00
     12.483 -0.1361E-12 -0.1361E-12  0.5700E+00  0.5700E+00
     12.559 -0.2689E-14 -0.2689E-14  0.5700E+00  0.5700E+00
     12.635 -0.3882E-16 -0.3882E-16  0.5700E+00  0.5700E+00
     12.711  0.0000E+00  0.0000E+00  0.5700E+00  0.5700E+00
     12.788  0.0000E+00  0.0000E+00  0.5700E+00  0.5700E+00
     12.864  0.0000E+00  0.0000E+00  0.5700E+00  0.5700E+00
     12.940  0.0000E+00  0.0000E+00  0.5700E+00  0.5700E+00
     13.016  0.0000E+00  0.0000E+00  0.5700E+00  0.5700E+00
     13.093  0.0000E+00  0.0000E+00  0.5700E+00  0.5700E+00
     13.169  0.0000E+00  0.0000E+00  0.5700E+00  0.5700E+00
     13.245  0.0000E+00  0.0000E+00  0.5700E+00  0.5700E+00
     13.321  0.0000E+00  0.0000E+00  0.5700E+00  0.5700E+00
     13.398  0.0000E+00  0.0000E+00  0.5700E+00  0.5700E+00
