<?xml version="1.0" encoding="ISO-8859-1"?>
<modeling>
 <generator>
  <i name="program" type="string">vasp </i>
  <i name="version" type="string">6.3.2  </i>
  <i name="subversion" type="string">27Jun22 (build Aug 17 2022 15:43:34) complex                          parallel </i>
  <i name="platform" type="string">tv2STDVTST </i>
  <i name="date" type="string">2025 02 17 </i>
  <i name="time" type="string">16:01:46 </i>
 </generator>
 <incar>
  <i type="int" name="ISTART">     0</i>
  <i type="string" name="PREC">Normal</i>
  <i type="int" name="ISPIN">     2</i>
  <i type="int" name="ICHARG">     2</i>
  <i type="int" name="IBRION">     2</i>
  <i name="EDIFF">      0.00020000</i>
  <i name="EDIFFG">     -0.03000000</i>
  <i type="int" name="NSW">   800</i>
  <i type="int" name="ISIF">     2</i>
  <i type="int" name="ISYM">     1</i>
  <i name="ENCUT">    400.00000000</i>
  <i name="POTIM">      0.50000000</i>
  <i type="logical" name="LREAL"> F  </i>
  <i type="int" name="ISMEAR">     1</i>
  <i name="SIGMA">      0.20000000</i>
  <i type="logical" name="LWAVE"> F  </i>
  <i type="logical" name="LCHARG"> F  </i>
  <i type="string" name="GGA">PE</i>
  <i type="int" name="IVDW">    11</i>
 </incar>
 <primitive_cell>
  <structure name="primitive_cell" >
   <crystal>
    <varray name="basis" >
     <v>       7.26000023       0.00000000       0.00000000 </v>
     <v>       0.00000000       7.26000023       0.00000000 </v>
     <v>       0.00000000       0.00000000      27.70499992 </v>
    </varray>
    <i name="volume">   1460.26414606 </i>
    <varray name="rec_basis" >
     <v>       0.13774104       0.00000000       0.00000000 </v>
     <v>       0.00000000       0.13774104       0.00000000 </v>
     <v>       0.00000000       0.00000000       0.03609457 </v>
    </varray>
   </crystal>
   <varray name="positions" >
    <v>       0.00000000       0.00000000       0.00000000 </v>
    <v>       0.00000000       0.50000000       0.00000000 </v>
    <v>       0.50000000       0.00000000       0.00000000 </v>
    <v>       0.50000000       0.50000000       0.00000000 </v>
    <v>       0.25000000       0.25000000       0.00000000 </v>
    <v>       0.25000000       0.75000000       0.00000000 </v>
    <v>       0.75000000       0.25000000       0.00000000 </v>
    <v>       0.75000000       0.75000000       0.00000000 </v>
    <v>       0.00000000       0.25000000       0.06551164 </v>
    <v>       0.00000000       0.75000000       0.06551164 </v>
    <v>       0.50000000       0.25000000       0.06551164 </v>
    <v>       0.50000000       0.75000000       0.06551164 </v>
    <v>       0.25000000       0.00000000       0.06551164 </v>
    <v>       0.25000000       0.50000000       0.06551164 </v>
    <v>       0.75000000       0.00000000       0.06551164 </v>
    <v>       0.75000000       0.50000000       0.06551164 </v>
    <v>       0.00000000       0.00000000       0.13164128 </v>
    <v>       0.00000000       0.50000000       0.13164128 </v>
    <v>       0.50000000       0.00000000       0.13164128 </v>
    <v>       0.50000000       0.50000000       0.13164128 </v>
    <v>       0.25000000       0.25000000       0.13164128 </v>
    <v>       0.25000000       0.75000000       0.13164128 </v>
    <v>       0.75000000       0.25000000       0.13164128 </v>
    <v>       0.75000000       0.75000000       0.13164128 </v>
    <v>       0.00000000       0.25000000       0.19677891 </v>
    <v>       0.00000000       0.75000000       0.19677891 </v>
    <v>       0.50000000       0.25000000       0.19677891 </v>
    <v>       0.50000000       0.75000000       0.19677891 </v>
    <v>       0.25000000       0.00000000       0.19677891 </v>
    <v>       0.25000000       0.50000000       0.19677891 </v>
    <v>       0.75000000       0.00000000       0.19677891 </v>
    <v>       0.75000000       0.50000000       0.19677891 </v>
    <v>       0.00000000       0.00000000       0.26184662 </v>
    <v>       0.00000000       0.50000000       0.26184662 </v>
    <v>       0.50000000       0.00000000       0.26184662 </v>
    <v>       0.50000000       0.50000000       0.26184662 </v>
    <v>       0.25000000       0.25000000       0.26184662 </v>
    <v>       0.25000000       0.75000000       0.26184662 </v>
    <v>       0.75000000       0.25000000       0.26184662 </v>
    <v>       0.75000000       0.75000000       0.26184662 </v>
    <v>       0.00000000       0.25000000       0.32758887 </v>
    <v>       0.00000000       0.75000000       0.32758887 </v>
    <v>       0.50000000       0.25000000       0.32758887 </v>
    <v>       0.50000000       0.75000000       0.32758887 </v>
    <v>       0.25000000       0.00000000       0.32758887 </v>
    <v>       0.25000000       0.50000000       0.32758887 </v>
    <v>       0.75000000       0.00000000       0.32758887 </v>
    <v>       0.75000000       0.50000000       0.32758887 </v>
    <v>       0.00000000       0.00000000       0.39185763 </v>
    <v>       0.00000000       0.50000000       0.39185763 </v>
    <v>       0.50000000       0.00000000       0.39185763 </v>
    <v>       0.50000000       0.50000000       0.39185763 </v>
    <v>       0.25000000       0.25000000       0.39185763 </v>
    <v>       0.25000000       0.75000000       0.39185763 </v>
    <v>       0.75000000       0.25000000       0.39185763 </v>
    <v>       0.75000000       0.75000000       0.39185763 </v>
    <v>       0.00000000       0.25000000       0.45475490 </v>
    <v>       0.00000000       0.75000000       0.45475490 </v>
    <v>       0.50000000       0.25000000       0.45475490 </v>
    <v>       0.50000000       0.75000000       0.45475490 </v>
    <v>       0.25000000       0.00000000       0.45475490 </v>
    <v>       0.25000000       0.50000000       0.45475490 </v>
    <v>       0.75000000       0.00000000       0.45475490 </v>
    <v>       0.75000000       0.50000000       0.45475490 </v>
    <v>       0.50000000       0.75000000       0.50150658 </v>
    <v>       0.50000000       0.85275482       0.50150658 </v>
   </varray>
  </structure>
  <varray name="primitive_index" >
   <v type="int" >        1 </v>
   <v type="int" >        2 </v>
   <v type="int" >        3 </v>
   <v type="int" >        4 </v>
   <v type="int" >        5 </v>
   <v type="int" >        6 </v>
   <v type="int" >        7 </v>
   <v type="int" >        8 </v>
   <v type="int" >        9 </v>
   <v type="int" >       10 </v>
   <v type="int" >       11 </v>
   <v type="int" >       12 </v>
   <v type="int" >       13 </v>
   <v type="int" >       14 </v>
   <v type="int" >       15 </v>
   <v type="int" >       16 </v>
   <v type="int" >       17 </v>
   <v type="int" >       18 </v>
   <v type="int" >       19 </v>
   <v type="int" >       20 </v>
   <v type="int" >       21 </v>
   <v type="int" >       22 </v>
   <v type="int" >       23 </v>
   <v type="int" >       24 </v>
   <v type="int" >       25 </v>
   <v type="int" >       26 </v>
   <v type="int" >       27 </v>
   <v type="int" >       28 </v>
   <v type="int" >       29 </v>
   <v type="int" >       30 </v>
   <v type="int" >       31 </v>
   <v type="int" >       32 </v>
   <v type="int" >       33 </v>
   <v type="int" >       34 </v>
   <v type="int" >       35 </v>
   <v type="int" >       36 </v>
   <v type="int" >       37 </v>
   <v type="int" >       38 </v>
   <v type="int" >       39 </v>
   <v type="int" >       40 </v>
   <v type="int" >       41 </v>
   <v type="int" >       42 </v>
   <v type="int" >       43 </v>
   <v type="int" >       44 </v>
   <v type="int" >       45 </v>
   <v type="int" >       46 </v>
   <v type="int" >       47 </v>
   <v type="int" >       48 </v>
   <v type="int" >       49 </v>
   <v type="int" >       50 </v>
   <v type="int" >       51 </v>
   <v type="int" >       52 </v>
   <v type="int" >       53 </v>
   <v type="int" >       54 </v>
   <v type="int" >       55 </v>
   <v type="int" >       56 </v>
   <v type="int" >       57 </v>
   <v type="int" >       58 </v>
   <v type="int" >       59 </v>
   <v type="int" >       60 </v>
   <v type="int" >       61 </v>
   <v type="int" >       62 </v>
   <v type="int" >       63 </v>
   <v type="int" >       64 </v>
   <v type="int" >       65 </v>
   <v type="int" >       66 </v>
  </varray>
 </primitive_cell>
 <kpoints>
  <generation param="Monkhorst-Pack">
   <v type="int" name="divisions">       3        3        1 </v>
   <v name="usershift">      0.00000000       0.00000000       0.00000000 </v>
   <v name="genvec1">      0.33333333       0.00000000       0.00000000 </v>
   <v name="genvec2">      0.00000000       0.33333333       0.00000000 </v>
   <v name="genvec3">      0.00000000       0.00000000       1.00000000 </v>
   <v name="shift">      0.00000000       0.00000000       0.00000000 </v>
  </generation>
  <varray name="kpointlist" >
   <v>       0.00000000       0.00000000       0.00000000 </v>
   <v>       0.33333333       0.00000000       0.00000000 </v>
   <v>       0.00000000       0.33333333       0.00000000 </v>
   <v>       0.33333333       0.33333333       0.00000000 </v>
  </varray>
  <varray name="weights" >
   <v>       0.11111111 </v>
   <v>       0.22222222 </v>
   <v>       0.22222222 </v>
   <v>       0.44444444 </v>
  </varray>
 </kpoints>
 <parameters>
  <separator name="general" >
   <i type="string" name="SYSTEM">unknown system</i>
   <i type="logical" name="LCOMPAT"> F  </i>
  </separator>
  <separator name="electronic" >
   <i type="string" name="PREC">normal</i>
   <i name="ENMAX">    400.00000000</i>
   <i name="ENAUG">    586.98000000</i>
   <i name="EDIFF">      0.00020000</i>
   <i type="int" name="IALGO">    38</i>
   <i type="int" name="IWAVPR">    11</i>
   <i type="int" name="NBANDS">   456</i>
   <i type="int" name="NBANDSLOW">    -1</i>
   <i type="int" name="NBANDSHIGH">    -1</i>
   <i name="NELECT">    706.00000000</i>
   <i type="int" name="TURBO">     0</i>
   <i type="int" name="IRESTART">     0</i>
   <i type="int" name="NREBOOT">     0</i>
   <i type="int" name="NMIN">     0</i>
   <i name="EREF">      0.00000000</i>
   <separator name="electronic smearing" >
    <i type="int" name="ISMEAR">     1</i>
    <i name="SIGMA">      0.20000000</i>
    <i name="KSPACING">      0.50000000</i>
    <i type="logical" name="KGAMMA"> T  </i>
    <i type="logical" name="KBLOWUP"> T  </i>
   </separator>
   <separator name="electronic projectors" >
    <i type="logical" name="LREAL"> F  </i>
    <v name="ROPT">      0.00000000      0.00000000</v>
    <i type="int" name="LMAXPAW">  -100</i>
    <i type="int" name="LMAXMIX">     2</i>
    <i type="logical" name="NLSPLINE"> F  </i>
   </separator>
   <separator name="electronic startup" >
    <i type="int" name="ISTART">     0</i>
    <i type="int" name="ICHARG">     2</i>
    <i type="int" name="INIWAV">     1</i>
   </separator>
   <separator name="electronic spin" >
    <i type="int" name="ISPIN">     2</i>
    <i type="logical" name="LNONCOLLINEAR"> F  </i>
    <v name="MAGMOM">      1.00000000      1.00000000      1.00000000      1.00000000      1.00000000      1.00000000      1.00000000      1.00000000      1.00000000      1.00000000      1.00000000      1.00000000      1.00000000      1.00000000      1.00000000      1.00000000      1.00000000      1.00000000      1.00000000      1.00000000
      1.00000000      1.00000000      1.00000000      1.00000000      1.00000000      1.00000000      1.00000000      1.00000000      1.00000000      1.00000000      1.00000000      1.00000000      1.00000000      1.00000000      1.00000000      1.00000000      1.00000000      1.00000000      1.00000000      1.00000000
      1.00000000      1.00000000      1.00000000      1.00000000      1.00000000      1.00000000      1.00000000      1.00000000      1.00000000      1.00000000      1.00000000      1.00000000      1.00000000      1.00000000      1.00000000      1.00000000      1.00000000      1.00000000      1.00000000      1.00000000
      1.00000000      1.00000000      1.00000000      1.00000000      1.00000000      1.00000000</v>
    <i name="NUPDOWN">     -1.00000000</i>
    <i type="logical" name="LSORBIT"> F  </i>
    <v name="SAXIS">      0.00000000      0.00000000      1.00000000</v>
    <i type="logical" name="LSPIRAL"> F  </i>
    <v name="QSPIRAL">      0.00000000      0.00000000      0.00000000</v>
    <i type="logical" name="LZEROZ"> F  </i>
   </separator>
   <separator name="electronic exchange-correlation" >
    <i type="logical" name="LASPH"> F  </i>
    <i type="logical" name="LMETAGGA"> F  </i>
   </separator>
   <separator name="electronic convergence" >
    <i type="int" name="NELM">    60</i>
    <i type="int" name="NELMDL">    -5</i>
    <i type="int" name="NELMIN">     2</i>
    <i name="ENINI">    400.00000000</i>
    <separator name="electronic convergence detail" >
     <i type="logical" name="LDIAG"> T  </i>
     <i type="logical" name="LSUBROT"> F  </i>
     <i name="WEIMIN">      0.00100000</i>
     <i name="EBREAK">      0.00000011</i>
     <i name="DEPER">      0.30000000</i>
     <i type="int" name="NRMM">     4</i>
     <i name="TIME">      0.40000000</i>
    </separator>
   </separator>
   <separator name="electronic mixer" >
    <i name="AMIX">      0.40000000</i>
    <i name="BMIX">      1.00000000</i>
    <i name="AMIN">      0.10000000</i>
    <i name="AMIX_MAG">      1.60000000</i>
    <i name="BMIX_MAG">      1.00000000</i>
    <separator name="electronic mixer details" >
     <i type="int" name="IMIX">     4</i>
     <i type="logical" name="MIXFIRST"> F  </i>
     <i type="int" name="MAXMIX">   -45</i>
     <i name="WC">    100.00000000</i>
     <i type="int" name="INIMIX">     1</i>
     <i type="int" name="MIXPRE">     1</i>
     <i type="int" name="MREMOVE">     5</i>
    </separator>
   </separator>
   <separator name="electronic dipolcorrection" >
    <i type="logical" name="LDIPOL"> F  </i>
    <i type="logical" name="LMONO"> F  </i>
    <i type="int" name="IDIPOL">     0</i>
    <i name="EPSILON">      1.00000000</i>
    <v name="DIPOL">   -100.00000000   -100.00000000   -100.00000000</v>
    <i name="EFIELD">      0.00000000</i>
   </separator>
  </separator>
  <separator name="grids" >
   <i type="int" name="NGX">    36</i>
   <i type="int" name="NGY">    36</i>
   <i type="int" name="NGZ">   140</i>
   <i type="int" name="NGXF">    72</i>
   <i type="int" name="NGYF">    72</i>
   <i type="int" name="NGZF">   280</i>
   <i type="logical" name="ADDGRID"> F  </i>
  </separator>
  <separator name="ionic" >
   <i type="int" name="NSW">   800</i>
   <i type="int" name="IBRION">     2</i>
   <i type="int" name="MDALGO">     0</i>
   <i type="int" name="ISIF">     2</i>
   <i name="PSTRESS">      0.00000000</i>
   <i name="EDIFFG">     -0.03000000</i>
   <i type="int" name="NFREE">     1</i>
   <i name="POTIM">      0.50000000</i>
   <i name="SMASS">     -3.00000000</i>
   <i name="SCALEE">      1.00000000</i>
  </separator>
  <separator name="ionic md" >
   <i name="TEBEG">      0.00010000</i>
   <i name="TEEND">      0.00010000</i>
   <i type="int" name="NBLOCK">     1</i>
   <i type="int" name="KBLOCK">   800</i>
   <i type="int" name="NPACO">   256</i>
   <i name="APACO">     10.00000000</i>
  </separator>
  <separator name="symmetry" >
   <i type="int" name="ISYM">     1</i>
   <i name="SYMPREC">      0.00001000</i>
  </separator>
  <separator name="dos" >
   <i type="int" name="LORBIT">     0</i>
   <v name="RWIGS">     -1.00000000     -1.00000000</v>
   <i type="int" name="NEDOS">   301</i>
   <i name="EMIN">     10.00000000</i>
   <i name="EMAX">    -10.00000000</i>
   <i name="EFERMI">      0.00000000</i>
  </separator>
  <separator name="writing" >
   <i type="int" name="NWRITE">     2</i>
   <i type="logical" name="LWAVE"> F  </i>
   <i type="logical" name="LDOWNSAMPLE"> F  </i>
   <i type="logical" name="LCHARG"> F  </i>
   <i type="logical" name="LPARD"> F  </i>
   <i type="logical" name="LVTOT"> F  </i>
   <i type="logical" name="LVHAR"> F  </i>
   <i type="logical" name="LELF"> F  </i>
   <i type="logical" name="LOPTICS"> F  </i>
   <v name="STM">      0.00000000      0.00000000      0.00000000      0.00000000      0.00000000      0.00000000      0.00000000</v>
  </separator>
  <separator name="performance" >
   <i type="int" name="NPAR">     4</i>
   <i type="int" name="NSIM">     4</i>
   <i type="int" name="NBLK">    -1</i>
   <i type="logical" name="LPLANE"> T  </i>
   <i type="logical" name="LSCALAPACK"> T  </i>
   <i type="logical" name="LSCAAWARE"> F  </i>
   <i type="logical" name="LSCALU"> F  </i>
   <i type="logical" name="LASYNC"> F  </i>
   <i type="logical" name="LORBITALREAL"> F  </i>
  </separator>
  <separator name="miscellaneous" >
   <i type="int" name="IDIOT">     3</i>
   <i type="int" name="PHON_NSTRUCT">    -1</i>
   <i type="logical" name="LMUSIC"> F  </i>
   <v name="POMASS">     63.54600000      1.00000000</v>
   <v name="DARWINR">      0.00000000      0.00000000</v>
   <v name="DARWINV">      1.00000000      1.00000000</v>
   <i type="logical" name="LCORR"> T  </i>
  </separator>
  <i type="logical" name="GGA_COMPAT"> T  </i>
  <i type="logical" name="LBERRY"> F  </i>
  <i type="int" name="ICORELEVEL">     0</i>
  <i type="logical" name="LDAU"> F  </i>
  <i type="int" name="I_CONSTRAINED_M">     0</i>
  <separator name="electronic exchange-correlation" >
   <i type="string" name="GGA">PE</i>
   <i type="int" name="VOSKOWN">     0</i>
   <i type="logical" name="LHFCALC"> F  </i>
   <i type="string" name="PRECFOCK"></i>
   <i type="logical" name="LSYMGRAD"> F  </i>
   <i type="logical" name="LHFONE"> F  </i>
   <i type="logical" name="LRHFCALC"> F  </i>
   <i type="logical" name="LTHOMAS"> F  </i>
   <i type="logical" name="LMODELHF"> F  </i>
   <i type="logical" name="LFOCKACE"> F  </i>
   <i name="ENCUT4O">     -1.00000000</i>
   <i type="int" name="EXXOEP">     0</i>
   <i type="int" name="FOURORBIT">     0</i>
   <i name="AEXX">      0.00000000</i>
   <i name="HFALPHA">      0.00000000</i>
   <i name="MCALPHA">      0.00000000</i>
   <i name="ALDAX">      1.00000000</i>
   <i name="AGGAX">      1.00000000</i>
   <i name="ALDAC">      1.00000000</i>
   <i name="AGGAC">      1.00000000</i>
   <i type="int" name="NKREDX">     1</i>
   <i type="int" name="NKREDY">     1</i>
   <i type="int" name="NKREDZ">     1</i>
   <i type="logical" name="SHIFTRED"> F  </i>
   <i type="logical" name="ODDONLY"> F  </i>
   <i type="logical" name="EVENONLY"> F  </i>
   <i type="int" name="LMAXFOCK">     0</i>
   <i type="int" name="NMAXFOCKAE">     0</i>
   <i type="logical" name="LFOCKAEDFT"> F  </i>
   <i name="HFSCREEN">      0.00000000</i>
   <i name="HFSCREENC">      0.00000000</i>
   <i type="int" name="NBANDSGWLOW">     0</i>
  </separator>
  <separator name="vdW DFT" >
   <i type="logical" name="LUSE_VDW"> F  </i>
   <i name="Zab_VDW">     -0.84910000</i>
   <i name="PARAM1">      0.12340000</i>
   <i name="PARAM2">      1.00000000</i>
   <i name="PARAM3">      0.00000000</i>
  </separator>
  <separator name="model GW" >
   <i type="int" name="MODEL_GW">     0</i>
   <i name="MODEL_EPS0">     13.27512860</i>
   <i name="MODEL_ALPHA">      1.00000000</i>
  </separator>
  <separator name="linear response parameters" >
   <i type="logical" name="LEPSILON"> F  </i>
   <i type="logical" name="LRPA"> F  </i>
   <i type="logical" name="LNABLA"> F  </i>
   <i type="logical" name="LVEL"> F  </i>
   <i name="CSHIFT">      0.10000000</i>
   <i name="OMEGAMAX">     -1.00000000</i>
   <i name="DEG_THRESHOLD">      0.00200000</i>
   <i name="RTIME">     -0.10000000</i>
   <i name="WPLASMAI">      0.00000000</i>
   <v name="DFIELD">      0.00000000      0.00000000      0.00000000</v>
   <v name="WPLASMA">      0.00000000      0.00000000      0.00000000      0.00000000      0.00000000      0.00000000      0.00000000      0.00000000      0.00000000</v>
  </separator>
  <separator name="orbital magnetization" >
   <i type="logical" name="NUCIND"> F  </i>
   <v name="MAGPOS">      0.00000000      0.00000000      0.00000000</v>
   <i type="logical" name="LNICSALL"> T  </i>
   <i type="logical" name="ORBITALMAG"> F  </i>
   <i type="logical" name="LMAGBLOCH"> F  </i>
   <i type="logical" name="LCHIMAG"> F  </i>
   <i type="logical" name="LGAUGE"> T  </i>
   <i type="int" name="MAGATOM">     0</i>
   <v name="MAGDIPOL">      0.00000000      0.00000000      0.00000000</v>
   <v name="AVECCONST">      0.00000000      0.00000000      0.00000000</v>
  </separator>
  <separator name="response functions" >
   <i type="logical" name="LFINITE_TEMPERATURE"> F  </i>
   <i type="logical" name="LADDER"> F  </i>
   <i type="logical" name="LRPAFORCE"> F  </i>
   <i type="logical" name="LFXC"> F  </i>
   <i type="logical" name="LHARTREE"> T  </i>
   <i type="int" name="IBSE">     0</i>
   <v type="int" name="KPOINT">    -1     0     0     0</v>
   <i type="logical" name="LTCTC"> F  </i>
   <i type="logical" name="LTCTE"> F  </i>
   <i type="logical" name="LTETE"> F  </i>
   <i type="logical" name="LTRIPLET"> F  </i>
   <i type="logical" name="LFXCEPS"> F  </i>
   <i type="logical" name="LFXHEG"> F  </i>
   <i type="int" name="NATURALO">     2</i>
   <i type="logical" name="LHOLEGF"> F  </i>
   <i type="logical" name="L2ORDER"> F  </i>
   <i type="logical" name="LDMP1"> F  </i>
   <i type="logical" name="LMP2LT"> F  </i>
   <i type="logical" name="LSMP2LT"> F  </i>
   <i type="logical" name="LGWLF"> F  </i>
   <i name="ENCUTGW">     -2.00000000</i>
   <i name="ENCUTGWSOFT">     -2.00000000</i>
   <i name="ENCUTLF">     -1.00000000</i>
   <i type="logical" name="LESF_SPLINES"> F  </i>
   <i type="int" name="LMAXMP2">    -1</i>
   <i name="SCISSOR">      0.00000000</i>
   <i type="int" name="NOMEGA">     0</i>
   <i type="int" name="NOMEGAR">     0</i>
   <i type="int" name="NBANDSGW">    -1</i>
   <i type="int" name="NBANDSO">    -1</i>
   <i type="int" name="NBANDSV">    -1</i>
   <i type="int" name="NELMGW">     1</i>
   <i type="int" name="NELMHF">     1</i>
   <i type="int" name="DIM">     3</i>
   <i type="int" name="IESPILON">     4</i>
   <i type="int" name="ANTIRES">     0</i>
   <i name="OMEGAMAX">    -30.00000000</i>
   <i name="OMEGAMIN">    -30.00000000</i>
   <i name="OMEGATL">   -200.00000000</i>
   <i type="int" name="OMEGAGRID">     0</i>
   <i name="CSHIFT">     -0.10000000</i>
   <i type="logical" name="LSELFENERGY"> F  </i>
   <i type="logical" name="LSPECTRAL"> F  </i>
   <i type="logical" name="LSPECTRALGW"> F  </i>
   <i type="logical" name="LSINGLES"> F  </i>
   <i type="logical" name="LFERMIGW"> F  </i>
   <i type="logical" name="ODDONLYGW"> F  </i>
   <i type="logical" name="EVENONLYGW"> F  </i>
   <i type="int" name="NKREDLFX">     1</i>
   <i type="int" name="NKREDLFY">     1</i>
   <i type="int" name="NKREDLFZ">     1</i>
   <i type="int" name="MAXMEM">  2800</i>
   <i type="int" name="TELESCOPE">     0</i>
   <i type="int" name="NTAUPAR">    -1</i>
   <i type="int" name="NOMEGAPAR">    -1</i>
   <i name="DAMP_NEWTON">      0.80000001</i>
   <i name="LAMBDA">      1.00000000</i>
  </separator>
  <separator name="External order field" >
   <i name="OFIELD_KAPPA">      0.00000000</i>
   <v name="OFIELD_K">      0.00000000      0.00000000      0.00000000</v>
   <i name="OFIELD_Q6_NEAR">      0.00000000</i>
   <i name="OFIELD_Q6_FAR">      0.00000000</i>
   <i name="OFIELD_A">      0.00000000</i>
  </separator>
  <separator name="optional k-points parameters" >
   <i type="int" name="KPOINTS_OPT_MODE">     1</i>
   <i type="logical" name="LKPOINTS_OPT"> F  </i>
  </separator>
 </parameters>
 <atominfo>
  <atoms>      66 </atoms>
  <types>       2 </types>
  <array name="atoms" >
   <dimension dim="1">ion</dimension>
   <field type="string">element</field>
   <field type="int">atomtype</field>
   <set>
    <rc><c>Cu</c><c>   1</c></rc>
    <rc><c>Cu</c><c>   1</c></rc>
    <rc><c>Cu</c><c>   1</c></rc>
    <rc><c>Cu</c><c>   1</c></rc>
    <rc><c>Cu</c><c>   1</c></rc>
    <rc><c>Cu</c><c>   1</c></rc>
    <rc><c>Cu</c><c>   1</c></rc>
    <rc><c>Cu</c><c>   1</c></rc>
    <rc><c>Cu</c><c>   1</c></rc>
    <rc><c>Cu</c><c>   1</c></rc>
    <rc><c>Cu</c><c>   1</c></rc>
    <rc><c>Cu</c><c>   1</c></rc>
    <rc><c>Cu</c><c>   1</c></rc>
    <rc><c>Cu</c><c>   1</c></rc>
    <rc><c>Cu</c><c>   1</c></rc>
    <rc><c>Cu</c><c>   1</c></rc>
    <rc><c>Cu</c><c>   1</c></rc>
    <rc><c>Cu</c><c>   1</c></rc>
    <rc><c>Cu</c><c>   1</c></rc>
    <rc><c>Cu</c><c>   1</c></rc>
    <rc><c>Cu</c><c>   1</c></rc>
    <rc><c>Cu</c><c>   1</c></rc>
    <rc><c>Cu</c><c>   1</c></rc>
    <rc><c>Cu</c><c>   1</c></rc>
    <rc><c>Cu</c><c>   1</c></rc>
    <rc><c>Cu</c><c>   1</c></rc>
    <rc><c>Cu</c><c>   1</c></rc>
    <rc><c>Cu</c><c>   1</c></rc>
    <rc><c>Cu</c><c>   1</c></rc>
    <rc><c>Cu</c><c>   1</c></rc>
    <rc><c>Cu</c><c>   1</c></rc>
    <rc><c>Cu</c><c>   1</c></rc>
    <rc><c>Cu</c><c>   1</c></rc>
    <rc><c>Cu</c><c>   1</c></rc>
    <rc><c>Cu</c><c>   1</c></rc>
    <rc><c>Cu</c><c>   1</c></rc>
    <rc><c>Cu</c><c>   1</c></rc>
    <rc><c>Cu</c><c>   1</c></rc>
    <rc><c>Cu</c><c>   1</c></rc>
    <rc><c>Cu</c><c>   1</c></rc>
    <rc><c>Cu</c><c>   1</c></rc>
    <rc><c>Cu</c><c>   1</c></rc>
    <rc><c>Cu</c><c>   1</c></rc>
    <rc><c>Cu</c><c>   1</c></rc>
    <rc><c>Cu</c><c>   1</c></rc>
    <rc><c>Cu</c><c>   1</c></rc>
    <rc><c>Cu</c><c>   1</c></rc>
    <rc><c>Cu</c><c>   1</c></rc>
    <rc><c>Cu</c><c>   1</c></rc>
    <rc><c>Cu</c><c>   1</c></rc>
    <rc><c>Cu</c><c>   1</c></rc>
    <rc><c>Cu</c><c>   1</c></rc>
    <rc><c>Cu</c><c>   1</c></rc>
    <rc><c>Cu</c><c>   1</c></rc>
    <rc><c>Cu</c><c>   1</c></rc>
    <rc><c>Cu</c><c>   1</c></rc>
    <rc><c>Cu</c><c>   1</c></rc>
    <rc><c>Cu</c><c>   1</c></rc>
    <rc><c>Cu</c><c>   1</c></rc>
    <rc><c>Cu</c><c>   1</c></rc>
    <rc><c>Cu</c><c>   1</c></rc>
    <rc><c>Cu</c><c>   1</c></rc>
    <rc><c>Cu</c><c>   1</c></rc>
    <rc><c>Cu</c><c>   1</c></rc>
    <rc><c>H </c><c>   2</c></rc>
    <rc><c>H </c><c>   2</c></rc>
   </set>
  </array>
  <array name="atomtypes" >
   <dimension dim="1">type</dimension>
   <field type="int">atomspertype</field>
   <field type="string">element</field>
   <field>mass</field>
   <field>valence</field>
   <field type="string">pseudopotential</field>
   <set>
    <rc><c>  64</c><c>Cu</c><c>     63.54600000</c><c>     11.00000000</c><c>  PAW_PBE Cu 22Jun2005                  </c></rc>
    <rc><c>   2</c><c>H </c><c>      1.00000000</c><c>      1.00000000</c><c>  PAW_PBE H 15Jun2001                   </c></rc>
   </set>
  </array>
 </atominfo>
 <structure name="initialpos" >
  <crystal>
   <varray name="basis" >
    <v>       7.26000023       0.00000000       0.00000000 </v>
    <v>       0.00000000       7.26000023       0.00000000 </v>
    <v>       0.00000000       0.00000000      27.70499992 </v>
   </varray>
   <i name="volume">   1460.26414606 </i>
   <varray name="rec_basis" >
    <v>       0.13774104       0.00000000       0.00000000 </v>
    <v>       0.00000000       0.13774104       0.00000000 </v>
    <v>       0.00000000       0.00000000       0.03609457 </v>
   </varray>
  </crystal>
  <varray name="positions" >
   <v>       0.00000000       0.00000000       0.00000000 </v>
   <v>       0.00000000       0.50000000       0.00000000 </v>
   <v>       0.50000000       0.00000000       0.00000000 </v>
   <v>       0.50000000       0.50000000       0.00000000 </v>
   <v>       0.25000000       0.25000000       0.00000000 </v>
   <v>       0.25000000       0.75000000       0.00000000 </v>
   <v>       0.75000000       0.25000000       0.00000000 </v>
   <v>       0.75000000       0.75000000       0.00000000 </v>
   <v>       0.00000000       0.25000000       0.06551164 </v>
   <v>       0.00000000       0.75000000       0.06551164 </v>
   <v>       0.50000000       0.25000000       0.06551164 </v>
   <v>       0.50000000       0.75000000       0.06551164 </v>
   <v>       0.25000000       0.00000000       0.06551164 </v>
   <v>       0.25000000       0.50000000       0.06551164 </v>
   <v>       0.75000000       0.00000000       0.06551164 </v>
   <v>       0.75000000       0.50000000       0.06551164 </v>
   <v>       0.00000000       0.00000000       0.13164128 </v>
   <v>       0.00000000       0.50000000       0.13164128 </v>
   <v>       0.50000000       0.00000000       0.13164128 </v>
   <v>       0.50000000       0.50000000       0.13164128 </v>
   <v>       0.25000000       0.25000000       0.13164128 </v>
   <v>       0.25000000       0.75000000       0.13164128 </v>
   <v>       0.75000000       0.25000000       0.13164128 </v>
   <v>       0.75000000       0.75000000       0.13164128 </v>
   <v>       0.00000000       0.25000000       0.19677891 </v>
   <v>       0.00000000       0.75000000       0.19677891 </v>
   <v>       0.50000000       0.25000000       0.19677891 </v>
   <v>       0.50000000       0.75000000       0.19677891 </v>
   <v>       0.25000000       0.00000000       0.19677891 </v>
   <v>       0.25000000       0.50000000       0.19677891 </v>
   <v>       0.75000000       0.00000000       0.19677891 </v>
   <v>       0.75000000       0.50000000       0.19677891 </v>
   <v>       0.00000000       0.00000000       0.26184662 </v>
   <v>       0.00000000       0.50000000       0.26184662 </v>
   <v>       0.50000000       0.00000000       0.26184662 </v>
   <v>       0.50000000       0.50000000       0.26184662 </v>
   <v>       0.25000000       0.25000000       0.26184662 </v>
   <v>       0.25000000       0.75000000       0.26184662 </v>
   <v>       0.75000000       0.25000000       0.26184662 </v>
   <v>       0.75000000       0.75000000       0.26184662 </v>
   <v>       0.00000000       0.25000000       0.32758887 </v>
   <v>       0.00000000       0.75000000       0.32758887 </v>
   <v>       0.50000000       0.25000000       0.32758887 </v>
   <v>       0.50000000       0.75000000       0.32758887 </v>
   <v>       0.25000000       0.00000000       0.32758887 </v>
   <v>       0.25000000       0.50000000       0.32758887 </v>
   <v>       0.75000000       0.00000000       0.32758887 </v>
   <v>       0.75000000       0.50000000       0.32758887 </v>
   <v>       0.00000000       0.00000000       0.39185763 </v>
   <v>       0.00000000       0.50000000       0.39185763 </v>
   <v>       0.50000000       0.00000000       0.39185763 </v>
   <v>       0.50000000       0.50000000       0.39185763 </v>
   <v>       0.25000000       0.25000000       0.39185763 </v>
   <v>       0.25000000       0.75000000       0.39185763 </v>
   <v>       0.75000000       0.25000000       0.39185763 </v>
   <v>       0.75000000       0.75000000       0.39185763 </v>
   <v>       0.00000000       0.25000000       0.45475490 </v>
   <v>       0.00000000       0.75000000       0.45475490 </v>
   <v>       0.50000000       0.25000000       0.45475490 </v>
   <v>       0.50000000       0.75000000       0.45475490 </v>
   <v>       0.25000000       0.00000000       0.45475490 </v>
   <v>       0.25000000       0.50000000       0.45475490 </v>
   <v>       0.75000000       0.00000000       0.45475490 </v>
   <v>       0.75000000       0.50000000       0.45475490 </v>
   <v>       0.50000000       0.75000000       0.50150658 </v>
   <v>       0.50000000       0.85275482       0.50150658 </v>
  </varray>
 </structure>
 <calculation>
  <scstep>
   <time name="dav">   44.32   44.66</time>
   <time name="total">   44.46   44.81</time>
   <energy>
    <i name="alphaZ">   2059.53800561 </i>
    <i name="ewald"> 387847.67893555 </i>
    <i name="hartreedc">-475355.41373703 </i>
    <i name="XCdc">   2933.49994003 </i>
    <i name="pawpsdc">  78601.82840687 </i>
    <i name="pawaedc"> -85374.54502045 </i>
    <i name="eentropy">     -0.01682596 </i>
    <i name="bandstr">   7099.14813039 </i>
    <i name="atom">  89046.24623812 </i>
    <i name="e_fr_energy">   6857.96407312 </i>
    <i name="e_wo_entrp">   6857.98089908 </i>
    <i name="e_0_energy">   6857.96968177 </i>
   </energy>
  </scstep>
  <scstep>
   <time name="dav">   43.27   43.67</time>
   <time name="total">   43.27   43.68</time>
   <energy>
    <i name="e_fr_energy">    965.57075602 </i>
    <i name="e_wo_entrp">    965.57068039 </i>
    <i name="e_0_energy">    965.57073081 </i>
   </energy>
  </scstep>
  <scstep>
   <time name="dav">   43.35   43.81</time>
   <time name="total">   43.36   43.81</time>
   <energy>
    <i name="e_fr_energy">   -179.60590824 </i>
    <i name="e_wo_entrp">   -179.68893823 </i>
    <i name="e_0_energy">   -179.63358491 </i>
   </energy>
  </scstep>
  <scstep>
   <time name="dav">   47.57   48.23</time>
   <time name="total">   47.58   48.23</time>
   <energy>
    <i name="e_fr_energy">   -271.93879888 </i>
    <i name="e_wo_entrp">   -272.05050006 </i>
    <i name="e_0_energy">   -271.97603261 </i>
   </energy>
  </scstep>
  <scstep>
   <time name="dav">   47.19   47.49</time>
   <time name="total">   48.07   48.37</time>
   <energy>
    <i name="e_fr_energy">   -274.32407234 </i>
    <i name="e_wo_entrp">   -274.43742826 </i>
    <i name="e_0_energy">   -274.36185764 </i>
   </energy>
  </scstep>
  <scstep>
   <time name="dav">   49.05   49.61</time>
   <time name="total">   50.77   51.45</time>
   <energy>
    <i name="e_fr_energy">   -223.14355114 </i>
    <i name="e_wo_entrp">   -223.16096392 </i>
    <i name="e_0_energy">   -223.14935540 </i>
   </energy>
  </scstep>
  <scstep>
   <time name="dav">   46.59   46.90</time>
   <time name="total">   47.53   47.84</time>
   <energy>
    <i name="e_fr_energy">   -197.01411042 </i>
    <i name="e_wo_entrp">   -197.08517791 </i>
    <i name="e_0_energy">   -197.03779958 </i>
   </energy>
  </scstep>
  <scstep>
   <time name="dav">   49.90   50.24</time>
   <time name="total">   50.87   51.21</time>
   <energy>
    <i name="e_fr_energy">   -197.56102672 </i>
    <i name="e_wo_entrp">   -197.58999397 </i>
    <i name="e_0_energy">   -197.57068247 </i>
   </energy>
  </scstep>
  <scstep>
   <time name="dav">   54.10   54.47</time>
   <time name="total">   55.07   55.44</time>
   <energy>
    <i name="e_fr_energy">   -195.42850367 </i>
    <i name="e_wo_entrp">   -195.49582669 </i>
    <i name="e_0_energy">   -195.45094468 </i>
   </energy>
  </scstep>
  <scstep>
   <time name="dav">   59.93   60.42</time>
   <time name="total">   60.91   61.40</time>
   <energy>
    <i name="e_fr_energy">   -192.96712744 </i>
    <i name="e_wo_entrp">   -193.01805495 </i>
    <i name="e_0_energy">   -192.98410328 </i>
   </energy>
  </scstep>
  <scstep>
   <time name="dav">   63.98   64.61</time>
   <time name="total">   64.96   65.60</time>
   <energy>
    <i name="e_fr_energy">   -194.56110314 </i>
    <i name="e_wo_entrp">   -194.61063852 </i>
    <i name="e_0_energy">   -194.57761493 </i>
   </energy>
  </scstep>
  <scstep>
   <time name="dav">   50.06   50.75</time>
   <time name="total">   51.04   51.74</time>
   <energy>
    <i name="e_fr_energy">   -201.16741762 </i>
    <i name="e_wo_entrp">   -201.20345465 </i>
    <i name="e_0_energy">   -201.17942996 </i>
   </energy>
  </scstep>
  <scstep>
   <time name="dav">   51.26   51.86</time>
   <time name="total">   52.26   52.86</time>
   <energy>
    <i name="e_fr_energy">   -203.72831182 </i>
    <i name="e_wo_entrp">   -203.74597216 </i>
    <i name="e_0_energy">   -203.73419860 </i>
   </energy>
  </scstep>
  <scstep>
   <time name="dav">   47.43   47.78</time>
   <time name="total">   48.41   48.76</time>
   <energy>
    <i name="e_fr_energy">   -209.53683919 </i>
    <i name="e_wo_entrp">   -209.54697039 </i>
    <i name="e_0_energy">   -209.54021626 </i>
   </energy>
  </scstep>
  <scstep>
   <time name="dav">   53.50   53.97</time>
   <time name="total">   54.51   54.99</time>
   <energy>
    <i name="e_fr_energy">   -215.27560128 </i>
    <i name="e_wo_entrp">   -215.29564481 </i>
    <i name="e_0_energy">   -215.28228245 </i>
   </energy>
  </scstep>
  <scstep>
   <time name="dav">   52.31   52.63</time>
   <time name="total">   53.30   53.63</time>
   <energy>
    <i name="e_fr_energy">   -222.86141553 </i>
    <i name="e_wo_entrp">   -222.83154675 </i>
    <i name="e_0_energy">   -222.85145927 </i>
   </energy>
  </scstep>
  <scstep>
   <time name="dav">   50.26   50.69</time>
   <time name="total">   51.24   51.68</time>
   <energy>
    <i name="e_fr_energy">   -225.21278567 </i>
    <i name="e_wo_entrp">   -225.17094928 </i>
    <i name="e_0_energy">   -225.19884021 </i>
   </energy>
  </scstep>
  <scstep>
   <time name="dav">   46.75   47.15</time>
   <time name="total">   47.75   48.15</time>
   <energy>
    <i name="e_fr_energy">   -225.85661169 </i>
    <i name="e_wo_entrp">   -225.80620184 </i>
    <i name="e_0_energy">   -225.83980840 </i>
   </energy>
  </scstep>
  <scstep>
   <time name="dav">   53.44   53.81</time>
   <time name="total">   54.43   54.80</time>
   <energy>
    <i name="e_fr_energy">   -227.78022766 </i>
    <i name="e_wo_entrp">   -227.69619113 </i>
    <i name="e_0_energy">   -227.75221548 </i>
   </energy>
  </scstep>
  <scstep>
   <time name="dav">   48.35   48.66</time>
   <time name="total">   49.32   49.64</time>
   <energy>
    <i name="e_fr_energy">   -229.65493256 </i>
    <i name="e_wo_entrp">   -229.54083331 </i>
    <i name="e_0_energy">   -229.61689947 </i>
   </energy>
  </scstep>
  <scstep>
   <time name="dav">   55.10   55.47</time>
   <time name="total">   56.07   56.45</time>
   <energy>
    <i name="e_fr_energy">   -231.08821834 </i>
    <i name="e_wo_entrp">   -230.94599466 </i>
    <i name="e_0_energy">   -231.04081045 </i>
   </energy>
  </scstep>
  <scstep>
   <time name="dav">   53.31   53.65</time>
   <time name="total">   54.29   54.64</time>
   <energy>
    <i name="e_fr_energy">   -232.02458812 </i>
    <i name="e_wo_entrp">   -231.86646353 </i>
    <i name="e_0_energy">   -231.97187992 </i>
   </energy>
  </scstep>
  <scstep>
   <time name="dav">   52.46   52.87</time>
   <time name="total">   53.45   53.87</time>
   <energy>
    <i name="e_fr_energy">   -232.71020228 </i>
    <i name="e_wo_entrp">   -232.54776175 </i>
    <i name="e_0_energy">   -232.65605544 </i>
   </energy>
  </scstep>
  <scstep>
   <time name="dav">   54.04   54.44</time>
   <time name="total">   55.00   55.42</time>
   <energy>
    <i name="e_fr_energy">   -233.24425254 </i>
    <i name="e_wo_entrp">   -233.08027998 </i>
    <i name="e_0_energy">   -233.18959502 </i>
   </energy>
  </scstep>
  <scstep>
   <time name="dav">   48.23   48.71</time>
   <time name="total">   49.19   49.67</time>
   <energy>
    <i name="e_fr_energy">   -233.48119089 </i>
    <i name="e_wo_entrp">   -233.31781385 </i>
    <i name="e_0_energy">   -233.42673188 </i>
   </energy>
  </scstep>
  <scstep>
   <time name="dav">   50.30   50.62</time>
   <time name="total">   51.26   51.59</time>
   <energy>
    <i name="e_fr_energy">   -233.72942672 </i>
    <i name="e_wo_entrp">   -233.56658008 </i>
    <i name="e_0_energy">   -233.67514451 </i>
   </energy>
  </scstep>
  <scstep>
   <time name="dav">   52.55   52.91</time>
   <time name="total">   53.52   53.88</time>
   <energy>
    <i name="e_fr_energy">   -233.96567161 </i>
    <i name="e_wo_entrp">   -233.80174737 </i>
    <i name="e_0_energy">   -233.91103019 </i>
   </energy>
  </scstep>
  <scstep>
   <time name="dav">   47.70   48.00</time>
   <time name="total">   48.67   48.98</time>
   <energy>
    <i name="e_fr_energy">   -234.13999842 </i>
    <i name="e_wo_entrp">   -233.97657795 </i>
    <i name="e_0_energy">   -234.08552493 </i>
   </energy>
  </scstep>
  <scstep>
   <time name="dav">   53.96   54.65</time>
   <time name="total">   54.93   55.63</time>
   <energy>
    <i name="e_fr_energy">   -234.17572724 </i>
    <i name="e_wo_entrp">   -234.01279701 </i>
    <i name="e_0_energy">   -234.12141716 </i>
   </energy>
  </scstep>
  <scstep>
   <time name="dav">   40.36   40.89</time>
   <time name="total">   41.33   41.86</time>
   <energy>
    <i name="e_fr_energy">   -234.19110904 </i>
    <i name="e_wo_entrp">   -234.02777558 </i>
    <i name="e_0_energy">   -234.13666455 </i>
   </energy>
  </scstep>
  <scstep>
   <time name="dav">   34.18   34.47</time>
   <time name="total">   35.16   35.45</time>
   <energy>
    <i name="e_fr_energy">   -234.19437480 </i>
    <i name="e_wo_entrp">   -234.03125255 </i>
    <i name="e_0_energy">   -234.14000072 </i>
   </energy>
  </scstep>
  <scstep>
   <time name="dav">   33.02   33.24</time>
   <time name="total">   34.00   34.22</time>
   <energy>
    <i name="e_fr_energy">   -234.19499295 </i>
    <i name="e_wo_entrp">   -234.03203212 </i>
    <i name="e_0_energy">   -234.14067267 </i>
   </energy>
  </scstep>
  <scstep>
   <time name="dav">   32.83   33.04</time>
   <time name="total">   33.80   34.02</time>
   <energy>
    <i name="e_fr_energy">   -234.19529993 </i>
    <i name="e_wo_entrp">   -234.03214238 </i>
    <i name="e_0_energy">   -234.14091408 </i>
   </energy>
  </scstep>
  <scstep>
   <time name="dav">   32.75   32.98</time>
   <time name="total">   33.70   33.95</time>
   <energy>
    <i name="e_fr_energy">   -234.19587790 </i>
    <i name="e_wo_entrp">   -234.03260211 </i>
    <i name="e_0_energy">   -234.14145264 </i>
   </energy>
  </scstep>
  <scstep>
   <time name="dav">   31.83   32.02</time>
   <time name="total">   32.83   33.02</time>
   <energy>
    <i name="e_fr_energy">   -234.19646333 </i>
    <i name="e_wo_entrp">   -234.03325554 </i>
    <i name="e_0_energy">   -234.14206073 </i>
   </energy>
  </scstep>
  <scstep>
   <time name="dav">   32.19   32.43</time>
   <time name="total">   33.15   33.40</time>
   <energy>
    <i name="e_fr_energy">   -234.19715189 </i>
    <i name="e_wo_entrp">   -234.03400462 </i>
    <i name="e_0_energy">   -234.14276947 </i>
   </energy>
  </scstep>
  <scstep>
   <time name="dav">   32.84   33.17</time>
   <time name="total">   33.83   34.16</time>
   <energy>
    <i name="e_fr_energy">   -234.19757640 </i>
    <i name="e_wo_entrp">   -234.03439067 </i>
    <i name="e_0_energy">   -234.14318116 </i>
   </energy>
  </scstep>
  <scstep>
   <time name="dav">   33.88   34.34</time>
   <time name="total">   34.86   35.33</time>
   <energy>
    <i name="e_fr_energy">   -234.19782697 </i>
    <i name="e_wo_entrp">   -234.03462001 </i>
    <i name="e_0_energy">   -234.14342465 </i>
   </energy>
  </scstep>
  <scstep>
   <time name="dav">   32.71   33.29</time>
   <time name="total">   32.84   33.43</time>
   <energy>
    <i name="alphaZ">   2059.53800561 </i>
    <i name="ewald"> 387847.67893555 </i>
    <i name="hartreedc">-474391.68781790 </i>
    <i name="XCdc">   2859.26745736 </i>
    <i name="pawpsdc">  83815.16777521 </i>
    <i name="pawaedc"> -90709.48572829 </i>
    <i name="eentropy">     -0.16320820 </i>
    <i name="bandstr">   -760.75957124 </i>
    <i name="atom">  89046.24623812 </i>
    <i name="e_fr_energy">   -234.19791378 </i>
    <i name="e_wo_entrp">   -234.03470558 </i>
    <i name="e_0_energy">   -234.14351105 </i>
   </energy>
  </scstep>
  <structure>
   <crystal>
    <varray name="basis" >
     <v>       7.26000023       0.00000000       0.00000000 </v>
     <v>       0.00000000       7.26000023       0.00000000 </v>
     <v>       0.00000000       0.00000000      27.70499992 </v>
    </varray>
    <i name="volume">   1460.26414606 </i>
    <varray name="rec_basis" >
     <v>       0.13774104       0.00000000       0.00000000 </v>
     <v>       0.00000000       0.13774104       0.00000000 </v>
     <v>       0.00000000       0.00000000       0.03609457 </v>
    </varray>
   </crystal>
   <varray name="positions" >
    <v>       0.00000000       0.00000000       0.00000000 </v>
    <v>       0.00000000       0.50000000       0.00000000 </v>
    <v>       0.50000000       0.00000000       0.00000000 </v>
    <v>       0.50000000       0.50000000       0.00000000 </v>
    <v>       0.25000000       0.25000000       0.00000000 </v>
    <v>       0.25000000       0.75000000       0.00000000 </v>
    <v>       0.75000000       0.25000000       0.00000000 </v>
    <v>       0.75000000       0.75000000       0.00000000 </v>
    <v>       0.00000000       0.25000000       0.06551164 </v>
    <v>       0.00000000       0.75000000       0.06551164 </v>
    <v>       0.50000000       0.25000000       0.06551164 </v>
    <v>       0.50000000       0.75000000       0.06551164 </v>
    <v>       0.25000000       0.00000000       0.06551164 </v>
    <v>       0.25000000       0.50000000       0.06551164 </v>
    <v>       0.75000000       0.00000000       0.06551164 </v>
    <v>       0.75000000       0.50000000       0.06551164 </v>
    <v>       0.00000000       0.00000000       0.13164128 </v>
    <v>       0.00000000       0.50000000       0.13164128 </v>
    <v>       0.50000000       0.00000000       0.13164128 </v>
    <v>       0.50000000       0.50000000       0.13164128 </v>
    <v>       0.25000000       0.25000000       0.13164128 </v>
    <v>       0.25000000       0.75000000       0.13164128 </v>
    <v>       0.75000000       0.25000000       0.13164128 </v>
    <v>       0.75000000       0.75000000       0.13164128 </v>
    <v>       0.00000000       0.25000000       0.19677891 </v>
    <v>       0.00000000       0.75000000       0.19677891 </v>
    <v>       0.50000000       0.25000000       0.19677891 </v>
    <v>       0.50000000       0.75000000       0.19677891 </v>
    <v>       0.25000000       0.00000000       0.19677891 </v>
    <v>       0.25000000       0.50000000       0.19677891 </v>
    <v>       0.75000000       0.00000000       0.19677891 </v>
    <v>       0.75000000       0.50000000       0.19677891 </v>
    <v>       0.00000000       0.00000000       0.26184662 </v>
    <v>       0.00000000       0.50000000       0.26184662 </v>
    <v>       0.50000000       0.00000000       0.26184662 </v>
    <v>       0.50000000       0.50000000       0.26184662 </v>
    <v>       0.25000000       0.25000000       0.26184662 </v>
    <v>       0.25000000       0.75000000       0.26184662 </v>
    <v>       0.75000000       0.25000000       0.26184662 </v>
    <v>       0.75000000       0.75000000       0.26184662 </v>
    <v>       0.00000000       0.25000000       0.32758887 </v>
    <v>       0.00000000       0.75000000       0.32758887 </v>
    <v>       0.50000000       0.25000000       0.32758887 </v>
    <v>       0.50000000       0.75000000       0.32758887 </v>
    <v>       0.25000000       0.00000000       0.32758887 </v>
    <v>       0.25000000       0.50000000       0.32758887 </v>
    <v>       0.75000000       0.00000000       0.32758887 </v>
    <v>       0.75000000       0.50000000       0.32758887 </v>
    <v>       0.00000000       0.00000000       0.39185763 </v>
    <v>       0.00000000       0.50000000       0.39185763 </v>
    <v>       0.50000000       0.00000000       0.39185763 </v>
    <v>       0.50000000       0.50000000       0.39185763 </v>
    <v>       0.25000000       0.25000000       0.39185763 </v>
    <v>       0.25000000       0.75000000       0.39185763 </v>
    <v>       0.75000000       0.25000000       0.39185763 </v>
    <v>       0.75000000       0.75000000       0.39185763 </v>
    <v>       0.00000000       0.25000000       0.45475490 </v>
    <v>       0.00000000       0.75000000       0.45475490 </v>
    <v>       0.50000000       0.25000000       0.45475490 </v>
    <v>       0.50000000       0.75000000       0.45475490 </v>
    <v>       0.25000000       0.00000000       0.45475490 </v>
    <v>       0.25000000       0.50000000       0.45475490 </v>
    <v>       0.75000000       0.00000000       0.45475490 </v>
    <v>       0.75000000       0.50000000       0.45475490 </v>
    <v>       0.50000000       0.75000000       0.50150658 </v>
    <v>       0.50000000       0.85275482       0.50150658 </v>
   </varray>
  </structure>
  <varray name="forces" >
   <v>       0.00000000      -0.01889449       0.31907277 </v>
   <v>       0.00000000       0.01550131       0.31663708 </v>
   <v>       0.00000000       0.02144553       0.31353802 </v>
   <v>       0.00000000      -0.01695260       0.31616523 </v>
   <v>       0.02105836      -0.00323282       0.31509754 </v>
   <v>      -0.01574368       0.00271251       0.31812211 </v>
   <v>      -0.02105836      -0.00323282       0.31509754 </v>
   <v>       0.01574368       0.00271251       0.31812211 </v>
   <v>       0.00000000      -0.00110748      -0.06375718 </v>
   <v>       0.00000000       0.00143696      -0.06781334 </v>
   <v>       0.00000000      -0.00430089      -0.06610914 </v>
   <v>       0.00000000      -0.01432597      -0.03941533 </v>
   <v>       0.00053231       0.00064675      -0.06995468 </v>
   <v>       0.00681592       0.00850683      -0.06761581 </v>
   <v>      -0.00053231       0.00064675      -0.06995468 </v>
   <v>      -0.00681592       0.00850683      -0.06761581 </v>
   <v>       0.00000000      -0.01486458      -0.05735683 </v>
   <v>       0.00000000       0.02369319      -0.05765340 </v>
   <v>       0.00000000       0.01964498      -0.06437250 </v>
   <v>       0.00000000      -0.00596750      -0.06060935 </v>
   <v>       0.02100905      -0.00841068      -0.05747516 </v>
   <v>      -0.00981817      -0.00287711      -0.06432389 </v>
   <v>      -0.02100905      -0.00841068      -0.05747516 </v>
   <v>       0.00981817      -0.00287711      -0.06432389 </v>
   <v>       0.00000000      -0.00317995       0.02407708 </v>
   <v>       0.00000000       0.00270366       0.07995720 </v>
   <v>       0.00000000      -0.00316273       0.08115219 </v>
   <v>       0.00000000      -0.00042520       0.01704690 </v>
   <v>       0.01668702      -0.01420939       0.02149348 </v>
   <v>       0.01790588       0.01639026       0.03107842 </v>
   <v>      -0.01668702      -0.01420939       0.02149348 </v>
   <v>      -0.01790588       0.01639026       0.03107842 </v>
   <v>       0.00000000       0.01127917      -0.00953169 </v>
   <v>       0.00000000      -0.00648487       0.00705329 </v>
   <v>       0.00000000       0.00004580       0.05156451 </v>
   <v>       0.00000000       0.01682753       0.03168605 </v>
   <v>      -0.00793641      -0.00569581      -0.01187524 </v>
   <v>       0.00925958      -0.00525895       0.03793623 </v>
   <v>       0.00793641      -0.00569581      -0.01187524 </v>
   <v>      -0.00925958      -0.00525895       0.03793623 </v>
   <v>       0.00000000       0.00691828      -0.17455613 </v>
   <v>       0.00000000       0.00147941      -0.23181993 </v>
   <v>       0.00000000       0.02837128      -0.21249972 </v>
   <v>       0.00000000       0.00510133      -0.13906054 </v>
   <v>      -0.02409237       0.00745456      -0.21471758 </v>
   <v>      -0.01673921      -0.02820390      -0.22101596 </v>
   <v>       0.02409237       0.00745456      -0.21471758 </v>
   <v>       0.01673921      -0.02820390      -0.22101596 </v>
   <v>       0.00000000      -0.02681753       0.01488845 </v>
   <v>       0.00000000       0.01306094      -0.00331552 </v>
   <v>       0.00000000       0.09091115      -0.19821302 </v>
   <v>       0.00000000       0.07309688       0.00543686 </v>
   <v>       0.01819037      -0.02775847      -0.00387373 </v>
   <v>      -0.02031353      -0.01184755      -0.11129943 </v>
   <v>      -0.01819037      -0.02775847      -0.00387373 </v>
   <v>       0.02031353      -0.01184755      -0.11129943 </v>
   <v>       0.00000000      -0.00978862      -0.02018164 </v>
   <v>       0.00000000       0.00325344      -0.07405198 </v>
   <v>       0.00000000       0.05344524      -0.04758904 </v>
   <v>       0.00000000      -0.67014743      -6.02370847 </v>
   <v>      -0.22047616       0.19355535      -0.13837411 </v>
   <v>      -0.04143666      -0.08240093      -0.05081046 </v>
   <v>       0.22047616       0.19355535      -0.13837411 </v>
   <v>       0.04143666      -0.08240093      -0.05081046 </v>
   <v>       0.00000000      -3.05259179       5.50595015 </v>
   <v>       0.00000000       3.38205421       1.10260548 </v>
  </varray>
  <varray name="stress" >
   <v>     -45.12472019       0.00000000       0.00000000 </v>
   <v>       0.00000000     -42.20804641       0.33016557 </v>
   <v>       0.00000000       0.33016533     -16.29307838 </v>
  </varray>
  <energy>
   <i name="e_fr_energy">   -260.68240893 </i>
   <i name="e_wo_entrp">   -260.51920073 </i>
   <i name="e_0_energy">   -260.62800620 </i>
  </energy>
  <time name="totalsc"> 1938.31 1955.02</time>
 </calculation>
 <calculation>
  <scstep>
   <time name="dav">   47.47   47.85</time>
   <time name="total">   48.45   48.83</time>
   <energy>
    <i name="alphaZ">   2059.53800561 </i>
    <i name="ewald"> 390160.02422764 </i>
    <i name="hartreedc">-476713.00238489 </i>
    <i name="XCdc">   2859.18395591 </i>
    <i name="pawpsdc">  83815.16011361 </i>
    <i name="pawaedc"> -90709.47637525 </i>
    <i name="eentropy">     -0.16181017 </i>
    <i name="bandstr">   -748.85150077 </i>
    <i name="atom">  89046.24623812 </i>
    <i name="e_fr_energy">   -231.33953018 </i>
    <i name="e_wo_entrp">   -231.17772001 </i>
    <i name="e_0_energy">   -231.28559346 </i>
   </energy>
  </scstep>
  <scstep>
   <time name="dav">   58.36   58.75</time>
   <time name="total">   59.36   59.76</time>
   <energy>
    <i name="e_fr_energy">   -234.41636748 </i>
    <i name="e_wo_entrp">   -234.25510103 </i>
    <i name="e_0_energy">   -234.36261200 </i>
   </energy>
  </scstep>
  <scstep>
   <time name="dav">   49.28   49.72</time>
   <time name="total">   50.25   50.70</time>
   <energy>
    <i name="e_fr_energy">   -234.56404818 </i>
    <i name="e_wo_entrp">   -234.40205897 </i>
    <i name="e_0_energy">   -234.51005177 </i>
   </energy>
  </scstep>
  <scstep>
   <time name="dav">   50.83   51.21</time>
   <time name="total">   51.80   52.19</time>
   <energy>
    <i name="e_fr_energy">   -234.59083712 </i>
    <i name="e_wo_entrp">   -234.43796379 </i>
    <i name="e_0_energy">   -234.53987934 </i>
   </energy>
  </scstep>
  <scstep>
   <time name="dav">   57.24   57.65</time>
   <time name="total">   58.22   58.63</time>
   <energy>
    <i name="e_fr_energy">   -234.59482268 </i>
    <i name="e_wo_entrp">   -234.43472871 </i>
    <i name="e_0_energy">   -234.54145802 </i>
   </energy>
  </scstep>
  <scstep>
   <time name="dav">   64.27   64.73</time>
   <time name="total">   65.24   65.71</time>
   <energy>
    <i name="e_fr_energy">   -234.57261696 </i>
    <i name="e_wo_entrp">   -234.42258769 </i>
    <i name="e_0_energy">   -234.52260720 </i>
   </energy>
  </scstep>
  <scstep>
   <time name="dav">   60.37   60.79</time>
   <time name="total">   61.35   61.77</time>
   <energy>
    <i name="e_fr_energy">   -234.53340889 </i>
    <i name="e_wo_entrp">   -234.37082610 </i>
    <i name="e_0_energy">   -234.47921463 </i>
   </energy>
  </scstep>
  <scstep>
   <time name="dav">   58.42   58.87</time>
   <time name="total">   59.39   59.85</time>
   <energy>
    <i name="e_fr_energy">   -234.53112624 </i>
    <i name="e_wo_entrp">   -234.36651213 </i>
    <i name="e_0_energy">   -234.47625487 </i>
   </energy>
  </scstep>
  <scstep>
   <time name="dav">   49.21   49.59</time>
   <time name="total">   50.17   50.56</time>
   <energy>
    <i name="e_fr_energy">   -234.53374607 </i>
    <i name="e_wo_entrp">   -234.36923892 </i>
    <i name="e_0_energy">   -234.47891035 </i>
   </energy>
  </scstep>
  <scstep>
   <time name="dav">   45.56   45.90</time>
   <time name="total">   46.52   46.87</time>
   <energy>
    <i name="e_fr_energy">   -234.53388358 </i>
    <i name="e_wo_entrp">   -234.36964261 </i>
    <i name="e_0_energy">   -234.47913659 </i>
   </energy>
  </scstep>
  <scstep>
   <time name="dav">   45.40   45.70</time>
   <time name="total">   46.36   46.67</time>
   <energy>
    <i name="e_fr_energy">   -234.53404084 </i>
    <i name="e_wo_entrp">   -234.36990806 </i>
    <i name="e_0_energy">   -234.47932992 </i>
   </energy>
  </scstep>
  <scstep>
   <time name="dav">   43.26   43.54</time>
   <time name="total">   43.40   43.68</time>
   <energy>
    <i name="alphaZ">   2059.53800561 </i>
    <i name="ewald"> 390160.02422764 </i>
    <i name="hartreedc">-476698.01204230 </i>
    <i name="XCdc">   2858.81756874 </i>
    <i name="pawpsdc">  83786.29663771 </i>
    <i name="pawaedc"> -90680.70236022 </i>
    <i name="eentropy">     -0.16407730 </i>
    <i name="bandstr">   -766.57833770 </i>
    <i name="atom">  89046.24623812 </i>
    <i name="e_fr_energy">   -234.53413970 </i>
    <i name="e_wo_entrp">   -234.37006240 </i>
    <i name="e_0_energy">   -234.47944727 </i>
   </energy>
  </scstep>
  <structure>
   <crystal>
    <varray name="basis" >
     <v>       7.26000023       0.00000000       0.00000000 </v>
     <v>       0.00000000       7.26000023       0.00000000 </v>
     <v>       0.00000000       0.00000000      27.70499992 </v>
    </varray>
    <i name="volume">   1460.26414606 </i>
    <varray name="rec_basis" >
     <v>       0.13774104       0.00000000       0.00000000 </v>
     <v>       0.00000000       0.13774104       0.00000000 </v>
     <v>       0.00000000       0.00000000       0.03609457 </v>
    </varray>
   </crystal>
   <varray name="positions" >
    <v>       0.00000000      -0.00012555       0.00055560 </v>
    <v>       0.00000000       0.50010301       0.00055136 </v>
    <v>       0.50000000       0.00014251       0.00054596 </v>
    <v>       0.50000000       0.49988735       0.00055054 </v>
    <v>       0.25013993       0.24997852       0.00054868 </v>
    <v>       0.24989538       0.75001802       0.00055395 </v>
    <v>       0.74986007       0.24997852       0.00054868 </v>
    <v>       0.75010462       0.75001802       0.00055395 </v>
    <v>       0.00000000       0.24999264       0.06540062 </v>
    <v>       0.00000000       0.75000955       0.06539356 </v>
    <v>       0.50000000       0.24997142       0.06539653 </v>
    <v>       0.50000000       0.74990480       0.06544301 </v>
    <v>       0.25000354       0.00000430       0.06538983 </v>
    <v>       0.25004529       0.50005653       0.06539390 </v>
    <v>       0.74999646       0.00000430       0.06538983 </v>
    <v>       0.74995471       0.50005653       0.06539390 </v>
    <v>       0.00000000      -0.00009878       0.13154141 </v>
    <v>       0.00000000       0.50015744       0.13154089 </v>
    <v>       0.50000000       0.00013054       0.13152919 </v>
    <v>       0.50000000       0.49996035       0.13153574 </v>
    <v>       0.25013960       0.24994411       0.13154120 </v>
    <v>       0.24993476       0.74998088       0.13152927 </v>
    <v>       0.74986039       0.24994411       0.13154120 </v>
    <v>       0.75006524       0.74998088       0.13152927 </v>
    <v>       0.00000000       0.24997887       0.19682084 </v>
    <v>       0.00000000       0.75001797       0.19691814 </v>
    <v>       0.50000000       0.24997898       0.19692022 </v>
    <v>       0.50000000       0.74999717       0.19680860 </v>
    <v>       0.25011089      -0.00009442       0.19681634 </v>
    <v>       0.25011898       0.50010891       0.19683303 </v>
    <v>       0.74988911      -0.00009442       0.19681634 </v>
    <v>       0.74988102       0.50010891       0.19683303 </v>
    <v>       0.00000000       0.00007495       0.26183003 </v>
    <v>       0.00000000       0.49995691       0.26185891 </v>
    <v>       0.50000000       0.00000030       0.26193641 </v>
    <v>       0.50000000       0.50011182       0.26190180 </v>
    <v>       0.24994726       0.24996215       0.26182595 </v>
    <v>       0.25006153       0.74996505       0.26191268 </v>
    <v>       0.75005274       0.24996215       0.26182595 </v>
    <v>       0.74993847       0.74996505       0.26191268 </v>
    <v>       0.00000000       0.25004597       0.32728492 </v>
    <v>       0.00000000       0.75000983       0.32718520 </v>
    <v>       0.50000000       0.25018853       0.32721885 </v>
    <v>       0.50000000       0.75003390       0.32734672 </v>
    <v>       0.24983991       0.00004954       0.32721498 </v>
    <v>       0.24988877       0.49981259       0.32720402 </v>
    <v>       0.75016009       0.00004954       0.32721498 </v>
    <v>       0.75011123       0.49981259       0.32720402 </v>
    <v>       0.00000000      -0.00017820       0.39188355 </v>
    <v>       0.00000000       0.50008679       0.39185185 </v>
    <v>       0.50000000       0.00060410       0.39151248 </v>
    <v>       0.50000000       0.50048573       0.39186709 </v>
    <v>       0.25012087       0.24981555       0.39185088 </v>
    <v>       0.24986502       0.74992127       0.39166382 </v>
    <v>       0.74987913       0.24981555       0.39185088 </v>
    <v>       0.75013498       0.74992127       0.39166382 </v>
    <v>       0.00000000       0.24993495       0.45471975 </v>
    <v>       0.00000000       0.75002162       0.45462595 </v>
    <v>       0.50000000       0.25035514       0.45467203 </v>
    <v>       0.50000000       0.74554687       0.44426583 </v>
    <v>       0.24853494       0.00128617       0.45451395 </v>
    <v>       0.24972465       0.49945245       0.45466642 </v>
    <v>       0.75146506       0.00128617       0.45451395 </v>
    <v>       0.75027535       0.49945245       0.45466642 </v>
    <v>       0.50000000       0.72971555       0.51109408 </v>
    <v>       0.50000000       0.87522855       0.50342654 </v>
   </varray>
  </structure>
  <varray name="forces" >
   <v>       0.00000000      -0.00702765       0.25003233 </v>
   <v>       0.00000000       0.00612362       0.25184675 </v>
   <v>       0.00000000       0.01069563       0.24664509 </v>
   <v>       0.00000000      -0.01017218       0.24754119 </v>
   <v>       0.01184598      -0.00159389       0.24497953 </v>
   <v>      -0.00595039       0.00191778       0.25096580 </v>
   <v>      -0.01184598      -0.00159389       0.24497953 </v>
   <v>       0.00595039       0.00191778       0.25096580 </v>
   <v>       0.00000000       0.00011110      -0.00365316 </v>
   <v>       0.00000000       0.00043598      -0.00924111 </v>
   <v>       0.00000000      -0.00242971      -0.00507255 </v>
   <v>       0.00000000      -0.00618061       0.00683181 </v>
   <v>       0.00073496       0.00136365      -0.00880269 </v>
   <v>       0.00283322       0.00270284      -0.00800326 </v>
   <v>      -0.00073496       0.00136365      -0.00880269 </v>
   <v>      -0.00283322       0.00270284      -0.00800326 </v>
   <v>       0.00000000      -0.01210526      -0.03090022 </v>
   <v>       0.00000000       0.01313271      -0.02872321 </v>
   <v>       0.00000000       0.01298686      -0.03211238 </v>
   <v>       0.00000000      -0.01053555      -0.02877202 </v>
   <v>       0.01388488      -0.00166638      -0.03131313 </v>
   <v>      -0.00897174      -0.00003145      -0.03789891 </v>
   <v>      -0.01388488      -0.00166638      -0.03131313 </v>
   <v>       0.00897174      -0.00003145      -0.03789891 </v>
   <v>       0.00000000      -0.00051572       0.00668016 </v>
   <v>       0.00000000       0.00224783       0.04453207 </v>
   <v>       0.00000000      -0.00317901       0.04729318 </v>
   <v>       0.00000000       0.00003373      -0.00475621 </v>
   <v>       0.01487848      -0.01074177       0.00749693 </v>
   <v>       0.01421817       0.01201987       0.00946739 </v>
   <v>      -0.01487848      -0.01074177       0.00749693 </v>
   <v>      -0.01421817       0.01201987       0.00946739 </v>
   <v>       0.00000000       0.01032620      -0.02575209 </v>
   <v>       0.00000000      -0.01083146      -0.01843518 </v>
   <v>       0.00000000      -0.00547730       0.01910281 </v>
   <v>       0.00000000       0.01349183       0.01102156 </v>
   <v>      -0.00937785      -0.00220318      -0.04216315 </v>
   <v>       0.01118136      -0.00167418       0.00115272 </v>
   <v>       0.00937785      -0.00220318      -0.04216315 </v>
   <v>      -0.01118136      -0.00167418       0.00115272 </v>
   <v>       0.00000000      -0.00057243      -0.11466883 </v>
   <v>       0.00000000      -0.00145455      -0.17767239 </v>
   <v>       0.00000000       0.02511959      -0.13768068 </v>
   <v>       0.00000000      -0.00280905      -0.12158994 </v>
   <v>      -0.03406239       0.02129565      -0.15866494 </v>
   <v>      -0.02025426      -0.02938575      -0.15591841 </v>
   <v>       0.03406239       0.02129565      -0.15866494 </v>
   <v>       0.02025426      -0.02938575      -0.15591841 </v>
   <v>       0.00000000      -0.02788956      -0.04825150 </v>
   <v>       0.00000000       0.01682729      -0.03448676 </v>
   <v>       0.00000000       0.47606417      -0.44292536 </v>
   <v>       0.00000000      -0.66837902      -0.58554593 </v>
   <v>       0.01791653       0.00629932      -0.06624663 </v>
   <v>      -0.57926657       0.01506983      -0.53119619 </v>
   <v>      -0.01791653       0.00629932      -0.06624663 </v>
   <v>       0.57926657       0.01506983      -0.53119619 </v>
   <v>       0.00000000       0.01820089      -0.00576218 </v>
   <v>       0.00000000      -0.00580637      -0.09165337 </v>
   <v>       0.00000000      -0.02548741      -0.01048312 </v>
   <v>       0.00000000       0.35617162       2.62838222 </v>
   <v>      -0.00589646       0.06512533      -0.02883989 </v>
   <v>      -0.04098597      -0.06670199      -0.02060637 </v>
   <v>       0.00589646       0.06512533      -0.02883989 </v>
   <v>       0.04098597      -0.06670199      -0.02060637 </v>
   <v>       0.00000000       1.91703656      -0.72730343 </v>
   <v>       0.00000000      -2.10174416       0.07671483 </v>
  </varray>
  <varray name="stress" >
   <v>     -42.77044890       0.00000000       0.00000000 </v>
   <v>       0.00000000     -44.62476465       0.33428346 </v>
   <v>       0.00000000       0.33428341     -24.16798772 </v>
  </varray>
  <energy>
   <i name="e_fr_energy">   -261.18310445 </i>
   <i name="e_wo_entrp">   -261.01902715 </i>
   <i name="e_0_energy">   -261.12841202 </i>
  </energy>
  <time name="totalsc">  738.50  743.78</time>
 </calculation>
 <calculation>
  <scstep>
   <time name="dav">   50.76   51.20</time>
   <time name="total">   51.73   52.17</time>
   <energy>
    <i name="alphaZ">   2059.53800561 </i>
    <i name="ewald"> 389015.88315999 </i>
    <i name="hartreedc">-475552.65369726 </i>
    <i name="XCdc">   2858.87732228 </i>
    <i name="pawpsdc">  83784.10353984 </i>
    <i name="pawaedc"> -90678.57174064 </i>
    <i name="eentropy">     -0.16437353 </i>
    <i name="bandstr">   -767.97695843 </i>
    <i name="atom">  89046.24623812 </i>
    <i name="e_fr_energy">   -234.71850402 </i>
    <i name="e_wo_entrp">   -234.55413049 </i>
    <i name="e_0_energy">   -234.66371285 </i>
   </energy>
  </scstep>
  <scstep>
   <time name="dav">   64.52   64.97</time>
   <time name="total">   65.49   65.95</time>
   <energy>
    <i name="e_fr_energy">   -235.07011278 </i>
    <i name="e_wo_entrp">   -234.90637943 </i>
    <i name="e_0_energy">   -235.01553500 </i>
   </energy>
  </scstep>
  <scstep>
   <time name="dav">   46.89   47.21</time>
   <time name="total">   47.86   48.19</time>
   <energy>
    <i name="e_fr_energy">   -235.08880292 </i>
    <i name="e_wo_entrp">   -234.92300498 </i>
    <i name="e_0_energy">   -235.03353694 </i>
   </energy>
  </scstep>
  <scstep>
   <time name="dav">   51.35   51.75</time>
   <time name="total">   52.32   52.73</time>
   <energy>
    <i name="e_fr_energy">   -235.07187938 </i>
    <i name="e_wo_entrp">   -234.90930248 </i>
    <i name="e_0_energy">   -235.01768708 </i>
   </energy>
  </scstep>
  <scstep>
   <time name="dav">   49.23   49.53</time>
   <time name="total">   50.20   50.51</time>
   <energy>
    <i name="e_fr_energy">   -235.06541262 </i>
    <i name="e_wo_entrp">   -234.90031477 </i>
    <i name="e_0_energy">   -235.01038001 </i>
   </energy>
  </scstep>
  <scstep>
   <time name="dav">   56.21   56.77</time>
   <time name="total">   57.18   57.75</time>
   <energy>
    <i name="e_fr_energy">   -235.07381277 </i>
    <i name="e_wo_entrp">   -234.91178648 </i>
    <i name="e_0_energy">   -235.01980401 </i>
   </energy>
  </scstep>
  <scstep>
   <time name="dav">   53.48   54.21</time>
   <time name="total">   54.45   55.19</time>
   <energy>
    <i name="e_fr_energy">   -235.06305942 </i>
    <i name="e_wo_entrp">   -234.89866805 </i>
    <i name="e_0_energy">   -235.00826230 </i>
   </energy>
  </scstep>
  <scstep>
   <time name="dav">   50.58   50.89</time>
   <time name="total">   51.56   51.88</time>
   <energy>
    <i name="e_fr_energy">   -235.06395406 </i>
    <i name="e_wo_entrp">   -234.90000117 </i>
    <i name="e_0_energy">   -235.00930309 </i>
   </energy>
  </scstep>
  <scstep>
   <time name="dav">   44.69   44.99</time>
   <time name="total">   45.68   45.99</time>
   <energy>
    <i name="e_fr_energy">   -235.06413097 </i>
    <i name="e_wo_entrp">   -234.90018126 </i>
    <i name="e_0_energy">   -235.00948107 </i>
   </energy>
  </scstep>
  <scstep>
   <time name="dav">   31.58   31.81</time>
   <time name="total">   31.72   31.95</time>
   <energy>
    <i name="alphaZ">   2059.53800561 </i>
    <i name="ewald"> 389015.88315999 </i>
    <i name="hartreedc">-475560.18532998 </i>
    <i name="XCdc">   2858.93208085 </i>
    <i name="pawpsdc">  83770.92945552 </i>
    <i name="pawaedc"> -90664.84546351 </i>
    <i name="eentropy">     -0.16408444 </i>
    <i name="bandstr">   -761.39813772 </i>
    <i name="atom">  89046.24623812 </i>
    <i name="e_fr_energy">   -235.06407556 </i>
    <i name="e_wo_entrp">   -234.89999112 </i>
    <i name="e_0_energy">   -235.00938075 </i>
   </energy>
  </scstep>
  <structure>
   <crystal>
    <varray name="basis" >
     <v>       7.26000023       0.00000000       0.00000000 </v>
     <v>       0.00000000       7.26000023       0.00000000 </v>
     <v>       0.00000000       0.00000000      27.70499992 </v>
    </varray>
    <i name="volume">   1460.26414606 </i>
    <varray name="rec_basis" >
     <v>       0.13774104       0.00000000       0.00000000 </v>
     <v>       0.00000000       0.13774104       0.00000000 </v>
     <v>       0.00000000       0.00000000       0.03609457 </v>
    </varray>
   </crystal>
   <varray name="positions" >
    <v>       0.00000000      -0.00006367       0.00028173 </v>
    <v>       0.00000000       0.50005223       0.00027958 </v>
    <v>       0.50000000       0.00007226       0.00027685 </v>
    <v>       0.50000000       0.49994288       0.00027917 </v>
    <v>       0.25007096       0.24998911       0.00027822 </v>
    <v>       0.24994695       0.75000914       0.00028090 </v>
    <v>       0.74992904       0.24998911       0.00027822 </v>
    <v>       0.75005305       0.75000914       0.00028090 </v>
    <v>       0.00000000       0.24999627       0.06545535 </v>
    <v>       0.00000000       0.75000484       0.06545176 </v>
    <v>       0.50000000       0.24998551       0.06545327 </v>
    <v>       0.50000000       0.74995173       0.06547684 </v>
    <v>       0.25000179       0.00000218       0.06544987 </v>
    <v>       0.25002297       0.50002866       0.06545194 </v>
    <v>       0.74999821       0.00000218       0.06544987 </v>
    <v>       0.74997703       0.50002866       0.06545194 </v>
    <v>       0.00000000      -0.00005009       0.13159064 </v>
    <v>       0.00000000       0.50007984       0.13159037 </v>
    <v>       0.50000000       0.00006619       0.13158444 </v>
    <v>       0.50000000       0.49997989       0.13158776 </v>
    <v>       0.25007079       0.24997166       0.13159053 </v>
    <v>       0.24996692       0.74999031       0.13158448 </v>
    <v>       0.74992921       0.24997166       0.13159053 </v>
    <v>       0.75003308       0.74999031       0.13158448 </v>
    <v>       0.00000000       0.24998928       0.19680017 </v>
    <v>       0.00000000       0.75000911       0.19684951 </v>
    <v>       0.50000000       0.24998934       0.19685057 </v>
    <v>       0.50000000       0.74999857       0.19679397 </v>
    <v>       0.25005623      -0.00004788       0.19679789 </v>
    <v>       0.25006033       0.50005523       0.19680636 </v>
    <v>       0.74994377      -0.00004788       0.19679789 </v>
    <v>       0.74993967       0.50005523       0.19680636 </v>
    <v>       0.00000000       0.00003801       0.26183821 </v>
    <v>       0.00000000       0.49997815       0.26185285 </v>
    <v>       0.50000000       0.00000015       0.26189216 </v>
    <v>       0.50000000       0.50005670       0.26187460 </v>
    <v>       0.24997326       0.24998081       0.26183614 </v>
    <v>       0.25003120       0.74998228       0.26188012 </v>
    <v>       0.75002674       0.24998081       0.26183614 </v>
    <v>       0.74996880       0.74998228       0.26188012 </v>
    <v>       0.00000000       0.25002331       0.32743474 </v>
    <v>       0.00000000       0.75000498       0.32738418 </v>
    <v>       0.50000000       0.25009560       0.32740124 </v>
    <v>       0.50000000       0.75001719       0.32746608 </v>
    <v>       0.24991882       0.00002512       0.32739928 </v>
    <v>       0.24994360       0.49990497       0.32739372 </v>
    <v>       0.75008118       0.00002512       0.32739928 </v>
    <v>       0.75005640       0.49990497       0.32739372 </v>
    <v>       0.00000000      -0.00009036       0.39187077 </v>
    <v>       0.00000000       0.50004401       0.39185470 </v>
    <v>       0.50000000       0.00030633       0.39168261 </v>
    <v>       0.50000000       0.50024630       0.39186243 </v>
    <v>       0.25006129       0.24990647       0.39185421 </v>
    <v>       0.24993155       0.74996008       0.39175935 </v>
    <v>       0.74993871       0.24990647       0.39185421 </v>
    <v>       0.75006845       0.74996008       0.39175935 </v>
    <v>       0.00000000       0.24996702       0.45473708 </v>
    <v>       0.00000000       0.75001096       0.45468951 </v>
    <v>       0.50000000       0.25018009       0.45471288 </v>
    <v>       0.50000000       0.74774191       0.44943609 </v>
    <v>       0.24925709       0.00065219       0.45463271 </v>
    <v>       0.24986038       0.49972235       0.45471003 </v>
    <v>       0.75074291       0.00065219       0.45463271 </v>
    <v>       0.75013962       0.49972235       0.45471003 </v>
    <v>       0.50000000       0.73971414       0.50636822 </v>
    <v>       0.50000000       0.86415081       0.50248016 </v>
   </varray>
  </structure>
  <varray name="forces" >
   <v>       0.00000000      -0.01279461       0.28380067 </v>
   <v>       0.00000000       0.01047237       0.28336932 </v>
   <v>       0.00000000       0.01636163       0.27966231 </v>
   <v>       0.00000000      -0.01399557       0.28147159 </v>
   <v>       0.01653630      -0.00252062       0.27926264 </v>
   <v>      -0.01090306       0.00212481       0.28423352 </v>
   <v>      -0.01653630      -0.00252062       0.27926264 </v>
   <v>       0.01090306       0.00212481       0.28423352 </v>
   <v>       0.00000000      -0.00063038      -0.03272925 </v>
   <v>       0.00000000       0.00085318      -0.03722223 </v>
   <v>       0.00000000      -0.00350534      -0.03421571 </v>
   <v>       0.00000000      -0.01074653      -0.01549228 </v>
   <v>       0.00087896       0.00080545      -0.03840253 </v>
   <v>       0.00526189       0.00573659      -0.03683454 </v>
   <v>      -0.00087896       0.00080545      -0.03840253 </v>
   <v>      -0.00526189       0.00573659      -0.03683454 </v>
   <v>       0.00000000      -0.01349374      -0.04484268 </v>
   <v>       0.00000000       0.01839434      -0.04357415 </v>
   <v>       0.00000000       0.01667534      -0.04905355 </v>
   <v>       0.00000000      -0.00865565      -0.04516319 </v>
   <v>       0.01793542      -0.00529213      -0.04485274 </v>
   <v>      -0.00919770      -0.00166602      -0.05135353 </v>
   <v>      -0.01793542      -0.00529213      -0.04485274 </v>
   <v>       0.00919770      -0.00166602      -0.05135353 </v>
   <v>       0.00000000      -0.00196880       0.01457882 </v>
   <v>       0.00000000       0.00259094       0.06251268 </v>
   <v>       0.00000000      -0.00313432       0.06463666 </v>
   <v>       0.00000000      -0.00052773       0.00545650 </v>
   <v>       0.01621302      -0.01283757       0.01329467 </v>
   <v>       0.01678098       0.01434163       0.01946765 </v>
   <v>      -0.01621302      -0.01283757       0.01329467 </v>
   <v>      -0.01678098       0.01434163       0.01946765 </v>
   <v>       0.00000000       0.01095223      -0.01901540 </v>
   <v>       0.00000000      -0.00904307      -0.00659568 </v>
   <v>       0.00000000      -0.00278697       0.03596851 </v>
   <v>       0.00000000       0.01556572       0.02117428 </v>
   <v>      -0.00869749      -0.00407850      -0.02811640 </v>
   <v>       0.01071898      -0.00379921       0.02032141 </v>
   <v>       0.00869749      -0.00407850      -0.02811640 </v>
   <v>      -0.01071898      -0.00379921       0.02032141 </v>
   <v>       0.00000000       0.00296467      -0.14457168 </v>
   <v>       0.00000000      -0.00017573      -0.20368274 </v>
   <v>       0.00000000       0.02792069      -0.17449948 </v>
   <v>       0.00000000       0.00056146      -0.13649366 </v>
   <v>      -0.02861039       0.01361060      -0.18806514 </v>
   <v>      -0.01709542      -0.02856619      -0.18858372 </v>
   <v>       0.02861039       0.01361060      -0.18806514 </v>
   <v>       0.01709542      -0.02856619      -0.18858372 </v>
   <v>       0.00000000      -0.02798970      -0.02017882 </v>
   <v>       0.00000000       0.01538898      -0.02048265 </v>
   <v>       0.00000000       0.24797288      -0.30590066 </v>
   <v>       0.00000000      -0.21295072      -0.24034632 </v>
   <v>       0.01916002      -0.01018328      -0.03738950 </v>
   <v>      -0.24292049      -0.00142010      -0.29352743 </v>
   <v>      -0.01916002      -0.01018328      -0.03738950 </v>
   <v>       0.24292049      -0.00142010      -0.29352743 </v>
   <v>       0.00000000       0.00513675      -0.00955584 </v>
   <v>       0.00000000      -0.00128418      -0.08247234 </v>
   <v>       0.00000000       0.01590050      -0.03344181 </v>
   <v>       0.00000000       0.08134252       0.48069042 </v>
   <v>      -0.11765150       0.13320240      -0.09106604 </v>
   <v>      -0.04652009      -0.08012856      -0.04236928 </v>
   <v>       0.11765150       0.13320240      -0.09106604 </v>
   <v>       0.04652009      -0.08012856      -0.04236928 </v>
   <v>       0.00000000       0.55586648       0.67160317 </v>
   <v>       0.00000000      -0.75989622       0.06256714 </v>
  </varray>
  <varray name="stress" >
   <v>     -43.74719623       0.00000000       0.00000000 </v>
   <v>       0.00000000     -44.12927495      -0.24392943 </v>
   <v>       0.00000000      -0.24392929     -22.49388559 </v>
  </varray>
  <energy>
   <i name="e_fr_energy">   -261.57226304 </i>
   <i name="e_wo_entrp">   -261.40817860 </i>
   <i name="e_0_energy">   -261.51756823 </i>
  </energy>
  <time name="totalsc">  605.49  610.24</time>
 </calculation>
 <calculation>
  <scstep>
   <time name="dav">   47.64   48.66</time>
   <time name="total">   48.62   49.64</time>
   <energy>
    <i name="alphaZ">   2059.53800561 </i>
    <i name="ewald"> 388989.65023197 </i>
    <i name="hartreedc">-475534.46413292 </i>
    <i name="XCdc">   2858.93438647 </i>
    <i name="pawpsdc">  83770.62519575 </i>
    <i name="pawaedc"> -90664.52715053 </i>
    <i name="eentropy">     -0.16414935 </i>
    <i name="bandstr">   -760.90406872 </i>
    <i name="atom">  89046.24623812 </i>
    <i name="e_fr_energy">   -235.06544360 </i>
[...]
       <r>    12.9401     0.0000   456.0000 </r>
       <r>    13.0163     0.0000   456.0000 </r>
       <r>    13.0926     0.0000   456.0000 </r>
       <r>    13.1689     0.0000   456.0000 </r>
       <r>    13.2451     0.0000   456.0000 </r>
       <r>    13.3214     0.0000   456.0000 </r>
       <r>    13.3976     0.0000   456.0000 </r>
      </set>
      <set comment="spin 2">
       <r>    -9.4792     0.0000     0.0000 </r>
       <r>    -9.4030     0.0000     0.0000 </r>
       <r>    -9.3267     0.0000     0.0000 </r>
       <r>    -9.2505     0.0000     0.0000 </r>
       <r>    -9.1742     0.0000     0.0000 </r>
       <r>    -9.0980    -0.0000    -0.0000 </r>
       <r>    -9.0217    -0.0000    -0.0000 </r>
       <r>    -8.9454    -0.0000    -0.0000 </r>
       <r>    -8.8692    -0.0000    -0.0000 </r>
       <r>    -8.7929    -0.0000    -0.0000 </r>
       <r>    -8.7167    -0.0000    -0.0000 </r>
       <r>    -8.6404    -0.0000    -0.0000 </r>
       <r>    -8.5642    -0.0000    -0.0000 </r>
       <r>    -8.4879    -0.0000    -0.0000 </r>
       <r>    -8.4117    -0.0000    -0.0000 </r>
       <r>    -8.3354    -0.0000    -0.0000 </r>
       <r>    -8.2591    -0.0000    -0.0000 </r>
       <r>    -8.1829    -0.0000    -0.0000 </r>
       <r>    -8.1066    -0.0001    -0.0000 </r>
       <r>    -8.0304    -0.0004    -0.0000 </r>
       <r>    -7.9541    -0.0024    -0.0002 </r>
       <r>    -7.8779    -0.0090    -0.0009 </r>
       <r>    -7.8016    -0.0210    -0.0025 </r>
       <r>    -7.7253    -0.0199    -0.0040 </r>
       <r>    -7.6491     0.0432    -0.0007 </r>
       <r>    -7.5728     0.1920     0.0139 </r>
       <r>    -7.4966     0.3352     0.0395 </r>
       <r>    -7.4203     0.3525     0.0663 </r>
       <r>    -7.3441     0.3650     0.0942 </r>
       <r>    -7.2678     0.6929     0.1470 </r>
       <r>    -7.1916     1.3147     0.2473 </r>
       <r>    -7.1153     1.7201     0.3784 </r>
       <r>    -7.0390     1.7359     0.5108 </r>
       <r>    -6.9628     2.0499     0.6671 </r>
       <r>    -6.8865     3.2395     0.9142 </r>
       <r>    -6.8103     4.6533     1.2690 </r>
       <r>    -6.7340     5.0501     1.6541 </r>
       <r>    -6.6578     4.1807     1.9729 </r>
       <r>    -6.5815     2.9436     2.1974 </r>
       <r>    -6.5052     2.0598     2.3544 </r>
       <r>    -6.4290     1.5707     2.4742 </r>
       <r>    -6.3527     1.6086     2.5969 </r>
       <r>    -6.2765     2.3593     2.7768 </r>
       <r>    -6.2002     3.1737     3.0188 </r>
       <r>    -6.1240     3.1212     3.2568 </r>
       <r>    -6.0477     2.5207     3.4490 </r>
       <r>    -5.9715     2.6059     3.6477 </r>
       <r>    -5.8952     3.6417     3.9254 </r>
       <r>    -5.8189     4.5927     4.2757 </r>
       <r>    -5.7427     4.6465     4.6300 </r>
       <r>    -5.6664     3.9969     4.9348 </r>
       <r>    -5.5902     3.3489     5.1902 </r>
       <r>    -5.5139     3.4337     5.4520 </r>
       <r>    -5.4377     4.3413     5.7830 </r>
       <r>    -5.3614     4.9515     6.1606 </r>
       <r>    -5.2851     4.0852     6.4722 </r>
       <r>    -5.2089     2.2477     6.6436 </r>
       <r>    -5.1326     1.1001     6.7274 </r>
       <r>    -5.0564     1.3881     6.8333 </r>
       <r>    -4.9801     2.3822     7.0150 </r>
       <r>    -4.9039     3.2343     7.2616 </r>
       <r>    -4.8276     4.1219     7.5759 </r>
       <r>    -4.7514     5.7746     8.0163 </r>
       <r>    -4.6751     8.0889     8.6331 </r>
       <r>    -4.5988     9.7714     9.3782 </r>
       <r>    -4.5226     9.6649    10.1152 </r>
       <r>    -4.4463     7.8882    10.7168 </r>
       <r>    -4.3701     5.4678    11.1337 </r>
       <r>    -4.2938     3.5277    11.4027 </r>
       <r>    -4.2176     2.9066    11.6244 </r>
       <r>    -4.1413     3.7583    11.9110 </r>
       <r>    -4.0650     5.2197    12.3090 </r>
       <r>    -3.9888     6.2871    12.7884 </r>
       <r>    -3.9125     7.0976    13.3297 </r>
       <r>    -3.8363     8.2369    13.9578 </r>
       <r>    -3.7600     9.5500    14.6860 </r>
       <r>    -3.6838    10.8788    15.5156 </r>
       <r>    -3.6075    12.4085    16.4618 </r>
       <r>    -3.5313    13.6347    17.5016 </r>
       <r>    -3.4550    13.7267    18.5483 </r>
       <r>    -3.3787    12.7120    19.5177 </r>
       <r>    -3.3025    11.4087    20.3877 </r>
       <r>    -3.2262    11.3312    21.2517 </r>
       <r>    -3.1500    14.7670    22.3778 </r>
       <r>    -3.0737    22.8754    24.1222 </r>
       <r>    -2.9975    32.7277    26.6179 </r>
       <r>    -2.9212    38.2591    29.5354 </r>
       <r>    -2.8449    36.6555    32.3306 </r>
       <r>    -2.7687    32.5112    34.8098 </r>
       <r>    -2.6924    32.6015    37.2958 </r>
       <r>    -2.6162    37.9063    40.1864 </r>
       <r>    -2.5399    44.5613    43.5845 </r>
       <r>    -2.4637    51.4832    47.5104 </r>
       <r>    -2.3874    61.6414    52.2110 </r>
       <r>    -2.3112    74.2722    57.8747 </r>
       <r>    -2.2349    81.1469    64.0626 </r>
       <r>    -2.1586    75.5337    69.8226 </r>
       <r>    -2.0824    62.1830    74.5644 </r>
       <r>    -2.0061    52.9667    78.6035 </r>
       <r>    -1.9299    54.1295    82.7312 </r>
       <r>    -1.8536    62.1934    87.4738 </r>
       <r>    -1.7774    70.1876    92.8260 </r>
       <r>    -1.7011    73.9688    98.4666 </r>
       <r>    -1.6248    74.1791   104.1232 </r>
       <r>    -1.5486    74.8959   109.8345 </r>
       <r>    -1.4723    79.9869   115.9340 </r>
       <r>    -1.3961    89.5971   122.7664 </r>
       <r>    -1.3198    99.8168   130.3780 </r>
       <r>    -1.2436   106.4666   138.4968 </r>
       <r>    -1.1673   109.5405   146.8499 </r>
       <r>    -1.0911   111.5478   155.3561 </r>
       <r>    -1.0148   111.8391   163.8845 </r>
       <r>    -0.9385   107.9304   172.1149 </r>
       <r>    -0.8623   101.2368   179.8348 </r>
       <r>    -0.7860    95.5534   187.1214 </r>
       <r>    -0.7098    93.2176   194.2298 </r>
       <r>    -0.6335    96.1982   201.5655 </r>
       <r>    -0.5573   104.6720   209.5474 </r>
       <r>    -0.4810   113.5183   218.2039 </r>
       <r>    -0.4047   116.8217   227.1123 </r>
       <r>    -0.3285   115.1795   235.8954 </r>
       <r>    -0.2522   113.4892   244.5497 </r>
       <r>    -0.1760   113.7538   253.2241 </r>
       <r>    -0.0997   115.1259   262.0032 </r>
       <r>    -0.0235   119.5026   271.1160 </r>
       <r>     0.0528   131.2990   281.1284 </r>
       <r>     0.1290   149.0183   292.4920 </r>
       <r>     0.2053   160.9138   304.7626 </r>
       <r>     0.2816   153.6212   316.4772 </r>
       <r>     0.3578   124.2500   325.9521 </r>
       <r>     0.4341    83.3058   332.3046 </r>
       <r>     0.5103    46.9314   335.8835 </r>
       <r>     0.5866    24.9193   337.7837 </r>
       <r>     0.6628    15.8095   338.9893 </r>
       <r>     0.7391    13.3225   340.0052 </r>
       <r>     0.8154    13.3303   341.0217 </r>
       <r>     0.8916    14.0436   342.0926 </r>
       <r>     0.9679    14.6818   343.2122 </r>
       <r>     1.0441    15.2751   344.3771 </r>
       <r>     1.1204    15.4295   345.5536 </r>
       <r>     1.1966    13.9141   346.6147 </r>
       <r>     1.2729    10.4994   347.4153 </r>
       <r>     1.3491     6.7014   347.9264 </r>
       <r>     1.4254     4.0796   348.2374 </r>
       <r>     1.5017     2.9115   348.4595 </r>
       <r>     1.5779     2.8725   348.6785 </r>
       <r>     1.6542     4.2382   349.0017 </r>
       <r>     1.7304     7.7524   349.5929 </r>
       <r>     1.8067    13.2955   350.6067 </r>
       <r>     1.8829    18.9549   352.0522 </r>
       <r>     1.9592    21.6867   353.7059 </r>
       <r>     2.0354    19.4900   355.1922 </r>
       <r>     2.1117    13.3846   356.2128 </r>
       <r>     2.1880     6.9138   356.7400 </r>
       <r>     2.2642     3.3638   356.9965 </r>
       <r>     2.3405     3.3908   357.2551 </r>
       <r>     2.4167     5.1594   357.6485 </r>
       <r>     2.4930     6.7216   358.1611 </r>
       <r>     2.5692     7.8290   358.7581 </r>
       <r>     2.6455     9.1605   359.4567 </r>
       <r>     2.7218    10.8594   360.2848 </r>
       <r>     2.7980    12.1159   361.2087 </r>
       <r>     2.8743    11.5512   362.0895 </r>
       <r>     2.9505     8.9545   362.7724 </r>
       <r>     3.0268     6.7517   363.2872 </r>
       <r>     3.1030     7.7839   363.8808 </r>
       <r>     3.1793    11.6138   364.7664 </r>
       <r>     3.2555    14.7904   365.8943 </r>
       <r>     3.3318    14.6528   367.0116 </r>
       <r>     3.4081    11.6523   367.9002 </r>
       <r>     3.4843     7.9624   368.5074 </r>
       <r>     3.5606     5.1353   368.8990 </r>
       <r>     3.6368     4.0171   369.2053 </r>
       <r>     3.7131     5.3032   369.6097 </r>
       <r>     3.7893     8.2323   370.2375 </r>
       <r>     3.8656    10.2456   371.0188 </r>
       <r>     3.9419     9.6583   371.7553 </r>
       <r>     4.0181     7.4351   372.3223 </r>
       <r>     4.0944     5.7991   372.7645 </r>
       <r>     4.1706     5.9805   373.2205 </r>
       <r>     4.2469     7.1098   373.7627 </r>
       <r>     4.3231     7.4407   374.3301 </r>
       <r>     4.3994     6.7432   374.8443 </r>
       <r>     4.4756     6.1696   375.3148 </r>
       <r>     4.5519     6.3770   375.8011 </r>
       <r>     4.6282     7.4421   376.3686 </r>
       <r>     4.7044     9.2946   377.0773 </r>
       <r>     4.7807    10.9783   377.9145 </r>
       <r>     4.8569    10.9578   378.7501 </r>
       <r>     4.9332     9.1014   379.4441 </r>
       <r>     5.0094     7.3262   380.0028 </r>
       <r>     5.0857     7.3781   380.5654 </r>
       <r>     5.1620     8.6601   381.2258 </r>
       <r>     5.2382     9.2212   381.9290 </r>
       <r>     5.3145     8.4457   382.5730 </r>
       <r>     5.3907     7.9198   383.1770 </r>
       <r>     5.4670     9.3305   383.8885 </r>
       <r>     5.5432    11.6374   384.7759 </r>
       <r>     5.6195    11.6247   385.6624 </r>
       <r>     5.6957     8.1785   386.2860 </r>
       <r>     5.7720     4.3838   386.6203 </r>
       <r>     5.8483     4.0670   386.9304 </r>
       <r>     5.9245     7.4311   387.4971 </r>
       <r>     6.0008    11.1028   388.3438 </r>
       <r>     6.0770    12.0029   389.2591 </r>
       <r>     6.1533    10.2308   390.0392 </r>
       <r>     6.2295     8.2035   390.6648 </r>
       <r>     6.3058     8.2105   391.2909 </r>
       <r>     6.3821    10.8287   392.1167 </r>
       <r>     6.4583    14.4644   393.2197 </r>
       <r>     6.5346    16.5194   394.4794 </r>
       <r>     6.6108    15.7668   395.6817 </r>
       <r>     6.6871    13.3971   396.7033 </r>
       <r>     6.7633    11.6420   397.5911 </r>
       <r>     6.8396    11.5744   398.4737 </r>
       <r>     6.9158    12.1145   399.3975 </r>
       <r>     6.9921    11.4972   400.2742 </r>
       <r>     7.0684     9.6456   401.0098 </r>
       <r>     7.1446     8.0855   401.6263 </r>
       <r>     7.2209     7.8757   402.2269 </r>
       <r>     7.2971     8.7268   402.8924 </r>
       <r>     7.3734     9.7530   403.6361 </r>
       <r>     7.4496    10.4660   404.4342 </r>
       <r>     7.5259    11.1372   405.2835 </r>
       <r>     7.6022    12.2354   406.2165 </r>
       <r>     7.6784    13.7136   407.2622 </r>
       <r>     7.7547    15.1587   408.4182 </r>
       <r>     7.8309    16.4261   409.6708 </r>
       <r>     7.9072    17.3879   410.9967 </r>
       <r>     7.9834    17.0428   412.2963 </r>
       <r>     8.0597    14.2399   413.3822 </r>
       <r>     8.1359     9.7527   414.1259 </r>
       <r>     8.2122     6.6319   414.6317 </r>
       <r>     8.2885     7.7601   415.2234 </r>
       <r>     8.3647    12.5670   416.1817 </r>
       <r>     8.4410    16.6668   417.4527 </r>
       <r>     8.5172    16.2986   418.6955 </r>
       <r>     8.5935    12.6261   419.6584 </r>
       <r>     8.6697     9.6693   420.3957 </r>
       <r>     8.7460     9.1902   421.0965 </r>
       <r>     8.8223    10.2228   421.8761 </r>
       <r>     8.8985    12.0445   422.7945 </r>
       <r>     8.9748    14.6501   423.9117 </r>
       <r>     9.0510    17.2275   425.2254 </r>
       <r>     9.1273    18.3543   426.6250 </r>
       <r>     9.2035    17.6666   427.9722 </r>
       <r>     9.2798    16.2373   429.2104 </r>
       <r>     9.3560    15.1461   430.3654 </r>
       <r>     9.4323    14.5683   431.4763 </r>
       <r>     9.5086    14.3130   432.5678 </r>
       <r>     9.5848    14.1221   433.6447 </r>
       <r>     9.6611    13.5006   434.6742 </r>
       <r>     9.7373    12.3882   435.6189 </r>
       <r>     9.8136    11.6318   436.5059 </r>
       <r>     9.8898    11.8367   437.4085 </r>
       <r>     9.9661    12.3773   438.3523 </r>
       <r>    10.0424    12.2474   439.2863 </r>
       <r>    10.1186    11.5146   440.1643 </r>
       <r>    10.1949    11.5777   441.0472 </r>
       <r>    10.2711    13.9071   442.1077 </r>
       <r>    10.3474    18.3536   443.5073 </r>
       <r>    10.4236    22.5371   445.2259 </r>
       <r>    10.4999    23.3308   447.0050 </r>
       <r>    10.5761    19.6776   448.5055 </r>
       <r>    10.6524    13.8144   449.5590 </r>
       <r>    10.7287     9.1195   450.2544 </r>
       <r>    10.8049     7.2315   450.8058 </r>
       <r>    10.8812     7.8736   451.4062 </r>
       <r>    10.9574    10.0538   452.1729 </r>
       <r>    11.0337    12.0155   453.0892 </r>
       <r>    11.1099    11.6628   453.9785 </r>
       <r>    11.1862     8.8069   454.6501 </r>
       <r>    11.2625     5.6998   455.0848 </r>
       <r>    11.3387     4.2084   455.4057 </r>
       <r>    11.4150     3.7603   455.6924 </r>
       <r>    11.4912     2.8711   455.9114 </r>
       <r>    11.5675     1.3896   456.0173 </r>
       <r>    11.6437     0.2221   456.0343 </r>
       <r>    11.7200    -0.1946   456.0194 </r>
       <r>    11.7962    -0.1667   456.0067 </r>
       <r>    11.8725    -0.0672   456.0016 </r>
       <r>    11.9488    -0.0173   456.0003 </r>
       <r>    12.0250    -0.0031   456.0000 </r>
       <r>    12.1013    -0.0004   456.0000 </r>
       <r>    12.1775    -0.0000   456.0000 </r>
       <r>    12.2538    -0.0000   456.0000 </r>
       <r>    12.3300    -0.0000   456.0000 </r>
       <r>    12.4063    -0.0000   456.0000 </r>
       <r>    12.4826    -0.0000   456.0000 </r>
       <r>    12.5588    -0.0000   456.0000 </r>
       <r>    12.6351    -0.0000   456.0000 </r>
       <r>    12.7113     0.0000   456.0000 </r>
       <r>    12.7876     0.0000   456.0000 </r>
       <r>    12.8638     0.0000   456.0000 </r>
       <r>    12.9401     0.0000   456.0000 </r>
       <r>    13.0163     0.0000   456.0000 </r>
       <r>    13.0926     0.0000   456.0000 </r>
       <r>    13.1689     0.0000   456.0000 </r>
       <r>    13.2451     0.0000   456.0000 </r>
       <r>    13.3214     0.0000   456.0000 </r>
       <r>    13.3976     0.0000   456.0000 </r>
      </set>
     </set>
    </array>
   </total>
  </dos>
 </calculation>
 <structure name="finalpos" >
  <crystal>
   <varray name="basis" >
    <v>       7.26000023       0.00000000       0.00000000 </v>
    <v>       0.00000000       7.26000023       0.00000000 </v>
    <v>       0.00000000       0.00000000      27.70499992 </v>
   </varray>
   <i name="volume">   1460.26414606 </i>
   <varray name="rec_basis" >
    <v>       0.13774104       0.00000000       0.00000000 </v>
    <v>       0.00000000       0.13774104       0.00000000 </v>
    <v>       0.00000000       0.00000000       0.03609457 </v>
   </varray>
  </crystal>
  <varray name="positions" >
   <v>       0.00000000       0.00041938       0.00805929 </v>
   <v>       0.00000000       0.50077661       0.00806127 </v>
   <v>       0.50000000       0.00073649       0.00801278 </v>
   <v>       0.50000000       0.50047644       0.00802138 </v>
   <v>       0.25024885       0.25058601       0.00802839 </v>
   <v>       0.24989701       0.75061447       0.00802934 </v>
   <v>       0.74975115       0.25058601       0.00802839 </v>
   <v>       0.75010299       0.75061447       0.00802934 </v>
   <v>       0.00000000       0.25063248       0.07047576 </v>
   <v>       0.00000000       0.75064615       0.07035494 </v>
   <v>       0.50000000       0.25061723       0.07037506 </v>
   <v>       0.50000000       0.75055968       0.07056231 </v>
   <v>       0.25006463       0.00058163       0.07039253 </v>
   <v>       0.25009466       0.50066623       0.07040192 </v>
   <v>       0.74993537       0.00058163       0.07039253 </v>
   <v>       0.74990534       0.50066623       0.07040192 </v>
   <v>       0.00000000       0.00041564       0.13413422 </v>
   <v>       0.00000000       0.50104736       0.13415545 </v>
   <v>       0.50000000       0.00095149       0.13409195 </v>
   <v>       0.50000000       0.50041797       0.13412513 </v>
   <v>       0.25031062       0.25065333       0.13414662 </v>
   <v>       0.24977798       0.75067001       0.13407147 </v>
   <v>       0.74968938       0.25065333       0.13414662 </v>
   <v>       0.75022202       0.75067001       0.13407147 </v>
   <v>       0.00000000       0.25071302       0.19681045 </v>
   <v>       0.00000000       0.75081959       0.19730444 </v>
   <v>       0.50000000       0.25067818       0.19732990 </v>
   <v>       0.50000000       0.75081366       0.19697625 </v>
   <v>       0.25044013       0.00033413       0.19700501 </v>
   <v>       0.25040626       0.50120948       0.19700968 </v>
   <v>       0.74955987       0.00033413       0.19700501 </v>
   <v>       0.74959374       0.50120948       0.19700968 </v>
   <v>       0.00000000       0.00119972       0.25956370 </v>
   <v>       0.00000000       0.50052281       0.25958017 </v>
   <v>       0.50000000       0.00082708       0.25992001 </v>
   <v>       0.50000000       0.50112082       0.25983828 </v>
   <v>       0.24971284       0.25092123       0.25952583 </v>
   <v>       0.25017961       0.75085995       0.25983761 </v>
   <v>       0.75028716       0.25092123       0.25952583 </v>
   <v>       0.74982039       0.75085995       0.25983761 </v>
   <v>       0.00000000       0.25113216       0.32267669 </v>
   <v>       0.00000000       0.75089761       0.32267128 </v>
   <v>       0.50000000       0.25146310       0.32280939 </v>
   <v>       0.50000000       0.75099292       0.32287919 </v>
   <v>       0.24999361       0.00110137       0.32255759 </v>
   <v>       0.25008955       0.50101171       0.32261964 </v>
   <v>       0.75000639       0.00110137       0.32255759 </v>
   <v>       0.74991045       0.50101171       0.32261964 </v>
   <v>       0.00000000       0.00089686       0.38598549 </v>
   <v>       0.00000000       0.50150994       0.38614093 </v>
   <v>       0.50000000       0.00011190       0.38667448 </v>
   <v>       0.50000000       0.50304955       0.38695757 </v>
   <v>       0.25040322       0.25143163       0.38602561 </v>
   <v>       0.25143899       0.75116381       0.38667072 </v>
   <v>       0.74959678       0.25143163       0.38602561 </v>
   <v>       0.74856101       0.75116381       0.38667072 </v>
   <v>       0.00000000       0.25161754       0.44841348 </v>
   <v>       0.00000000       0.75142968       0.44826345 </v>
   <v>       0.50000000       0.25147529       0.44866429 </v>
   <v>       0.50000000       0.75140995       0.45111253 </v>
   <v>       0.24772538       0.00420500       0.44823333 </v>
   <v>       0.24842761       0.49918984       0.44858196 </v>
   <v>       0.75227462       0.00420500       0.44823333 </v>
   <v>       0.75157239       0.49918984       0.44858196 </v>
   <v>       0.50000000       0.71542736       0.51403970 </v>
   <v>       0.50000000       0.82654949       0.51153623 </v>
  </varray>
 </structure>
</modeling>
