unknown system                          
           1
     7.260000    0.000000    0.000000
     0.000000    7.260000    0.000000
     0.000000    0.000000   27.705000
   Cu   H 
    64     2
Direct configuration=     1
   0.00000000  0.00000000  0.00000000
   0.00000000  0.50000000  0.00000000
   0.50000000  0.00000000  0.00000000
   0.50000000  0.50000000  0.00000000
   0.25000000  0.25000000  0.00000000
   0.25000000  0.75000000  0.00000000
   0.75000000  0.25000000  0.00000000
   0.75000000  0.75000000  0.00000000
   0.00000000  0.25000000  0.06551164
   0.00000000  0.75000000  0.06551164
   0.50000000  0.25000000  0.06551164
   0.50000000  0.75000000  0.06551164
   0.25000000  0.00000000  0.06551164
   0.25000000  0.50000000  0.06551164
   0.75000000  0.00000000  0.06551164
   0.75000000  0.50000000  0.06551164
   0.00000000  0.00000000  0.13164128
   0.00000000  0.50000000  0.13164128
   0.50000000  0.00000000  0.13164128
   0.50000000  0.50000000  0.13164128
   0.25000000  0.25000000  0.13164128
   0.25000000  0.75000000  0.13164128
   0.75000000  0.25000000  0.13164128
   0.75000000  0.75000000  0.13164128
   0.00000000  0.25000000  0.19677891
   0.00000000  0.75000000  0.19677891
   0.50000000  0.25000000  0.19677891
   0.50000000  0.75000000  0.19677891
   0.25000000  0.00000000  0.19677891
   0.25000000  0.50000000  0.19677891
   0.75000000  0.00000000  0.19677891
   0.75000000  0.50000000  0.19677891
   0.00000000  0.00000000  0.26184662
   0.00000000  0.50000000  0.26184662
   0.50000000  0.00000000  0.26184662
   0.50000000  0.50000000  0.26184662
   0.25000000  0.25000000  0.26184662
   0.25000000  0.75000000  0.26184662
   0.75000000  0.25000000  0.26184662
   0.75000000  0.75000000  0.26184662
   0.00000000  0.25000000  0.32758887
   0.00000000  0.75000000  0.32758887
   0.50000000  0.25000000  0.32758887
   0.50000000  0.75000000  0.32758887
   0.25000000  0.00000000  0.32758887
   0.25000000  0.50000000  0.32758887
   0.75000000  0.00000000  0.32758887
   0.75000000  0.50000000  0.32758887
   0.00000000  0.00000000  0.39185763
   0.00000000  0.50000000  0.39185763
   0.50000000  0.00000000  0.39185763
   0.50000000  0.50000000  0.39185763
   0.25000000  0.25000000  0.39185763
   0.25000000  0.75000000  0.39185763
   0.75000000  0.25000000  0.39185763
   0.75000000  0.75000000  0.39185763
   0.00000000  0.25000000  0.45475490
   0.00000000  0.75000000  0.45475490
   0.50000000  0.25000000  0.45475490
   0.50000000  0.75000000  0.45475490
   0.25000000  0.00000000  0.45475490
   0.25000000  0.50000000  0.45475490
   0.75000000  0.00000000  0.45475490
   0.75000000  0.50000000  0.45475490
   0.50000000  0.75000000  0.50150658
   0.50000000  0.85275482  0.50150658
Direct configuration=     2
   0.00000000 -0.00012555  0.00055560
   0.00000000  0.50010301  0.00055136
   0.50000000  0.00014251  0.00054596
   0.50000000  0.49988735  0.00055054
   0.25013993  0.24997852  0.00054868
   0.24989538  0.75001802  0.00055395
   0.74986007  0.24997852  0.00054868
   0.75010462  0.75001802  0.00055395
   0.00000000  0.24999264  0.06540062
   0.00000000  0.75000955  0.06539356
   0.50000000  0.24997142  0.06539653
   0.50000000  0.74990480  0.06544301
   0.25000354  0.00000430  0.06538983
   0.25004529  0.50005653  0.06539390
   0.74999646  0.00000430  0.06538983
   0.74995471  0.50005653  0.06539390
   0.00000000 -0.00009878  0.13154141
   0.00000000  0.50015744  0.13154089
   0.50000000  0.00013054  0.13152919
   0.50000000  0.49996035  0.13153574
   0.25013960  0.24994411  0.13154120
   0.24993476  0.74998088  0.13152927
   0.74986039  0.24994411  0.13154120
   0.75006524  0.74998088  0.13152927
   0.00000000  0.24997887  0.19682084
   0.00000000  0.75001797  0.19691814
   0.50000000  0.24997898  0.19692022
   0.50000000  0.74999717  0.19680860
   0.25011089 -0.00009442  0.19681634
   0.25011898  0.50010891  0.19683303
   0.74988911 -0.00009442  0.19681634
   0.74988102  0.50010891  0.19683303
   0.00000000  0.00007495  0.26183003
   0.00000000  0.49995691  0.26185891
   0.50000000  0.00000030  0.26193641
   0.50000000  0.50011182  0.26190180
   0.24994726  0.24996215  0.26182595
   0.25006153  0.74996505  0.26191268
   0.75005274  0.24996215  0.26182595
   0.74993847  0.74996505  0.26191268
   0.00000000  0.25004597  0.32728492
   0.00000000  0.75000983  0.32718520
   0.50000000  0.25018853  0.32721885
   0.50000000  0.75003390  0.32734672
   0.24983991  0.00004954  0.32721498
   0.24988877  0.49981259  0.32720402
   0.75016009  0.00004954  0.32721498
   0.75011123  0.49981259  0.32720402
   0.00000000 -0.00017820  0.39188355
   0.00000000  0.50008679  0.39185185
   0.50000000  0.00060410  0.39151248
   0.50000000  0.50048573  0.39186709
   0.25012087  0.24981555  0.39185088
   0.24986502  0.74992127  0.39166382
   0.74987913  0.24981555  0.39185088
   0.75013498  0.74992127  0.39166382
   0.00000000  0.24993495  0.45471975
   0.00000000  0.75002162  0.45462595
   0.50000000  0.25035514  0.45467203
   0.50000000  0.74554687  0.44426583
   0.24853494  0.00128617  0.45451395
   0.24972465  0.49945245  0.45466642
   0.75146506  0.00128617  0.45451395
   0.75027535  0.49945245  0.45466642
   0.50000000  0.72971555  0.51109408
   0.50000000  0.87522855  0.50342654
Direct configuration=     3
   0.00000000 -0.00006367  0.00028173
   0.00000000  0.50005223  0.00027958
   0.50000000  0.00007226  0.00027685
   0.50000000  0.49994288  0.00027917
   0.25007096  0.24998911  0.00027822
   0.24994695  0.75000914  0.00028090
   0.74992904  0.24998911  0.00027822
   0.75005305  0.75000914  0.00028090
   0.00000000  0.24999627  0.06545535
   0.00000000  0.75000484  0.06545176
   0.50000000  0.24998551  0.06545327
   0.50000000  0.74995173  0.06547684
   0.25000179  0.00000218  0.06544987
   0.25002297  0.50002866  0.06545194
   0.74999821  0.00000218  0.06544987
   0.74997703  0.50002866  0.06545194
   0.00000000 -0.00005009  0.13159064
   0.00000000  0.50007984  0.13159037
   0.50000000  0.00006619  0.13158444
   0.50000000  0.49997989  0.13158776
   0.25007079  0.24997166  0.13159053
   0.24996692  0.74999031  0.13158448
   0.74992921  0.24997166  0.13159053
   0.75003308  0.74999031  0.13158448
   0.00000000  0.24998928  0.19680017
   0.00000000  0.75000911  0.19684951
   0.50000000  0.24998934  0.19685057
   0.50000000  0.74999857  0.19679397
   0.25005623 -0.00004788  0.19679789
   0.25006033  0.50005523  0.19680636
   0.74994377 -0.00004788  0.19679789
   0.74993967  0.50005523  0.19680636
   0.00000000  0.00003801  0.26183821
   0.00000000  0.49997815  0.26185285
   0.50000000  0.00000015  0.26189216
   0.50000000  0.50005670  0.26187460
   0.24997326  0.24998081  0.26183614
   0.25003120  0.74998228  0.26188012
   0.75002674  0.24998081  0.26183614
   0.74996880  0.74998228  0.26188012
   0.00000000  0.25002331  0.32743474
   0.00000000  0.75000498  0.32738418
   0.50000000  0.25009560  0.32740124
   0.50000000  0.75001719  0.32746608
   0.24991882  0.00002512  0.32739928
   0.24994360  0.49990497  0.32739372
   0.75008118  0.00002512  0.32739928
   0.75005640  0.49990497  0.32739372
   0.00000000 -0.00009036  0.39187077
   0.00000000  0.50004401  0.39185470
   0.50000000  0.00030633  0.39168261
   0.50000000  0.50024630  0.39186243
   0.25006129  0.24990647  0.39185421
   0.24993155  0.74996008  0.39175935
   0.74993871  0.24990647  0.39185421
   0.75006845  0.74996008  0.39175935
   0.00000000  0.24996702  0.45473708
   0.00000000  0.75001096  0.45468951
   0.50000000  0.25018009  0.45471288
   0.50000000  0.74774191  0.44943609
   0.24925709  0.00065219  0.45463271
   0.24986038  0.49972235  0.45471003
   0.75074291  0.00065219  0.45463271
   0.75013962  0.49972235  0.45471003
   0.50000000  0.73971414  0.50636822
   0.50000000  0.86415081  0.50248016
Direct configuration=     4
   0.00000000 -0.00006224  0.00027544
   0.00000000  0.50005106  0.00027333
   0.50000000  0.00007065  0.00027066
   0.50000000  0.49994415  0.00027293
   0.25006937  0.24998935  0.00027200
   0.24994814  0.75000894  0.00027462
   0.74993063  0.24998935  0.00027200
   0.75005186  0.75000894  0.00027462
   0.00000000  0.24999635  0.06545660
   0.00000000  0.75000473  0.06545310
   0.50000000  0.24998583  0.06545457
   0.50000000  0.74995281  0.06547762
   0.25000175  0.00000213  0.06545125
   0.25002245  0.50002802  0.06545327
   0.74999825  0.00000213  0.06545125
   0.74997755  0.50002802  0.06545327
   0.00000000 -0.00004897  0.13159177
   0.00000000  0.50007805  0.13159151
   0.50000000  0.00006471  0.13158571
   0.50000000  0.49998034  0.13158896
   0.25006921  0.24997229  0.13159167
   0.24996766  0.74999052  0.13158575
   0.74993079  0.24997229  0.13159167
   0.75003234  0.74999052  0.13158575
   0.00000000  0.24998952  0.19679970
   0.00000000  0.75000891  0.19684794
   0.50000000  0.24998958  0.19684897
   0.50000000  0.74999860  0.19679363
   0.25005497 -0.00004681  0.19679747
   0.25005899  0.50005399  0.19680574
   0.74994503 -0.00004681  0.19679747
   0.74994101  0.50005399  0.19680574
   0.00000000  0.00003716  0.26183840
   0.00000000  0.49997864  0.26185271
   0.50000000  0.00000015  0.26189114
   0.50000000  0.50005543  0.26187398
   0.24997386  0.24998124  0.26183637
   0.25003050  0.74998268  0.26187937
   0.75002614  0.24998124  0.26183637
   0.74996950  0.74998268  0.26187937
   0.00000000  0.25002279  0.32743819
   0.00000000  0.75000487  0.32738875
   0.50000000  0.25009346  0.32740543
   0.50000000  0.75001680  0.32746883
   0.24992063  0.00002456  0.32740352
   0.24994486  0.49990709  0.32739808
   0.75007937  0.00002456  0.32740352
   0.75005514  0.49990709  0.32739808
   0.00000000 -0.00008834  0.39187048
   0.00000000  0.50004303  0.39185476
   0.50000000  0.00029948  0.39168652
   0.50000000  0.50024080  0.39186232
   0.25005992  0.24990856  0.39185428
   0.24993308  0.74996097  0.39176155
   0.74994008  0.24990856  0.39185428
   0.75006692  0.74996097  0.39176155
   0.00000000  0.24996775  0.45473747
   0.00000000  0.75001072  0.45469097
   0.50000000  0.25017606  0.45471382
   0.50000000  0.74779238  0.44955499
   0.24927370  0.00063761  0.45463545
   0.24986350  0.49972855  0.45471103
   0.75072630  0.00063761  0.45463545
   0.75013650  0.49972855  0.45471103
   0.50000000  0.73994408  0.50625954
   0.50000000  0.86389606  0.50245839
Direct configuration=     5
   0.00000000 -0.00006157  0.00027245
   0.00000000  0.50005051  0.00027037
   0.50000000  0.00006988  0.00026772
   0.50000000  0.49994476  0.00026997
   0.25006862  0.24998947  0.00026905
   0.24994870  0.75000884  0.00027164
   0.74993138  0.24998947  0.00026905
   0.75005130  0.75000884  0.00027164
   0.00000000  0.24999639  0.06545720
   0.00000000  0.75000468  0.06545374
   0.50000000  0.24998599  0.06545519
   0.50000000  0.74995332  0.06547799
   0.25000173  0.00000211  0.06545191
   0.25002221  0.50002772  0.06545391
   0.74999827  0.00000211  0.06545191
   0.74997779  0.50002772  0.06545391
   0.00000000 -0.00004844  0.13159231
   0.00000000  0.50007720  0.13159205
   0.50000000  0.00006401  0.13158632
   0.50000000  0.49998055  0.13158953
   0.25006846  0.24997259  0.13159220
   0.24996801  0.74999062  0.13158636
   0.74993154  0.24997259  0.13159220
   0.75003199  0.74999062  0.13158636
   0.00000000  0.24998964  0.19679947
   0.00000000  0.75000881  0.19684719
   0.50000000  0.24998969  0.19684821
   0.50000000  0.74999861  0.19679347
   0.25005437 -0.00004630  0.19679727
   0.25005835  0.50005341  0.19680545
   0.74994563 -0.00004630  0.19679727
   0.74994165  0.50005341  0.19680545
   0.00000000  0.00003675  0.26183849
   0.00000000  0.49997887  0.26185265
   0.50000000  0.00000015  0.26189065
   0.50000000  0.50005483  0.26187368
   0.24997414  0.24998144  0.26183648
   0.25003017  0.74998286  0.26187902
   0.75002586  0.24998144  0.26183648
   0.74996983  0.74998286  0.26187902
   0.00000000  0.25002254  0.32743982
   0.00000000  0.75000482  0.32739093
   0.50000000  0.25009245  0.32740742
   0.50000000  0.75001662  0.32747013
   0.24992150  0.00002429  0.32740553
   0.24994546  0.49990810  0.32740015
   0.75007850  0.00002429  0.32740553
   0.75005454  0.49990810  0.32740015
   0.00000000 -0.00008738  0.39187034
   0.00000000  0.50004256  0.39185479
   0.50000000  0.00029623  0.39168838
   0.50000000  0.50023819  0.39186227
   0.25005927  0.24990955  0.39185432
   0.24993381  0.74996139  0.39176259
   0.74994073  0.24990955  0.39185432
   0.75006619  0.74996139  0.39176259
   0.00000000  0.24996810  0.45473766
   0.00000000  0.75001060  0.45469166
   0.50000000  0.25017415  0.45471426
   0.50000000  0.74781633  0.44961139
   0.24928158  0.00063070  0.45463674
   0.24986498  0.49973150  0.45471151
   0.75071842  0.00063070  0.45463674
   0.75013502  0.49973150  0.45471151
   0.50000000  0.74005316  0.50620798
   0.50000000  0.86377521  0.50244807
Direct configuration=     6
   0.00000000 -0.00014856  0.00075443
   0.00000000  0.50012032  0.00075098
   0.50000000  0.00017710  0.00074215
   0.50000000  0.49985284  0.00074781
   0.25017591  0.24997218  0.00074347
   0.24987408  0.75002264  0.00075392
   0.74982409  0.24997218  0.00074347
   0.75012592  0.75002264  0.00075392
   0.00000000  0.24999067  0.06539616
   0.00000000  0.75001060  0.06538526
   0.50000000  0.24996202  0.06539123
   0.50000000  0.74988113  0.06544695
   0.25000459  0.00000643  0.06538079
   0.25005522  0.50006646  0.06538553
   0.74999541  0.00000643  0.06538079
   0.74994478  0.50006646  0.06538553
   0.00000000 -0.00013674  0.13151520
   0.00000000  0.50019875  0.13151677
   0.50000000  0.00017281  0.13150160
   0.50000000  0.49992651  0.13151118
   0.25018289  0.24993473  0.13151481
   0.24990526  0.74997885  0.13149808
   0.74981711  0.24993473  0.13151481
   0.75009474  0.74997885  0.13149808
   0.00000000  0.24997487  0.19682737
   0.00000000  0.75002515  0.19695717
   0.50000000  0.24996840  0.19696165
   0.50000000  0.74999479  0.19680613
   0.25015484 -0.00013015  0.19682282
   0.25016295  0.50014657  0.19684214
   0.74984516 -0.00013015  0.19682282
   0.74983705  0.50014657  0.19684214
   0.00000000  0.00010663  0.26180963
   0.00000000  0.49992186  0.26184536
   0.50000000 -0.00001501  0.26195500
   0.50000000  0.50015354  0.26191219
   0.24991514  0.24995328  0.26179346
   0.25009277  0.74995733  0.26191726
   0.75008486  0.24995328  0.26179346
   0.74990723  0.74995733  0.26191726
   0.00000000  0.25004275  0.32719483
   0.00000000  0.75000487  0.32704598
   0.50000000  0.25026752  0.32710962
   0.50000000  0.75002430  0.32724015
   0.24973509  0.00011012  0.32708629
   0.24982832  0.49972179  0.32707840
   0.75026491  0.00011012  0.32708629
   0.75017168  0.49972179  0.32707840
   0.00000000 -0.00025663  0.39184484
   0.00000000  0.50012966  0.39182499
   0.50000000  0.00177418  0.39119762
   0.50000000  0.49906788  0.39150427
   0.25016837  0.24982873  0.39179941
   0.24852686  0.74994747  0.39130410
   0.74983163  0.24982873  0.39179941
   0.75147314  0.74994747  0.39130410
   0.00000000  0.24998808  0.45471763
   0.00000000  0.75000732  0.45455638
   0.50000000  0.25029542  0.45465757
   0.50000000  0.74807755  0.44979712
   0.24846854  0.00151572  0.45447985
   0.24956191  0.49921118  0.45464117
   0.75153146  0.00151572  0.45447985
   0.75043809  0.49921118  0.45464117
   0.50000000  0.74231955  0.50771523
   0.50000000  0.86038804  0.50262852
Direct configuration=     7
   0.00000000 -0.00031292  0.00166500
   0.00000000  0.50025220  0.00165897
   0.50000000  0.00037966  0.00163844
   0.50000000  0.49967918  0.00165055
   0.25037862  0.24993952  0.00163976
   0.24973311  0.75004871  0.00166507
   0.74962138  0.24993952  0.00163976
   0.75026689  0.75004871  0.00166507
   0.00000000  0.24997985  0.06528084
   0.00000000  0.75002177  0.06525588
   0.50000000  0.24991674  0.06527039
   0.50000000  0.74974475  0.06538831
   0.25000998  0.00001459  0.06524643
   0.25011760  0.50013965  0.06525636
   0.74999002  0.00001459  0.06524643
   0.74988240  0.50013965  0.06525636
   0.00000000 -0.00030357  0.13136954
   0.00000000  0.50042837  0.13137455
   0.50000000  0.00037836  0.13134155
   0.50000000  0.49982442  0.13136315
   0.25039907  0.24986321  0.13136860
   0.24978673  0.74995662  0.13133130
   0.74960093  0.24986321  0.13136860
   0.75021327  0.74995662  0.13133130
   0.00000000  0.24994696  0.19688008
   0.00000000  0.75005601  0.19716494
   0.50000000  0.24992817  0.19717597
   0.50000000  0.74998757  0.19683004
   0.25034464 -0.00028856  0.19687110
   0.25036058  0.50032257  0.19691144
   0.74965536 -0.00028856  0.19687110
   0.74963942  0.50032257  0.19691144
   0.00000000  0.00023864  0.26175512
   0.00000000  0.49981416  0.26183158
   0.50000000 -0.00004365  0.26207657
   0.50000000  0.50034001  0.26198496
   0.24980366  0.24990009  0.26171218
   0.25021102  0.74990908  0.26198951
   0.75019634  0.24990009  0.26171218
   0.74978898  0.74990908  0.26198951
   0.00000000  0.25008093  0.32673199
   0.00000000  0.75000496  0.32639431
   0.50000000  0.25059828  0.32654699
   0.50000000  0.75003879  0.32680567
   0.24938292  0.00027227  0.32648319
   0.24960703  0.49936983  0.32647056
   0.75061708  0.00027227  0.32648319
   0.75039297  0.49936983  0.32647056
   0.00000000 -0.00057638  0.39179666
   0.00000000  0.50029423  0.39176869
   0.50000000  0.00456633  0.39027047
   0.50000000  0.49685692  0.39082795
   0.25037447  0.24967605  0.39169569
   0.24586884  0.74992116  0.39043791
   0.74962553  0.24967605  0.39169569
   0.75413116  0.74992116  0.39043791
   0.00000000  0.25002581  0.45467978
   0.00000000  0.75000112  0.45430079
   0.50000000  0.25052454  0.45455046
   0.50000000  0.74857105  0.45014801
   0.24693255  0.00318772  0.45418346
   0.24898934  0.49822819  0.45450828
   0.75306745  0.00318772  0.45418346
   0.75101066  0.49822819  0.45450828
   0.50000000  0.74660125  0.51056274
   0.50000000  0.85398894  0.50296945
Direct configuration=     8
   0.00000000 -0.00036023  0.00228031
   0.00000000  0.50028308  0.00227914
   0.50000000  0.00041357  0.00225898
   0.50000000  0.49962376  0.00226901
   0.25044364  0.24993616  0.00224999
   0.24970899  0.75006841  0.00229005
   0.74955636  0.24993616  0.00224999
   0.75029101  0.75006841  0.00229005
   0.00000000  0.25000639  0.06547190
   0.00000000  0.75003048  0.06543471
   0.50000000  0.24992404  0.06545329
   0.50000000  0.74974328  0.06558822
   0.25002187  0.00000391  0.06542091
   0.25012378  0.50012536  0.06543335
   0.74997813  0.00000391  0.06542091
   0.74987622  0.50012536  0.06543335
   0.00000000 -0.00037457  0.13135131
   0.00000000  0.50049259  0.13135866
   0.50000000  0.00044412  0.13129481
   0.50000000  0.49973027  0.13133393
   0.25046625  0.24986897  0.13134875
   0.24971527  0.74996587  0.13128916
   0.74953375  0.24986897  0.13134875
   0.75028473  0.74996587  0.13128916
   0.00000000  0.24996530  0.19678258
   0.00000000  0.75005910  0.19720866
   0.50000000  0.24992818  0.19722571
   0.50000000  0.75003394  0.19677509
   0.25046644 -0.00041706  0.19682455
   0.25045053  0.50041560  0.19686905
   0.74953356 -0.00041706  0.19682455
   0.74954947  0.50041560  0.19686905
   0.00000000  0.00034289  0.26154299
   0.00000000  0.49970632  0.26163786
   0.50000000 -0.00010832  0.26199781
   0.50000000  0.50047388  0.26187420
   0.24972729  0.24987573  0.26150670
   0.25034067  0.74990024  0.26187590
   0.75027271  0.24987573  0.26150670
   0.74965933  0.74990024  0.26187590
   0.00000000  0.25006612  0.32655508
   0.00000000  0.74997335  0.32584947
   0.50000000  0.25082914  0.32603488
   0.50000000  0.75001436  0.32662131
   0.24899951  0.00060315  0.32608632
   0.24933252  0.49898956  0.32610254
   0.75100049  0.00060315  0.32608632
   0.75066748  0.49898956  0.32610254
   0.00000000 -0.00021525  0.39144429
   0.00000000  0.49983324  0.39150996
   0.50000000  0.00450336  0.38992472
   0.50000000  0.49711732  0.39049669
   0.24999752  0.24983508  0.39137526
   0.24603930  0.74992296  0.39007419
   0.75000248  0.24983508  0.39137526
   0.75396070  0.74992296  0.39007419
   0.00000000  0.25031558  0.45460232
   0.00000000  0.74993023  0.45410586
   0.50000000  0.25060230  0.45441882
   0.50000000  0.74771780  0.45026362
   0.24639600  0.00377407  0.45375869
   0.24887036  0.49797207  0.45421273
   0.75360400  0.00377407  0.45375869
   0.75112964  0.49797207  0.45421273
   0.50000000  0.74350209  0.51242379
   0.50000000  0.85652692  0.50374575
Direct configuration=     9
   0.00000000 -0.00037711  0.00249988
   0.00000000  0.50029409  0.00250045
   0.50000000  0.00042568  0.00248042
   0.50000000  0.49960398  0.00248971
   0.25046684  0.24993497  0.00246775
   0.24970038  0.75007544  0.00251308
   0.74953315  0.24993497  0.00246775
   0.75029962  0.75007544  0.00251308
   0.00000000  0.25001587  0.06554008
   0.00000000  0.75003359  0.06549853
   0.50000000  0.24992665  0.06551856
   0.50000000  0.74974276  0.06565955
   0.25002611  0.00000011  0.06548317
   0.25012598  0.50012025  0.06549651
   0.74997389  0.00000011  0.06548317
   0.74987402  0.50012025  0.06549651
   0.00000000 -0.00039991  0.13134480
   0.00000000  0.50051551  0.13135298
   0.50000000  0.00046759  0.13127813
   0.50000000  0.49969667  0.13132351
   0.25049022  0.24987103  0.13134166
   0.24968978  0.74996917  0.13127413
   0.74950978  0.24987103  0.13134166
   0.75031022  0.74996917  0.13127413
   0.00000000  0.24997184  0.19674778
   0.00000000  0.75006021  0.19722425
   0.50000000  0.24992818  0.19724347
   0.50000000  0.75005049  0.19675548
   0.25050990 -0.00046292  0.19680793
   0.25048262  0.50044880  0.19685393
   0.74949010 -0.00046292  0.19680793
   0.74951738  0.50044880  0.19685393
   0.00000000  0.00038009  0.26146729
   0.00000000  0.49966784  0.26156873
   0.50000000 -0.00013140  0.26196970
   0.50000000  0.50052165  0.26183467
   0.24970003  0.24986704  0.26143337
   0.25038694  0.74989709  0.26183536
   0.75029997  0.24986704  0.26143337
   0.74961306  0.74989709  0.26183536
   0.00000000  0.25006083  0.32649195
   0.00000000  0.74996206  0.32565504
   0.50000000  0.25091152  0.32585214
   0.50000000  0.75000564  0.32655552
   0.24886269  0.00072123  0.32594469
   0.24923456  0.49885386  0.32597121
   0.75113731  0.00072123  0.32594469
   0.75076544  0.49885386  0.32597121
   0.00000000 -0.00008638  0.39131854
   0.00000000  0.49966874  0.39141763
   0.50000000  0.00448089  0.38980134
   0.50000000  0.49721024  0.39037848
   0.24986300  0.24989183  0.39126091
   0.24610013  0.74992361  0.38994440
   0.75013700  0.24989183  0.39126091
   0.75389987  0.74992361  0.38994440
   0.00000000  0.25041898  0.45457467
   0.00000000  0.74990493  0.45403630
   0.50000000  0.25063005  0.45437185
   0.50000000  0.74741331  0.45030487
   0.24620453  0.00398331  0.45360710
   0.24882790  0.49788067  0.45410727
   0.75379547  0.00398331  0.45360710
   0.75117210  0.49788067  0.45410727
   0.50000000  0.74239614  0.51308791
   0.50000000  0.85743261  0.50402278
Direct configuration=    10
   0.00000000 -0.00037009  0.00296855
   0.00000000  0.50028590  0.00297450
   0.50000000  0.00039565  0.00295473
   0.50000000  0.49960642  0.00296083
   0.25047428  0.24993899  0.00293276
   0.24972682  0.75008507  0.00298948
   0.74952572  0.24993899  0.00293276
   0.75027318  0.75008507  0.00298948
   0.00000000  0.25003660  0.06583574
   0.00000000  0.75003690  0.06578406
   0.50000000  0.24994494  0.06580659
   0.50000000  0.74976749  0.06594795
   0.25002761 -0.00000112  0.06576614
   0.25011467  0.50008594  0.06578068
   0.74997239 -0.00000112  0.06576614
   0.74988533  0.50008594  0.06578068
   0.00000000 -0.00043330  0.13139198
   0.00000000  0.50053442  0.13140154
   0.50000000  0.00048704  0.13129996
   0.50000000  0.49963149  0.13136132
   0.25051152  0.24989043  0.13138771
   0.24964877  0.74997956  0.13130084
   0.74948848  0.24989043  0.13138771
   0.75035123  0.74997956  0.13130084
   0.00000000  0.24999175  0.19660319
   0.00000000  0.75005340  0.19718960
   0.50000000  0.24993030  0.19721396
   0.50000000  0.75009426  0.19666819
   0.25059723 -0.00055419  0.19672154
   0.25053634  0.50051057  0.19676656
   0.74940277 -0.00055419  0.19672154
   0.74946366  0.50051057  0.19676656
   0.00000000  0.00050788  0.26120823
   0.00000000  0.49952303  0.26132163
   0.50000000 -0.00024097  0.26181970
   0.50000000  0.50067041  0.26165796
   0.24959165  0.24986188  0.26118665
   0.25054405  0.74989708  0.26165705
   0.75040835  0.24986188  0.26118665
   0.74945595  0.74989708  0.26165705
   0.00000000  0.25005251  0.32633512
   0.00000000  0.74990615  0.32525173
   0.50000000  0.25102259  0.32546452
   0.50000000  0.74999086  0.32640662
   0.24861764  0.00099016  0.32564381
   0.24902210  0.49861275  0.32569738
   0.75138236  0.00099016  0.32564381
   0.75097790  0.49861275  0.32569738
   0.00000000  0.00018681  0.39090907
   0.00000000  0.49938195  0.39110850
   0.50000000  0.00379127  0.38963648
   0.50000000  0.49783583  0.39013991
   0.24962068  0.25010614  0.39089651
   0.24680337  0.74994260  0.38972906
   0.75037932  0.25010614  0.39089651
   0.75319663  0.74994260  0.38972906
   0.00000000  0.25072432  0.45446414
   0.00000000  0.74984514  0.45380365
   0.50000000  0.25061386  0.45418392
   0.50000000  0.74698735  0.45082242
   0.24618902  0.00407929  0.45321177
   0.24887123  0.49788659  0.45379253
   0.75381098  0.00407929  0.45321177
   0.75112877  0.49788659  0.45379253
   0.50000000  0.74306418  0.51396738
   0.50000000  0.85627501  0.50506740
Direct configuration=    11
   0.00000000 -0.00034903  0.00437457
   0.00000000  0.50026132  0.00439665
   0.50000000  0.00030556  0.00437765
   0.50000000  0.49961372  0.00437416
   0.25049657  0.24995106  0.00432778
   0.24980613  0.75011395  0.00441868
   0.74950343  0.24995106  0.00432778
   0.75019387  0.75011395  0.00441868
   0.00000000  0.25009879  0.06672273
   0.00000000  0.75004683  0.06664064
   0.50000000  0.24999979  0.06667067
   0.50000000  0.74984169  0.06681314
   0.25003211 -0.00000480  0.06661504
   0.25008073  0.49998300  0.06663319
   0.74996789 -0.00000480  0.06661504
   0.74991926  0.49998300  0.06663319
   0.00000000 -0.00053347  0.13153351
   0.00000000  0.50059116  0.13154720
   0.50000000  0.00054538  0.13136548
   0.50000000  0.49943596  0.13147476
   0.25057542  0.24994865  0.13152585
   0.24952574  0.75001071  0.13138097
   0.74942458  0.24994865  0.13152585
   0.75047426  0.75001071  0.13138097
   0.00000000  0.25005148  0.19616943
   0.00000000  0.75003298  0.19708562
   0.50000000  0.24993664  0.19712542
   0.50000000  0.75022555  0.19640632
   0.25085921 -0.00082800  0.19646236
   0.25069747  0.50069589  0.19650447
   0.74914079 -0.00082800  0.19646236
   0.74930253  0.50069589  0.19650447
   0.00000000  0.00089124  0.26043103
   0.00000000  0.49908862  0.26058035
   0.50000000 -0.00056968  0.26136968
   0.50000000  0.50111668  0.26112781
   0.24926650  0.24984638  0.26044650
   0.25101539  0.74989706  0.26112212
   0.75073350  0.24984638  0.26044650
   0.74898461  0.74989706  0.26112212
   0.00000000  0.25002753  0.32586461
   0.00000000  0.74973839  0.32404180
   0.50000000  0.25135583  0.32430166
   0.50000000  0.74994652  0.32595991
   0.24788249  0.00179694  0.32474118
   0.24838475  0.49788942  0.32487586
   0.75211751  0.00179694  0.32474118
   0.75161525  0.49788942  0.32487586
   0.00000000  0.00100639  0.38968065
   0.00000000  0.49852158  0.39018112
   0.50000000  0.00172240  0.38914188
   0.50000000  0.49971259  0.38942418
   0.24889370  0.25074908  0.38980331
   0.24891309  0.74999957  0.38908302
   0.75110630  0.25074908  0.38980331
   0.75108691  0.74999957  0.38908302
   0.00000000  0.25164033  0.45413253
   0.00000000  0.74966578  0.45310570
   0.50000000  0.25056530  0.45362013
   0.50000000  0.74570948  0.45237506
   0.24614247  0.00436722  0.45202579
   0.24900122  0.49790434  0.45284833
   0.75385753  0.00436722  0.45202579
   0.75099878  0.49790434  0.45284833
   0.50000000  0.74506831  0.51660580
   0.50000000  0.85280220  0.50820126
Direct configuration=    12
   0.00000000 -0.00030691  0.00718661
   0.00000000  0.50021217  0.00724095
   0.50000000  0.00012539  0.00722350
   0.50000000  0.49962832  0.00720084
   0.25054117  0.24997521  0.00711781
   0.24996475  0.75017170  0.00727707
   0.74945883  0.24997521  0.00711781
   0.75003525  0.75017170  0.00727707
   0.00000000  0.25022317  0.06849670
   0.00000000  0.75006670  0.06835381
   0.50000000  0.25010951  0.06839883
   0.50000000  0.74999010  0.06854352
   0.25004112 -0.00001217  0.06831285
   0.25001286  0.49977712  0.06833820
   0.74995888 -0.00001217  0.06831285
   0.74998714  0.49977712  0.06833820
   0.00000000 -0.00073381  0.13181656
   0.00000000  0.50070465  0.13183852
   0.50000000  0.00066208  0.13149651
   0.50000000  0.49904491  0.13170163
   0.25070321  0.25006509  0.13180214
   0.24927967  0.75007302  0.13154124
   0.74929679  0.25006509  0.13180214
   0.75072033  0.75007302  0.13154124
   0.00000000  0.25017093  0.19530189
   0.00000000  0.74999215  0.19687768
   0.50000000  0.24994933  0.19694836
   0.50000000  0.75048815  0.19588257
   0.25138318 -0.00137560  0.19594400
   0.25101974  0.50106652  0.19598029
   0.74861682 -0.00137560  0.19594400
   0.74898026  0.50106652  0.19598029
   0.00000000  0.00165795  0.25887664
   0.00000000  0.49821978  0.25909778
   0.50000000 -0.00122711  0.26046964
   0.50000000  0.50200923  0.26006752
   0.24861621  0.24981539  0.25896619
   0.25195808  0.74989701  0.26005226
   0.75138379  0.24981539  0.25896619
   0.74804192  0.74989701  0.26005226
   0.00000000  0.24997759  0.32492361
   0.00000000  0.74940288  0.32162195
   0.50000000  0.25202230  0.32197594
   0.50000000  0.74985783  0.32506648
   0.24641220  0.00341052  0.32293591
   0.24711003  0.49644276  0.32323283
   0.75358780  0.00341052  0.32293591
   0.75288997  0.49644276  0.32323283
   0.00000000  0.00264554  0.38722382