   5   5   0   0
  0.3751886E+02  0.3630000E-09  0.2566798E-09  0.2013360E-08  0.5000000E-15
  1.000000000000000E-004
  CAR 
 unknown system                          
      9.77242610    -11.10272889  301     -0.82168525      1.00000000
    -11.103  0.0000E+00  0.0000E+00  0.0000E+00  0.0000E+00
    -11.033  0.0000E+00  0.0000E+00  0.0000E+00  0.0000E+00
    -10.964  0.0000E+00  0.0000E+00  0.0000E+00  0.0000E+00
    -10.894  0.0000E+00  0.0000E+00  0.0000E+00  0.0000E+00
    -10.824  0.0000E+00  0.0000E+00  0.0000E+00  0.0000E+00
    -10.755 -0.1081E-31 -0.1081E-31 -0.7521E-33 -0.7521E-33
    -10.685 -0.2865E-29 -0.2865E-29 -0.2001E-30 -0.2001E-30
    -10.616 -0.5967E-27 -0.5967E-27 -0.4172E-28 -0.4172E-28
    -10.546 -0.9731E-25 -0.9731E-25 -0.6813E-26 -0.6813E-26
    -10.476 -0.1242E-22 -0.1242E-22 -0.8713E-24 -0.8713E-24
    -10.407 -0.1241E-20 -0.1241E-20 -0.8725E-22 -0.8725E-22
    -10.337 -0.9702E-19 -0.9702E-19 -0.6838E-20 -0.6838E-20
    -10.268 -0.5707E-17 -0.5707E-17 -0.4040E-18 -0.4040E-18
    -10.198 -0.2738E-15 -0.2738E-15 -0.1946E-16 -0.1946E-16
    -10.129 -0.1016E-13 -0.1016E-13 -0.7264E-15 -0.7264E-15
    -10.059 -0.2937E-12 -0.2937E-12 -0.2117E-13 -0.2116E-13
     -9.989 -0.6606E-11 -0.6606E-11 -0.4808E-12 -0.4808E-12
     -9.920 -0.1153E-09 -0.1153E-09 -0.8506E-11 -0.8506E-11
     -9.850 -0.1558E-08 -0.1558E-08 -0.1169E-09 -0.1169E-09
     -9.781 -0.1623E-07 -0.1623E-07 -0.1246E-08 -0.1246E-08
     -9.711 -0.1295E-06 -0.1295E-06 -0.1026E-07 -0.1026E-07
     -9.641 -0.7843E-06 -0.7843E-06 -0.6483E-07 -0.6483E-07
     -9.572 -0.3545E-05 -0.3545E-05 -0.3115E-06 -0.3115E-06
     -9.502 -0.1159E-04 -0.1159E-04 -0.1118E-05 -0.1118E-05
     -9.433 -0.2540E-04 -0.2540E-04 -0.2886E-05 -0.2886E-05
     -9.363 -0.2766E-04 -0.2766E-04 -0.4810E-05 -0.4810E-05
     -9.294  0.2983E-04  0.2983E-04 -0.2734E-05 -0.2734E-05
     -9.224  0.1934E-03  0.1934E-03  0.1073E-04  0.1073E-04
     -9.154  0.4233E-03  0.4233E-03  0.4018E-04  0.4018E-04
     -9.085  0.5713E-03  0.5713E-03  0.7994E-04  0.7994E-04
     -9.015  0.5157E-03  0.5157E-03  0.1158E-03  0.1158E-03
     -8.946  0.3040E-03  0.3041E-03  0.1370E-03  0.1370E-03
     -8.876  0.9534E-04  0.9534E-04  0.1436E-03  0.1436E-03
     -8.806 -0.1104E-04 -0.1104E-04  0.1428E-03  0.1428E-03
     -8.737 -0.3023E-04 -0.3023E-04  0.1407E-03  0.1407E-03
     -8.667 -0.1797E-04 -0.1797E-04  0.1395E-03  0.1395E-03
     -8.598 -0.6577E-05 -0.6577E-05  0.1390E-03  0.1390E-03
     -8.528 -0.1724E-05 -0.1724E-05  0.1389E-03  0.1389E-03
     -8.459 -0.5787E-06 -0.5787E-06  0.1389E-03  0.1389E-03
     -8.389 -0.1607E-05 -0.1607E-05  0.1388E-03  0.1388E-03
     -8.319 -0.7066E-05 -0.7066E-05  0.1383E-03  0.1383E-03
     -8.250 -0.2311E-04 -0.2311E-04  0.1367E-03  0.1367E-03
     -8.180 -0.5072E-04 -0.5072E-04  0.1331E-03  0.1331E-03
     -8.111 -0.5541E-04 -0.5541E-04  0.1293E-03  0.1293E-03
     -8.041  0.5902E-04  0.5902E-04  0.1334E-03  0.1334E-03
     -7.971  0.3856E-03  0.3856E-03  0.1602E-03  0.1602E-03
     -7.902  0.8453E-03  0.8453E-03  0.2190E-03  0.2190E-03
     -7.832  0.1142E-02  0.1142E-02  0.2985E-03  0.2985E-03
     -7.763  0.1032E-02  0.1032E-02  0.3704E-03  0.3704E-03
     -7.693  0.6095E-03  0.6095E-03  0.4128E-03  0.4128E-03
     -7.624  0.1915E-03  0.1915E-03  0.4261E-03  0.4261E-03
     -7.554 -0.2281E-04 -0.2281E-04  0.4245E-03  0.4245E-03
     -7.484 -0.6498E-04 -0.6498E-04  0.4200E-03  0.4200E-03
     -7.415 -0.4985E-04 -0.4985E-04  0.4165E-03  0.4165E-03
     -7.345 -0.4103E-04 -0.4103E-04  0.4137E-03  0.4137E-03
     -7.276 -0.2812E-04 -0.2812E-04  0.4117E-03  0.4117E-03
     -7.206  0.4452E-04  0.4452E-04  0.4148E-03  0.4148E-03
     -7.136  0.2132E-03  0.2132E-03  0.4296E-03  0.4296E-03
     -7.067  0.4144E-03  0.4144E-03  0.4585E-03  0.4585E-03
     -6.997  0.5181E-03  0.5181E-03  0.4945E-03  0.4945E-03
     -6.928  0.5144E-03  0.5144E-03  0.5303E-03  0.5303E-03
     -6.858  0.5845E-03  0.5845E-03  0.5710E-03  0.5710E-03
     -6.789  0.8453E-03  0.8453E-03  0.6298E-03  0.6298E-03
     -6.719  0.1101E-02  0.1101E-02  0.7064E-03  0.7064E-03
     -6.649  0.1045E-02  0.1045E-02  0.7791E-03  0.7791E-03
     -6.580  0.6586E-03  0.6586E-03  0.8250E-03  0.8250E-03
     -6.510  0.2148E-03  0.2148E-03  0.8399E-03  0.8399E-03
     -6.441 -0.5870E-04 -0.5870E-04  0.8358E-03  0.8358E-03
     -6.371 -0.1316E-03 -0.1316E-03  0.8267E-03  0.8267E-03
     -6.301 -0.2876E-04 -0.2876E-04  0.8247E-03  0.8247E-03
     -6.232  0.2678E-03  0.2678E-03  0.8433E-03  0.8433E-03
     -6.162  0.7345E-03  0.7345E-03  0.8944E-03  0.8944E-03
     -6.093  0.1276E-02  0.1276E-02  0.9832E-03  0.9832E-03
     -6.023  0.1835E-02  0.1835E-02  0.1111E-02  0.1111E-02
     -5.954  0.2329E-02  0.2329E-02  0.1273E-02  0.1273E-02
     -5.884  0.2473E-02  0.2473E-02  0.1445E-02  0.1445E-02
     -5.814  0.1984E-02  0.1984E-02  0.1583E-02  0.1583E-02
     -5.745  0.1044E-02  0.1045E-02  0.1656E-02  0.1656E-02
     -5.675  0.2237E-03  0.2237E-03  0.1671E-02  0.1671E-02
     -5.606 -0.2451E-04 -0.2451E-04  0.1670E-02  0.1670E-02
     -5.536  0.3862E-03  0.3862E-03  0.1697E-02  0.1697E-02
     -5.466  0.1207E-02  0.1207E-02  0.1781E-02  0.1781E-02
     -5.397  0.1924E-02  0.1924E-02  0.1914E-02  0.1914E-02
     -5.327  0.2039E-02  0.2039E-02  0.2056E-02  0.2056E-02
     -5.258  0.1534E-02  0.1534E-02  0.2163E-02  0.2163E-02
     -5.188  0.9224E-03  0.9224E-03  0.2227E-02  0.2227E-02
     -5.119  0.7029E-03  0.7029E-03  0.2276E-02  0.2276E-02
     -5.049  0.9409E-03  0.9409E-03  0.2342E-02  0.2342E-02
     -4.979  0.1546E-02  0.1546E-02  0.2449E-02  0.2449E-02
     -4.910  0.2735E-02  0.2735E-02  0.2640E-02  0.2640E-02
     -4.840  0.4669E-02  0.4669E-02  0.2964E-02  0.2964E-02
     -4.771  0.6559E-02  0.6559E-02  0.3421E-02  0.3421E-02
     -4.701  0.7007E-02  0.7007E-02  0.3908E-02  0.3908E-02
     -4.631  0.5771E-02  0.5771E-02  0.4310E-02  0.4310E-02
     -4.562  0.4403E-02  0.4403E-02  0.4616E-02  0.4616E-02
     -4.492  0.4451E-02  0.4451E-02  0.4926E-02  0.4926E-02
     -4.423  0.5691E-02  0.5691E-02  0.5322E-02  0.5322E-02
     -4.353  0.6683E-02  0.6683E-02  0.5787E-02  0.5787E-02
     -4.284  0.6626E-02  0.6626E-02  0.6248E-02  0.6248E-02
     -4.214  0.6096E-02  0.6096E-02  0.6672E-02  0.6672E-02
     -4.144  0.5965E-02  0.5965E-02  0.7087E-02  0.7087E-02
     -4.075  0.6270E-02  0.6270E-02  0.7524E-02  0.7524E-02
     -4.005  0.6531E-02  0.6531E-02  0.7978E-02  0.7978E-02
     -3.936  0.6621E-02  0.6621E-02  0.8439E-02  0.8439E-02
     -3.866  0.6762E-02  0.6762E-02  0.8909E-02  0.8909E-02
     -3.796  0.7073E-02  0.7073E-02  0.9402E-02  0.9402E-02
     -3.727  0.7574E-02  0.7574E-02  0.9929E-02  0.9929E-02
     -3.657  0.8271E-02  0.8271E-02  0.1050E-01  0.1050E-01
     -3.588  0.8981E-02  0.8981E-02  0.1113E-01  0.1113E-01
     -3.518  0.9464E-02  0.9464E-02  0.1179E-01  0.1179E-01
     -3.449  0.9955E-02  0.9955E-02  0.1248E-01  0.1248E-01
     -3.379  0.1103E-01  0.1103E-01  0.1325E-01  0.1325E-01
     -3.309  0.1264E-01  0.1264E-01  0.1413E-01  0.1413E-01
     -3.240  0.1380E-01  0.1380E-01  0.1509E-01  0.1509E-01
     -3.170  0.1353E-01  0.1353E-01  0.1603E-01  0.1603E-01
     -3.101  0.1181E-01  0.1181E-01  0.1685E-01  0.1685E-01
     -3.031  0.9325E-02  0.9325E-02  0.1750E-01  0.1750E-01
     -2.961  0.6872E-02  0.6872E-02  0.1798E-01  0.1798E-01
     -2.892  0.5339E-02  0.5339E-02  0.1835E-01  0.1835E-01
     -2.822  0.5621E-02  0.5621E-02  0.1874E-01  0.1874E-01
     -2.753  0.8039E-02  0.8039E-02  0.1930E-01  0.1930E-01
     -2.683  0.1173E-01  0.1173E-01  0.2012E-01  0.2012E-01
     -2.613  0.1504E-01  0.1504E-01  0.2116E-01  0.2116E-01
     -2.544  0.1671E-01  0.1671E-01  0.2233E-01  0.2233E-01
     -2.474  0.1649E-01  0.1649E-01  0.2347E-01  0.2347E-01
     -2.405  0.1496E-01  0.1496E-01  0.2451E-01  0.2451E-01
     -2.335  0.1327E-01  0.1327E-01  0.2544E-01  0.2544E-01
     -2.266  0.1267E-01  0.1267E-01  0.2632E-01  0.2632E-01
     -2.196  0.1360E-01  0.1360E-01  0.2727E-01  0.2727E-01
     -2.126  0.1552E-01  0.1552E-01  0.2834E-01  0.2834E-01
     -2.057  0.1744E-01  0.1744E-01  0.2956E-01  0.2956E-01
     -1.987  0.1809E-01  0.1809E-01  0.3082E-01  0.3082E-01
     -1.918  0.1611E-01  0.1611E-01  0.3194E-01  0.3194E-01
     -1.848  0.1145E-01  0.1145E-01  0.3274E-01  0.3274E-01
     -1.778  0.6074E-02  0.6074E-02  0.3316E-01  0.3316E-01
     -1.709  0.2285E-02  0.2285E-02  0.3332E-01  0.3332E-01
     -1.639  0.8145E-03  0.8145E-03  0.3337E-01  0.3337E-01
     -1.570  0.7958E-03  0.7958E-03  0.3343E-01  0.3343E-01
     -1.500  0.1065E-02  0.1065E-02  0.3350E-01  0.3350E-01
     -1.431  0.1121E-02  0.1121E-02  0.3358E-01  0.3358E-01
     -1.361  0.1078E-02  0.1078E-02  0.3366E-01  0.3366E-01
     -1.291  0.1073E-02  0.1073E-02  0.3373E-01  0.3373E-01
     -1.222  0.9749E-03  0.9749E-03  0.3380E-01  0.3380E-01
     -1.152  0.7429E-03  0.7429E-03  0.3385E-01  0.3385E-01
     -1.083  0.7235E-03  0.7235E-03  0.3390E-01  0.3390E-01
     -1.013  0.1235E-02  0.1235E-02  0.3399E-01  0.3399E-01
     -0.943  0.1982E-02  0.1982E-02  0.3412E-01  0.3412E-01
     -0.874  0.2240E-02  0.2240E-02  0.3428E-01  0.3428E-01
     -0.804  0.1701E-02  0.1701E-02  0.3440E-01  0.3440E-01
     -0.735  0.7926E-03  0.7926E-03  0.3445E-01  0.3445E-01
     -0.665  0.1125E-03  0.1125E-03  0.3446E-01  0.3446E-01
     -0.596 -0.1577E-03 -0.1577E-03  0.3445E-01  0.3445E-01
     -0.526 -0.1646E-03 -0.1646E-03  0.3444E-01  0.3444E-01
     -0.456 -0.1644E-04 -0.1645E-04  0.3444E-01  0.3444E-01
     -0.387  0.3049E-03  0.3049E-03  0.3446E-01  0.3446E-01
     -0.317  0.7470E-03  0.7470E-03  0.3451E-01  0.3451E-01
     -0.248  0.1099E-02  0.1099E-02  0.3459E-01  0.3459E-01
     -0.178  0.1222E-02  0.1222E-02  0.3467E-01  0.3467E-01
     -0.108  0.1241E-02  0.1241E-02  0.3476E-01  0.3476E-01
     -0.039  0.1320E-02  0.1320E-02  0.3485E-01  0.3485E-01
      0.031  0.1384E-02  0.1384E-02  0.3495E-01  0.3495E-01
      0.100  0.1248E-02  0.1248E-02  0.3503E-01  0.3503E-01
      0.170  0.8765E-03  0.8765E-03  0.3510E-01  0.3510E-01
      0.239  0.4090E-03  0.4090E-03  0.3512E-01  0.3512E-01
      0.309  0.5473E-04  0.5474E-04  0.3513E-01  0.3513E-01
      0.379  0.5615E-04  0.5615E-04  0.3513E-01  0.3513E-01
      0.448  0.5924E-03  0.5924E-03  0.3517E-01  0.3517E-01
      0.518  0.1510E-02  0.1510E-02  0.3528E-01  0.3528E-01
      0.587  0.2209E-02  0.2209E-02  0.3543E-01  0.3543E-01
      0.657  0.2113E-02  0.2113E-02  0.3558E-01  0.3558E-01
      0.727  0.1308E-02  0.1308E-02  0.3567E-01  0.3567E-01
      0.796  0.4748E-03  0.4748E-03  0.3570E-01  0.3570E-01
      0.866  0.1960E-03  0.1960E-03  0.3572E-01  0.3572E-01
      0.935  0.4874E-03  0.4874E-03  0.3575E-01  0.3575E-01
      1.005  0.9065E-03  0.9065E-03  0.3581E-01  0.3581E-01
      1.074  0.9938E-03  0.9938E-03  0.3588E-01  0.3588E-01
      1.144  0.7287E-03  0.7287E-03  0.3593E-01  0.3593E-01
      1.214  0.5861E-03  0.5861E-03  0.3597E-01  0.3597E-01
      1.283  0.1010E-02  0.1010E-02  0.3604E-01  0.3604E-01
      1.353  0.1811E-02  0.1811E-02  0.3617E-01  0.3617E-01
      1.422  0.2261E-02  0.2261E-02  0.3633E-01  0.3633E-01
      1.492  0.1894E-02  0.1894E-02  0.3646E-01  0.3646E-01
      1.562  0.1007E-02  0.1007E-02  0.3653E-01  0.3653E-01
      1.631  0.2316E-03  0.2316E-03  0.3655E-01  0.3655E-01
      1.701 -0.1354E-03 -0.1354E-03  0.3654E-01  0.3654E-01
      1.770 -0.1945E-03 -0.1945E-03  0.3652E-01  0.3652E-01
      1.840 -0.6967E-04 -0.6967E-04  0.3652E-01  0.3652E-01
      1.909  0.2690E-03  0.2690E-03  0.3654E-01  0.3654E-01
      1.979  0.8207E-03  0.8207E-03  0.3659E-01  0.3659E-01
      2.049  0.1355E-02  0.1355E-02  0.3669E-01  0.3669E-01
      2.118  0.1570E-02  0.1570E-02  0.3680E-01  0.3680E-01
      2.188  0.1463E-02  0.1463E-02  0.3690E-01  0.3690E-01
      2.257  0.1374E-02  0.1374E-02  0.3699E-01  0.3699E-01
      2.327  0.1616E-02  0.1616E-02  0.3711E-01  0.3711E-01
      2.397  0.2172E-02  0.2172E-02  0.3726E-01  0.3726E-01
      2.466  0.2697E-02  0.2698E-02  0.3745E-01  0.3745E-01
      2.536  0.2764E-02  0.2764E-02  0.3764E-01  0.3764E-01
      2.605  0.2217E-02  0.2217E-02  0.3779E-01  0.3779E-01
      2.675  0.1335E-02  0.1335E-02  0.3789E-01  0.3789E-01
      2.744  0.5466E-03  0.5466E-03  0.3792E-01  0.3792E-01
      2.814  0.7235E-04  0.7234E-04  0.3793E-01  0.3793E-01
      2.884 -0.1197E-03 -0.1197E-03  0.3792E-01  0.3792E-01
      2.953 -0.1222E-03 -0.1222E-03  0.3791E-01  0.3791E-01
      3.023  0.5816E-04  0.5816E-04  0.3792E-01  0.3792E-01
      3.092  0.4475E-03  0.4475E-03  0.3795E-01  0.3795E-01
      3.162  0.9152E-03  0.9152E-03  0.3801E-01  0.3801E-01
      3.232  0.1153E-02  0.1153E-02  0.3809E-01  0.3809E-01
      3.301  0.9687E-03  0.9687E-03  0.3816E-01  0.3816E-01
      3.371  0.5123E-03  0.5123E-03  0.3819E-01  0.3819E-01
      3.440  0.9046E-04  0.9044E-04  0.3820E-01  0.3820E-01
      3.510 -0.1508E-03 -0.1508E-03  0.3819E-01  0.3819E-01
      3.579 -0.2168E-03 -0.2168E-03  0.3817E-01  0.3817E-01
      3.649 -0.1575E-04 -0.1561E-04  0.3817E-01  0.3817E-01
      3.719  0.6835E-03  0.6839E-03  0.3822E-01  0.3822E-01
      3.788  0.1883E-02  0.1883E-02  0.3835E-01  0.3835E-01
      3.858  0.3003E-02  0.3003E-02  0.3856E-01  0.3856E-01
      3.927  0.3232E-02  0.3232E-02  0.3879E-01  0.3879E-01
      3.997  0.2375E-02  0.2374E-02  0.3895E-01  0.3895E-01
      4.067  0.1101E-02  0.1100E-02  0.3903E-01  0.3903E-01
      4.136  0.2554E-03  0.2547E-03  0.3905E-01  0.3905E-01
      4.206  0.1612E-03  0.1611E-03  0.3906E-01  0.3906E-01
      4.275  0.5513E-03  0.5516E-03  0.3909E-01  0.3909E-01
      4.345  0.9212E-03  0.9214E-03  0.3916E-01  0.3916E-01
      4.414  0.1001E-02  0.1001E-02  0.3923E-01  0.3923E-01
      4.484  0.1024E-02  0.1024E-02  0.3930E-01  0.3930E-01
      4.554  0.1373E-02  0.1372E-02  0.3940E-01  0.3940E-01
      4.623  0.1932E-02  0.1932E-02  0.3953E-01  0.3953E-01
      4.693  0.2164E-02  0.2164E-02  0.3968E-01  0.3968E-01
      4.762  0.1926E-02  0.1926E-02  0.3981E-01  0.3981E-01
      4.832  0.1743E-02  0.1743E-02  0.3994E-01  0.3994E-01
      4.902  0.2020E-02  0.2020E-02  0.4008E-01  0.4008E-01
      4.971  0.2433E-02  0.2433E-02  0.4025E-01  0.4025E-01
      5.041  0.2446E-02  0.2445E-02  0.4042E-01  0.4042E-01
      5.110  0.2131E-02  0.2131E-02  0.4056E-01  0.4056E-01
      5.180  0.2103E-02  0.2104E-02  0.4071E-01  0.4071E-01
      5.249  0.2704E-02  0.2707E-02  0.4090E-01  0.4090E-01
      5.319  0.3488E-02  0.3490E-02  0.4114E-01  0.4114E-01
      5.389  0.3605E-02  0.3605E-02  0.4139E-01  0.4139E-01
      5.458  0.2744E-02  0.2742E-02  0.4158E-01  0.4158E-01
      5.528  0.1504E-02  0.1502E-02  0.4169E-01  0.4169E-01
      5.597  0.6646E-03  0.6636E-03  0.4173E-01  0.4173E-01
      5.667  0.3679E-03  0.3675E-03  0.4176E-01  0.4176E-01
      5.737  0.2600E-03  0.2596E-03  0.4178E-01  0.4178E-01
      5.806  0.1499E-03  0.1494E-03  0.4179E-01  0.4179E-01
      5.876  0.2271E-03  0.2270E-03  0.4180E-01  0.4180E-01
      5.945  0.7094E-03  0.7096E-03  0.4185E-01  0.4185E-01
      6.015  0.1457E-02  0.1457E-02  0.4195E-01  0.4195E-01
      6.084  0.2023E-02  0.2023E-02  0.4210E-01  0.4210E-01
      6.154  0.2112E-02  0.2112E-02  0.4224E-01  0.4224E-01
      6.224  0.1936E-02  0.1937E-02  0.4238E-01  0.4238E-01
      6.293  0.2068E-02  0.2070E-02  0.4252E-01  0.4252E-01
      6.363  0.2910E-02  0.2911E-02  0.4272E-01  0.4272E-01
      6.432  0.4232E-02  0.4231E-02  0.4302E-01  0.4302E-01
      6.502  0.5233E-02  0.5231E-02  0.4338E-01  0.4338E-01
      6.572  0.5147E-02  0.5145E-02  0.4374E-01  0.4374E-01
      6.641  0.3883E-02  0.3882E-02  0.4401E-01  0.4401E-01
      6.711  0.2099E-02  0.2098E-02  0.4416E-01  0.4416E-01
      6.780  0.6477E-03  0.6478E-03  0.4420E-01  0.4420E-01
      6.850 -0.6955E-04 -0.6945E-04  0.4420E-01  0.4420E-01
      6.919 -0.2148E-03 -0.2148E-03  0.4418E-01  0.4418E-01
      6.989 -0.1387E-03 -0.1387E-03  0.4417E-01  0.4417E-01
      7.059 -0.5826E-04 -0.5826E-04  0.4417E-01  0.4417E-01
      7.128 -0.2926E-04 -0.2927E-04  0.4417E-01  0.4417E-01
      7.198 -0.4853E-04 -0.4856E-04  0.4416E-01  0.4416E-01
      7.267 -0.1034E-03 -0.1034E-03  0.4416E-01  0.4416E-01
      7.337 -0.1264E-03 -0.1264E-03  0.4415E-01  0.4415E-01
      7.407  0.6709E-04  0.6721E-04  0.4415E-01  0.4415E-01
      7.476  0.6803E-03  0.6806E-03  0.4420E-01  0.4420E-01
      7.546  0.1637E-02  0.1638E-02  0.4431E-01  0.4431E-01
      7.615  0.2467E-02  0.2468E-02  0.4448E-01  0.4448E-01
      7.685  0.2695E-02  0.2696E-02  0.4467E-01  0.4467E-01
      7.754  0.2284E-02  0.2285E-02  0.4483E-01  0.4483E-01
      7.824  0.1550E-02  0.1549E-02  0.4494E-01  0.4494E-01
      7.894  0.8111E-03  0.8100E-03  0.4499E-01  0.4499E-01
      7.963  0.2653E-03  0.2643E-03  0.4501E-01  0.4501E-01
      8.033 -0.1447E-04 -0.1495E-04  0.4501E-01  0.4501E-01
      8.102 -0.8285E-04 -0.8291E-04  0.4501E-01  0.4501E-01
      8.172 -0.5798E-04 -0.5791E-04  0.4500E-01  0.4500E-01
      8.242 -0.2456E-04 -0.2450E-04  0.4500E-01  0.4500E-01
      8.311 -0.7289E-05 -0.7267E-05  0.4500E-01  0.4500E-01
      8.381 -0.1590E-05 -0.1584E-05  0.4500E-01  0.4500E-01
      8.450 -0.2609E-06 -0.2597E-06  0.4500E-01  0.4500E-01
      8.520 -0.3259E-07 -0.3242E-07  0.4500E-01  0.4500E-01
      8.590 -0.3123E-08 -0.3105E-08  0.4500E-01  0.4500E-01
      8.659 -0.2309E-09 -0.2294E-09  0.4500E-01  0.4500E-01
      8.729 -0.1322E-10 -0.1313E-10  0.4500E-01  0.4500E-01
      8.798 -0.5876E-12 -0.5832E-12  0.4500E-01  0.4500E-01
      8.868 -0.2032E-13 -0.2016E-13  0.4500E-01  0.4500E-01
      8.937 -0.5478E-15 -0.5434E-15  0.4500E-01  0.4500E-01
      9.007 -0.1152E-16 -0.1152E-16  0.4500E-01  0.4500E-01
      9.077  0.0000E+00  0.0000E+00  0.4500E-01  0.4500E-01
      9.146  0.0000E+00  0.0000E+00  0.4500E-01  0.4500E-01
      9.216  0.0000E+00  0.0000E+00  0.4500E-01  0.4500E-01
      9.285  0.0000E+00  0.0000E+00  0.4500E-01  0.4500E-01
      9.355  0.0000E+00  0.0000E+00  0.4500E-01  0.4500E-01
      9.425  0.0000E+00  0.0000E+00  0.4500E-01  0.4500E-01
      9.494  0.0000E+00  0.0000E+00  0.4500E-01  0.4500E-01
      9.564  0.0000E+00  0.0000E+00  0.4500E-01  0.4500E-01
      9.633  0.0000E+00  0.0000E+00  0.4500E-01  0.4500E-01
      9.703  0.0000E+00  0.0000E+00  0.4500E-01  0.4500E-01
      9.772  0.0000E+00  0.0000E+00  0.4500E-01  0.4500E-01
