       N       E                     dE             d eps       ncg     rms          rms(c)
DAV:   1     0.430190376808E+03    0.43019E+03   -0.20298E+04   576   0.150E+03
DAV:   2     0.117597123078E+02   -0.41843E+03   -0.40428E+03   576   0.344E+02
DAV:   3    -0.190481312534E+02   -0.30808E+02   -0.29724E+02   628   0.146E+02
DAV:   4    -0.200496592633E+02   -0.10015E+01   -0.99746E+00   640   0.327E+01
DAV:   5    -0.200749610729E+02   -0.25302E-01   -0.25298E-01   704   0.395E+00    0.202E+01
DAV:   6    -0.156099259577E+02    0.44650E+01   -0.52852E+01   632   0.129E+02    0.102E+01
DAV:   7    -0.132471167737E+02    0.23628E+01   -0.14386E+01   648   0.869E+01    0.491E+00
DAV:   8    -0.127402735635E+02    0.50684E+00   -0.23192E+00   728   0.550E+01    0.367E+00
DAV:   9    -0.123603286532E+02    0.37994E+00   -0.12155E+00   804   0.253E+01    0.284E+00
DAV:  10    -0.122749037590E+02    0.85425E-01   -0.10956E+00   684   0.144E+01    0.217E+00
DAV:  11    -0.129043283400E+02   -0.62942E+00   -0.34847E-01   668   0.952E+00    0.125E+00
DAV:  12    -0.146299742471E+02   -0.17256E+01   -0.11149E+00   712   0.102E+01    0.102E+00
DAV:  13    -0.157151306241E+02   -0.10852E+01   -0.83466E-01   708   0.114E+01    0.807E-01
DAV:  14    -0.163062388570E+02   -0.59111E+00   -0.50014E-01   648   0.477E+00    0.588E-01
DAV:  15    -0.166844053404E+02   -0.37817E+00   -0.35161E-01   648   0.293E+00    0.349E-01
DAV:  16    -0.168886987798E+02   -0.20429E+00   -0.10371E-01   748   0.313E+00    0.295E-01
DAV:  17    -0.169592067877E+02   -0.70508E-01   -0.26665E-02   792   0.308E+00    0.227E-01
DAV:  18    -0.170033449435E+02   -0.44138E-01   -0.16707E-02   756   0.216E+00    0.174E-01
DAV:  19    -0.170382507446E+02   -0.34906E-01   -0.57676E-03   728   0.151E+00    0.121E-01
DAV:  20    -0.170746596427E+02   -0.36409E-01   -0.38005E-03   712   0.125E+00    0.758E-02
DAV:  21    -0.171098742497E+02   -0.35215E-01   -0.13021E-03   588   0.849E-01    0.676E-02
DAV:  22    -0.171422886226E+02   -0.32414E-01   -0.10506E-03   568   0.490E-01    0.344E-02
DAV:  23    -0.171469136921E+02   -0.46251E-02   -0.93260E-04   536   0.252E-01    0.342E-02
DAV:  24    -0.171487244238E+02   -0.18107E-02   -0.24095E-04   424   0.242E-01    0.213E-02
DAV:  25    -0.171502820939E+02   -0.15577E-02   -0.19151E-04   416   0.139E-01    0.919E-03
DAV:  26    -0.171504871071E+02   -0.20501E-03   -0.40034E-05   400   0.399E-02    0.404E-03
DAV:  27    -0.171505297496E+02   -0.42643E-04   -0.99504E-06   408   0.344E-02
   1 F= -.18659189E+02 E0= -.18656943E+02  d E =-.186592E+02  mag=     0.0005
       N       E                     dE             d eps       ncg     rms          rms(c)
DAV:   1    -0.171618470373E+02   -0.11360E-01   -0.95379E+00   608   0.165E+01    0.316E-01
DAV:   2    -0.171795468569E+02   -0.17700E-01   -0.19668E-01   876   0.751E+00    0.364E-01
DAV:   3    -0.171776360381E+02    0.19108E-02   -0.11431E-02   680   0.470E+00    0.160E-01
DAV:   4    -0.171775799124E+02    0.56126E-04   -0.20736E-03   604   0.838E-01    0.141E-01
DAV:   5    -0.171773813922E+02    0.19852E-03   -0.87730E-04   596   0.848E-01
   2 F= -.18688637E+02 E0= -.18686045E+02  d E =-.294478E-01  mag=     0.0003
       N       E                     dE             d eps       ncg     rms          rms(c)
DAV:   1    -0.170701941877E+02    0.10739E+00   -0.73323E+01   640   0.508E+01    0.895E-01
DAV:   2    -0.172143979335E+02   -0.14420E+00   -0.15875E+00   872   0.215E+01    0.992E-01
DAV:   3    -0.171991263471E+02    0.15272E-01   -0.84911E-02   708   0.136E+01    0.420E-01
DAV:   4    -0.171992106628E+02   -0.84316E-04   -0.18975E-02   648   0.211E+00    0.362E-01
DAV:   5    -0.171977479333E+02    0.14627E-02   -0.65118E-03   728   0.264E+00    0.241E-01
DAV:   6    -0.171971385175E+02    0.60942E-03   -0.73065E-03   960   0.284E+00    0.105E-01
DAV:   7    -0.171970287796E+02    0.10974E-03   -0.12351E-03   540   0.131E+00
   3 F= -.18715496E+02 E0= -.18712597E+02  d E =-.563071E-01  mag=     0.0001
       N       E                     dE             d eps       ncg     rms          rms(c)
DAV:   1    -0.171955068419E+02    0.16317E-02   -0.28090E+00   608   0.880E+00    0.101E-01
DAV:   2    -0.172002555345E+02   -0.47487E-02   -0.49002E-02   848   0.259E+00    0.161E-01
DAV:   3    -0.172000291250E+02    0.22641E-03   -0.10930E-03   596   0.110E+00    0.112E-01
DAV:   4    -0.171999654953E+02    0.63630E-04   -0.16107E-04   360   0.294E-01
   4 F= -.18716942E+02 E0= -.18714048E+02  d E =-.577537E-01  mag=     0.0001
       N       E                     dE             d eps       ncg     rms          rms(c)
DAV:   1    -0.171994326675E+02    0.59646E-03   -0.83101E-02   640   0.174E+00    0.334E-02
DAV:   2    -0.171995859139E+02   -0.15325E-03   -0.15990E-03   684   0.788E-01
   5 F= -.18716823E+02 E0= -.18713926E+02  d E =-.576345E-01  mag=     0.0001
       N       E                     dE             d eps       ncg     rms          rms(c)
DAV:   1    -0.171996836488E+02   -0.25098E-03   -0.18500E-02   656   0.924E-01    0.116E-02
DAV:   2    -0.171997037846E+02   -0.20136E-04   -0.21882E-04   376   0.307E-01
   6 F= -.18716817E+02 E0= -.18713922E+02  d E =-.576284E-01  mag=     0.0001
       N       E                     dE             d eps       ncg     rms          rms(c)
DAV:   1    -0.171996370870E+02    0.46562E-04   -0.61716E-03   592   0.472E-01    0.952E-03
DAV:   2    -0.171996427107E+02   -0.56237E-05   -0.54984E-05   344   0.211E-01
   7 F= -.18716826E+02 E0= -.18713930E+02  d E =-.576374E-01  mag=     0.0000
       N       E                     dE             d eps       ncg     rms          rms(c)
DAV:   1    -0.171996848193E+02   -0.47732E-04   -0.15274E-03   688   0.288E-01    0.389E-03
DAV:   2    -0.171996862608E+02   -0.14414E-05   -0.11607E-05   336   0.120E-01
   8 F= -.18716833E+02 E0= -.18713938E+02  d E =-.576446E-01  mag=     0.0000
       N       E                     dE             d eps       ncg     rms          rms(c)
DAV:   1    -0.171988163182E+02    0.86850E-03   -0.17278E+00   592   0.703E+00    0.822E-02
DAV:   2    -0.172016383227E+02   -0.28220E-02   -0.29379E-02   868   0.191E+00    0.996E-02
DAV:   3    -0.172015548274E+02    0.83495E-04   -0.77557E-04   512   0.844E-01
   9 F= -.18720627E+02 E0= -.18717729E+02  d E =-.379322E-02  mag=     0.0000
       N       E                     dE             d eps       ncg     rms          rms(c)
DAV:   1    -0.171806737154E+02    0.20965E-01   -0.13706E+01   592   0.201E+01    0.272E-01
DAV:   2    -0.172049646618E+02   -0.24291E-01   -0.25719E-01   880   0.598E+00    0.349E-01
DAV:   3    -0.172036971093E+02    0.12676E-02   -0.68500E-03   640   0.300E+00    0.234E-01
DAV:   4    -0.172033321835E+02    0.36493E-03   -0.15369E-03   592   0.113E+00    0.206E-01
DAV:   5    -0.172025394015E+02    0.79278E-03   -0.31337E-03   832   0.143E+00    0.588E-02
DAV:   6    -0.172025353206E+02    0.40809E-05   -0.72571E-04   464   0.135E+00
  10 F= -.18726980E+02 E0= -.18724087E+02  d E =-.101469E-01  mag=     0.0000
       N       E                     dE             d eps       ncg     rms          rms(c)
DAV:   1    -0.170893234691E+02    0.11322E+00   -0.56340E+01   616   0.434E+01    0.590E-01
DAV:   2    -0.171963929919E+02   -0.10707E+00   -0.11281E+00   888   0.153E+01    0.759E-01
DAV:   3    -0.171891365975E+02    0.72564E-02   -0.42814E-02   656   0.868E+00    0.404E-01
DAV:   4    -0.171885446140E+02    0.59198E-03   -0.97118E-03   640   0.190E+00    0.358E-01
DAV:   5    -0.171864975052E+02    0.20471E-02   -0.61633E-03   744   0.259E+00    0.192E-01
DAV:   6    -0.171860529901E+02    0.44452E-03   -0.50550E-03   992   0.265E+00    0.675E-02
DAV:   7    -0.171860127315E+02    0.40259E-04   -0.79162E-04   472   0.109E+00
  11 F= -.18721106E+02 E0= -.18718248E+02  d E =-.427283E-02  mag=     0.0000
       N       E                     dE             d eps       ncg     rms          rms(c)
DAV:   1    -0.171494404535E+02    0.36613E-01   -0.29823E+01   600   0.308E+01    0.355E-01
DAV:   2    -0.172052600012E+02   -0.55820E-01   -0.57614E-01   848   0.763E+00    0.475E-01
DAV:   3    -0.172029945308E+02    0.22655E-02   -0.13828E-02   600   0.371E+00    0.314E-01
DAV:   4    -0.172024502435E+02    0.54429E-03   -0.22900E-03   648   0.107E+00    0.283E-01
DAV:   5    -0.172009659124E+02    0.14843E-02   -0.31148E-03   960   0.191E+00    0.128E-01
DAV:   6    -0.172006963424E+02    0.26957E-03   -0.22368E-03   800   0.150E+00    0.423E-02
DAV:   7    -0.172006842959E+02    0.12046E-04   -0.33260E-04   384   0.831E-01
  12 F= -.18727944E+02 E0= -.18725052E+02  d E =-.111111E-01  mag=     0.0000
       N       E                     dE             d eps       ncg     rms          rms(c)
DAV:   1    -0.171898021741E+02    0.10894E-01   -0.57654E+00   608   0.128E+01    0.189E-01
DAV:   2    -0.172000941850E+02   -0.10292E-01   -0.11193E-01   872   0.552E+00    0.251E-01
DAV:   3    -0.171993580509E+02    0.73613E-03   -0.66354E-03   720   0.317E+00    0.138E-01
DAV:   4    -0.171992953074E+02    0.62743E-04   -0.10597E-03   504   0.660E-01
  13 F= -.18731402E+02 E0= -.18728512E+02  d E =-.345761E-02  mag=     0.0000
       N       E                     dE             d eps       ncg     rms          rms(c)
DAV:   1    -0.171970312244E+02    0.23268E-02   -0.57319E-01   608   0.415E+00    0.894E-02
DAV:   2    -0.171979137547E+02   -0.88253E-03   -0.10370E-02   928   0.192E+00    0.859E-02
DAV:   3    -0.171978259744E+02    0.87780E-04   -0.90853E-04   544   0.124E+00
  14 F= -.18731455E+02 E0= -.18728569E+02  d E =-.351038E-02  mag=     0.0000
