 vasp.6.3.2 27Jun22 (build Aug 17 2022 15:43:34) complex                        
  
 executed on           tv2STDVTST date 2025.01.21  16:00:10
 running   20 mpi-ranks, with    1 threads/rank
 distrk:  each k-point on   20 cores,    1 groups
 distr:  one band on NCORE=   5 cores,    4 groups


--------------------------------------------------------------------------------------------------------


 -----------------------------------------------------------------------------
|                                                                             |
|           W    W    AA    RRRRR   N    N  II  N    N   GGGG   !!!           |
|           W    W   A  A   R    R  NN   N  II  NN   N  G    G  !!!           |
|           W    W  A    A  R    R  N N  N  II  N N  N  G       !!!           |
|           W WW W  AAAAAA  RRRRR   N  N N  II  N  N N  G  GGG   !            |
|           WW  WW  A    A  R   R   N   NN  II  N   NN  G    G                |
|           W    W  A    A  R    R  N    N  II  N    N   GGGG   !!!           |
|                                                                             |
|     Found issues when parsing the INCAR file                                |
|     In line 64: Tagname --- R W I G S contains invalid characters.          |
|     Please check if the interpretation in the OUTCAR file is correct.       |
|                                                                             |
 -----------------------------------------------------------------------------

 INCAR:
    = \=\=\=\=\=\=\=\=\=\=\=\=\=\=\=\=\=\=\=\=\=\=\=\=\=\=\=\=\=\=\=\=\=\=\=\=\=\=\=\=\=\=\=\=\=\=\=\=\=\=\=\=\=\=\=\=\=\=\=\=\=\=\=\=\=\=\=\=\=\=\=\=
    = \=\=\=\=\=\=\=\=\=\=\=\=\=\=\=\=\=\=\=\=\=\=\=\=\=\=\=\=\=\=\=\=\=\=\=\=\=\=\=\=\=\=\=\=\=\=\=\=\=\=\=\=\=\=\=\=\=\=\=\=\=\=\=\=\=\=\=\=\=\=\=\=
   ISTART = 0
   ICHARG = 2
   IPIPOL = 3
   IVDW = 11
   IDIPOL = 3
   IVDW = 11
    = \=\=\=\=\=\=\=\=\=\=\=\=\=\=\=\=\=\=\=\=\=\=\=\=\=\=\=\=\=\=\=\=\=\=\=\=\=\=\=\=\=\=\=\=\=\=\=\=\=\=\=\=\=\=\=\=\=\=\=\=\=\=\=\=\=\=\=\=\=\=\=\=
    = \=\=\=\=\=\=\=\=\=\=\=\=\=\=\=\=\=\=\=\=\=\=\=\=\=\=\=\=\=\=\=\=\=\=\=\=\=\=\=\=\=\=\=\=\=\=\=\=\=\=\=\=\=\=\=\=\=\=\=\=\=\=\=\=\=\=\=\=\=\=\=\=
   ISPIN = 2
    = \=\=\=\=\=\=\=\=\=\=\=\=\=\=\=\=\=\=\=\=\=\=\=\=\=\=\=\=\=\=\=\=\=\=\=\=\=\=\=\=\=\=\=\=\=\=\=\=\=\=\=\=\=\=\=\=\=\=\=\=\=\=\=\=\=\=\=\=\=\=\=\=
    = \=\=\=\=\=\=\=\=\=\=\=\=\=\=\=\=\=\=\=\=\=\=\=\=\=\=\=\=\=\=\=\=\=\=\=\=\=\=\=\=\=\=\=\=\=\=\=\=\=\=\=\=\=\=\=\=\=\=\=\=\=\=\=\=\=\=\=\=\=\=\=\=
   ENCUT = 400
   PREC = Normal
   EDIFF = 2E-04
   GGA = PE
   ISMEAR = 1
   SIGMA = 0.2
   LREAL = .FALSE.
    = \=\=\=\=\=\=\=\=\=\=\=\=\=\=\=\=\=\=\=\=\=\=\=\=\=\=\=\=\=\=\=\=\=\=\=\=\=\=\=\=\=\=\=\=\=\=\=\=\=\=\=\=\=\=\=\=\=\=\=\=\=\=\=\=\=\=\=\=\=\=\=\=
    = \=\=\=\=\=\=\=\=\=\=\=\=\=\=\=\=\=\=\=\=\=\=\=\=\=\=\=\=\=\=\=\=\=\=\=\=\=\=\=\=\=\=\=\=\=\=\=\=\=\=\=\=\=\=\=\=\=\=\=\=\=\=\=\=\=\=\=\=\=\=\=\=
   ISYM = 1
   NSW = 800
   IBRION = 2
   POTIM = 0.5
   ISIF = 2
   EDIFFG = -.03
    = \=\=\=\=\=\=\=\=\=\=\=\=\=\=\=\=\=\=\=\=\=\=\=\=\=\=\=\=\=\=\=\=\=\=\=\=\=\=\=\=\=\=\=\=\=\=\=\=\=\=\=\=\=\=\=\=\=\=\=\=\=\=\=\=\=\=\=\=\=\=\=\=
    = \=\=\=\=\=\=\=\=\=\=\=\=\=\=\=\=\=\=\=\=\=\=\=\=\=\=\=\=\=\=\=\=\=\=\=\=\=\=\=\=\=\=\=\=\=\=\=\=\=\=\=\=\=\=\=\=\=\=\=\=\=\=\=\=\=\=\=\=\=\=\=\=
   NPAR = 4
   LWAVE = .FALSE.
   LCHARG = .FALSE.

 POTCAR:    PAW_PBE Cu 22Jun2005                  
 -----------------------------------------------------------------------------
|                                                                             |
|           W    W    AA    RRRRR   N    N  II  N    N   GGGG   !!!           |
|           W    W   A  A   R    R  NN   N  II  NN   N  G    G  !!!           |
|           W    W  A    A  R    R  N N  N  II  N N  N  G       !!!           |
|           W WW W  AAAAAA  RRRRR   N  N N  II  N  N N  G  GGG   !            |
|           WW  WW  A    A  R   R   N   NN  II  N   NN  G    G                |
|           W    W  A    A  R    R  N    N  II  N    N   GGGG   !!!           |
|                                                                             |
|     You use a magnetic or noncollinear calculation, but did not specify     |
|     the initial magnetic moment with the MAGMOM tag. Note that a            |
|     default of 1 will be used for all atoms. This ferromagnetic setup       |
|     may break the symmetry of the crystal, in particular it may rule        |
|     out finding an antiferromagnetic solution. Thence, we recommend         |
|     setting the initial magnetic moment manually or verifying carefully     |
|     that this magnetic setup is desired.                                    |
|                                                                             |
 -----------------------------------------------------------------------------

 POTCAR:    PAW_PBE Cu 22Jun2005                  
   SHA256 =  0e71e558f37a4e8407882b4609ceaae59938afaad9ced71dfe8490308a0ab630 Cu/POTCAR             
   COPYR  = (c) Copyright 22Jun2005 Georg Kresse                                                    
   COPYR  = This file is part of the software VASP. Any use, copying, and all other rights are regul
   COPYR  = If you do not have a valid VASP license, you may not use, copy or distribute this file. 
   VRHFIN =Cu: d10 p1                                                                               
   LEXCH  = PE                                                                                      
   EATOM  =  1390.9808 eV,  102.2342 Ry                                                             
                                                                                                    
   TITEL  = PAW_PBE Cu 22Jun2005                                                                    
   LULTRA =        F    use ultrasoft PP ?                                                          
   IUNSCR =        1    unscreen: 0-lin 1-nonlin 2-no                                               
   RPACOR =    2.000    partial core radius                                                         
   POMASS =   63.546; ZVAL   =   11.000    mass and valenz                                          
   RCORE  =    2.300    outmost cutoff radius                                                       
   RWIGS  =    2.200; RWIGS  =    1.164    wigner-seitz radius (au A)                               
   ENMAX  =  295.446; ENMIN  =  221.585 eV                                                          
   ICORE  =        3    local potential                                                             
   LCOR   =        T    correct aug charges                                                         
   LPAW   =        T    paw PP                                                                      
   EAUG   =  586.980                                                                                
   DEXC   =    0.000                                                                                
   RMAX   =    2.344    core radius for proj-oper                                                   
   RAUG   =    1.300    factor for augmentation sphere                                              
   RDEP   =    2.302    radius for radial grids                                                     
   RDEPT  =    1.771    core radius for aug-charge                                                  
                                                                                                    
   Atomic configuration                                                                             
    9 entries                                                                                       
     n  l   j            E        occ.                                                              
     1  0  0.50     -8850.2468   2.0000                                                             
     2  0  0.50     -1062.3498   2.0000                                                             
     2  1  1.50      -916.8226   6.0000                                                             
     3  0  0.50      -114.6929   2.0000                                                             
     3  1  1.50       -72.1325   6.0000                                                             
     3  2  2.50        -5.0394  10.0000                                                             
     4  0  0.50        -4.6097   1.0000                                                             
     4  1  0.50        -4.0817   0.0000                                                             
     4  3  2.50        -1.3606   0.0000                                                             
   Description                                                                                      
     l       E           TYP  RCUT    TYP  RCUT                                                     
     2     -5.0393973     23  2.200                                                                 
     2     10.8846608     23  2.200                                                                 
     0     -4.6097109     23  2.200                                                                 
     0      8.2520465     23  2.200                                                                 
     1     -2.7211652     23  2.200                                                                 
     1     21.7055443     23  2.200                                                                 
     3      2.7211652     23  2.300                                                                 
  local pseudopotential read in
  partial core-charges read in
  partial kinetic energy density read in
  atomic valenz-charges read in
  non local Contribution for L=           2  read in
    real space projection operators read in
  non local Contribution for L=           2  read in
    real space projection operators read in
  non local Contribution for L=           0  read in
    real space projection operators read in
  non local Contribution for L=           0  read in
    real space projection operators read in
  non local Contribution for L=           1  read in
    real space projection operators read in
  non local Contribution for L=           1  read in
    real space projection operators read in
    PAW grid and wavefunctions read in
 
   number of l-projection  operators is LMAX  =           6
   number of lm-projection operators is LMMAX =          18
 
  PAW_PBE Cu 22Jun2005                  :
 energy of atom  1       EATOM=-1390.9808
 kinetic energy error for atom=    0.0232 (will be added to EATOM!!)
 
 
 POSCAR: FCC Cu
  positions in cartesian coordinates
  velocities in cartesian coordinates
  No initial velocities read in
 exchange correlation table for  LEXCH =        8
   RHO(1)=    0.500       N(1)  =     2000
   RHO(2)=  100.500       N(2)  =     4000

 VTST: version 4.2, (08/11/21)

 CHAIN: initializing optimizer
 
 OPT: Using VASP Conjugate-Gradient optimizer
 CHAIN: Read ICHAIN            0
 
 POSCAR: FCC Cu
  positions in cartesian coordinates
  velocities in cartesian coordinates
  No initial velocities read in
 


--------------------------------------------------------------------------------------------------------


 ion  position               nearest neighbor table
   1  0.000  0.000  0.000-   2 2.57   2 2.57   2 2.57   2 2.57   3 2.57
   2  0.500  0.500  0.064-   3 2.57   3 2.57   3 2.57   1 2.57   3 2.57   1 2.57   1 2.57   1 2.57
                             4 2.57
   3  0.000  0.000  0.127-   2 2.57   2 2.57   2 2.57   4 2.57   2 2.57   4 2.57   4 2.57   4 2.57
                             1 2.57   5 2.57
   4  0.500  0.500  0.191-   3 2.57   5 2.57   3 2.57   5 2.57   3 2.57   5 2.57   3 2.57   5 2.57
                             2 2.57
   5  0.000  0.000  0.255-   4 2.57   4 2.57   4 2.57   4 2.57   3 2.57
 
  LATTYP: Found a simple orthorhombic cell.
 ALAT       =     2.5667977333
 B/A-ratio  =     1.4142135422
 C/A-ratio  =     7.8438572462
  
  Lattice vectors:
  
 A1 = (   0.0000000000,  -2.5667977333,   0.0000000000)
 A2 = (   3.6300001144,   0.0000000000,   0.0000000000)
 A3 = (   0.0000000000,   0.0000000000,  20.1335950000)


Analysis of symmetry for initial positions (statically):
=====================================================================
 Subroutine PRICEL returns:
 Original cell was already a primitive cell.
 

 Routine SETGRP: Setting up the symmetry group for a 
 simple orthorhombic supercell.


 Subroutine GETGRP returns: Found  8 space group operations
 (whereof  4 operations were pure point group operations)
 out of a pool of  8 trial point group operations.


The static configuration has the point symmetry C_2v.
 The point group associated with its full space group is D_2h.


Analysis of symmetry for dynamics (positions and initial velocities):
=====================================================================
 Subroutine PRICEL returns:
 Original cell was already a primitive cell.
 

 Routine SETGRP: Setting up the symmetry group for a 
 simple orthorhombic supercell.


 Subroutine GETGRP returns: Found  8 space group operations
 (whereof  4 operations were pure point group operations)
 out of a pool of  8 trial point group operations.


The dynamic configuration has the point symmetry C_2v.
 The point group associated with its full space group is D_2h.


Analysis of constrained symmetry for selective dynamics:
=====================================================================
 Subroutine PRICEL returns:
 Original cell was already a primitive cell.
 

 Routine SETGRP: Setting up the symmetry group for a 
 simple orthorhombic supercell.


 Subroutine GETGRP returns: Found  4 space group operations
 (whereof  4 operations were pure point group operations)
 out of a pool of  8 trial point group operations.


The constrained configuration has the point symmetry C_2v.


Analysis of structural, dynamic, and magnetic symmetry:
=====================================================================
 Subroutine PRICEL returns:
 Original cell was already a primitive cell.
 

 Routine SETGRP: Setting up the symmetry group for a 
 simple orthorhombic supercell.


 Subroutine GETGRP returns: Found  4 space group operations
 (whereof  4 operations were pure point group operations)
 out of a pool of  8 trial point group operations.


The overall configuration has the point symmetry C_2v.


 Subroutine INISYM returns: Found  4 space group operations
 (whereof  4 operations are pure point group operations),
 and found     1 'primitive' translations


----------------------------------------------------------------------------------------

                                     Primitive cell                                     

  volume of cell :     187.5943

  direct lattice vectors                    reciprocal lattice vectors
     3.630000114  0.000000000  0.000000000     0.275482085  0.000000000  0.000000000
     0.000000000  2.566797733  0.000000000     0.000000000  0.389590495  0.000000000
     0.000000000  0.000000000 20.133595000     0.000000000  0.000000000  0.049668229

  length of vectors
     3.630000114  2.566797733 20.133595000     0.275482085  0.389590495  0.049668229

  position of ions in fractional coordinates (direct lattice)
     0.000000000  0.000000000  0.000000000
     0.500000000  0.500000000  0.063744148
     0.000000000  0.000000000  0.127488297
     0.500000000  0.500000000  0.191232445
     0.000000000  0.000000000  0.254976593

  ion indices of the primitive-cell ions
   primitive index   ion index
                 1           1
                 2           2
                 3           3
                 4           4
                 5           5

----------------------------------------------------------------------------------------

 
 
 KPOINTS: Auto-mesh                               

Automatic generation of k-mesh.
 Grid dimensions read from file:
 generate k-points for:    3    3    1

 Generating k-lattice:

  Cartesian coordinates                     Fractional coordinates (reciprocal lattice)
     0.091827362  0.000000000  0.000000000     0.333333333  0.000000000  0.000000000
     0.000000000  0.129863498  0.000000000     0.000000000  0.333333333  0.000000000
     0.000000000  0.000000000  0.049668229     0.000000000  0.000000000  1.000000000

  Length of vectors
     0.091827362  0.129863498  0.049668229

  Shift w.r.t. Gamma in fractional coordinates (k-lattice)
     0.000000000  0.000000000  0.000000000

 
 Subroutine IBZKPT returns following result:
 ===========================================
 
 Found      4 irreducible k-points:
 
 Following reciprocal coordinates:
            Coordinates               Weight
  0.000000  0.000000  0.000000      1.000000
  0.333333  0.000000  0.000000      2.000000
  0.000000  0.333333  0.000000      2.000000
  0.333333  0.333333  0.000000      4.000000
 
 Following cartesian coordinates:
            Coordinates               Weight
  0.000000  0.000000  0.000000      1.000000
  0.091827  0.000000  0.000000      2.000000
  0.000000  0.129863  0.000000      2.000000
  0.091827  0.129863  0.000000      4.000000
 


--------------------------------------------------------------------------------------------------------




 Dimension of arrays:
   k-points           NKPTS =      4   k-points in BZ     NKDIM =      4   number of bands    NBANDS=     36
   number of dos      NEDOS =    301   number of ions     NIONS =      5
   non local maximal  LDIM  =      6   non local SUM 2l+1 LMDIM =     18
   total plane-waves  NPLWV =  24696
   max r-space proj   IRMAX =      1   max aug-charges    IRDMAX=   4012
   dimension x,y,z NGX =    18 NGY =   14 NGZ =   98
   dimension x,y,z NGXF=    36 NGYF=   28 NGZF=  196
   support grid    NGXF=    36 NGYF=   28 NGZF=  196
   ions per type =               5
   NGX,Y,Z   is equivalent  to a cutoff of   8.24,  9.07,  8.09 a.u.
   NGXF,Y,Z  is equivalent  to a cutoff of  16.49, 18.13, 16.18 a.u.

 SYSTEM =  unknown system                          
 POSCAR =  FCC Cu                                  

 Startparameter for this run:
   NWRITE =      2    write-flag & timer
   PREC   = normal    normal or accurate (medium, high low for compatibility)
   ISTART =      0    job   : 0-new  1-cont  2-samecut
   ICHARG =      2    charge: 1-file 2-atom 10-const
   ISPIN  =      2    spin polarized calculation?
   LNONCOLLINEAR =      F non collinear calculations
   LSORBIT =      F    spin-orbit coupling
   INIWAV =      1    electr: 0-lowe 1-rand  2-diag
   LASPH  =      F    aspherical Exc in radial PAW
 Electronic Relaxation 1
   ENCUT  =  400.0 eV  29.40 Ry    5.42 a.u.   5.92  4.19 32.83*2*pi/ulx,y,z
   ENINI  =  400.0     initial cutoff
   ENAUG  =  587.0 eV  augmentation charge cutoff
   NELM   =     60;   NELMIN=  2; NELMDL= -5     # of ELM steps 
   EDIFF  = 0.2E-03   stopping-criterion for ELM
   LREAL  =      F    real-space projection
   NLSPLINE    = F    spline interpolate recip. space projectors
   LCOMPAT=      F    compatible to vasp.4.4
   GGA_COMPAT  = T    GGA compatible to vasp.4.4-vasp.4.6
   LMAXPAW     = -100 max onsite density
   LMAXMIX     =    2 max onsite mixed and CHGCAR
   VOSKOWN=      0    Vosko Wilk Nusair interpolation
   ROPT   =    0.00000
 Ionic relaxation
   EDIFFG = -.3E-01   stopping-criterion for IOM
   NSW    =    800    number of steps for IOM
   NBLOCK =      1;   KBLOCK =    800    inner block; outer block 
   IBRION =      2    ionic relax: 0-MD 1-quasi-New 2-CG
   NFREE  =      1    steps in history (QN), initial steepest desc. (CG)
   ISIF   =      2    stress and relaxation
   IWAVPR =     11    prediction:  0-non 1-charg 2-wave 3-comb
   ISYM   =      1    0-nonsym 1-usesym 2-fastsym
   LCORR  =      T    Harris-Foulkes like correction to forces

   POTIM  = 0.5000    time-step for ionic-motion
   TEIN   =    0.0    initial temperature
   TEBEG  =    0.0;   TEEND  =   0.0 temperature during run
   SMASS  =  -3.00    Nose mass-parameter (am)
   estimated Nose-frequenzy (Omega)   =  0.10E-29 period in steps = 0.13E+47 mass=  -0.301E-27a.u.
   SCALEE = 1.0000    scale energy and forces
   NPACO  =    256;   APACO  = 10.0  distance and # of slots for P.C.
   PSTRESS=    0.0 pullay stress

  Mass of Ions in am
   POMASS =  63.55
  Ionic Valenz
   ZVAL   =  11.00
  Atomic Wigner-Seitz radii
   RWIGS  =  -1.00
  virtual crystal weights 
   VCA    =   1.00
   NELECT =      55.0000    total number of electrons
   NUPDOWN=      -1.0000    fix difference up-down

 DOS related values:
   EMIN   =  10.00;   EMAX   =-10.00  energy-range for DOS
   EFERMI =   0.00
   ISMEAR =     1;   SIGMA  =   0.20  broadening in eV -4-tet -1-fermi 0-gaus

 Electronic relaxation 2 (details)
   IALGO  =     38    algorithm
   LDIAG  =      T    sub-space diagonalisation (order eigenvalues)
   LSUBROT=      F    optimize rotation matrix (better conditioning)
   TURBO    =      0    0=normal 1=particle mesh
   IRESTART =      0    0=no restart 2=restart with 2 vectors
   NREBOOT  =      0    no. of reboots
   NMIN     =      0    reboot dimension
   EREF     =   0.00    reference energy to select bands
   IMIX   =      4    mixing-type and parameters
     AMIX     =   0.40;   BMIX     =  1.00
     AMIX_MAG =   1.60;   BMIX_MAG =  1.00
     AMIN     =   0.10
     WC   =   100.;   INIMIX=   1;  MIXPRE=   1;  MAXMIX= -45

 Intra band minimization:
   WEIMIN = 0.0010     energy-eigenvalue tresh-hold
   EBREAK =  0.14E-05  absolut break condition
   DEPER  =   0.30     relativ break condition  

   TIME   =   0.40     timestep for ELM

  volume/ion in A,a.u.               =      37.52       253.19
  Fermi-wavevector in a.u.,A,eV,Ry     =   1.087567  2.055203 16.092986  1.182801
  Thomas-Fermi vector in A             =   2.223729
 
 Write flags
   LWAVE        =      F    write WAVECAR
   LDOWNSAMPLE  =      F    k-point downsampling of WAVECAR
   LCHARG       =      F    write CHGCAR
   LVTOT        =      F    write LOCPOT, total local potential
   LVHAR        =      F    write LOCPOT, Hartree potential only
   LELF         =      F    write electronic localiz. function (ELF)
   LORBIT       =      0    0 simple, 1 ext, 2 COOP (PROOUT), +10 PAW based schemes


 Dipole corrections
   LMONO  =      F    monopole corrections only (constant potential shift)
   LDIPOL =      F    correct potential (dipole corrections)
   IDIPOL =      3    1-x, 2-y, 3-z, 4-all directions 
   EPSILON=  1.0000000 bulk dielectric constant

 Exchange correlation treatment:
   GGA     =    PE    GGA type
   LEXCH   =     8    internal setting for exchange type
   LIBXC   =     F    Libxc                    
   VOSKOWN =     0    Vosko Wilk Nusair interpolation
   LHFCALC =     F    Hartree Fock is set to
   LHFONE  =     F    Hartree Fock one center treatment
   AEXX    =    0.0000 exact exchange contribution

 Linear response parameters
   LEPSILON=     F    determine dielectric tensor
   LRPA    =     F    only Hartree local field effects (RPA)
   LNABLA  =     F    use nabla operator in PAW spheres
   LVEL    =     F    velocity operator in full k-point grid
   CSHIFT  =0.1000    complex shift for real part using Kramers Kronig
   OMEGAMAX=  -1.0    maximum frequency
   DEG_THRESHOLD= 0.2000000E-02 threshold for treating states as degnerate
   RTIME   =   -0.100 relaxation time in fs
  (WPLASMAI=    0.000 imaginary part of plasma frequency in eV, 0.658/RTIME)
   DFIELD  = 0.0000000 0.0000000 0.0000000 field for delta impulse in time
 
  Optional k-point grid parameters
   LKPOINTS_OPT  =     F    use optional k-point grid
   KPOINTS_OPT_MODE=     1    mode for optional k-point grid
 
 Orbital magnetization related:
   ORBITALMAG=     F  switch on orbital magnetization
   LCHIMAG   =     F  perturbation theory with respect to B field
   DQ        =  0.001000  dq finite difference perturbation B field
   LLRAUG    =     F  two centre corrections for induced B field



--------------------------------------------------------------------------------------------------------


 conjugate gradient relaxation of ions
   using selective dynamics as specified on POSCAR
   WARNING: If single coordinates had been selected the selection of coordinates
            is made according to the corresponding   d i r e c t   coordinates!
            Don't support selection of single cartesian coordinates -- sorry ...
  !
 charge density and potential will be updated during run
 spin polarized calculation
 Variant of blocked Davidson
 Davidson routine will perform the subspace rotation
 perform sub-space diagonalisation
    after iterative eigenvector-optimisation
 modified Broyden-mixing scheme, WC =      100.0
 initial mixing is a Kerker type mixing with AMIX =  0.4000 and BMIX =      1.0000
 Hartree-type preconditioning will be used
 using additional bands            8
 reciprocal scheme for non local part
 use partial core corrections
 calculate Harris-corrections to forces 
   (improved forces if not selfconsistent)
 use gradient corrections 
 use of overlap-Matrix (Vanderbilt PP)
 Methfessel and Paxton  Order N= 1 SIGMA  =   0.20


--------------------------------------------------------------------------------------------------------


  energy-cutoff  :      400.00
  volume of cell :      187.59
      direct lattice vectors                 reciprocal lattice vectors
     3.630000114  0.000000000  0.000000000     0.275482085  0.000000000  0.000000000
     0.000000000  2.566797733  0.000000000     0.000000000  0.389590495  0.000000000
     0.000000000  0.000000000 20.133595000     0.000000000  0.000000000  0.049668229

  length of vectors
     3.630000114  2.566797733 20.133595000     0.275482085  0.389590495  0.049668229


 
 k-points in units of 2pi/SCALE and weight: Auto-mesh                               
   0.00000000  0.00000000  0.00000000       0.111
   0.09182736  0.00000000  0.00000000       0.222
   0.00000000  0.12986350  0.00000000       0.222
   0.09182736  0.12986350  0.00000000       0.444
 
 k-points in reciprocal lattice and weights: Auto-mesh                               
   0.00000000  0.00000000  0.00000000       0.111
   0.33333333  0.00000000  0.00000000       0.222
   0.00000000  0.33333333  0.00000000       0.222
   0.33333333  0.33333333  0.00000000       0.444
 
 position of ions in fractional coordinates (direct lattice) 
   0.00000000  0.00000000  0.00000000
   0.50000000  0.50000000  0.06374415
   0.00000000  0.00000000  0.12748830
   0.50000000  0.50000000  0.19123245
   0.00000000  0.00000000  0.25497659
 
 position of ions in cartesian coordinates  (Angst):
   0.00000000  0.00000000  0.00000000
   1.81500006  1.28339887  1.28339887
   0.00000000  0.00000000  2.56679773
   1.81500006  1.28339887  3.85019660
   0.00000000  0.00000000  5.13359547
 


--------------------------------------------------------------------------------------------------------


 k-point   1 :   0.0000 0.0000 0.0000  plane waves:    3387
 k-point   2 :   0.3333 0.0000 0.0000  plane waves:    3400
 k-point   3 :   0.0000 0.3333 0.0000  plane waves:    3392
 k-point   4 :   0.3333 0.3333 0.0000  plane waves:    3436

 maximum and minimum number of plane-waves per node :       699      661

 maximum number of plane-waves:      3436
 maximum index in each direction: 
   IXMAX=    5   IYMAX=    4   IZMAX=   32
   IXMIN=   -6   IYMIN=   -4   IZMIN=  -32


 parallel 3D FFT for wavefunctions:
    minimum data exchange during FFTs selected (reduces bandwidth)
 parallel 3D FFT for charge:
    minimum data exchange during FFTs selected (reduces bandwidth)


 total amount of memory used by VASP MPI-rank0    33068. kBytes
=======================================================================

   base      :      30000. kBytes
   nonl-proj :        453. kBytes
   fftplans  :        527. kBytes
   grid      :       1237. kBytes
   one-center:         31. kBytes
   wavefun   :        820. kBytes
 
     INWAV:  cpu time      0.0000: real time      0.0005
 Broyden mixing: mesh for mixing (old mesh)
   NGX = 11   NGY =  9   NGZ = 65
  (NGX  = 36   NGY  = 28   NGZ  =196)
  gives a total of   6435 points

 initial charge density was supplied:
 charge density of overlapping atoms calculated
 number of electron      55.0000000 magnetization       5.0000000
 keeping initial charge density in first step


--------------------------------------------------------------------------------------------------------


 Maximum index for augmentation-charges          303 (set IRDMAX)


--------------------------------------------------------------------------------------------------------


 First call to EWALD:  gamma=   0.310
 Maximum number of real-space cells 4x 6x 1
 Maximum number of reciprocal cells 2x 2x 8

    FEWALD:  cpu time      0.0018: real time      0.0018


--------------------------------------- Iteration      1(   1)  ---------------------------------------


    POTLOK:  cpu time      0.0165: real time      0.0185
    SETDIJ:  cpu time      0.0061: real time      0.0061
     EDDAV:  cpu time      0.1572: real time      0.1588
       DOS:  cpu time      0.0011: real time      0.0011
    --------------------------------------------
      LOOP:  cpu time      0.1809: real time      0.1846

 eigenvalue-minimisations  :   576
 total energy-change (2. order) : 0.4301904E+03  (-0.2029763E+04)
 number of electron      55.0000000 magnetization       5.0000000
 augmentation part       55.0000000 magnetization       5.0000000

 Free energy of the ion-electron system (eV)
  ---------------------------------------------------
  alpha Z        PSCENC =        97.46139379
  Ewald energy   TEWEN  =     17920.54733072
  -Hartree energ DENC   =    -24551.86885969
  -exchange      EXHF   =         0.00000000
  -V(xc)+E(xc)   XCENC  =       227.47414496
  PAW double counting   =      6140.48748024    -6669.60465762
  entropy T*S    EENTRO =         0.00310872
  eigenvalues    EBANDS =       310.90223468
  atomic energy  EATOM  =      6954.78820100
  Solvation  Ediel_sol  =         0.00000000
  ---------------------------------------------------
  free energy    TOTEN  =       430.19037681 eV

  energy without entropy =      430.18726808  energy(sigma->0) =      430.18934057


--------------------------------------------------------------------------------------------------------




--------------------------------------- Iteration      1(   2)  ---------------------------------------


     EDDAV:  cpu time      0.1479: real time      0.1499
       DOS:  cpu time      0.0007: real time      0.0007
    --------------------------------------------
      LOOP:  cpu time      0.1487: real time      0.1506

 eigenvalue-minimisations  :   576
 total energy-change (2. order) :-0.4184307E+03  (-0.4042761E+03)
 number of electron      55.0000000 magnetization       5.0000000
 augmentation part       55.0000000 magnetization       5.0000000

 Free energy of the ion-electron system (eV)
  ---------------------------------------------------
  alpha Z        PSCENC =        97.46139379
  Ewald energy   TEWEN  =     17920.54733072
  -Hartree energ DENC   =    -24551.86885969
  -exchange      EXHF   =         0.00000000
  -V(xc)+E(xc)   XCENC  =       227.47414496
  PAW double counting   =      6140.48748024    -6669.60465762
  entropy T*S    EENTRO =        -0.00665056
  eigenvalues    EBANDS =      -107.51867053
  atomic energy  EATOM  =      6954.78820100
  Solvation  Ediel_sol  =         0.00000000
  ---------------------------------------------------
  free energy    TOTEN  =        11.75971231 eV

  energy without entropy =       11.76636287  energy(sigma->0) =       11.76192916


--------------------------------------------------------------------------------------------------------




--------------------------------------- Iteration      1(   3)  ---------------------------------------


     EDDAV:  cpu time      0.1560: real time      0.1578
       DOS:  cpu time      0.0008: real time      0.0008
    --------------------------------------------
      LOOP:  cpu time      0.1568: real time      0.1586

 eigenvalue-minimisations  :   628
 total energy-change (2. order) :-0.3080784E+02  (-0.2972354E+02)
 number of electron      55.0000000 magnetization       5.0000000
 augmentation part       55.0000000 magnetization       5.0000000

 Free energy of the ion-electron system (eV)
  ---------------------------------------------------
  alpha Z        PSCENC =        97.46139379
  Ewald energy   TEWEN  =     17920.54733072
  -Hartree energ DENC   =    -24551.86885969
  -exchange      EXHF   =         0.00000000
  -V(xc)+E(xc)   XCENC  =       227.47414496
  PAW double counting   =      6140.48748024    -6669.60465762
  entropy T*S    EENTRO =         0.03571664
  eigenvalues    EBANDS =      -138.36888130
  atomic energy  EATOM  =      6954.78820100
  Solvation  Ediel_sol  =         0.00000000
  ---------------------------------------------------
  free energy    TOTEN  =       -19.04813125 eV

  energy without entropy =      -19.08384789  energy(sigma->0) =      -19.06003680


--------------------------------------------------------------------------------------------------------




--------------------------------------- Iteration      1(   4)  ---------------------------------------


     EDDAV:  cpu time      0.1590: real time      0.1605
       DOS:  cpu time      0.0008: real time      0.0008
    --------------------------------------------
      LOOP:  cpu time      0.1598: real time      0.1613

 eigenvalue-minimisations  :   640
 total energy-change (2. order) :-0.1001528E+01  (-0.9974578E+00)
 number of electron      55.0000000 magnetization       5.0000000
 augmentation part       55.0000000 magnetization       5.0000000

 Free energy of the ion-electron system (eV)
  ---------------------------------------------------
  alpha Z        PSCENC =        97.46139379
  Ewald energy   TEWEN  =     17920.54733072
  -Hartree energ DENC   =    -24551.86885969
  -exchange      EXHF   =         0.00000000
  -V(xc)+E(xc)   XCENC  =       227.47414496
  PAW double counting   =      6140.48748024    -6669.60465762
  entropy T*S    EENTRO =         0.03692578
  eigenvalues    EBANDS =      -139.37161844
  atomic energy  EATOM  =      6954.78820100
  Solvation  Ediel_sol  =         0.00000000
  ---------------------------------------------------
  free energy    TOTEN  =       -20.04965926 eV

  energy without entropy =      -20.08658504  energy(sigma->0) =      -20.06196786


--------------------------------------------------------------------------------------------------------




--------------------------------------- Iteration      1(   5)  ---------------------------------------


     EDDAV:  cpu time      0.1696: real time      0.1711
       DOS:  cpu time      0.0008: real time      0.0008
    CHARGE:  cpu time      0.0410: real time      0.0412
    MIXING:  cpu time      0.0004: real time      0.0004
    --------------------------------------------
      LOOP:  cpu time      0.2118: real time      0.2136

 eigenvalue-minimisations  :   704
 total energy-change (2. order) :-0.2530181E-01  (-0.2529780E-01)
 number of electron      55.0000541 magnetization       4.3883427
 augmentation part       32.7635056 magnetization       4.3762095

 Broyden mixing:
  rms(total) = 0.20248E+01    rms(broyden)= 0.20246E+01
  rms(prec ) = 0.21144E+01
  weight for this iteration     100.00

 Free energy of the ion-electron system (eV)
  ---------------------------------------------------
  alpha Z        PSCENC =        97.46139379
  Ewald energy   TEWEN  =     17920.54733072
  -Hartree energ DENC   =    -24551.86885969
  -exchange      EXHF   =         0.00000000
  -V(xc)+E(xc)   XCENC  =       227.47414496
  PAW double counting   =      6140.48748024    -6669.60465762
  entropy T*S    EENTRO =         0.03693707
  eigenvalues    EBANDS =      -139.39693154
  atomic energy  EATOM  =      6954.78820100
  Solvation  Ediel_sol  =         0.00000000
  ---------------------------------------------------
  free energy    TOTEN  =       -20.07496107 eV

  energy without entropy =      -20.11189814  energy(sigma->0) =      -20.08727343


--------------------------------------------------------------------------------------------------------




--------------------------------------- Iteration      1(   6)  ---------------------------------------


    POTLOK:  cpu time      0.0141: real time      0.0143
    SETDIJ:  cpu time      0.0056: real time      0.0056
     EDDAV:  cpu time      0.1565: real time      0.1578
       DOS:  cpu time      0.0007: real time      0.0007
    CHARGE:  cpu time      0.0386: real time      0.0390
    MIXING:  cpu time      0.0005: real time      0.0006
    --------------------------------------------
      LOOP:  cpu time      0.2161: real time      0.2180

 eigenvalue-minimisations  :   632
 total energy-change (2. order) : 0.4465035E+01  (-0.5285195E+01)
 number of electron      55.0000589 magnetization       4.0228688
 augmentation part       36.6220535 magnetization       2.8929782

 Broyden mixing:
  rms(total) = 0.10242E+01    rms(broyden)= 0.10239E+01
  rms(prec ) = 0.10963E+01
  weight for this iteration     100.00

 eigenvalues of (default mixing * dielectric matrix)
  average eigenvalue GAMMA=   0.7966
  0.7966

 Free energy of the ion-electron system (eV)
  ---------------------------------------------------
  alpha Z        PSCENC =        97.46139379
  Ewald energy   TEWEN  =     17920.54733072
  -Hartree energ DENC   =    -24422.37457652
  -exchange      EXHF   =         0.00000000
  -V(xc)+E(xc)   XCENC  =       222.74779828
  PAW double counting   =      6187.79021486    -6690.97057767
  entropy T*S    EENTRO =        -0.01500538
  eigenvalues    EBANDS =      -285.58470504
  atomic energy  EATOM  =      6954.78820100
  Solvation  Ediel_sol  =         0.00000000
  ---------------------------------------------------
  free energy    TOTEN  =       -15.60992596 eV

  energy without entropy =      -15.59492058  energy(sigma->0) =      -15.60492416


--------------------------------------------------------------------------------------------------------




--------------------------------------- Iteration      1(   7)  ---------------------------------------


    POTLOK:  cpu time      0.0136: real time      0.0138
    SETDIJ:  cpu time      0.0053: real time      0.0053
     EDDAV:  cpu time      0.1588: real time      0.1627
       DOS:  cpu time      0.0007: real time      0.0007
    CHARGE:  cpu time      0.0443: real time      0.0445
    MIXING:  cpu time      0.0029: real time      0.0029
    --------------------------------------------
      LOOP:  cpu time      0.2257: real time      0.2300

 eigenvalue-minimisations  :   648
 total energy-change (2. order) : 0.2362809E+01  (-0.1438557E+01)
 number of electron      55.0000580 magnetization       3.6806149
 augmentation part       35.3649608 magnetization       2.3643056

 Broyden mixing:
  rms(total) = 0.49106E+00    rms(broyden)= 0.49095E+00
  rms(prec ) = 0.50894E+00
  weight for this iteration     100.00

 eigenvalues of (default mixing * dielectric matrix)
  average eigenvalue GAMMA=   0.7665
  0.9275  0.6056

 Free energy of the ion-electron system (eV)
  ---------------------------------------------------
  alpha Z        PSCENC =        97.46139379
  Ewald energy   TEWEN  =     17920.54733072
  -Hartree energ DENC   =    -24490.01018896
  -exchange      EXHF   =         0.00000000
  -V(xc)+E(xc)   XCENC  =       225.50594418
  PAW double counting   =      6314.69860021    -6841.22459385
  entropy T*S    EENTRO =        -0.01623297
  eigenvalues    EBANDS =      -194.99757089
  atomic energy  EATOM  =      6954.78820100
  Solvation  Ediel_sol  =         0.00000000
  ---------------------------------------------------
  free energy    TOTEN  =       -13.24711677 eV

  energy without entropy =      -13.23088380  energy(sigma->0) =      -13.24170578


--------------------------------------------------------------------------------------------------------




--------------------------------------- Iteration      1(   8)  ---------------------------------------


    POTLOK:  cpu time      0.0147: real time      0.0149
    SETDIJ:  cpu time      0.0054: real time      0.0055
     EDDAV:  cpu time      0.1782: real time      0.1800
       DOS:  cpu time      0.0007: real time      0.0008
    CHARGE:  cpu time      0.0372: real time      0.0374
    MIXING:  cpu time      0.0007: real time      0.0007
    --------------------------------------------
      LOOP:  cpu time      0.2369: real time      0.2391

 eigenvalue-minimisations  :   728
 total energy-change (2. order) : 0.5068432E+00  (-0.2319176E+00)
 number of electron      55.0000569 magnetization       3.1535762
 augmentation part       35.1769776 magnetization       1.7377499

 Broyden mixing:
  rms(total) = 0.36695E+00    rms(broyden)= 0.36692E+00
  rms(prec ) = 0.38334E+00
  weight for this iteration     100.00

 eigenvalues of (default mixing * dielectric matrix)
  average eigenvalue GAMMA=   0.7687
  1.0969  0.6599  0.5493

 Free energy of the ion-electron system (eV)
  ---------------------------------------------------
  alpha Z        PSCENC =        97.46139379
  Ewald energy   TEWEN  =     17920.54733072
  -Hartree energ DENC   =    -24501.47588987
  -exchange      EXHF   =         0.00000000
  -V(xc)+E(xc)   XCENC  =       225.90089845
  PAW double counting   =      6383.69336384    -6915.94703841
  entropy T*S    EENTRO =        -0.01907963
  eigenvalues    EBANDS =      -177.68945346
  atomic energy  EATOM  =      6954.78820100
  Solvation  Ediel_sol  =         0.00000000
  ---------------------------------------------------
  free energy    TOTEN  =       -12.74027356 eV

  energy without entropy =      -12.72119394  energy(sigma->0) =      -12.73391369


--------------------------------------------------------------------------------------------------------




--------------------------------------- Iteration      1(   9)  ---------------------------------------


    POTLOK:  cpu time      0.0141: real time      0.0144
    SETDIJ:  cpu time      0.0052: real time      0.0053
     EDDAV:  cpu time      0.1892: real time      0.1906
       DOS:  cpu time      0.0007: real time      0.0007
    CHARGE:  cpu time      0.0379: real time      0.0381
    MIXING:  cpu time      0.0007: real time      0.0007
    --------------------------------------------
      LOOP:  cpu time      0.2479: real time      0.2498

 eigenvalue-minimisations  :   804
 total energy-change (2. order) : 0.3799449E+00  (-0.1215465E+00)
 number of electron      55.0000571 magnetization       2.1696653
 augmentation part       35.0822124 magnetization       0.7180882

 Broyden mixing:
  rms(total) = 0.28373E+00    rms(broyden)= 0.28370E+00
  rms(prec ) = 0.28706E+00
  weight for this iteration     100.00

 eigenvalues of (default mixing * dielectric matrix)
  average eigenvalue GAMMA=   1.2584
  2.6752  1.1300  0.7599  0.4686

 Free energy of the ion-electron system (eV)
  ---------------------------------------------------
  alpha Z        PSCENC =        97.46139379
  Ewald energy   TEWEN  =     17920.54733072
  -Hartree energ DENC   =    -24515.06848755
  -exchange      EXHF   =         0.00000000
  -V(xc)+E(xc)   XCENC  =       225.92344003
  PAW double counting   =      6461.64248358    -6998.66905120
  entropy T*S    EENTRO =        -0.01320990
  eigenvalues    EBANDS =      -158.97242913
  atomic energy  EATOM  =      6954.78820100
  Solvation  Ediel_sol  =         0.00000000
  ---------------------------------------------------
  free energy    TOTEN  =       -12.36032865 eV

  energy without entropy =      -12.34711875  energy(sigma->0) =      -12.35592535


--------------------------------------------------------------------------------------------------------




--------------------------------------- Iteration      1(  10)  ---------------------------------------


    POTLOK:  cpu time      0.0135: real time      0.0137
    SETDIJ:  cpu time      0.0052: real time      0.0052
     EDDAV:  cpu time      0.1652: real time      0.1665
       DOS:  cpu time      0.0008: real time      0.0008
    CHARGE:  cpu time      0.0376: real time      0.0378
    MIXING:  cpu time      0.0007: real time      0.0007
    --------------------------------------------
      LOOP:  cpu time      0.2230: real time      0.2247

 eigenvalue-minimisations  :   684
 total energy-change (2. order) : 0.8542489E-01  (-0.1095574E+00)
 number of electron      55.0000573 magnetization       1.5990412
 augmentation part       35.3720032 magnetization       0.4176898

 Broyden mixing:
  rms(total) = 0.21652E+00    rms(broyden)= 0.21648E+00
  rms(prec ) = 0.22202E+00
  weight for this iteration     100.00

 eigenvalues of (default mixing * dielectric matrix)
  average eigenvalue GAMMA=   1.2696
  3.4902  1.0381  0.6867  0.6867  0.4461

 Free energy of the ion-electron system (eV)
  ---------------------------------------------------
  alpha Z        PSCENC =        97.46139379
  Ewald energy   TEWEN  =     17920.54733072
  -Hartree energ DENC   =    -24515.26966645
  -exchange      EXHF   =         0.00000000
  -V(xc)+E(xc)   XCENC  =       225.32533199
  PAW double counting   =      6525.46936314    -7063.50508869
  entropy T*S    EENTRO =        -0.01303342
  eigenvalues    EBANDS =      -157.07873585
  atomic energy  EATOM  =      6954.78820100
  Solvation  Ediel_sol  =         0.00000000
  ---------------------------------------------------
  free energy    TOTEN  =       -12.27490376 eV

  energy without entropy =      -12.26187034  energy(sigma->0) =      -12.27055929


--------------------------------------------------------------------------------------------------------




--------------------------------------- Iteration      1(  11)  ---------------------------------------


    POTLOK:  cpu time      0.0135: real time      0.0137
    SETDIJ:  cpu time      0.0052: real time      0.0052
     EDDAV:  cpu time      0.1627: real time      0.1641
       DOS:  cpu time      0.0008: real time      0.0008
    CHARGE:  cpu time      0.0361: real time      0.0363
    MIXING:  cpu time      0.0009: real time      0.0009
    --------------------------------------------
      LOOP:  cpu time      0.2191: real time      0.2210

 eigenvalue-minimisations  :   668
 total energy-change (2. order) :-0.6294246E+00  (-0.3484733E-01)
 number of electron      55.0000570 magnetization       0.9603071
 augmentation part       35.1815343 magnetization      -0.1078494

 Broyden mixing:
  rms(total) = 0.12496E+00    rms(broyden)= 0.12494E+00
  rms(prec ) = 0.12988E+00
  weight for this iteration     100.00

 eigenvalues of (default mixing * dielectric matrix)
  average eigenvalue GAMMA=   1.5238
  4.7586  1.5286  0.4572  0.8535  0.8535  0.6916

 Free energy of the ion-electron system (eV)
  ---------------------------------------------------
  alpha Z        PSCENC =        97.46139379
  Ewald energy   TEWEN  =     17920.54733072
  -Hartree energ DENC   =    -24529.20724069
  -exchange      EXHF   =         0.00000000
  -V(xc)+E(xc)   XCENC  =       225.15577648
  PAW double counting   =      6548.11112756    -7089.33764161
  entropy T*S    EENTRO =        -0.00839784
  eigenvalues    EBANDS =      -140.41487775
  atomic energy  EATOM  =      6954.78820100
  Solvation  Ediel_sol  =         0.00000000
  ---------------------------------------------------
  free energy    TOTEN  =       -12.90432834 eV

  energy without entropy =      -12.89593050  energy(sigma->0) =      -12.90152906


--------------------------------------------------------------------------------------------------------




--------------------------------------- Iteration      1(  12)  ---------------------------------------


    POTLOK:  cpu time      0.0135: real time      0.0137
    SETDIJ:  cpu time      0.0052: real time      0.0052
     EDDAV:  cpu time      0.1724: real time      0.1737
       DOS:  cpu time      0.0007: real time      0.0008
    CHARGE:  cpu time      0.0400: real time      0.0406
    MIXING:  cpu time      0.0008: real time      0.0008
    --------------------------------------------
      LOOP:  cpu time      0.2326: real time      0.2348

 eigenvalue-minimisations  :   712
 total energy-change (2. order) :-0.1725646E+01  (-0.1114912E+00)
 number of electron      55.0000570 magnetization       0.7461726
 augmentation part       35.0862104 magnetization      -0.0456471

 Broyden mixing:
  rms(total) = 0.10220E+00    rms(broyden)= 0.10214E+00
  rms(prec ) = 0.10994E+00
  weight for this iteration     100.00

 eigenvalues of (default mixing * dielectric matrix)
  average eigenvalue GAMMA=   1.6227
  5.6827  2.2561  0.9283  0.7419  0.7419  0.4588  0.5493

 Free energy of the ion-electron system (eV)
  ---------------------------------------------------
  alpha Z        PSCENC =        97.46139379
  Ewald energy   TEWEN  =     17920.54733072
  -Hartree energ DENC   =    -24532.41873009
  -exchange      EXHF   =         0.00000000
  -V(xc)+E(xc)   XCENC  =       224.09384302
  PAW double counting   =      6521.65282118    -7061.84727459
  entropy T*S    EENTRO =        -0.00875990
  eigenvalues    EBANDS =      -138.89879938
  atomic energy  EATOM  =      6954.78820100
  Solvation  Ediel_sol  =         0.00000000
  ---------------------------------------------------
  free energy    TOTEN  =       -14.62997425 eV

  energy without entropy =      -14.62121435  energy(sigma->0) =      -14.62705428


--------------------------------------------------------------------------------------------------------




--------------------------------------- Iteration      1(  13)  ---------------------------------------


    POTLOK:  cpu time      0.0137: real time      0.0139
    SETDIJ:  cpu time      0.0053: real time      0.0054
     EDDAV:  cpu time      0.1701: real time      0.1714
       DOS:  cpu time      0.0008: real time      0.0008
    CHARGE:  cpu time      0.0371: real time      0.0372
    MIXING:  cpu time      0.0009: real time      0.0009
    --------------------------------------------
      LOOP:  cpu time      0.2278: real time      0.2296

 eigenvalue-minimisations  :   708
 total energy-change (2. order) :-0.1085156E+01  (-0.8346559E-01)
 number of electron      55.0000572 magnetization       0.5903461
 augmentation part       35.1120912 magnetization       0.1293410

 Broyden mixing:
  rms(total) = 0.80692E-01    rms(broyden)= 0.80624E-01
  rms(prec ) = 0.86108E-01
  weight for this iteration     100.00

 eigenvalues of (default mixing * dielectric matrix)
  average eigenvalue GAMMA=   1.5551
  5.9775  2.5213  0.9373  0.7698  0.7698  0.6823  0.4588  0.3235

 Free energy of the ion-electron system (eV)
  ---------------------------------------------------
  alpha Z        PSCENC =        97.46139379
  Ewald energy   TEWEN  =     17920.54733072
  -Hartree energ DENC   =    -24528.45639935
  -exchange      EXHF   =         0.00000000
  -V(xc)+E(xc)   XCENC  =       223.33905295
  PAW double counting   =      6491.92251759    -7029.91677965
  entropy T*S    EENTRO =        -0.01611871
  eigenvalues    EBANDS =      -145.38432897
  atomic energy  EATOM  =      6954.78820100
  Solvation  Ediel_sol  =         0.00000000
  ---------------------------------------------------
  free energy    TOTEN  =       -15.71513062 eV

  energy without entropy =      -15.69901191  energy(sigma->0) =      -15.70975772


--------------------------------------------------------------------------------------------------------




--------------------------------------- Iteration      1(  14)  ---------------------------------------


    POTLOK:  cpu time      0.0135: real time      0.0138
    SETDIJ:  cpu time      0.0051: real time      0.0052
     EDDAV:  cpu time      0.1589: real time      0.1601
       DOS:  cpu time      0.0007: real time      0.0007
    CHARGE:  cpu time      0.0366: real time      0.0368
    MIXING:  cpu time      0.0009: real time      0.0009
    --------------------------------------------
      LOOP:  cpu time      0.2158: real time      0.2174

 eigenvalue-minimisations  :   648
 total energy-change (2. order) :-0.5911082E+00  (-0.5001433E-01)
 number of electron      55.0000572 magnetization       0.3113127
 augmentation part       35.1846815 magnetization       0.1010097

 Broyden mixing:
  rms(total) = 0.58814E-01    rms(broyden)= 0.58755E-01
  rms(prec ) = 0.60722E-01
  weight for this iteration     100.00

 eigenvalues of (default mixing * dielectric matrix)
  average eigenvalue GAMMA=   1.7271
  7.4518  2.8957  0.8476  0.8476  1.0476  0.9141  0.6584  0.4597  0.4213

 Free energy of the ion-electron system (eV)
  ---------------------------------------------------
  alpha Z        PSCENC =        97.46139379
  Ewald energy   TEWEN  =     17920.54733072
  -Hartree energ DENC   =    -24523.56504585
  -exchange      EXHF   =         0.00000000
  -V(xc)+E(xc)   XCENC  =       222.91468133
  PAW double counting   =      6472.14985909    -7008.56742531
  entropy T*S    EENTRO =        -0.00162663
  eigenvalues    EBANDS =      -152.03360700
  atomic energy  EATOM  =      6954.78820100
  Solvation  Ediel_sol  =         0.00000000
  ---------------------------------------------------
  free energy    TOTEN  =       -16.30623886 eV

  energy without entropy =      -16.30461223  energy(sigma->0) =      -16.30569665


--------------------------------------------------------------------------------------------------------




--------------------------------------- Iteration      1(  15)  ---------------------------------------


    POTLOK:  cpu time      0.0136: real time      0.0139
    SETDIJ:  cpu time      0.0052: real time      0.0052
     EDDAV:  cpu time      0.1587: real time      0.1599
       DOS:  cpu time      0.0008: real time      0.0008
    CHARGE:  cpu time      0.0390: real time      0.0392
    MIXING:  cpu time      0.0009: real time      0.0010
    --------------------------------------------
      LOOP:  cpu time      0.2182: real time      0.2199

 eigenvalue-minimisations  :   648
 total energy-change (2. order) :-0.3781665E+00  (-0.3516132E-01)
 number of electron      55.0000572 magnetization       0.2984980
 augmentation part       35.1792381 magnetization       0.2111239

 Broyden mixing:
  rms(total) = 0.34898E-01    rms(broyden)= 0.34838E-01
  rms(prec ) = 0.37819E-01
  weight for this iteration     100.00

 eigenvalues of (default mixing * dielectric matrix)
  average eigenvalue GAMMA=   1.8055
  8.7701  3.0913  1.0821  1.0821  0.8348  0.8348  0.8636  0.6283  0.4602  0.4076

 Free energy of the ion-electron system (eV)
  ---------------------------------------------------
  alpha Z        PSCENC =        97.46139379
  Ewald energy   TEWEN  =     17920.54733072
  -Hartree energ DENC   =    -24522.23914365
  -exchange      EXHF   =         0.00000000
  -V(xc)+E(xc)   XCENC  =       222.69374490
  PAW double counting   =      6467.57552671    -7004.02257007
  entropy T*S    EENTRO =        -0.00404211
  eigenvalues    EBANDS =      -153.48484663
  atomic energy  EATOM  =      6954.78820100
  Solvation  Ediel_sol  =         0.00000000
  ---------------------------------------------------
  free energy    TOTEN  =       -16.68440534 eV

  energy without entropy =      -16.68036323  energy(sigma->0) =      -16.68305797


--------------------------------------------------------------------------------------------------------




--------------------------------------- Iteration      1(  16)  ---------------------------------------


    POTLOK:  cpu time      0.0136: real time      0.0139
    SETDIJ:  cpu time      0.0052: real time      0.0052
     EDDAV:  cpu time      0.1770: real time      0.1784
       DOS:  cpu time      0.0008: real time      0.0008
    CHARGE:  cpu time      0.0373: real time      0.0374
    MIXING:  cpu time      0.0011: real time      0.0011
    --------------------------------------------
      LOOP:  cpu time      0.2349: real time      0.2368

 eigenvalue-minimisations  :   748
 total energy-change (2. order) :-0.2042934E+00  (-0.1037076E-01)
 number of electron      55.0000572 magnetization       0.2627447
 augmentation part       35.1844771 magnetization       0.2020604

 Broyden mixing:
  rms(total) = 0.29458E-01    rms(broyden)= 0.29437E-01
  rms(prec ) = 0.33577E-01
  weight for this iteration     100.00

 eigenvalues of (default mixing * dielectric matrix)
  average eigenvalue GAMMA=   1.7938
  9.1362  3.2083  1.3015  1.3015  0.9050  0.9050  0.8487  0.6717  0.5852  0.4599
  0.4082

 Free energy of the ion-electron system (eV)
  ---------------------------------------------------
  alpha Z        PSCENC =        97.46139379
  Ewald energy   TEWEN  =     17920.54733072
  -Hartree energ DENC   =    -24519.20434019
  -exchange      EXHF   =         0.00000000
  -V(xc)+E(xc)   XCENC  =       222.53097597
  PAW double counting   =      6464.55804524    -7000.81251692
  entropy T*S    EENTRO =        -0.00517980
  eigenvalues    EBANDS =      -156.75260859
  atomic energy  EATOM  =      6954.78820100
  Solvation  Ediel_sol  =         0.00000000
  ---------------------------------------------------
  free energy    TOTEN  =       -16.88869878 eV

  energy without entropy =      -16.88351898  energy(sigma->0) =      -16.88697218


--------------------------------------------------------------------------------------------------------




--------------------------------------- Iteration      1(  17)  ---------------------------------------


    POTLOK:  cpu time      0.0135: real time      0.0137
    SETDIJ:  cpu time      0.0052: real time      0.0052
     EDDAV:  cpu time      0.1848: real time      0.1865
       DOS:  cpu time      0.0008: real time      0.0008
    CHARGE:  cpu time      0.0372: real time      0.0374
    MIXING:  cpu time      0.0012: real time      0.0012
    --------------------------------------------
      LOOP:  cpu time      0.2426: real time      0.2448

 eigenvalue-minimisations  :   792
 total energy-change (2. order) :-0.7050801E-01  (-0.2666462E-02)
 number of electron      55.0000572 magnetization       0.1791404
 augmentation part       35.1794012 magnetization       0.1328686

 Broyden mixing:
  rms(total) = 0.22685E-01    rms(broyden)= 0.22677E-01
  rms(prec ) = 0.26433E-01
  weight for this iteration     100.00

 eigenvalues of (default mixing * dielectric matrix)
  average eigenvalue GAMMA=   1.7725
  9.5062  3.1090  2.1009  1.0198  1.0198  0.8124  0.8124  0.8859  0.6094  0.4076
  0.4595  0.5273

 Free energy of the ion-electron system (eV)
  ---------------------------------------------------
  alpha Z        PSCENC =        97.46139379
  Ewald energy   TEWEN  =     17920.54733072
  -Hartree energ DENC   =    -24516.73096766
  -exchange      EXHF   =         0.00000000
  -V(xc)+E(xc)   XCENC  =       222.47619093
  PAW double counting   =      6464.34469474    -7000.77523599
  entropy T*S    EENTRO =        -0.00568240
  eigenvalues    EBANDS =      -159.06513192
  atomic energy  EATOM  =      6954.78820100
  Solvation  Ediel_sol  =         0.00000000
  ---------------------------------------------------
  free energy    TOTEN  =       -16.95920679 eV

  energy without entropy =      -16.95352439  energy(sigma->0) =      -16.95731266


--------------------------------------------------------------------------------------------------------




--------------------------------------- Iteration      1(  18)  ---------------------------------------


    POTLOK:  cpu time      0.0220: real time      0.0222
    SETDIJ:  cpu time      0.0055: real time      0.0055
     EDDAV:  cpu time      0.1821: real time      0.1836
       DOS:  cpu time      0.0008: real time      0.0008
    CHARGE:  cpu time      0.0391: real time      0.0393
    MIXING:  cpu time      0.0014: real time      0.0014
    --------------------------------------------
      LOOP:  cpu time      0.2508: real time      0.2528

 eigenvalue-minimisations  :   756
 total energy-change (2. order) :-0.4413816E-01  (-0.1670743E-02)
 number of electron      55.0000572 magnetization       0.1022440
 augmentation part       35.1682760 magnetization       0.0753458

 Broyden mixing:
  rms(total) = 0.17403E-01    rms(broyden)= 0.17394E-01
  rms(prec ) = 0.20419E-01
  weight for this iteration     100.00

 eigenvalues of (default mixing * dielectric matrix)
  average eigenvalue GAMMA=   1.7455
  9.7325  2.8195  2.8195  1.0836  1.0836  0.8434  0.8434  0.7873  0.7529  0.6362
  0.4600  0.4189  0.4110

 Free energy of the ion-electron system (eV)
  ---------------------------------------------------
  alpha Z        PSCENC =        97.46139379
  Ewald energy   TEWEN  =     17920.54733072
  -Hartree energ DENC   =    -24513.79611945
  -exchange      EXHF   =         0.00000000
  -V(xc)+E(xc)   XCENC  =       222.43878241
  PAW double counting   =      6466.76747666    -7003.65722038
  entropy T*S    EENTRO =        -0.00614253
  eigenvalues    EBANDS =      -161.54704716
  atomic energy  EATOM  =      6954.78820100
  Solvation  Ediel_sol  =         0.00000000
  ---------------------------------------------------
  free energy    TOTEN  =       -17.00334494 eV

  energy without entropy =      -16.99720242  energy(sigma->0) =      -17.00129743


--------------------------------------------------------------------------------------------------------




--------------------------------------- Iteration      1(  19)  ---------------------------------------


    POTLOK:  cpu time      0.0141: real time      0.0143
    SETDIJ:  cpu time      0.0053: real time      0.0053
     EDDAV:  cpu time      0.1736: real time      0.1749
       DOS:  cpu time      0.0007: real time      0.0008
    CHARGE:  cpu time      0.0383: real time      0.0387
    MIXING:  cpu time      0.0013: real time      0.0013
    --------------------------------------------
      LOOP:  cpu time      0.2332: real time      0.2352

 eigenvalue-minimisations  :   728
 total energy-change (2. order) :-0.3490580E-01  (-0.5767577E-03)
 number of electron      55.0000572 magnetization       0.0630629
 augmentation part       35.1693830 magnetization       0.0481383

 Broyden mixing:
  rms(total) = 0.12077E-01    rms(broyden)= 0.12072E-01
  rms(prec ) = 0.14495E-01
  weight for this iteration     100.00

 eigenvalues of (default mixing * dielectric matrix)
  average eigenvalue GAMMA=   1.7607
  9.9671  3.0795  3.0795  1.2662  1.1432  1.1432  0.8178  0.8178  0.8237  0.6333
  0.6145  0.4600  0.4103  0.3936

 Free energy of the ion-electron system (eV)
  ---------------------------------------------------
  alpha Z        PSCENC =        97.46139379
  Ewald energy   TEWEN  =     17920.54733072
  -Hartree energ DENC   =    -24511.03489323
  -exchange      EXHF   =         0.00000000
  -V(xc)+E(xc)   XCENC  =       222.38270524
  PAW double counting   =      6470.16495036    -7007.35620450
  entropy T*S    EENTRO =        -0.00636122
  eigenvalues    EBANDS =      -163.98537291
  atomic energy  EATOM  =      6954.78820100
  Solvation  Ediel_sol  =         0.00000000
  ---------------------------------------------------
  free energy    TOTEN  =       -17.03825074 eV

  energy without entropy =      -17.03188953  energy(sigma->0) =      -17.03613034


--------------------------------------------------------------------------------------------------------




--------------------------------------- Iteration      1(  20)  ---------------------------------------


    POTLOK:  cpu time      0.0135: real time      0.0137
    SETDIJ:  cpu time      0.0052: real time      0.0052
     EDDAV:  cpu time      0.1707: real time      0.1721
       DOS:  cpu time      0.0008: real time      0.0008
    CHARGE:  cpu time      0.0382: real time      0.0384
    MIXING:  cpu time      0.0014: real time      0.0014
    --------------------------------------------
      LOOP:  cpu time      0.2297: real time      0.2315

 eigenvalue-minimisations  :   712
 total energy-change (2. order) :-0.3640890E-01  (-0.3800531E-03)
 number of electron      55.0000572 magnetization       0.0586770
 augmentation part       35.1828091 magnetization       0.0519335

 Broyden mixing:
  rms(total) = 0.75832E-02    rms(broyden)= 0.75788E-02
  rms(prec ) = 0.86873E-02
  weight for this iteration     100.00

 eigenvalues of (default mixing * dielectric matrix)
  average eigenvalue GAMMA=   1.7484
  9.8568  3.3752  3.3752  1.7488  1.1103  1.1103  0.8620  0.8620  0.7416  0.7416
  0.6096  0.5713  0.4594  0.4069  0.3949

 Free energy of the ion-electron system (eV)
  ---------------------------------------------------
  alpha Z        PSCENC =        97.46139379
  Ewald energy   TEWEN  =     17920.54733072
  -Hartree energ DENC   =    -24508.02014195
  -exchange      EXHF   =         0.00000000
  -V(xc)+E(xc)   XCENC  =       222.32090919
  PAW double counting   =      6469.10561256    -7006.15884440
  entropy T*S    EENTRO =        -0.00668197
  eigenvalues    EBANDS =      -167.11243859
  atomic energy  EATOM  =      6954.78820100
  Solvation  Ediel_sol  =         0.00000000
  ---------------------------------------------------
  free energy    TOTEN  =       -17.07465964 eV

  energy without entropy =      -17.06797767  energy(sigma->0) =      -17.07243232


--------------------------------------------------------------------------------------------------------




--------------------------------------- Iteration      1(  21)  ---------------------------------------


    POTLOK:  cpu time      0.0134: real time      0.0137
    SETDIJ:  cpu time      0.0052: real time      0.0052
     EDDAV:  cpu time      0.1489: real time      0.1504
       DOS:  cpu time      0.0008: real time      0.0008
    CHARGE:  cpu time      0.0382: real time      0.0384
    MIXING:  cpu time      0.0015: real time      0.0015
    --------------------------------------------
      LOOP:  cpu time      0.2080: real time      0.2100

 eigenvalue-minimisations  :   588
 total energy-change (2. order) :-0.3521461E-01  (-0.1302137E-03)
 number of electron      55.0000572 magnetization       0.0352360
 augmentation part       35.1869695 magnetization       0.0269283

 Broyden mixing:
  rms(total) = 0.67612E-02    rms(broyden)= 0.67607E-02
  rms(prec ) = 0.74772E-02
  weight for this iteration     100.00

 eigenvalues of (default mixing * dielectric matrix)
  average eigenvalue GAMMA=   1.7989
  9.7748  4.5538  3.4479  2.1313  1.1946  1.1946  0.8279  0.8279  0.9032  0.9032
  0.6802  0.6291  0.4615  0.4458  0.4044  0.4024

 Free energy of the ion-electron system (eV)
  ---------------------------------------------------
  alpha Z        PSCENC =        97.46139379
  Ewald energy   TEWEN  =     17920.54733072
  -Hartree energ DENC   =    -24506.41254896
  -exchange      EXHF   =         0.00000000
  -V(xc)+E(xc)   XCENC  =       222.27991257
  PAW double counting   =      6468.83870820    -7005.79901998
  entropy T*S    EENTRO =        -0.00674095
  eigenvalues    EBANDS =      -168.80711063
  atomic energy  EATOM  =      6954.78820100
  Solvation  Ediel_sol  =         0.00000000
  ---------------------------------------------------
  free energy    TOTEN  =       -17.10987425 eV

  energy without entropy =      -17.10313330  energy(sigma->0) =      -17.10762727


--------------------------------------------------------------------------------------------------------




--------------------------------------- Iteration      1(  22)  ---------------------------------------


    POTLOK:  cpu time      0.0134: real time      0.0136
    SETDIJ:  cpu time      0.0052: real time      0.0052
     EDDAV:  cpu time      0.1451: real time      0.1462
       DOS:  cpu time      0.0008: real time      0.0008
    CHARGE:  cpu time      0.0385: real time      0.0387
    MIXING:  cpu time      0.0015: real time      0.0015
    --------------------------------------------
      LOOP:  cpu time      0.2045: real time      0.2060

 eigenvalue-minimisations  :   568
 total energy-change (2. order) :-0.3241437E-01  (-0.1050630E-03)
 number of electron      55.0000572 magnetization      -0.0009801
 augmentation part       35.1814191 magnetization      -0.0070503

 Broyden mixing:
  rms(total) = 0.34354E-02    rms(broyden)= 0.34349E-02
  rms(prec ) = 0.38349E-02
  weight for this iteration     100.00

 eigenvalues of (default mixing * dielectric matrix)
  average eigenvalue GAMMA=   1.8369
 10.1379  5.5455  2.8138  2.8138  1.4768  1.1046  1.1046  0.8503  0.8503  0.7753
  0.7753  0.6399  0.6399  0.4601  0.4318  0.4078  0.3999

 Free energy of the ion-electron system (eV)
  ---------------------------------------------------
  alpha Z        PSCENC =        97.46139379
  Ewald energy   TEWEN  =     17920.54733072
  -Hartree energ DENC   =    -24505.15954977
  -exchange      EXHF   =         0.00000000
  -V(xc)+E(xc)   XCENC  =       222.25672731
  PAW double counting   =      6469.37960341    -7006.38126366
  entropy T*S    EENTRO =        -0.00670234
  eigenvalues    EBANDS =      -170.02802909
  atomic energy  EATOM  =      6954.78820100
  Solvation  Ediel_sol  =         0.00000000
  ---------------------------------------------------
  free energy    TOTEN  =       -17.14228862 eV

  energy without entropy =      -17.13558628  energy(sigma->0) =      -17.14005451


--------------------------------------------------------------------------------------------------------




--------------------------------------- Iteration      1(  23)  ---------------------------------------


    POTLOK:  cpu time      0.0135: real time      0.0137
    SETDIJ:  cpu time      0.0052: real time      0.0052
     EDDAV:  cpu time      0.1395: real time      0.1406
       DOS:  cpu time      0.0008: real time      0.0008
    CHARGE:  cpu time      0.0383: real time      0.0385
    MIXING:  cpu time      0.0016: real time      0.0017
    --------------------------------------------
      LOOP:  cpu time      0.1989: real time      0.2004

 eigenvalue-minimisations  :   536
 total energy-change (2. order) :-0.4625069E-02  (-0.9326039E-04)
 number of electron      55.0000572 magnetization       0.0048282
 augmentation part       35.1783251 magnetization       0.0077726

 Broyden mixing:
  rms(total) = 0.34169E-02    rms(broyden)= 0.34124E-02
  rms(prec ) = 0.38429E-02
  weight for this iteration     100.00

 eigenvalues of (default mixing * dielectric matrix)
  average eigenvalue GAMMA=   1.7907
  9.9839  5.2766  3.5757  2.5089  1.7564  1.1476  1.1476  0.8440  0.8440  0.8091
  0.8091  0.6686  0.6351  0.5297  0.4595  0.4335  0.4063  0.3972

 Free energy of the ion-electron system (eV)
  ---------------------------------------------------
  alpha Z        PSCENC =        97.46139379
  Ewald energy   TEWEN  =     17920.54733072
  -Hartree energ DENC   =    -24504.21025726
  -exchange      EXHF   =         0.00000000
  -V(xc)+E(xc)   XCENC  =       222.25735217
  PAW double counting   =      6468.70151117    -7005.70540488
  entropy T*S    EENTRO =        -0.00673937
  eigenvalues    EBANDS =      -170.98030103
  atomic energy  EATOM  =      6954.78820100
  Solvation  Ediel_sol  =         0.00000000
  ---------------------------------------------------
  free energy    TOTEN  =       -17.14691369 eV

  energy without entropy =      -17.14017432  energy(sigma->0) =      -17.14466723


--------------------------------------------------------------------------------------------------------




--------------------------------------- Iteration      1(  24)  ---------------------------------------


    POTLOK:  cpu time      0.0134: real time      0.0137
    SETDIJ:  cpu time      0.0053: real time      0.0053
     EDDAV:  cpu time      0.1217: real time      0.1227
       DOS:  cpu time      0.0008: real time      0.0008
    CHARGE:  cpu time      0.0382: real time      0.0384
    MIXING:  cpu time      0.0018: real time      0.0018
    --------------------------------------------
      LOOP:  cpu time      0.1812: real time      0.1826

 eigenvalue-minimisations  :   424
 total energy-change (2. order) :-0.1810732E-02  (-0.2409517E-04)
 number of electron      55.0000572 magnetization       0.0006990
 augmentation part       35.1782024 magnetization       0.0001233

 Broyden mixing:
  rms(total) = 0.21281E-02    rms(broyden)= 0.21277E-02
  rms(prec ) = 0.24327E-02
  weight for this iteration     100.00

 eigenvalues of (default mixing * dielectric matrix)
  average eigenvalue GAMMA=   1.8191
 10.0071  6.0671  3.6224  2.8086  1.9934  1.1796  1.1796  0.8377  0.8377  0.8749
  0.8749  0.7467  0.7467  0.6220  0.4765  0.4573  0.4266  0.4071  0.3964

 Free energy of the ion-electron system (eV)
  ---------------------------------------------------
  alpha Z        PSCENC =        97.46139379
  Ewald energy   TEWEN  =     17920.54733072
  -Hartree energ DENC   =    -24504.55950733
  -exchange      EXHF   =         0.00000000
  -V(xc)+E(xc)   XCENC  =       222.25445972
  PAW double counting   =      6469.39578420    -7006.39733102
  entropy T*S    EENTRO =        -0.00668275
  eigenvalues    EBANDS =      -170.63237275
  atomic energy  EATOM  =      6954.78820100
  Solvation  Ediel_sol  =         0.00000000
  ---------------------------------------------------
  free energy    TOTEN  =       -17.14872442 eV

  energy without entropy =      -17.14204167  energy(sigma->0) =      -17.14649684


--------------------------------------------------------------------------------------------------------




--------------------------------------- Iteration      1(  25)  ---------------------------------------


    POTLOK:  cpu time      0.0133: real time      0.0135
    SETDIJ:  cpu time      0.0052: real time      0.0052
     EDDAV:  cpu time      0.1205: real time      0.1214
       DOS:  cpu time      0.0008: real time      0.0008
    CHARGE:  cpu time      0.0383: real time      0.0385
    MIXING:  cpu time      0.0019: real time      0.0019
    --------------------------------------------
      LOOP:  cpu time      0.1800: real time      0.1814

 eigenvalue-minimisations  :   416
 total energy-change (2. order) :-0.1557670E-02  (-0.1915087E-04)
 number of electron      55.0000572 magnetization       0.0006277
 augmentation part       35.1809739 magnetization       0.0003103

 Broyden mixing:
  rms(total) = 0.91897E-03    rms(broyden)= 0.91875E-03
  rms(prec ) = 0.11494E-02
  weight for this iteration     100.00

 eigenvalues of (default mixing * dielectric matrix)
  average eigenvalue GAMMA=   1.8088
  9.9695  6.5798  3.1320  3.1320  2.2572  1.2922  1.1770  1.1770  0.8369  0.8369
  0.8251  0.8251  0.6554  0.6554  0.6219  0.5110  0.4588  0.4278  0.3981  0.4062

 Free energy of the ion-electron system (eV)
  ---------------------------------------------------
  alpha Z        PSCENC =        97.46139379
  Ewald energy   TEWEN  =     17920.54733072
  -Hartree energ DENC   =    -24504.10689016
  -exchange      EXHF   =         0.00000000
  -V(xc)+E(xc)   XCENC  =       222.24815846
  PAW double counting   =      6469.30939268    -7006.28594744
  entropy T*S    EENTRO =        -0.00671778
  eigenvalues    EBANDS =      -171.10520336
  atomic energy  EATOM  =      6954.78820100
  Solvation  Ediel_sol  =         0.00000000
  ---------------------------------------------------
  free energy    TOTEN  =       -17.15028209 eV

  energy without entropy =      -17.14356431  energy(sigma->0) =      -17.14804283


--------------------------------------------------------------------------------------------------------




--------------------------------------- Iteration      1(  26)  ---------------------------------------


    POTLOK:  cpu time      0.0133: real time      0.0135
    SETDIJ:  cpu time      0.0052: real time      0.0052
     EDDAV:  cpu time      0.1175: real time      0.1187
       DOS:  cpu time      0.0008: real time      0.0008
    CHARGE:  cpu time      0.0383: real time      0.0384
    MIXING:  cpu time      0.0020: real time      0.0020
    --------------------------------------------
      LOOP:  cpu time      0.1771: real time      0.1788

 eigenvalue-minimisations  :   400
 total energy-change (2. order) :-0.2050132E-03  (-0.4003398E-05)
 number of electron      55.0000572 magnetization       0.0002682
 augmentation part       35.1809135 magnetization      -0.0000059

 Broyden mixing:
  rms(total) = 0.40383E-03    rms(broyden)= 0.40373E-03
  rms(prec ) = 0.59264E-03
  weight for this iteration     100.00

 eigenvalues of (default mixing * dielectric matrix)
  average eigenvalue GAMMA=   1.8139
  9.9455  6.9382  3.2595  3.2595  2.4508  1.5240  1.1973  1.1973  0.8327  0.8327
  0.8373  0.8373  0.7559  0.7559  0.6516  0.6176  0.5082  0.4588  0.4270  0.3979
  0.4063

 Free energy of the ion-electron system (eV)
  ---------------------------------------------------
  alpha Z        PSCENC =        97.46139379
  Ewald energy   TEWEN  =     17920.54733072
  -Hartree energ DENC   =    -24503.84924234
  -exchange      EXHF   =         0.00000000
  -V(xc)+E(xc)   XCENC  =       222.24759982
  PAW double counting   =      6469.21718795    -7006.20341901
  entropy T*S    EENTRO =        -0.00672984
  eigenvalues    EBANDS =      -171.35280919
  atomic energy  EATOM  =      6954.78820100
  Solvation  Ediel_sol  =         0.00000000
  ---------------------------------------------------
  free energy    TOTEN  =       -17.15048711 eV

  energy without entropy =      -17.14375727  energy(sigma->0) =      -17.14824383


--------------------------------------------------------------------------------------------------------




--------------------------------------- Iteration      1(  27)  ---------------------------------------


    POTLOK:  cpu time      0.0134: real time      0.0136
    SETDIJ:  cpu time      0.0051: real time      0.0052
     EDDAV:  cpu time      0.1187: real time      0.1196
       DOS:  cpu time      0.0008: real time      0.0008
    --------------------------------------------
      LOOP:  cpu time      0.1380: real time      0.1391

 eigenvalue-minimisations  :   408
 total energy-change (2. order) :-0.4264254E-04  (-0.9950445E-06)
 number of electron      55.0000572 magnetization       0.0002682
 augmentation part       35.1809135 magnetization      -0.0000059

 Free energy of the ion-electron system (eV)
  ---------------------------------------------------
  alpha Z        PSCENC =        97.46139379
  Ewald energy   TEWEN  =     17920.54733072
  -Hartree energ DENC   =    -24503.72733133
  -exchange      EXHF   =         0.00000000
  -V(xc)+E(xc)   XCENC  =       222.24747202
  PAW double counting   =      6469.14263573    -7006.12954492
  entropy T*S    EENTRO =        -0.00673561
  eigenvalues    EBANDS =      -171.47395116
  atomic energy  EATOM  =      6954.78820100
  Solvation  Ediel_sol  =         0.00000000
  ---------------------------------------------------
  free energy    TOTEN  =       -17.15052975 eV

  energy without entropy =      -17.14379414  energy(sigma->0) =      -17.14828455


--------------------------------------------------------------------------------------------------------




 average (electrostatic) potential at core
  the test charge radii are     0.9430
  (the norm of the test charge is              1.0000)
       1 -71.0899       2 -71.6207       3 -71.7254       4 -71.6208       5 -71.0900
 
 
 
 E-fermi :  -0.7386     XC(G=0):  -4.9709     alpha+bet : -4.2257

 Fermi energy:        -0.7385569160

 spin component 1

 k-point     1 :       0.0000    0.0000    0.0000
  band No.  band energies     occupation 
      1      -8.9113      1.00000
      2      -6.8424      1.00000
      3      -4.9471      1.00000
      4      -4.7617      1.00000
[...]
     13      -3.2016      1.00000
     14      -2.9834      1.00000
     15      -2.9617      1.00000
     16      -2.9092      1.00000
     17      -2.8340      1.00000
     18      -2.8164      1.00000
     19      -2.6013      1.00000
     20      -2.5256      1.00000
     21      -2.4216      1.00000
     22      -2.3316      1.00000
     23      -2.1562      1.00000
     24      -2.1458      1.00000
     25      -1.9798      1.00000
     26      -1.8798      1.00000
     27      -1.7969      1.00000
     28      -1.6509      1.00000
     29       0.1309     -0.00000
     30       2.1312     -0.00000
     31       2.6320     -0.00000
     32       3.8153     -0.00000
     33       3.9380     -0.00000
     34       4.8701      0.00000
     35       5.6529      0.00000
     36       6.0335      0.00000

 k-point     2 :       0.3333    0.0000    0.0000
  band No.  band energies     occupation 
      1      -7.8500      1.00000
      2      -6.1106      1.00000
      3      -5.3447      1.00000
      4      -4.9826      1.00000
      5      -4.7324      1.00000
      6      -4.2506      1.00000
      7      -3.7479      1.00000
      8      -3.6411      1.00000
      9      -3.4534      1.00000
     10      -3.3716      1.00000
     11      -3.3469      1.00000
     12      -3.3207      1.00000
     13      -3.2305      1.00000
     14      -3.0261      1.00000
     15      -3.0129      1.00000
     16      -2.8750      1.00000
     17      -2.7068      1.00000
     18      -2.7028      1.00000
     19      -2.5496      1.00000
     20      -2.4614      1.00000
     21      -2.4257      1.00000
     22      -2.3669      1.00000
     23      -2.1954      1.00000
     24      -2.0049      1.00000
     25      -1.9586      1.00000
     26      -1.9215      1.00000
     27      -1.8651      1.00000
     28      -1.5228      1.00000
     29      -1.2709      1.00333
     30      -0.0227     -0.00000
     31       1.0198     -0.00000
     32       2.0423     -0.00000
     33       4.3401     -0.00000
     34       4.9942      0.00000
     35       5.3695      0.00000
     36       6.1931      0.00000

 k-point     3 :       0.0000    0.3333    0.0000
  band No.  band energies     occupation 
      1      -6.7261      1.00000
      2      -5.4260      1.00000
      3      -4.7534      1.00000
      4      -4.5485      1.00000
      5      -4.4651      1.00000
      6      -4.1579      1.00000
      7      -4.0960      1.00000
      8      -4.0304      1.00000
      9      -3.9694      1.00000
     10      -3.6611      1.00000
     11      -3.3116      1.00000
     12      -3.2521      1.00000
     13      -3.0891      1.00000
     14      -2.6975      1.00000
     15      -2.6457      1.00000
     16      -2.6407      1.00000
     17      -2.5487      1.00000
     18      -2.4831      1.00000
     19      -2.4231      1.00000
     20      -2.2710      1.00000
     21      -2.1810      1.00000
     22      -2.1188      1.00000
     23      -2.1023      1.00000
     24      -2.0197      1.00000
     25      -1.9579      1.00000
     26      -1.9506      1.00000
     27      -1.9291      1.00000
     28      -0.2608     -0.00027
     29       2.3177     -0.00000
     30       3.2014     -0.00000
     31       4.9557      0.00000
     32       5.1819      0.00000
     33       6.0498      0.00000
     34       6.3641      0.00000
     35       6.5177      0.00000
     36       7.7723      0.00000

 k-point     4 :       0.3333    0.3333    0.0000
  band No.  band energies     occupation 
      1      -5.9043      1.00000
      2      -4.7649      1.00000
      3      -4.7376      1.00000
      4      -4.4164      1.00000
      5      -4.3444      1.00000
      6      -4.1027      1.00000
      7      -3.9011      1.00000
      8      -3.7870      1.00000
      9      -3.6032      1.00000
     10      -3.5552      1.00000
     11      -3.4824      1.00000
     12      -3.2978      1.00000
     13      -3.2217      1.00000
     14      -3.1528      1.00000
     15      -3.1039      1.00000
     16      -2.7174      1.00000
     17      -2.6179      1.00000
     18      -2.5863      1.00000
     19      -2.4815      1.00000
     20      -2.4225      1.00000
     21      -2.2891      1.00000
     22      -2.1998      1.00000
     23      -2.1884      1.00000
     24      -2.0613      1.00000
     25      -2.0131      1.00000
     26      -1.9686      1.00000
     27      -0.9229      0.87346
     28       0.5807     -0.00000
     29       1.3898     -0.00000
     30       2.4882     -0.00000
     31       3.8710     -0.00000
     32       4.6438      0.00000
     33       5.3389      0.00000
     34       6.4516      0.00000
     35       6.5876      0.00000
     36       7.6001      0.00000


--------------------------------------------------------------------------------------------------------


 soft charge-density along one line, spin component           1
         0         1         2         3         4         5         6         7         8         9
 total charge-density along one line
 
 soft charge-density along one line, spin component           2
         0         1         2         3         4         5         6         7         8         9
 total charge-density along one line
 
 pseudopotential strength for first ion, spin component:           1
 -8.312  -0.000   0.000   0.000  -0.000  -0.645   0.000  -0.000
 -0.000  -8.306   0.000  -0.000  -0.000   0.000  -0.651  -0.000
  0.000   0.000  -8.318  -0.000  -0.001  -0.000  -0.000  -0.643
  0.000  -0.000  -0.000  -8.312  -0.000  -0.000   0.000   0.000
 -0.000  -0.000  -0.001  -0.000  -8.313   0.000   0.000   0.002
 -0.645   0.000  -0.000  -0.000   0.000   7.449  -0.000   0.000
  0.000  -0.651  -0.000   0.000   0.000  -0.000   7.456   0.000
 -0.000  -0.000  -0.643   0.000   0.002   0.000   0.000   7.452
 -0.000   0.000   0.000  -0.648   0.000   0.000  -0.000  -0.000
  0.000   0.000   0.002   0.000  -0.644  -0.000  -0.000  -0.002
  0.000  -0.000  -0.003   0.000  -0.001   0.000  -0.000   0.004
  0.000  -0.000  -0.006   0.000  -0.002   0.000  -0.000   0.008
  0.000  -0.021   0.000   0.000   0.000  -0.000   0.015  -0.000
  0.000  -0.000  -0.022   0.000   0.001   0.000   0.000   0.015
 -0.000   0.000  -0.000  -0.018   0.000  -0.000   0.000   0.000
  0.000  -0.023   0.000  -0.000   0.000   0.000   0.017  -0.000
 -0.000  -0.000  -0.024   0.000   0.001   0.000  -0.000   0.015
 -0.000  -0.000  -0.000  -0.020   0.000  -0.000   0.000  -0.000
 pseudopotential strength for first ion, spin component:           2
 -8.312  -0.000   0.000   0.000   0.000  -0.645   0.000  -0.000
 -0.000  -8.306   0.000  -0.000  -0.000   0.000  -0.651  -0.000
  0.000   0.000  -8.318  -0.000  -0.001  -0.000  -0.000  -0.643
  0.000  -0.000  -0.000  -8.312  -0.000  -0.000   0.000   0.000
  0.000  -0.000  -0.001  -0.000  -8.313  -0.000   0.000   0.002
 -0.645   0.000  -0.000  -0.000  -0.000   7.449  -0.000   0.000
  0.000  -0.651  -0.000   0.000   0.000  -0.000   7.456   0.000
 -0.000  -0.000  -0.643   0.000   0.002   0.000   0.000   7.452
 -0.000   0.000   0.000  -0.648   0.000   0.000  -0.000  -0.000
 -0.000   0.000   0.002   0.000  -0.644   0.000  -0.000  -0.002
  0.000  -0.000  -0.003   0.000  -0.001   0.000  -0.000   0.004
  0.000  -0.000  -0.006   0.000  -0.002   0.000  -0.000   0.008
  0.000  -0.021   0.000   0.000   0.000  -0.000   0.015  -0.000
  0.000  -0.000  -0.022   0.000   0.001   0.000   0.000   0.015
 -0.000   0.000  -0.000  -0.018   0.000  -0.000   0.000   0.000
  0.000  -0.023   0.000  -0.000   0.000   0.000   0.017  -0.000
 -0.000  -0.000  -0.024   0.000   0.001   0.000  -0.000   0.015
 -0.000  -0.000  -0.000  -0.020   0.000  -0.000   0.000  -0.000
 total augmentation occupancy for first ion, spin component:           1
  1.927   0.000   0.000   0.000   0.000  -0.018   0.000   0.000   0.000   0.000   0.000   0.000   0.000   0.000   0.000   0.000
  0.000   1.943   0.000   0.000   0.000   0.000  -0.026   0.000   0.000   0.000   0.000   0.000   0.014   0.000   0.000  -0.023
  0.000   0.000   1.933   0.000   0.003   0.000   0.000  -0.017   0.000   0.007  -0.025   0.013   0.000   0.061   0.000   0.000
  0.000   0.000   0.000   1.938   0.000   0.000   0.000   0.000  -0.025   0.000   0.000   0.000   0.000   0.000   0.069   0.000
  0.000   0.000   0.003   0.000   1.925   0.000   0.000   0.007   0.000  -0.017  -0.060   0.011   0.000   0.022   0.000   0.000
 -0.018   0.000   0.000   0.000   0.000   0.009   0.000   0.000   0.000   0.000   0.000   0.000   0.000   0.000   0.000   0.000
  0.000  -0.026   0.000   0.000   0.000   0.000   0.009   0.000   0.000   0.000   0.000   0.000   0.020   0.000   0.000  -0.001
  0.000   0.000  -0.017   0.000   0.007   0.000   0.000   0.009   0.000   0.002  -0.009  -0.001   0.000   0.019   0.000   0.000
  0.000   0.000   0.000  -0.025   0.000   0.000   0.000   0.000   0.010   0.000   0.000   0.000   0.000   0.000   0.025   0.000
  0.000   0.000   0.007   0.000  -0.017   0.000   0.000   0.002   0.000   0.009  -0.011   0.001   0.000   0.002   0.000   0.000
  0.000   0.000  -0.025   0.000  -0.060   0.000   0.000  -0.009   0.000  -0.011   1.593  -0.118   0.000   0.209   0.000   0.000
  0.000   0.000   0.013   0.000   0.011   0.000   0.000  -0.001   0.000   0.001  -0.118   0.014   0.000  -0.026   0.000   0.000
  0.000   0.014   0.000   0.000   0.000   0.000   0.020   0.000   0.000   0.000   0.000   0.000   0.191   0.000   0.000  -0.011
  0.000   0.000   0.061   0.000   0.022   0.000   0.000   0.019   0.000   0.002   0.209  -0.026   0.000   0.103   0.000   0.000
  0.000   0.000   0.000   0.069   0.000   0.000   0.000   0.000   0.025   0.000   0.000   0.000   0.000   0.000   0.132   0.000
  0.000  -0.023   0.000   0.000   0.000   0.000  -0.001   0.000   0.000   0.000   0.000   0.000  -0.011   0.000   0.000   0.001
  0.000   0.000  -0.029   0.000  -0.001   0.000   0.000  -0.001   0.000  -0.000  -0.027   0.003   0.000  -0.009   0.000   0.000
  0.000   0.000   0.000  -0.027   0.000   0.000   0.000   0.000  -0.001   0.000   0.000   0.000   0.000   0.000  -0.008   0.000
 total augmentation occupancy for first ion, spin component:           2
  0.000   0.000   0.000   0.000   0.000   0.000   0.000   0.000   0.000   0.000   0.000   0.000   0.000   0.000   0.000   0.000
  0.000  -0.000   0.000   0.000   0.000   0.000   0.000   0.000   0.000   0.000   0.000   0.000  -0.000   0.000   0.000   0.000
  0.000   0.000  -0.000   0.000  -0.000   0.000   0.000   0.000   0.000  -0.000   0.000  -0.000   0.000   0.000   0.000   0.000
  0.000   0.000   0.000   0.000   0.000   0.000   0.000   0.000   0.000   0.000   0.000   0.000   0.000   0.000  -0.000   0.000
  0.000   0.000  -0.000   0.000  -0.000   0.000   0.000   0.000   0.000   0.000  -0.000   0.000   0.000   0.000   0.000   0.000
  0.000   0.000   0.000   0.000   0.000   0.000   0.000   0.000   0.000   0.000   0.000   0.000   0.000   0.000   0.000   0.000
  0.000   0.000   0.000   0.000   0.000   0.000  -0.000   0.000   0.000   0.000   0.000   0.000   0.000   0.000   0.000  -0.000
  0.000   0.000   0.000   0.000   0.000   0.000   0.000  -0.000   0.000   0.000   0.000   0.000   0.000  -0.000   0.000   0.000
  0.000   0.000   0.000   0.000   0.000   0.000   0.000   0.000   0.000   0.000   0.000   0.000   0.000   0.000   0.000   0.000
  0.000   0.000  -0.000   0.000   0.000   0.000   0.000   0.000   0.000   0.000  -0.000  -0.000   0.000   0.000   0.000   0.000
  0.000   0.000   0.000   0.000  -0.000   0.000   0.000   0.000   0.000  -0.000   0.000  -0.000   0.000  -0.000   0.000   0.000
  0.000   0.000  -0.000   0.000   0.000   0.000   0.000   0.000   0.000  -0.000  -0.000   0.000   0.000   0.000   0.000   0.000
  0.000  -0.000   0.000   0.000   0.000   0.000   0.000   0.000   0.000   0.000   0.000   0.000   0.000   0.000   0.000  -0.000
  0.000   0.000   0.000   0.000   0.000   0.000   0.000  -0.000   0.000   0.000  -0.000   0.000   0.000   0.000   0.000   0.000
  0.000   0.000   0.000  -0.000   0.000   0.000   0.000   0.000   0.000   0.000   0.000   0.000   0.000   0.000   0.000   0.000
  0.000   0.000   0.000   0.000   0.000   0.000  -0.000   0.000   0.000   0.000   0.000   0.000  -0.000   0.000   0.000   0.000
  0.000   0.000  -0.000   0.000  -0.000   0.000   0.000  -0.000   0.000  -0.000  -0.000   0.000   0.000  -0.000   0.000   0.000
  0.000   0.000   0.000  -0.000   0.000   0.000   0.000   0.000  -0.000   0.000   0.000   0.000   0.000   0.000   0.000   0.000


------------------------ aborting loop because EDIFF is reached ----------------------------------------



 DIPCOR: dipole corrections for dipol
 direction  3 min pos   128,
 dipolmoment           0.000000      0.000000      0.009353 electrons x Angstroem
 Tr[quadrupol]      -108.299566

 energy correction for charged system         0.000000 eV
 dipol+quadrupol energy correction            0.000042 eV
 added-field ion interaction          0.000000 eV  (added to PSCEN)

 
  *************** adding dipol energy to TOTEN NOW **************** 
    CHARGE:  cpu time      0.0363: real time      0.0365
    FORLOC:  cpu time      0.0005: real time      0.0005
    FORNL :  cpu time      0.0530: real time      0.0534
    STRESS:  cpu time      0.0606: real time      0.0608
    FORCOR:  cpu time      0.0134: real time      0.0134
    FORHAR:  cpu time      0.0019: real time      0.0019
    MIXING:  cpu time      0.0004: real time      0.0004
    OFIELD:  cpu time      0.0000: real time      0.0000

 ---------------------------------------------------------------------------------------------

         DFTD3 V3.0 Rev 1        
 Edisp (eV)   -1.53367

 E6    (eV) :    -0.5837
 E8    (eV) :    -0.9500
 % E8        : 61.94
    FORVDW:  cpu time      0.0174: real time      0.0175

  FORCE on cell =-STRESS in cart. coord.  units (eV):
  Direction    XX          YY          ZZ          XY          YZ          ZX
  --------------------------------------------------------------------------------------
  Alpha Z    97.46139    97.46139    97.46139
  Ewald   21972.29242 22139.75601-25611.38144     0.00000     0.00000    -0.00000
  Hartree 23800.07633 23919.23141-22643.49156    -0.00000    -0.00000    -0.00000
  E(xc)    -321.12409  -320.97056  -321.67026    -0.00000    -0.00000     0.00000
  Local  -46357.62220-46649.54875 47668.51531     0.00000    -0.00000     0.00000
  n-local  -112.13648  -108.44327  -113.03050     4.44767     0.00000    -0.00000
  augment   471.29276   473.14416   472.89920     0.00000     0.00000     0.00000
  Kinetic   448.38503   447.86667   450.47808     4.41592    -0.00000     0.00000
  Fock        0.00000     0.00000     0.00000     0.00000     0.00000     0.00000
  vdW        -1.88231    -1.96404    -0.87633    -0.00000     0.00000    -0.00000
  -------------------------------------------------------------------------------------
  Total      -3.25715    -3.46698    -1.09610     0.00000     0.00000     0.00000
  in kB     -27.81818   -29.61025    -9.36144     0.00000     0.00000     0.00000
  external pressure =      -22.26 kB  Pullay stress =        0.00 kB


 VOLUME and BASIS-vectors are now :
 -----------------------------------------------------------------------------
  energy-cutoff  :      400.00
  volume of cell :      187.59
      direct lattice vectors                 reciprocal lattice vectors
     3.630000114  0.000000000  0.000000000     0.275482085  0.000000000  0.000000000
     0.000000000  2.566797733  0.000000000     0.000000000  0.389590495  0.000000000
     0.000000000  0.000000000 20.133595000     0.000000000  0.000000000  0.049668229

  length of vectors
     3.630000114  2.566797733 20.133595000     0.275482085  0.389590495  0.049668229


 FORCES acting on ions
    electron-ion (+dipol)            ewald-force                    non-local-force                 convergence-correction
 -----------------------------------------------------------------------------------------------
   -.272E-13 0.161E-12 0.303E+04   -.621E-07 0.258E-07 -.302E+04   0.000E+00 0.000E+00 -.608E+01   0.191E-10 -.273E-11 0.687E-01
   0.742E-06 -.131E-05 0.163E+04   0.129E-06 -.542E-07 -.164E+04   0.000E+00 0.000E+00 0.831E+00   -.201E-09 0.178E-09 0.925E-01
   -.538E-13 0.121E-13 0.463E+02   -.122E-06 0.515E-07 -.465E+02   0.000E+00 0.000E+00 0.136E+00   0.478E-09 -.212E-09 0.687E-01
   0.736E-06 -.131E-05 -.171E+04   0.134E-06 -.571E-07 0.171E+04   0.000E+00 0.000E+00 -.160E+01   0.158E-10 -.231E-10 -.524E+00
   -.156E-13 -.940E-13 -.300E+04   -.781E-07 0.340E-07 0.299E+04   0.000E+00 0.000E+00 0.613E+01   -.543E-09 0.257E-09 -.533E+00
 -----------------------------------------------------------------------------------------------
   0.148E-05 -.262E-05 0.141E+01   -.167E-13 -.185E-13 0.136E-11   0.000E+00 0.000E+00 -.589E+00   -.231E-09 0.198E-09 -.828E+00
 
 
 POSITION                                       TOTAL-FORCE (eV/Angst)
 -----------------------------------------------------------------------------------
      0.00000      0.00000      0.00000         0.000000      0.000000      0.554239
      1.81500      1.28340      1.28340         0.000000      0.000000     -0.530010
      0.00000      0.00000      2.50019         0.000000      0.000000     -0.012503
      1.81500      1.28340      3.84850         0.000000      0.000000     -0.024656
      0.00000      0.00000      4.94005         0.000000      0.000000      0.012931
 -----------------------------------------------------------------------------------
    total drift:                                0.000001     -0.000003     -0.003051


--------------------------------------------------------------------------------------------------------



  FREE ENERGIE OF THE ION-ELECTRON SYSTEM (eV)
  ---------------------------------------------------
  free  energy   TOTEN  =       -18.73145481 eV

  energy  without entropy=      -18.72279774  energy(sigma->0) =      -18.72856912
 
 d Force = 0.2159934E-03[ 0.749E-04, 0.357E-03]  d Energy = 0.5276437E-04 0.163E-03
 d Force =-0.3337301E+02[-0.334E+02,-0.334E+02]  d Ewald  =-0.3337302E+02 0.587E-05


--------------------------------------------------------------------------------------------------------


    POTLOK:  cpu time      0.0197: real time      0.0198


--------------------------------------------------------------------------------------------------------


 stress matrix after NEB project (eV)
     -3.25715      0.00000      0.00000
      0.00000     -3.46698      0.00000
      0.00000      0.00000     -1.09610
  FORCES: max atom, RMS     0.024656    0.013649
  FORCE total and by dimension    0.030520    0.024656
  Stress total and by dimension    4.881640    3.466978


--------------------------------------------------------------------------------------------------------


  
 reached required accuracy - stopping structural energy minimisation
     LOOP+:  cpu time      0.8473: real time      0.8873
    4ORBIT:  cpu time      0.0000: real time      0.0000

 total amount of memory used by VASP MPI-rank0    33068. kBytes
=======================================================================

   base      :      30000. kBytes
   nonl-proj :        453. kBytes
   fftplans  :        527. kBytes
   grid      :       1237. kBytes
   one-center:         31. kBytes
   wavefun   :        820. kBytes
 
  
  
 General timing and accounting informations for this job:
 ========================================================
  
                  Total CPU time used (sec):       20.730
                            User time (sec):       20.491
                          System time (sec):        0.239
                         Elapsed time (sec):       22.011
  
                   Maximum memory used (kb):      213748.
                   Average memory used (kb):          N/A
  
                          Minor page faults:        48940
                          Major page faults:         6434
                 Voluntary context switches:         2005
