unknown system                          
           1
     3.630000    0.000000    0.000000
     0.000000    2.566798    0.000000
     0.000000    0.000000   20.133595
   Cu
     5
Direct configuration=     1
   0.00000000  0.00000000  0.00000000
   0.50000000  0.50000000  0.06374415
   0.00000000  0.00000000  0.12748830
   0.50000000  0.50000000  0.19123245
   0.00000000  0.00000000  0.25497659
Direct configuration=     2
   0.00000000  0.00000000  0.00000000
   0.50000000  0.50000000  0.06374415
   0.00000000  0.00000000  0.12748937
   0.50000000  0.50000000  0.19223042
   0.00000000  0.00000000  0.25322349
Direct configuration=     3
   0.00000000  0.00000000  0.00000000
   0.50000000  0.50000000  0.06374415
   0.00000000  0.00000000  0.12749225
   0.50000000  0.50000000  0.19491063
   0.00000000  0.00000000  0.24851527
Direct configuration=     4
   0.00000000  0.00000000  0.00000000
   0.50000000  0.50000000  0.06374415
   0.00000000  0.00000000  0.12749167
   0.50000000  0.50000000  0.19436699
   0.00000000  0.00000000  0.24947026
Direct configuration=     5
   0.00000000  0.00000000  0.00000000
   0.50000000  0.50000000  0.06374415
   0.00000000  0.00000000  0.12749177
   0.50000000  0.50000000  0.19446130
   0.00000000  0.00000000  0.24930460
Direct configuration=     6
   0.00000000  0.00000000  0.00000000
   0.50000000  0.50000000  0.06374415
   0.00000000  0.00000000  0.12749172
   0.50000000  0.50000000  0.19441688
   0.00000000  0.00000000  0.24938262
Direct configuration=     7
   0.00000000  0.00000000  0.00000000
   0.50000000  0.50000000  0.06374415
   0.00000000  0.00000000  0.12749175
   0.50000000  0.50000000  0.19444286
   0.00000000  0.00000000  0.24933698
Direct configuration=     8
   0.00000000  0.00000000  0.00000000
   0.50000000  0.50000000  0.06374415
   0.00000000  0.00000000  0.12749174
   0.50000000  0.50000000  0.19442987
   0.00000000  0.00000000  0.24935980
Direct configuration=     9
   0.00000000  0.00000000  0.00000000
   0.50000000  0.50000000  0.06374415
   0.00000000  0.00000000  0.12685193
   0.50000000  0.50000000  0.19408295
   0.00000000  0.00000000  0.24888517
Direct configuration=    10
   0.00000000  0.00000000  0.00000000
   0.50000000  0.50000000  0.06374415
   0.00000000  0.00000000  0.12505880
   0.50000000  0.50000000  0.19311067
   0.00000000  0.00000000  0.24755496
Direct configuration=    11
   0.00000000  0.00000000  0.00000000
   0.50000000  0.50000000  0.06374415
   0.00000000  0.00000000  0.12147255
   0.50000000  0.50000000  0.19116610
   0.00000000  0.00000000  0.24489455
Direct configuration=    12
   0.00000000  0.00000000  0.00000000
   0.50000000  0.50000000  0.06374415
   0.00000000  0.00000000  0.12410606
   0.50000000  0.50000000  0.19259406
   0.00000000  0.00000000  0.24684818
Direct configuration=    13
   0.00000000  0.00000000  0.00000000
   0.50000000  0.50000000  0.06374415
   0.00000000  0.00000000  0.12416234
   0.50000000  0.50000000  0.19149485
   0.00000000  0.00000000  0.24571941
Direct configuration=    14
   0.00000000  0.00000000  0.00000000
   0.50000000  0.50000000  0.06374415
   0.00000000  0.00000000  0.12418008
   0.50000000  0.50000000  0.19114832
   0.00000000  0.00000000  0.24536356
