  18  18   0   0
  0.2028145E+02  0.3630000E-09  0.3630000E-09  0.2770500E-08  0.5000000E-15
  1.000000000000000E-004
  CAR 
 unknown system                          
     13.26594845     -9.39877577  301      2.01559125      1.00000000
     -9.399  0.0000E+00  0.0000E+00  0.0000E+00  0.0000E+00
     -9.323  0.0000E+00  0.0000E+00  0.0000E+00  0.0000E+00
     -9.248  0.0000E+00  0.0000E+00  0.0000E+00  0.0000E+00
     -9.172  0.0000E+00  0.0000E+00  0.0000E+00  0.0000E+00
     -9.097  0.0000E+00  0.0000E+00  0.0000E+00  0.0000E+00
     -9.021 -0.1123E-30 -0.1123E-30 -0.8486E-32 -0.8486E-32
     -8.945 -0.4246E-28 -0.4246E-28 -0.3217E-29 -0.3217E-29
     -8.870 -0.1206E-25 -0.1206E-25 -0.9143E-27 -0.9143E-27
     -8.794 -0.2567E-23 -0.2567E-23 -0.1948E-24 -0.1948E-24
     -8.719 -0.4094E-21 -0.4094E-21 -0.3112E-22 -0.3112E-22
     -8.643 -0.4889E-19 -0.4889E-19 -0.3725E-20 -0.3725E-20
     -8.568 -0.4268E-17 -0.4268E-17 -0.3262E-18 -0.3262E-18
     -8.492 -0.2824E-15 -0.2824E-15 -0.2166E-16 -0.2166E-16
     -8.417 -0.1404E-13 -0.1404E-13 -0.1082E-14 -0.1082E-14
     -8.341 -0.5197E-12 -0.5197E-12 -0.4035E-13 -0.4035E-13
     -8.266 -0.1431E-10 -0.1431E-10 -0.1122E-11 -0.1122E-11
     -8.190 -0.2923E-09 -0.2923E-09 -0.2321E-10 -0.2321E-10
     -8.114 -0.4409E-08 -0.4409E-08 -0.3563E-09 -0.3563E-09
     -8.039 -0.4882E-07 -0.4882E-07 -0.4045E-08 -0.4045E-08
     -7.963 -0.3931E-06 -0.3931E-06 -0.3374E-07 -0.3374E-07
     -7.888 -0.2264E-05 -0.2264E-05 -0.2048E-06 -0.2048E-06
     -7.812 -0.9041E-05 -0.9041E-05 -0.8878E-06 -0.8878E-06
     -7.737 -0.2318E-04 -0.2318E-04 -0.2639E-05 -0.2639E-05
     -7.661 -0.2835E-04 -0.2835E-04 -0.4781E-05 -0.4781E-05
     -7.586  0.3226E-04  0.3226E-04 -0.2343E-05 -0.2343E-05
     -7.510  0.2158E-03  0.2158E-03  0.1396E-04  0.1396E-04
     -7.434  0.4609E-03  0.4609E-03  0.4878E-04  0.4878E-04
     -7.359  0.5736E-03  0.5736E-03  0.9211E-04  0.9211E-04
     -7.283  0.4397E-03  0.4397E-03  0.1253E-03  0.1253E-03
     -7.208  0.1787E-03  0.1787E-03  0.1388E-03  0.1388E-03
     -7.132 -0.1083E-05 -0.1083E-05  0.1387E-03  0.1387E-03
     -7.057  0.1179E-04  0.1179E-04  0.1396E-03  0.1396E-03
     -6.981  0.2104E-03  0.2104E-03  0.1555E-03  0.1555E-03
     -6.906  0.4675E-03  0.4675E-03  0.1909E-03  0.1909E-03
     -6.830  0.5729E-03  0.5729E-03  0.2341E-03  0.2341E-03
     -6.755  0.4331E-03  0.4331E-03  0.2669E-03  0.2669E-03
     -6.679  0.1853E-03  0.1853E-03  0.2809E-03  0.2809E-03
     -6.603  0.1008E-04  0.1008E-04  0.2816E-03  0.2816E-03
     -6.528 -0.6566E-04 -0.6566E-04  0.2767E-03  0.2767E-03
     -6.452 -0.1205E-03 -0.1205E-03  0.2676E-03  0.2676E-03
     -6.377 -0.1520E-03 -0.1520E-03  0.2561E-03  0.2561E-03
     -6.301  0.6619E-04  0.6619E-04  0.2611E-03  0.2611E-03
     -6.226  0.8465E-03  0.8465E-03  0.3250E-03  0.3250E-03
     -6.150  0.2041E-02  0.2041E-02  0.4792E-03  0.4792E-03
     -6.075  0.2793E-02  0.2793E-02  0.6902E-03  0.6902E-03
     -5.999  0.2378E-02  0.2378E-02  0.8699E-03  0.8699E-03
     -5.924  0.1170E-02  0.1170E-02  0.9583E-03  0.9583E-03
     -5.848  0.2428E-03  0.2428E-03  0.9766E-03  0.9766E-03
     -5.772  0.3035E-03  0.3035E-03  0.9995E-03  0.9995E-03
     -5.697  0.1210E-02  0.1210E-02  0.1091E-02  0.1091E-02
     -5.621  0.2117E-02  0.2117E-02  0.1251E-02  0.1251E-02
     -5.546  0.2157E-02  0.2157E-02  0.1414E-02  0.1414E-02
     -5.470  0.1321E-02  0.1321E-02  0.1514E-02  0.1514E-02
     -5.395  0.3613E-03  0.3613E-03  0.1541E-02  0.1541E-02
     -5.319 -0.1696E-03 -0.1696E-03  0.1528E-02  0.1528E-02
     -5.244 -0.2640E-03 -0.2640E-03  0.1508E-02  0.1508E-02
     -5.168  0.4473E-04  0.4473E-04  0.1512E-02  0.1512E-02
     -5.092  0.9948E-03  0.9948E-03  0.1587E-02  0.1587E-02
     -5.017  0.2640E-02  0.2640E-02  0.1786E-02  0.1786E-02
     -4.941  0.4196E-02  0.4196E-02  0.2103E-02  0.2103E-02
     -4.866  0.4494E-02  0.4494E-02  0.2443E-02  0.2443E-02
     -4.790  0.3536E-02  0.3536E-02  0.2710E-02  0.2710E-02
     -4.715  0.2813E-02  0.2813E-02  0.2922E-02  0.2922E-02
     -4.639  0.3392E-02  0.3392E-02  0.3179E-02  0.3179E-02
     -4.564  0.4516E-02  0.4516E-02  0.3520E-02  0.3520E-02
     -4.488  0.4835E-02  0.4835E-02  0.3885E-02  0.3885E-02
     -4.413  0.4102E-02  0.4102E-02  0.4195E-02  0.4195E-02
     -4.337  0.2872E-02  0.2872E-02  0.4412E-02  0.4412E-02
     -4.261  0.1569E-02  0.1569E-02  0.4531E-02  0.4531E-02
     -4.186  0.6446E-03  0.6446E-03  0.4579E-02  0.4579E-02
     -4.110  0.7022E-03  0.7022E-03  0.4632E-02  0.4632E-02
     -4.035  0.1830E-02  0.1830E-02  0.4771E-02  0.4771E-02
     -3.959  0.3280E-02  0.3280E-02  0.5018E-02  0.5018E-02
     -3.884  0.4044E-02  0.4044E-02  0.5324E-02  0.5324E-02
     -3.808  0.3585E-02  0.3585E-02  0.5595E-02  0.5595E-02
     -3.733  0.2165E-02  0.2165E-02  0.5758E-02  0.5758E-02
     -3.657  0.7301E-03  0.7301E-03  0.5813E-02  0.5813E-02
     -3.581  0.3924E-03  0.3924E-03  0.5843E-02  0.5843E-02
     -3.506  0.1618E-02  0.1618E-02  0.5965E-02  0.5965E-02
     -3.430  0.3517E-02  0.3517E-02  0.6231E-02  0.6231E-02
     -3.355  0.4287E-02  0.4287E-02  0.6555E-02  0.6555E-02
     -3.279  0.3181E-02  0.3181E-02  0.6795E-02  0.6795E-02
     -3.204  0.1658E-02  0.1658E-02  0.6920E-02  0.6920E-02
     -3.128  0.1797E-02  0.1797E-02  0.7056E-02  0.7056E-02
     -3.053  0.4245E-02  0.4245E-02  0.7377E-02  0.7377E-02
     -2.977  0.8197E-02  0.8197E-02  0.7996E-02  0.7996E-02
     -2.902  0.1244E-01  0.1244E-01  0.8936E-02  0.8936E-02
     -2.826  0.1563E-01  0.1563E-01  0.1012E-01  0.1012E-01
     -2.750  0.1627E-01  0.1627E-01  0.1135E-01  0.1135E-01
     -2.675  0.1422E-01  0.1422E-01  0.1242E-01  0.1242E-01
     -2.599  0.1175E-01  0.1175E-01  0.1331E-01  0.1331E-01
     -2.524  0.1131E-01  0.1131E-01  0.1416E-01  0.1416E-01
     -2.448  0.1324E-01  0.1324E-01  0.1516E-01  0.1516E-01
     -2.373  0.1680E-01  0.1680E-01  0.1643E-01  0.1643E-01
     -2.297  0.2134E-01  0.2134E-01  0.1804E-01  0.1804E-01
     -2.222  0.2554E-01  0.2554E-01  0.1997E-01  0.1997E-01
     -2.146  0.2721E-01  0.2721E-01  0.2203E-01  0.2203E-01
     -2.071  0.2510E-01  0.2510E-01  0.2393E-01  0.2393E-01
     -1.995  0.2043E-01  0.2043E-01  0.2547E-01  0.2547E-01
     -1.919  0.1617E-01  0.1617E-01  0.2669E-01  0.2669E-01
     -1.844  0.1461E-01  0.1461E-01  0.2779E-01  0.2779E-01
     -1.768  0.1617E-01  0.1617E-01  0.2902E-01  0.2902E-01
     -1.693  0.1963E-01  0.1963E-01  0.3050E-01  0.3050E-01
     -1.617  0.2306E-01  0.2306E-01  0.3224E-01  0.3224E-01
     -1.542  0.2479E-01  0.2479E-01  0.3411E-01  0.3411E-01
     -1.466  0.2445E-01  0.2445E-01  0.3596E-01  0.3596E-01
     -1.391  0.2347E-01  0.2347E-01  0.3773E-01  0.3773E-01
     -1.315  0.2396E-01  0.2396E-01  0.3954E-01  0.3954E-01
     -1.239  0.2684E-01  0.2684E-01  0.4157E-01  0.4157E-01
     -1.164  0.3152E-01  0.3152E-01  0.4395E-01  0.4395E-01
     -1.088  0.3677E-01  0.3677E-01  0.4673E-01  0.4673E-01
     -1.013  0.4082E-01  0.4082E-01  0.4982E-01  0.4982E-01
     -0.937  0.4177E-01  0.4177E-01  0.5297E-01  0.5297E-01
     -0.862  0.3944E-01  0.3944E-01  0.5595E-01  0.5595E-01
     -0.786  0.3594E-01  0.3594E-01  0.5867E-01  0.5867E-01
     -0.711  0.3304E-01  0.3304E-01  0.6116E-01  0.6116E-01
     -0.635  0.3082E-01  0.3082E-01  0.6349E-01  0.6349E-01
     -0.560  0.2967E-01  0.2967E-01  0.6573E-01  0.6573E-01
     -0.484  0.3021E-01  0.3021E-01  0.6801E-01  0.6801E-01
     -0.408  0.3118E-01  0.3118E-01  0.7037E-01  0.7037E-01
     -0.333  0.3111E-01  0.3111E-01  0.7272E-01  0.7272E-01
     -0.257  0.3146E-01  0.3146E-01  0.7510E-01  0.7510E-01
     -0.182  0.3467E-01  0.3467E-01  0.7772E-01  0.7772E-01
     -0.106  0.4023E-01  0.4023E-01  0.8076E-01  0.8076E-01
     -0.031  0.4479E-01  0.4479E-01  0.8414E-01  0.8414E-01
      0.045  0.4593E-01  0.4593E-01  0.8761E-01  0.8761E-01
      0.120  0.4477E-01  0.4477E-01  0.9099E-01  0.9099E-01
      0.196  0.4448E-01  0.4448E-01  0.9435E-01  0.9435E-01
      0.272  0.4568E-01  0.4568E-01  0.9780E-01  0.9780E-01
      0.347  0.4468E-01  0.4468E-01  0.1012E+00  0.1012E+00
      0.423  0.3754E-01  0.3754E-01  0.1040E+00  0.1040E+00
      0.498  0.2518E-01  0.2518E-01  0.1059E+00  0.1059E+00
      0.574  0.1258E-01  0.1258E-01  0.1069E+00  0.1069E+00
      0.649  0.3918E-02  0.3918E-02  0.1072E+00  0.1072E+00
      0.725  0.2153E-04  0.2153E-04  0.1072E+00  0.1072E+00
      0.800 -0.3493E-03 -0.3493E-03  0.1071E+00  0.1071E+00
      0.876  0.1440E-02  0.1440E-02  0.1072E+00  0.1072E+00
      0.951  0.4013E-02  0.4013E-02  0.1076E+00  0.1076E+00
      1.027  0.5668E-02  0.5668E-02  0.1080E+00  0.1080E+00
      1.103  0.5347E-02  0.5347E-02  0.1084E+00  0.1084E+00
      1.178  0.3513E-02  0.3513E-02  0.1086E+00  0.1086E+00
      1.254  0.1485E-02  0.1485E-02  0.1088E+00  0.1088E+00
      1.329  0.2220E-03  0.2220E-03  0.1088E+00  0.1088E+00
      1.405 -0.1427E-03 -0.1427E-03  0.1088E+00  0.1088E+00
      1.480  0.5048E-05  0.5048E-05  0.1088E+00  0.1088E+00
      1.556  0.3556E-03  0.3556E-03  0.1088E+00  0.1088E+00
      1.631  0.1085E-02  0.1085E-02  0.1089E+00  0.1089E+00
      1.707  0.2673E-02  0.2673E-02  0.1091E+00  0.1091E+00
      1.782  0.5119E-02  0.5119E-02  0.1095E+00  0.1095E+00
      1.858  0.7384E-02  0.7384E-02  0.1100E+00  0.1100E+00
      1.934  0.8196E-02  0.8196E-02  0.1106E+00  0.1106E+00
      2.009  0.7481E-02  0.7481E-02  0.1112E+00  0.1112E+00
      2.085  0.6053E-02  0.6053E-02  0.1117E+00  0.1117E+00
      2.160  0.4209E-02  0.4209E-02  0.1120E+00  0.1120E+00
      2.236  0.2238E-02  0.2238E-02  0.1122E+00  0.1122E+00
      2.311  0.1525E-02  0.1525E-02  0.1123E+00  0.1123E+00
      2.387  0.3157E-02  0.3157E-02  0.1125E+00  0.1125E+00
      2.462  0.5864E-02  0.5864E-02  0.1129E+00  0.1129E+00
      2.538  0.7051E-02  0.7051E-02  0.1135E+00  0.1135E+00
      2.614  0.5891E-02  0.5891E-02  0.1139E+00  0.1139E+00
      2.689  0.4042E-02  0.4042E-02  0.1142E+00  0.1142E+00
      2.765  0.3385E-02  0.3385E-02  0.1145E+00  0.1145E+00
      2.840  0.4145E-02  0.4145E-02  0.1148E+00  0.1148E+00
      2.916  0.4901E-02  0.4901E-02  0.1152E+00  0.1152E+00
      2.991  0.4218E-02  0.4218E-02  0.1155E+00  0.1155E+00
      3.067  0.2452E-02  0.2452E-02  0.1157E+00  0.1157E+00
      3.142  0.1277E-02  0.1277E-02  0.1158E+00  0.1158E+00
      3.218  0.1430E-02  0.1430E-02  0.1159E+00  0.1159E+00
      3.293  0.1978E-02  0.1978E-02  0.1160E+00  0.1160E+00
      3.369  0.1884E-02  0.1884E-02  0.1162E+00  0.1162E+00
      3.445  0.1305E-02  0.1305E-02  0.1163E+00  0.1163E+00
      3.520  0.9372E-03  0.9372E-03  0.1163E+00  0.1163E+00
      3.596  0.9588E-03  0.9588E-03  0.1164E+00  0.1164E+00
      3.671  0.1280E-02  0.1280E-02  0.1165E+00  0.1165E+00
      3.747  0.2004E-02  0.2004E-02  0.1167E+00  0.1167E+00
      3.822  0.2972E-02  0.2972E-02  0.1169E+00  0.1169E+00
      3.898  0.3608E-02  0.3608E-02  0.1172E+00  0.1172E+00
      3.973  0.3529E-02  0.3529E-02  0.1174E+00  0.1174E+00
      4.049  0.2770E-02  0.2770E-02  0.1176E+00  0.1176E+00
      4.125  0.1601E-02  0.1601E-02  0.1178E+00  0.1178E+00
      4.200  0.4956E-03  0.4956E-03  0.1178E+00  0.1178E+00
      4.276 -0.1212E-03 -0.1212E-03  0.1178E+00  0.1178E+00
      4.351 -0.1315E-03 -0.1315E-03  0.1178E+00  0.1178E+00
      4.427  0.4090E-03  0.4090E-03  0.1178E+00  0.1178E+00
      4.502  0.1357E-02  0.1357E-02  0.1179E+00  0.1179E+00
      4.578  0.2312E-02  0.2312E-02  0.1181E+00  0.1181E+00
      4.653  0.2708E-02  0.2708E-02  0.1183E+00  0.1183E+00
      4.729  0.2345E-02  0.2345E-02  0.1185E+00  0.1185E+00
      4.804  0.1749E-02  0.1749E-02  0.1186E+00  0.1186E+00
      4.880  0.1654E-02  0.1654E-02  0.1187E+00  0.1187E+00
      4.956  0.2061E-02  0.2061E-02  0.1189E+00  0.1189E+00
      5.031  0.2357E-02  0.2357E-02  0.1191E+00  0.1191E+00
      5.107  0.2324E-02  0.2324E-02  0.1192E+00  0.1192E+00
      5.182  0.2265E-02  0.2265E-02  0.1194E+00  0.1194E+00
      5.258  0.2341E-02  0.2341E-02  0.1196E+00  0.1196E+00
      5.333  0.2521E-02  0.2521E-02  0.1198E+00  0.1198E+00
      5.409  0.2794E-02  0.2794E-02  0.1200E+00  0.1200E+00
      5.484  0.3052E-02  0.3052E-02  0.1202E+00  0.1202E+00
      5.560  0.3142E-02  0.3142E-02  0.1204E+00  0.1204E+00
      5.635  0.3055E-02  0.3055E-02  0.1207E+00  0.1207E+00
      5.711  0.2990E-02  0.2990E-02  0.1209E+00  0.1209E+00
      5.787  0.3382E-02  0.3382E-02  0.1212E+00  0.1212E+00
      5.862  0.4722E-02  0.4722E-02  0.1215E+00  0.1215E+00
      5.938  0.6786E-02  0.6786E-02  0.1220E+00  0.1220E+00
      6.013  0.8069E-02  0.8069E-02  0.1226E+00  0.1226E+00
      6.089  0.7103E-02  0.7103E-02  0.1232E+00  0.1232E+00
      6.164  0.4460E-02  0.4460E-02  0.1235E+00  0.1235E+00
      6.240  0.2084E-02  0.2084E-02  0.1237E+00  0.1237E+00
      6.315  0.9864E-03  0.9863E-03  0.1237E+00  0.1237E+00
      6.391  0.9048E-03  0.9048E-03  0.1238E+00  0.1238E+00
      6.467  0.1499E-02  0.1499E-02  0.1239E+00  0.1239E+00
      6.542  0.2717E-02  0.2717E-02  0.1241E+00  0.1241E+00
      6.618  0.4140E-02  0.4140E-02  0.1244E+00  0.1244E+00
      6.693  0.4713E-02  0.4713E-02  0.1248E+00  0.1248E+00
      6.769  0.3849E-02  0.3849E-02  0.1251E+00  0.1251E+00
      6.844  0.2602E-02  0.2602E-02  0.1253E+00  0.1253E+00
      6.920  0.2654E-02  0.2654E-02  0.1255E+00  0.1255E+00
      6.995  0.4249E-02  0.4248E-02  0.1258E+00  0.1258E+00
      7.071  0.6029E-02  0.6029E-02  0.1263E+00  0.1263E+00
      7.146  0.6663E-02  0.6663E-02  0.1268E+00  0.1268E+00
      7.222  0.5869E-02  0.5869E-02  0.1272E+00  0.1272E+00
      7.298  0.4194E-02  0.4195E-02  0.1275E+00  0.1275E+00
      7.373  0.2650E-02  0.2650E-02  0.1277E+00  0.1277E+00
      7.449  0.2355E-02  0.2354E-02  0.1279E+00  0.1279E+00
      7.524  0.3589E-02  0.3589E-02  0.1282E+00  0.1282E+00
      7.600  0.5187E-02  0.5187E-02  0.1286E+00  0.1286E+00
      7.675  0.5567E-02  0.5568E-02  0.1290E+00  0.1290E+00
      7.751  0.4324E-02  0.4324E-02  0.1293E+00  0.1293E+00
      7.826  0.2532E-02  0.2532E-02  0.1295E+00  0.1295E+00
      7.902  0.1755E-02  0.1755E-02  0.1296E+00  0.1296E+00
      7.978  0.2669E-02  0.2668E-02  0.1298E+00  0.1298E+00
      8.053  0.4319E-02  0.4319E-02  0.1302E+00  0.1302E+00
      8.129  0.5070E-02  0.5070E-02  0.1305E+00  0.1305E+00
      8.204  0.4311E-02  0.4311E-02  0.1309E+00  0.1309E+00
      8.280  0.2757E-02  0.2757E-02  0.1311E+00  0.1311E+00
      8.355  0.1346E-02  0.1346E-02  0.1312E+00  0.1312E+00
      8.431  0.6355E-03  0.6355E-03  0.1312E+00  0.1312E+00
      8.506  0.9433E-03  0.9433E-03  0.1313E+00  0.1313E+00
      8.582  0.2192E-02  0.2192E-02  0.1315E+00  0.1315E+00
      8.657  0.3720E-02  0.3720E-02  0.1318E+00  0.1318E+00
      8.733  0.4850E-02  0.4850E-02  0.1321E+00  0.1321E+00
      8.809  0.5620E-02  0.5619E-02  0.1325E+00  0.1325E+00
      8.884  0.6562E-02  0.6562E-02  0.1330E+00  0.1330E+00
      8.960  0.7737E-02  0.7737E-02  0.1336E+00  0.1336E+00
      9.035  0.8459E-02  0.8459E-02  0.1343E+00  0.1343E+00
      9.111  0.8206E-02  0.8206E-02  0.1349E+00  0.1349E+00
      9.186  0.7096E-02  0.7096E-02  0.1354E+00  0.1354E+00
      9.262  0.5255E-02  0.5255E-02  0.1358E+00  0.1358E+00
      9.337  0.2876E-02  0.2876E-02  0.1360E+00  0.1360E+00
      9.413  0.1008E-02  0.1008E-02  0.1361E+00  0.1361E+00
      9.488  0.1036E-02  0.1036E-02  0.1362E+00  0.1362E+00
      9.564  0.3038E-02  0.3038E-02  0.1364E+00  0.1364E+00
      9.640  0.5288E-02  0.5288E-02  0.1368E+00  0.1368E+00
      9.715  0.5967E-02  0.5967E-02  0.1373E+00  0.1373E+00
      9.791  0.5025E-02  0.5025E-02  0.1376E+00  0.1376E+00
      9.866  0.3551E-02  0.3551E-02  0.1379E+00  0.1379E+00
      9.942  0.2125E-02  0.2125E-02  0.1381E+00  0.1381E+00
     10.017  0.9722E-03  0.9722E-03  0.1381E+00  0.1381E+00
     10.093  0.7512E-03  0.7512E-03  0.1382E+00  0.1382E+00
     10.168  0.2120E-02  0.2119E-02  0.1384E+00  0.1384E+00
     10.244  0.4835E-02  0.4834E-02  0.1387E+00  0.1387E+00
     10.320  0.7695E-02  0.7695E-02  0.1393E+00  0.1393E+00
     10.395  0.9564E-02  0.9564E-02  0.1400E+00  0.1400E+00
     10.471  0.1044E-01  0.1044E-01  0.1408E+00  0.1408E+00
     10.546  0.1082E-01  0.1082E-01  0.1416E+00  0.1416E+00
     10.622  0.1021E-01  0.1021E-01  0.1424E+00  0.1424E+00
     10.697  0.7697E-02  0.7697E-02  0.1430E+00  0.1430E+00
     10.773  0.4025E-02  0.4025E-02  0.1433E+00  0.1433E+00
     10.848  0.1180E-02  0.1180E-02  0.1434E+00  0.1434E+00
     10.924  0.2207E-03  0.2207E-03  0.1434E+00  0.1434E+00
     10.999  0.8072E-03  0.8071E-03  0.1435E+00  0.1435E+00
     11.075  0.2361E-02  0.2361E-02  0.1436E+00  0.1436E+00
     11.151  0.4342E-02  0.4342E-02  0.1440E+00  0.1440E+00
     11.226  0.5589E-02  0.5589E-02  0.1444E+00  0.1444E+00
     11.302  0.4956E-02  0.4956E-02  0.1448E+00  0.1448E+00
     11.377  0.2836E-02  0.2836E-02  0.1450E+00  0.1450E+00
     11.453  0.8206E-03  0.8207E-03  0.1450E+00  0.1450E+00
     11.528 -0.1297E-03 -0.1296E-03  0.1450E+00  0.1450E+00
     11.604 -0.2547E-03 -0.2547E-03  0.1450E+00  0.1450E+00
     11.679 -0.1321E-03 -0.1321E-03  0.1450E+00  0.1450E+00
     11.755 -0.4157E-04 -0.4157E-04  0.1450E+00  0.1450E+00
     11.831 -0.8987E-05 -0.8988E-05  0.1450E+00  0.1450E+00
     11.906 -0.1393E-05 -0.1393E-05  0.1450E+00  0.1450E+00
     11.982 -0.1580E-06 -0.1580E-06  0.1450E+00  0.1450E+00
     12.057 -0.1324E-07 -0.1324E-07  0.1450E+00  0.1450E+00
     12.133 -0.8252E-09 -0.8253E-09  0.1450E+00  0.1450E+00
     12.208 -0.3837E-10 -0.3838E-10  0.1450E+00  0.1450E+00
     12.284 -0.1335E-11 -0.1335E-11  0.1450E+00  0.1450E+00
     12.359 -0.3476E-13 -0.3477E-13  0.1450E+00  0.1450E+00
     12.435 -0.6784E-15 -0.6784E-15  0.1450E+00  0.1450E+00
     12.510 -0.9797E-17 -0.9797E-17  0.1450E+00  0.1450E+00
     12.586  0.0000E+00  0.0000E+00  0.1450E+00  0.1450E+00
     12.662  0.0000E+00  0.0000E+00  0.1450E+00  0.1450E+00
     12.737  0.0000E+00  0.0000E+00  0.1450E+00  0.1450E+00
     12.813  0.0000E+00  0.0000E+00  0.1450E+00  0.1450E+00
     12.888  0.0000E+00  0.0000E+00  0.1450E+00  0.1450E+00
     12.964  0.0000E+00  0.0000E+00  0.1450E+00  0.1450E+00
     13.039  0.0000E+00  0.0000E+00  0.1450E+00  0.1450E+00
     13.115  0.0000E+00  0.0000E+00  0.1450E+00  0.1450E+00
     13.190  0.0000E+00  0.0000E+00  0.1450E+00  0.1450E+00
     13.266  0.0000E+00  0.0000E+00  0.1450E+00  0.1450E+00
