   18   18  800    2
  0.2028145E+02  0.3630000E-09  0.3630000E-09  0.2770500E-08  0.5000000E-15
  1.000000000000000E-004
  CAR 
 unknown system                          
    178      4    116
 
  0.0000000E+00  0.0000000E+00  0.0000000E+00  0.1111111E+00
      1         -7.398776       -7.398776   1.000000   1.000000
      2         -6.875214       -6.875214   1.000000   1.000000
      3         -6.056795       -6.056795   1.000000   1.000000
      4         -5.071254       -5.071254   1.000000   1.000000
      5         -4.729691       -4.729691   1.000000   1.000000
      6         -3.792079       -3.792079   1.000000   1.000000
      7         -3.104236       -3.104236   1.000000   1.000000
      8         -2.979847       -2.979847   1.000000   1.000000
      9         -2.976683       -2.976683   1.000000   1.000000
     10         -2.939109       -2.939109   1.000000   1.000000
     11         -2.912837       -2.912837   1.000000   1.000000
     12         -2.753234       -2.753234   1.000000   1.000000
     13         -2.748507       -2.748507   1.000000   1.000000
     14         -2.533839       -2.533839   1.000000   1.000000
     15         -2.501524       -2.501524   1.000000   1.000000
     16         -2.501432       -2.501432   1.000000   1.000000
     17         -2.427821       -2.427821   1.000000   1.000000
     18         -2.427736       -2.427736   1.000000   1.000000
     19         -2.403736       -2.403736   1.000000   1.000000
     20         -2.361596       -2.361596   1.000000   1.000000
     21         -2.361464       -2.361464   1.000000   1.000000
     22         -2.172198       -2.172198   1.000000   1.000000
     23         -2.108341       -2.108341   1.000000   1.000000
     24         -2.108099       -2.108099   1.000000   1.000000
     25         -2.029958       -2.029958   1.000000   1.000000
     26         -1.997224       -1.997224   1.000000   1.000000
     27         -1.855960       -1.855960   1.000000   1.000000
     28         -1.705016       -1.705016   1.000000   1.000000
     29         -1.704719       -1.704719   1.000000   1.000000
     30         -1.554471       -1.554471   1.000000   1.000000
     31         -1.296444       -1.296444   1.000000   1.000000
     32         -1.214283       -1.214283   1.000000   1.000000
     33         -1.213861       -1.213861   1.000000   1.000000
     34         -1.148392       -1.148392   1.000000   1.000000
     35         -1.127591       -1.127591   1.000000   1.000000
     36         -1.127475       -1.127475   1.000000   1.000000
     37         -1.011459       -1.011459   1.000000   1.000000
     38         -1.011328       -1.011328   1.000000   1.000000
     39         -0.992255       -0.992255   1.000000   1.000000
     40         -0.803173       -0.803173   1.000000   1.000000
     41         -0.802919       -0.802919   1.000000   1.000000
     42         -0.644709       -0.644709   1.000000   1.000000
     43         -0.644043       -0.644043   1.000000   1.000000
     44         -0.513650       -0.513650   1.000000   1.000000
     45         -0.490483       -0.490483   1.000000   1.000000
     46         -0.490216       -0.490216   1.000000   1.000000
     47         -0.472892       -0.472892   1.000000   1.000000
     48         -0.364310       -0.364310   1.000000   1.000000
     49         -0.330214       -0.330214   1.000000   1.000000
     50         -0.293297       -0.293297   1.000000   1.000000
     51         -0.284796       -0.284796   1.000000   1.000000
     52         -0.173738       -0.173738   1.000000   1.000000
     53         -0.171533       -0.171533   1.000000   1.000000
     54         -0.171083       -0.171083   1.000000   1.000000
     55         -0.162245       -0.162245   1.000000   1.000000
     56         -0.161652       -0.161652   1.000000   1.000000
     57         -0.159465       -0.159465   1.000000   1.000000
     58         -0.094776       -0.094776   1.000000   1.000000
     59         -0.094113       -0.094113   1.000000   1.000000
     60         -0.017388       -0.017388   1.000000   1.000000
     61         -0.004556       -0.004556   1.000000   1.000000
     62          0.002595        0.002595   1.000000   1.000000
     63          0.130307        0.130307   1.000000   1.000000
     64          0.132975        0.132975   1.000000   1.000000
     65          0.133463        0.133463   1.000000   1.000000
     66          0.175339        0.175339   1.000000   1.000000
     67          0.192288        0.192288   1.000000   1.000000
     68          0.198741        0.198741   1.000000   1.000000
     69          0.269726        0.269726   1.000000   1.000000
     70          0.305472        0.305472   1.000000   1.000000
     71          0.310588        0.310588   1.000000   1.000000
     72          0.313728        0.313728   1.000000   1.000000
     73          0.322819        0.322819   1.000000   1.000000
     74          0.323250        0.323250   1.000000   1.000000
     75          0.323512        0.323512   1.000000   1.000000
     76          0.328675        0.328675   1.000000   1.000000
     77          0.342501        0.342501   1.000000   1.000000
     78          0.388433        0.388433   1.000000   1.000000
     79          0.388718        0.388718   1.000000   1.000000
     80          0.427075        0.427075   1.000000   1.000000
     81          0.429501        0.429501   1.000000   1.000000
     82          0.470165        0.470165   1.000000   1.000000
     83          0.470272        0.470272   1.000000   1.000000
     84          0.470795        0.470795   1.000000   1.000000
     85          0.470969        0.470969   1.000000   1.000000
     86          0.610210        0.610210   1.000000   1.000000
     87          0.643401        0.643401   1.000000   1.000000
     88          1.530673        1.530673   1.001611   1.001611
     89          2.859447        2.859447  -0.000000  -0.000000
     90          3.562725        3.562725  -0.000000  -0.000000
     91          3.563446        3.563446  -0.000000  -0.000000
     92          3.816182        3.816182  -0.000000  -0.000000
     93          4.522806        4.522806  -0.000000  -0.000000
     94          4.525027        4.525027  -0.000000  -0.000000
     95          5.779525        5.779526  -0.000000  -0.000000
     96          5.786242        5.786242  -0.000000  -0.000000
     97          5.874668        5.874681  -0.000000  -0.000000
     98          6.405526        6.405534  -0.000000  -0.000000
     99          7.285223        7.285223  -0.000000  -0.000000
    100          7.300213        7.300213  -0.000000  -0.000000
    101          7.597486        7.597508   0.000000   0.000000
    102          8.871857        8.871858   0.000000   0.000000
    103          8.936838        8.936838   0.000000   0.000000
    104          8.987273        8.987281   0.000000   0.000000
    105          9.036419        9.036419   0.000000   0.000000
    106          9.051326        9.051329   0.000000   0.000000
    107          9.222689        9.222689   0.000000   0.000000
    108          9.234503        9.234504   0.000000   0.000000
    109          9.630445        9.630445   0.000000   0.000000
    110          9.638100        9.638101   0.000000   0.000000
    111          9.921307        9.921309   0.000000   0.000000
    112         10.211822       10.211825   0.000000   0.000000
    113         10.273913       10.273913   0.000000   0.000000
    114         10.353097       10.353098   0.000000   0.000000
    115         10.695480       10.695480   0.000000   0.000000
    116         10.714182       10.714186   0.000000   0.000000
 
  0.3333333E+00  0.0000000E+00  0.0000000E+00  0.2222222E+00
      1         -6.108065       -6.108065   1.000000   1.000000
      2         -5.621351       -5.621351   1.000000   1.000000
      3         -4.899637       -4.899637   1.000000   1.000000
      4         -4.607470       -4.607470   1.000000   1.000000
      5         -3.860508       -3.860508   1.000000   1.000000
      6         -3.387759       -3.387759   1.000000   1.000000
      7         -3.047522       -3.047522   1.000000   1.000000
      8         -2.942548       -2.942548   1.000000   1.000000
      9         -2.590557       -2.590557   1.000000   1.000000
     10         -2.490784       -2.490784   1.000000   1.000000
     11         -2.465943       -2.465943   1.000000   1.000000
     12         -2.318414       -2.318414   1.000000   1.000000
     13         -2.302066       -2.302066   1.000000   1.000000
     14         -2.277248       -2.277248   1.000000   1.000000
     15         -2.203169       -2.203169   1.000000   1.000000
     16         -2.185506       -2.185506   1.000000   1.000000
     17         -2.157916       -2.157916   1.000000   1.000000
     18         -2.147040       -2.147040   1.000000   1.000000
     19         -2.137385       -2.137385   1.000000   1.000000
     20         -2.087291       -2.087291   1.000000   1.000000
     21         -2.086749       -2.086749   1.000000   1.000000
     22         -2.074426       -2.074426   1.000000   1.000000
     23         -1.956105       -1.956105   1.000000   1.000000
     24         -1.922019       -1.922019   1.000000   1.000000
     25         -1.913488       -1.913488   1.000000   1.000000
     26         -1.728382       -1.728382   1.000000   1.000000
     27         -1.690980       -1.690980   1.000000   1.000000
     28         -1.650385       -1.650385   1.000000   1.000000
     29         -1.596428       -1.596428   1.000000   1.000000
     30         -1.557459       -1.557459   1.000000   1.000000
     31         -1.530605       -1.530605   1.000000   1.000000
     32         -1.523386       -1.523386   1.000000   1.000000
     33         -1.413180       -1.413180   1.000000   1.000000
     34         -1.392208       -1.392208   1.000000   1.000000
     35         -1.278706       -1.278706   1.000000   1.000000
     36         -1.215193       -1.215193   1.000000   1.000000
     37         -1.167298       -1.167298   1.000000   1.000000
     38         -1.153378       -1.153378   1.000000   1.000000
     39         -1.062179       -1.062179   1.000000   1.000000
     40         -1.029082       -1.029082   1.000000   1.000000
     41         -1.013175       -1.013175   1.000000   1.000000
     42         -0.974314       -0.974314   1.000000   1.000000
     43         -0.914068       -0.914068   1.000000   1.000000
     44         -0.892288       -0.892288   1.000000   1.000000
     45         -0.865549       -0.865549   1.000000   1.000000
     46         -0.758141       -0.758141   1.000000   1.000000
     47         -0.702923       -0.702923   1.000000   1.000000
     48         -0.660616       -0.660616   1.000000   1.000000
     49         -0.655594       -0.655594   1.000000   1.000000
     50         -0.648630       -0.648630   1.000000   1.000000
     51         -0.478380       -0.478380   1.000000   1.000000
     52         -0.475879       -0.475879   1.000000   1.000000
     53         -0.443067       -0.443067   1.000000   1.000000
     54         -0.441644       -0.441644   1.000000   1.000000
     55         -0.388202       -0.388202   1.000000   1.000000
     56         -0.339018       -0.339018   1.000000   1.000000
     57         -0.336100       -0.336100   1.000000   1.000000
     58         -0.293947       -0.293947   1.000000   1.000000
     59         -0.263917       -0.263917   1.000000   1.000000
     60         -0.253872       -0.253872   1.000000   1.000000
     61         -0.210494       -0.210494   1.000000   1.000000
     62         -0.205941       -0.205941   1.000000   1.000000
     63         -0.168824       -0.168824   1.000000   1.000000
     64         -0.143875       -0.143875   1.000000   1.000000
     65         -0.106011       -0.106011   1.000000   1.000000
     66         -0.085749       -0.085749   1.000000   1.000000
     67         -0.057849       -0.057849   1.000000   1.000000
     68         -0.052607       -0.052607   1.000000   1.000000
     69         -0.042745       -0.042745   1.000000   1.000000
     70         -0.024071       -0.024071   1.000000   1.000000
     71         -0.023142       -0.023142   1.000000   1.000000
     72         -0.021832       -0.021832   1.000000   1.000000
     73         -0.007930       -0.007930   1.000000   1.000000
     74          0.050487        0.050487   1.000000   1.000000
     75          0.056007        0.056007   1.000000   1.000000
     76          0.077766        0.077766   1.000000   1.000000
     77          0.111276        0.111276   1.000000   1.000000
     78          0.121036        0.121036   1.000000   1.000000
     79          0.170376        0.170376   1.000000   1.000000
     80          0.200784        0.200784   1.000000   1.000000
     81          0.309515        0.309515   1.000000   1.000000
     82          0.322293        0.322293   1.000000   1.000000
     83          0.337827        0.337827   1.000000   1.000000
     84          0.460418        0.460418   1.000000   1.000000
     85          0.475469        0.475469   1.000000   1.000000
     86          0.493574        0.493574   1.000000   1.000000
     87          0.965993        0.965993   1.000000   1.000000
     88          0.983976        0.983976   1.000000   1.000000
     89          1.738488        1.738488   1.032289   1.032289
     90          1.906657        1.906657   0.893641   0.893641
     91          2.672991        2.672991  -0.000017  -0.000017
     92          3.279159        3.279159  -0.000000  -0.000000
     93          3.830723        3.830723  -0.000000  -0.000000
     94          4.698867        4.698867  -0.000000  -0.000000
     95          5.238612        5.238613  -0.000000  -0.000000
     96          5.919779        5.919779  -0.000000  -0.000000
     97          6.005371        6.005371  -0.000000  -0.000000
     98          6.514727        6.514729  -0.000000  -0.000000
     99          6.691796        6.691796  -0.000000  -0.000000
    100          7.129225        7.129230  -0.000000  -0.000000
    101          7.601155        7.601168   0.000000   0.000000
    102          7.727356        7.727356   0.000000   0.000000
    103          8.295734        8.295742   0.000000   0.000000
    104          8.862502        8.862511   0.000000   0.000000
    105          9.028807        9.028808   0.000000   0.000000
    106          9.203894        9.203902   0.000000   0.000000
    107          9.617146        9.617146   0.000000   0.000000
    108          9.837158        9.837158   0.000000   0.000000
    109         10.188699       10.188701   0.000000   0.000000
    110         10.425165       10.425166   0.000000   0.000000
    111         10.462507       10.462508   0.000000   0.000000
    112         10.590942       10.590950   0.000000   0.000000
    113         10.592256       10.592256   0.000000   0.000000
    114         10.997475       10.997477   0.000000   0.000000
    115         11.187950       11.187952   0.000000   0.000000
    116         11.231483       11.231487   0.000000   0.000000
 
  0.0000000E+00  0.3333333E+00  0.0000000E+00  0.2222222E+00
      1         -6.108005       -6.108005   1.000000   1.000000
      2         -5.620895       -5.620895   1.000000   1.000000
      3         -4.889958       -4.889958   1.000000   1.000000
      4         -4.539679       -4.539679   1.000000   1.000000
      5         -3.858357       -3.858357   1.000000   1.000000
      6         -3.387724       -3.387724   1.000000   1.000000
      7         -3.047630       -3.047630   1.000000   1.000000
      8         -2.942322       -2.942322   1.000000   1.000000
      9         -2.590709       -2.590709   1.000000   1.000000
     10         -2.490797       -2.490797   1.000000   1.000000
     11         -2.466037       -2.466037   1.000000   1.000000
     12         -2.318644       -2.318644   1.000000   1.000000
     13         -2.302092       -2.302092   1.000000   1.000000
     14         -2.277327       -2.277327   1.000000   1.000000
     15         -2.203352       -2.203352   1.000000   1.000000
     16         -2.185421       -2.185421   1.000000   1.000000
     17         -2.157904       -2.157904   1.000000   1.000000
     18         -2.147078       -2.147078   1.000000   1.000000
     19         -2.137504       -2.137504   1.000000   1.000000
     20         -2.087337       -2.087337   1.000000   1.000000
     21         -2.086676       -2.086676   1.000000   1.000000
     22         -2.074401       -2.074401   1.000000   1.000000
     23         -1.956132       -1.956132   1.000000   1.000000
     24         -1.922034       -1.922034   1.000000   1.000000
     25         -1.913256       -1.913256   1.000000   1.000000
     26         -1.728343       -1.728343   1.000000   1.000000
     27         -1.690994       -1.690994   1.000000   1.000000
     28         -1.650172       -1.650172   1.000000   1.000000
     29         -1.596353       -1.596353   1.000000   1.000000
     30         -1.557729       -1.557729   1.000000   1.000000
     31         -1.530536       -1.530536   1.000000   1.000000
     32         -1.523318       -1.523318   1.000000   1.000000
     33         -1.413787       -1.413787   1.000000   1.000000
     34         -1.392008       -1.392008   1.000000   1.000000
     35         -1.278808       -1.278808   1.000000   1.000000
     36         -1.215252       -1.215252   1.000000   1.000000
     37         -1.167148       -1.167148   1.000000   1.000000
     38         -1.154302       -1.154302   1.000000   1.000000
     39         -1.062262       -1.062262   1.000000   1.000000
     40         -1.029316       -1.029316   1.000000   1.000000
     41         -1.013131       -1.013131   1.000000   1.000000
     42         -0.974399       -0.974399   1.000000   1.000000
     43         -0.914166       -0.914166   1.000000   1.000000
     44         -0.891953       -0.891953   1.000000   1.000000
     45         -0.865530       -0.865530   1.000000   1.000000
     46         -0.759404       -0.759404   1.000000   1.000000
     47         -0.703337       -0.703337   1.000000   1.000000
     48         -0.660585       -0.660585   1.000000   1.000000
     49         -0.656149       -0.656149   1.000000   1.000000
     50         -0.648514       -0.648514   1.000000   1.000000
     51         -0.478523       -0.478523   1.000000   1.000000
     52         -0.475904       -0.475904   1.000000   1.000000
     53         -0.442807       -0.442807   1.000000   1.000000
     54         -0.442585       -0.442585   1.000000   1.000000
     55         -0.388489       -0.388489   1.000000   1.000000
     56         -0.339051       -0.339051   1.000000   1.000000
     57         -0.336030       -0.336030   1.000000   1.000000
     58         -0.292611       -0.292611   1.000000   1.000000
     59         -0.264076       -0.264076   1.000000   1.000000
     60         -0.253844       -0.253844   1.000000   1.000000
     61         -0.210904       -0.210904   1.000000   1.000000
     62         -0.206139       -0.206139   1.000000   1.000000
     63         -0.168557       -0.168557   1.000000   1.000000
     64         -0.145067       -0.145067   1.000000   1.000000
     65         -0.106309       -0.106309   1.000000   1.000000
     66         -0.085954       -0.085954   1.000000   1.000000
     67         -0.057954       -0.057954   1.000000   1.000000
     68         -0.053071       -0.053071   1.000000   1.000000
     69         -0.043065       -0.043065   1.000000   1.000000
     70         -0.024081       -0.024081   1.000000   1.000000
     71         -0.023258       -0.023258   1.000000   1.000000
     72         -0.021831       -0.021831   1.000000   1.000000
     73         -0.008374       -0.008374   1.000000   1.000000
     74          0.050481        0.050481   1.000000   1.000000
     75          0.056024        0.056024   1.000000   1.000000
     76          0.077806        0.077806   1.000000   1.000000
     77          0.111857        0.111857   1.000000   1.000000
     78          0.120875        0.120875   1.000000   1.000000
     79          0.169946        0.169946   1.000000   1.000000
     80          0.200946        0.200946   1.000000   1.000000
     81          0.310049        0.310049   1.000000   1.000000
     82          0.320867        0.320867   1.000000   1.000000
     83          0.337841        0.337841   1.000000   1.000000
     84          0.459913        0.459913   1.000000   1.000000
     85          0.475726        0.475726   1.000000   1.000000
     86          0.493570        0.493570   1.000000   1.000000
     87          0.963113        0.963113   1.000000   1.000000
     88          0.983654        0.983654   1.000000   1.000000
     89          1.734687        1.734687   1.031606   1.031606
     90          1.903192        1.903192   0.902230   0.902230
     91          2.665903        2.665903  -0.000021  -0.000021
     92          3.261992        3.261992  -0.000000  -0.000000
     93          3.812624        3.812624  -0.000000  -0.000000
     94          4.623395        4.623395  -0.000000  -0.000000
     95          5.162479        5.162480  -0.000000  -0.000000
     96          5.753635        5.753635  -0.000000  -0.000000
     97          6.006042        6.006042  -0.000000  -0.000000
     98          6.234319        6.234320  -0.000000  -0.000000
     99          6.694009        6.694009  -0.000000  -0.000000
    100          7.089711        7.089714  -0.000000  -0.000000
    101          7.495861        7.495877   0.000000   0.000000
    102          7.735339        7.735339   0.000000   0.000000
    103          8.016785        8.016792   0.000000   0.000000
    104          8.785325        8.785327   0.000000   0.000000
    105          9.040185        9.040203   0.000000   0.000000
    106          9.068195        9.068195   0.000000   0.000000
    107          9.616365        9.616365   0.000000   0.000000
    108          9.839074        9.839074   0.000000   0.000000
    109         10.325084       10.325085   0.000000   0.000000
    110         10.460766       10.460768   0.000000   0.000000
    111         10.569882       10.569893   0.000000   0.000000
    112         10.574575       10.574575   0.000000   0.000000
    113         10.592163       10.592163   0.000000   0.000000
    114         11.176401       11.176401   0.000000   0.000000
    115         11.201672       11.201684   0.000000   0.000000
    116         11.265943       11.265948   0.000000   0.000000
 
  0.3333333E+00  0.3333333E+00  0.0000000E+00  0.4444444E+00
      1         -4.947509       -4.947509   1.000000   1.000000
      2         -4.572167       -4.572167   1.000000   1.000000
      3         -4.371591       -4.371591   1.000000   1.000000
      4         -3.994360       -3.994360   1.000000   1.000000
      5         -3.407435       -3.407435   1.000000   1.000000
      6         -2.910785       -2.910785   1.000000   1.000000
      7         -2.823827       -2.823827   1.000000   1.000000
      8         -2.822863       -2.822863   1.000000   1.000000
      9         -2.773966       -2.773966   1.000000   1.000000
     10         -2.773147       -2.773147   1.000000   1.000000
     11         -2.728357       -2.728357   1.000000   1.000000
     12         -2.712137       -2.712137   1.000000   1.000000
     13         -2.523739       -2.523739   1.000000   1.000000
     14         -2.330141       -2.330141   1.000000   1.000000
     15         -2.308785       -2.308785   1.000000   1.000000
     16         -2.261197       -2.261197   1.000000   1.000000
     17         -2.169477       -2.169477   1.000000   1.000000
     18         -1.976235       -1.976235   1.000000   1.000000
     19         -1.797385       -1.797385   1.000000   1.000000
     20         -1.796602       -1.796602   1.000000   1.000000
     21         -1.767563       -1.767563   1.000000   1.000000
     22         -1.657785       -1.657785   1.000000   1.000000
     23         -1.643794       -1.643794   1.000000   1.000000
     24         -1.525566       -1.525566   1.000000   1.000000
     25         -1.525096       -1.525096   1.000000   1.000000
     26         -1.466812       -1.466812   1.000000   1.000000
     27         -1.462605       -1.462605   1.000000   1.000000
     28         -1.341348       -1.341348   1.000000   1.000000
     29         -1.339112       -1.339112   1.000000   1.000000
     30         -1.299036       -1.299036   1.000000   1.000000
     31         -1.289822       -1.289822   1.000000   1.000000
     32         -1.284856       -1.284856   1.000000   1.000000
     33         -1.183528       -1.183528   1.000000   1.000000
     34         -1.179579       -1.179579   1.000000   1.000000
     35         -1.136885       -1.136885   1.000000   1.000000
     36         -1.095813       -1.095813   1.000000   1.000000
     37         -1.089855       -1.089855   1.000000   1.000000
     38         -1.087243       -1.087243   1.000000   1.000000
     39         -1.067743       -1.067743   1.000000   1.000000
     40         -1.018464       -1.018464   1.000000   1.000000
     41         -0.968874       -0.968874   1.000000   1.000000
     42         -0.962211       -0.962211   1.000000   1.000000
     43         -0.955935       -0.955935   1.000000   1.000000
     44         -0.948168       -0.948168   1.000000   1.000000
     45         -0.946700       -0.946700   1.000000   1.000000
     46         -0.926329       -0.926329   1.000000   1.000000
     47         -0.872016       -0.872016   1.000000   1.000000
     48         -0.854291       -0.854291   1.000000   1.000000
     49         -0.839785       -0.839785   1.000000   1.000000
     50         -0.772556       -0.772556   1.000000   1.000000
     51         -0.752935       -0.752935   1.000000   1.000000
     52         -0.746067       -0.746067   1.000000   1.000000
     53         -0.739403       -0.739403   1.000000   1.000000
     54         -0.714427       -0.714427   1.000000   1.000000
     55         -0.698275       -0.698275   1.000000   1.000000
     56         -0.595370       -0.595370   1.000000   1.000000
     57         -0.594114       -0.594114   1.000000   1.000000
     58         -0.557662       -0.557662   1.000000   1.000000
     59         -0.506457       -0.506457   1.000000   1.000000
     60         -0.473612       -0.473612   1.000000   1.000000
     61         -0.448505       -0.448505   1.000000   1.000000
     62         -0.401413       -0.401413   1.000000   1.000000
     63         -0.394528       -0.394528   1.000000   1.000000
     64         -0.244939       -0.244939   1.000000   1.000000
     65         -0.135934       -0.135934   1.000000   1.000000
     66         -0.123280       -0.123280   1.000000   1.000000
     67         -0.093937       -0.093937   1.000000   1.000000
     68          0.019885        0.019885   1.000000   1.000000
     69          0.038009        0.038009   1.000000   1.000000
     70          0.051626        0.051626   1.000000   1.000000
     71          0.095250        0.095250   1.000000   1.000000
     72          0.120476        0.120476   1.000000   1.000000
     73          0.207650        0.207650   1.000000   1.000000
     74          0.209742        0.209742   1.000000   1.000000
     75          0.214051        0.214051   1.000000   1.000000
     76          0.227469        0.227469   1.000000   1.000000
     77          0.241374        0.241374   1.000000   1.000000
     78          0.252653        0.252653   1.000000   1.000000
     79          0.307845        0.307845   1.000000   1.000000
     80          0.328263        0.328263   1.000000   1.000000
     81          0.329319        0.329319   1.000000   1.000000
     82          0.344287        0.344287   1.000000   1.000000
     83          0.351003        0.351003   1.000000   1.000000
     84          0.380946        0.380946   1.000000   1.000000
     85          0.394301        0.394301   1.000000   1.000000
     86          1.110730        1.110730   1.000000   1.000000
     87          1.872106        1.872106   0.965809   0.965809
     88          1.873937        1.873937   0.962728   0.962728
     89          2.092122        2.092122   0.200959   0.200959
     90          2.092933        2.092933   0.198291   0.198291
     91          2.464736        2.464736  -0.003341  -0.003341
     92          2.474518        2.474518  -0.002758  -0.002758
     93          2.491386        2.491386  -0.001955  -0.001955
     94          2.881355        2.881355  -0.000000  -0.000000
     95          2.928063        2.928063  -0.000000  -0.000000
     96          4.000937        4.000937  -0.000000  -0.000000
     97          4.961008        4.961008  -0.000000  -0.000000
     98          5.416701        5.416701  -0.000000  -0.000000
     99          5.590396        5.590396  -0.000000  -0.000000
    100          5.987723        5.987723  -0.000000  -0.000000
    101          6.031785        6.031785  -0.000000  -0.000000
    102          6.650911        6.650911  -0.000000  -0.000000
    103          6.963537        6.963537  -0.000000  -0.000000
    104          7.064658        7.064658  -0.000000  -0.000000
    105          7.225562        7.225562  -0.000000  -0.000000
    106          7.592397        7.592397   0.000000   0.000000
    107          8.041116        8.041117   0.000000   0.000000
    108          8.141152        8.141154   0.000000   0.000000
    109          8.605610        8.605613   0.000000   0.000000
    110          8.723680        8.723690   0.000000   0.000000
    111          8.947249        8.947254   0.000000   0.000000
    112          9.212002        9.212003   0.000000   0.000000
    113          9.655780        9.655791   0.000000   0.000000