       N       E                     dE             d eps       ncg     rms          rms(c)
DAV:   1     0.167246251590E+04    0.16725E+04   -0.64638E+04  1856   0.188E+03
DAV:   2     0.199539868216E+03   -0.14729E+04   -0.14102E+04  1856   0.430E+02
DAV:   3    -0.538554333464E+02   -0.25340E+03   -0.23110E+03  1868   0.218E+02
DAV:   4    -0.696724985059E+02   -0.15817E+02   -0.15457E+02  2116   0.760E+01
DAV:   5    -0.700287225058E+02   -0.35622E+00   -0.35554E+00  2124   0.106E+01    0.368E+01
DAV:   6    -0.573845058759E+02    0.12644E+02   -0.15657E+02  2064   0.127E+02    0.189E+01
DAV:   7    -0.522213141570E+02    0.51632E+01   -0.42196E+01  2132   0.949E+01    0.111E+01
DAV:   8    -0.549127580586E+02   -0.26914E+01   -0.34446E+01  2472   0.105E+02    0.137E+01
DAV:   9    -0.506659981593E+02    0.42468E+01   -0.12085E+01  2600   0.632E+01    0.872E+00
DAV:  10    -0.510531144499E+02   -0.38712E+00   -0.44324E+00  3156   0.498E+01    0.869E+00
DAV:  11    -0.517137787323E+02   -0.66066E+00   -0.49852E+00  2416   0.467E+01    0.753E+00
DAV:  12    -0.529288349884E+02   -0.12151E+01   -0.24302E+00  2232   0.365E+01    0.606E+00
DAV:  13    -0.541624135813E+02   -0.12336E+01   -0.17891E+00  2620   0.241E+01    0.557E+00
DAV:  14    -0.551354528592E+02   -0.97304E+00   -0.92899E-01  2284   0.194E+01    0.467E+00
DAV:  15    -0.587213693631E+02   -0.35859E+01   -0.39996E+00  2260   0.306E+01    0.340E+00
DAV:  16    -0.598892703390E+02   -0.11679E+01   -0.18747E+00  2544   0.213E+01    0.244E+00
DAV:  17    -0.601385317966E+02   -0.24926E+00   -0.72454E-01  2528   0.152E+01    0.155E+00
DAV:  18    -0.605661791552E+02   -0.42765E+00   -0.38857E-01  2392   0.792E+00    0.106E+00
DAV:  19    -0.608602165789E+02   -0.29404E+00   -0.24690E-01  2380   0.781E+00    0.107E+00
DAV:  20    -0.611585200030E+02   -0.29830E+00   -0.17746E-01  2328   0.437E+00    0.799E-01
DAV:  21    -0.614044920193E+02   -0.24597E+00   -0.79548E-02  2428   0.354E+00    0.674E-01
DAV:  22    -0.616548723496E+02   -0.25038E+00   -0.80414E-02  2516   0.332E+00    0.562E-01
DAV:  23    -0.619941174046E+02   -0.33925E+00   -0.12127E-01  2532   0.357E+00    0.526E-01
DAV:  24    -0.622191959496E+02   -0.22508E+00   -0.52547E-02  2448   0.332E+00    0.526E-01
DAV:  25    -0.624098168777E+02   -0.19062E+00   -0.27823E-02  2428   0.276E+00    0.270E-01
DAV:  26    -0.625662979993E+02   -0.15648E+00   -0.15520E-02  2204   0.107E+00    0.138E-01
DAV:  27    -0.626213081270E+02   -0.55010E-01   -0.34520E-03  1980   0.994E-01    0.125E-01
DAV:  28    -0.626584889717E+02   -0.37181E-01   -0.14059E-03  2024   0.697E-01    0.999E-02
DAV:  29    -0.626793850115E+02   -0.20896E-01   -0.10802E-03  1988   0.661E-01    0.758E-02
DAV:  30    -0.626819259979E+02   -0.25410E-02   -0.29846E-04  1332   0.307E-01    0.471E-02
DAV:  31    -0.626828820364E+02   -0.95604E-03   -0.11794E-04  1272   0.215E-01    0.292E-02
DAV:  32    -0.626833948405E+02   -0.51280E-03   -0.73310E-05  1284   0.120E-01    0.238E-02
DAV:  33    -0.626832218105E+02    0.17303E-03   -0.66904E-05  1276   0.989E-02
   1 F= -.69652234E+02 E0= -.69638571E+02  d E =-.696522E+02  mag=     0.0042
       N       E                     dE             d eps       ncg     rms          rms(c)
DAV:   1    -0.626884758398E+02   -0.50810E-02   -0.28485E+01  1992   0.143E+01    0.132E+00
DAV:   2    -0.628000777295E+02   -0.11160E+00   -0.81864E-01  3088   0.122E+01    0.208E+00
DAV:   3    -0.627703042787E+02    0.29773E-01   -0.77164E-01  2392   0.172E+01    0.168E+00
DAV:   4    -0.627258827565E+02    0.44422E-01   -0.26195E-01  2384   0.117E+01    0.952E-01
DAV:   5    -0.627290138068E+02   -0.31311E-02   -0.77428E-02  2576   0.879E+00    0.806E-01
DAV:   6    -0.627192475391E+02    0.97663E-02   -0.66079E-02  2312   0.805E+00    0.457E-01
DAV:   7    -0.627155551666E+02    0.36924E-02   -0.20013E-02  2880   0.354E+00    0.177E-01
DAV:   8    -0.627157758847E+02   -0.22072E-03   -0.82779E-03  2248   0.176E+00    0.105E-01
DAV:   9    -0.627160085655E+02   -0.23268E-03   -0.44648E-03  2036   0.109E+00    0.702E-02
DAV:  10    -0.627161092113E+02   -0.10065E-03   -0.97213E-04  1896   0.468E-01
   2 F= -.69705933E+02 E0= -.69693644E+02  d E =-.536991E-01  mag=     0.0028
       N       E                     dE             d eps       ncg     rms          rms(c)
DAV:   1    -0.627845343405E+02   -0.68526E-01   -0.63587E+00  1924   0.697E+00    0.524E-01
DAV:   2    -0.628244558826E+02   -0.39922E-01   -0.22770E-01  3328   0.694E+00    0.122E+00
DAV:   3    -0.627994363386E+02    0.25020E-01   -0.12521E-01  3280   0.750E+00    0.580E-01
DAV:   4    -0.628002386741E+02   -0.80234E-03   -0.28213E-02  2576   0.511E+00    0.535E-01
DAV:   5    -0.627954334425E+02    0.48052E-02   -0.21189E-02  2516   0.414E+00    0.262E-01
DAV:   6    -0.627948247070E+02    0.60874E-03   -0.99387E-03  2176   0.281E+00    0.151E-01
DAV:   7    -0.627945777251E+02    0.24698E-03   -0.39420E-03  2364   0.140E+00    0.642E-02
DAV:   8    -0.627946063381E+02   -0.28613E-04   -0.10799E-03  1912   0.516E-01
   3 F= -.69767212E+02 E0= -.69754100E+02  d E =-.114979E+00  mag=     0.0020
       N       E                     dE             d eps       ncg     rms          rms(c)
DAV:   1    -0.628213606553E+02   -0.26783E-01   -0.66813E+00  1944   0.765E+00    0.277E-01
DAV:   2    -0.628348691289E+02   -0.13508E-01   -0.14100E-01  2744   0.330E+00    0.352E-01
DAV:   3    -0.628382383569E+02   -0.33692E-02   -0.24922E-02  2296   0.381E+00    0.498E-01
DAV:   4    -0.628343632713E+02    0.38751E-02   -0.20116E-02  2128   0.298E+00    0.222E-01
DAV:   5    -0.628341066413E+02    0.25663E-03   -0.35103E-03  2060   0.157E+00    0.189E-01
DAV:   6    -0.628338191484E+02    0.28749E-03   -0.20222E-03  2068   0.129E+00    0.127E-01
DAV:   7    -0.628337735401E+02    0.45608E-04   -0.19568E-03  2060   0.978E-01
   4 F= -.69810668E+02 E0= -.69797317E+02  d E =-.434556E-01  mag=     0.0015
       N       E                     dE             d eps       ncg     rms          rms(c)
DAV:   1    -0.628247938807E+02    0.90253E-02   -0.19623E+01  1956   0.132E+01    0.468E-01
DAV:   2    -0.628671922787E+02   -0.42398E-01   -0.43401E-01  2748   0.592E+00    0.651E-01
DAV:   3    -0.628806249709E+02   -0.13433E-01   -0.91859E-02  2320   0.720E+00    0.958E-01
DAV:   4    -0.628641425142E+02    0.16482E-01   -0.65348E-02  2320   0.542E+00    0.355E-01
DAV:   5    -0.628636329649E+02    0.50955E-03   -0.89730E-03  2504   0.255E+00    0.317E-01
DAV:   6    -0.628628658933E+02    0.76707E-03   -0.62041E-03  2280   0.209E+00    0.224E-01
DAV:   7    -0.628626311303E+02    0.23476E-03   -0.48947E-03  2284   0.144E+00    0.120E-01
DAV:   8    -0.628625481147E+02    0.83016E-04   -0.21338E-03  2060   0.120E+00    0.605E-02
DAV:   9    -0.628625305274E+02    0.17587E-04   -0.49727E-04  1312   0.496E-01
   5 F= -.69847280E+02 E0= -.69833348E+02  d E =-.800675E-01  mag=     0.0011
       N       E                     dE             d eps       ncg     rms          rms(c)
DAV:   1    -0.628574686234E+02    0.50795E-02   -0.31680E+00  1952   0.529E+00    0.174E-01
DAV:   2    -0.628638012401E+02   -0.63326E-02   -0.63773E-02  2724   0.213E+00    0.245E-01
DAV:   3    -0.628660531823E+02   -0.22519E-02   -0.14560E-02  2264   0.275E+00    0.394E-01
DAV:   4    -0.628633740706E+02    0.26791E-02   -0.10091E-02  2064   0.212E+00    0.114E-01
DAV:   5    -0.628633625906E+02    0.11480E-04   -0.11063E-03  1816   0.571E-01
   6 F= -.69851481E+02 E0= -.69837310E+02  d E =-.842685E-01  mag=     0.0009
       N       E                     dE             d eps       ncg     rms          rms(c)
DAV:   1    -0.628633513249E+02    0.22746E-04   -0.73111E+00  1992   0.825E+00    0.309E-01
DAV:   2    -0.628893478038E+02   -0.25996E-01   -0.16765E-01  3228   0.643E+00    0.865E-01
DAV:   3    -0.628830557624E+02    0.62920E-02   -0.67183E-02  3160   0.606E+00    0.633E-01
DAV:   4    -0.628767542698E+02    0.63015E-02   -0.25682E-02  2456   0.376E+00    0.273E-01
DAV:   5    -0.628762565764E+02    0.49769E-03   -0.59421E-03  2080   0.142E+00    0.182E-01
DAV:   6    -0.628762915462E+02   -0.34970E-04   -0.36990E-03  2004   0.143E+00    0.173E-01
DAV:   7    -0.628759801174E+02    0.31143E-03   -0.32986E-03  2176   0.121E+00    0.564E-02
DAV:   8    -0.628759455286E+02    0.34589E-04   -0.90870E-04  1480   0.617E-01
   7 F= -.69866779E+02 E0= -.69852516E+02  d E =-.152979E-01  mag=     0.0006
       N       E                     dE             d eps       ncg     rms          rms(c)
DAV:   1    -0.628755145657E+02    0.46555E-03   -0.11427E-01  2056   0.108E+00    0.429E-02
DAV:   2    -0.628759374270E+02   -0.42286E-03   -0.27010E-03  2704   0.838E-01    0.106E-01
DAV:   3    -0.628758581622E+02    0.79265E-04   -0.14163E-03  1328   0.883E-01
   8 F= -.69867059E+02 E0= -.69852754E+02  d E =-.155783E-01  mag=     0.0006
       N       E                     dE             d eps       ncg     rms          rms(c)
DAV:   1    -0.628790410335E+02   -0.31036E-02   -0.27419E+00  1984   0.503E+00    0.152E-01
DAV:   2    -0.628911131610E+02   -0.12072E-01   -0.65695E-02  3344   0.382E+00    0.626E-01
DAV:   3    -0.628840748134E+02    0.70383E-02   -0.28201E-02  3040   0.355E+00    0.217E-01
DAV:   4    -0.628837506804E+02    0.32413E-03   -0.41221E-03  2144   0.144E+00    0.138E-01
DAV:   5    -0.628837085417E+02    0.42139E-04   -0.21663E-03  1964   0.776E-01    0.102E-01
DAV:   6    -0.628837446608E+02   -0.36119E-04   -0.10179E-03  1792   0.714E-01
   9 F= -.69877067E+02 E0= -.69862724E+02  d E =-.100082E-01  mag=     0.0005
       N       E                     dE             d eps       ncg     rms          rms(c)
DAV:   1    -0.628548303577E+02    0.28878E-01   -0.15639E+01  1968   0.120E+01    0.379E-01
DAV:   2    -0.628933745202E+02   -0.38544E-01   -0.33811E-01  2932   0.619E+00    0.843E-01
DAV:   3    -0.628902727877E+02    0.31017E-02   -0.91878E-02  2976   0.649E+00    0.630E-01
DAV:   4    -0.628843635161E+02    0.59093E-02   -0.21645E-02  2480   0.366E+00    0.329E-01
DAV:   5    -0.628834044350E+02    0.95908E-03   -0.66893E-03  2304   0.216E+00    0.262E-01
DAV:   6    -0.628832536934E+02    0.15074E-03   -0.57635E-03  2160   0.178E+00    0.223E-01
DAV:   7    -0.628827373774E+02    0.51632E-03   -0.72422E-03  2240   0.179E+00    0.108E-01
DAV:   8    -0.628826828317E+02    0.54546E-04   -0.21858E-03  2192   0.898E-01    0.586E-02
DAV:   9    -0.628826664607E+02    0.16371E-04   -0.52632E-04  1520   0.484E-01
  10 F= -.69881385E+02 E0= -.69867317E+02  d E =-.143262E-01  mag=     0.0003
       N       E                     dE             d eps       ncg     rms          rms(c)
DAV:   1    -0.628835569670E+02   -0.87414E-03   -0.15568E+00  1968   0.375E+00    0.106E-01
DAV:   2    -0.628868597099E+02   -0.33027E-02   -0.28089E-02  3056   0.152E+00    0.245E-01
DAV:   3    -0.628861559396E+02    0.70377E-03   -0.66055E-03  2224   0.166E+00    0.135E-01
DAV:   4    -0.628860685964E+02    0.87343E-04   -0.15253E-03  1900   0.833E-01
  11 F= -.69883026E+02 E0= -.69868614E+02  d E =-.159670E-01  mag=     0.0003
       N       E                     dE             d eps       ncg     rms          rms(c)
DAV:   1    -0.628870774791E+02   -0.92154E-03   -0.10081E+00  1944   0.310E+00    0.109E-01
DAV:   2    -0.628919983871E+02   -0.49209E-02   -0.24624E-02  3352   0.262E+00    0.397E-01
DAV:   3    -0.628898530755E+02    0.21453E-02   -0.13893E-02  3280   0.267E+00    0.219E-01
DAV:   4    -0.628889713115E+02    0.88176E-03   -0.45121E-03  2076   0.162E+00    0.104E-01
DAV:   5    -0.628888990129E+02    0.72299E-04   -0.76709E-04  1720   0.537E-01
  12 F= -.69887674E+02 E0= -.69873596E+02  d E =-.464759E-02  mag=     0.0003
       N       E                     dE             d eps       ncg     rms          rms(c)
DAV:   1    -0.628773400617E+02    0.11631E-01   -0.91116E+00  1936   0.909E+00    0.320E-01
DAV:   2    -0.629154994345E+02   -0.38159E-01   -0.22562E-01  3184   0.687E+00    0.111E+00
DAV:   3    -0.628957741031E+02    0.19725E-01   -0.91959E-02  3368   0.653E+00    0.428E-01
DAV:   4    -0.628941136770E+02    0.16604E-02   -0.15576E-02  2384   0.316E+00    0.307E-01
DAV:   5    -0.628931884805E+02    0.92520E-03   -0.60662E-03  2316   0.189E+00    0.207E-01
DAV:   6    -0.628929710508E+02    0.21743E-03   -0.41276E-03  2024   0.104E+00    0.140E-01
DAV:   7    -0.628928667049E+02    0.10435E-03   -0.23397E-03  2144   0.106E+00    0.839E-02
DAV:   8    -0.628928333881E+02    0.33317E-04   -0.74080E-04  1680   0.651E-01
  13 F= -.69897037E+02 E0= -.69883134E+02  d E =-.140106E-01  mag=     0.0002
       N       E                     dE             d eps       ncg     rms          rms(c)
DAV:   1    -0.628107742098E+02    0.82092E-01   -0.36725E+01  1936   0.185E+01    0.655E-01
DAV:   2    -0.629580206682E+02   -0.14725E+00   -0.93181E-01  3328   0.135E+01    0.206E+00
DAV:   3    -0.628961884387E+02    0.61832E-01   -0.32029E-01  3360   0.126E+01    0.974E-01
DAV:   4    -0.628845000485E+02    0.11688E-01   -0.73673E-02  2688   0.697E+00    0.628E-01
DAV:   5    -0.628793465620E+02    0.51535E-02   -0.23176E-02  2608   0.390E+00    0.401E-01
DAV:   6    -0.628787302799E+02    0.61628E-03   -0.14200E-02  2080   0.180E+00    0.296E-01
DAV:   7    -0.628782497214E+02    0.48056E-03   -0.88142E-03  2272   0.216E+00    0.212E-01
DAV:   8    -0.628778717049E+02    0.37802E-03   -0.37313E-03  2224   0.167E+00    0.775E-02
DAV:   9    -0.628778380590E+02    0.33646E-04   -0.16875E-03  2104   0.691E-01
  14 F= -.69892835E+02 E0= -.69879503E+02  d E =-.980947E-02  mag=     0.0001
       N       E                     dE             d eps       ncg     rms          rms(c)
DAV:   1    -0.628663285137E+02    0.11543E-01   -0.14227E+01  1936   0.114E+01    0.359E-01
DAV:   2    -0.629117813391E+02   -0.45453E-01   -0.31598E-01  3344   0.630E+00    0.104E+00
DAV:   3    -0.628944566838E+02    0.17325E-01   -0.10499E-01  2568   0.662E+00    0.508E-01
DAV:   4    -0.628922222064E+02    0.22345E-02   -0.21405E-02  2224   0.336E+00    0.333E-01
DAV:   5    -0.628916183462E+02    0.60386E-03   -0.87333E-03  2156   0.205E+00    0.258E-01
DAV:   6    -0.628911304782E+02    0.48787E-03   -0.49384E-03  2128   0.147E+00    0.201E-01
DAV:   7    -0.628908602368E+02    0.27024E-03   -0.37356E-03  2520   0.147E+00    0.889E-02
DAV:   8    -0.628907443258E+02    0.11591E-03   -0.13208E-03  1824   0.705E-01
  15 F= -.69899009E+02 E0= -.69885170E+02  d E =-.159833E-01  mag=     0.0001
       N       E                     dE             d eps       ncg     rms          rms(c)
DAV:   1    -0.628876874333E+02    0.31728E-02   -0.31474E+00  1904   0.537E+00    0.203E-01
DAV:   2    -0.629000909395E+02   -0.12404E-01   -0.76845E-02  3164   0.360E+00    0.618E-01
DAV:   3    -0.628939398662E+02    0.61511E-02   -0.27912E-02  2976   0.357E+00    0.225E-01
DAV:   4    -0.628937653002E+02    0.17457E-03   -0.55193E-03  2160   0.169E+00    0.188E-01
DAV:   5    -0.628934778794E+02    0.28742E-03   -0.23760E-03  2084   0.132E+00    0.134E-01
DAV:   6    -0.628933855347E+02    0.92345E-04   -0.16195E-03  2008   0.104E+00
  16 F= -.69905157E+02 E0= -.69891777E+02  d E =-.614784E-02  mag=     0.0001
       N       E                     dE             d eps       ncg     rms          rms(c)
DAV:   1    -0.628776013206E+02    0.15877E-01   -0.68690E+00  1904   0.797E+00    0.296E-01
DAV:   2    -0.629061303590E+02   -0.28529E-01   -0.17044E-01  3216   0.548E+00    0.942E-01
DAV:   3    -0.628917378477E+02    0.14393E-01   -0.61718E-02  3072   0.533E+00    0.307E-01
DAV:   4    -0.628914510828E+02    0.28676E-03   -0.11900E-02  2296   0.235E+00    0.262E-01
DAV:   5    -0.628910207382E+02    0.43034E-03   -0.52639E-03  2172   0.195E+00    0.200E-01
DAV:   6    -0.628909312019E+02    0.89536E-04   -0.38428E-03  2064   0.171E+00    0.170E-01
DAV:   7    -0.628906202825E+02    0.31092E-03   -0.22875E-03  2408   0.127E+00    0.582E-02
DAV:   8    -0.628906100981E+02    0.10184E-04   -0.54129E-04  1376   0.448E-01
  17 F= -.69907625E+02 E0= -.69894419E+02  d E =-.861575E-02  mag=     0.0001
       N       E                     dE             d eps       ncg     rms          rms(c)
DAV:   1    -0.628897646302E+02    0.85565E-03   -0.81084E-01  1904   0.274E+00    0.110E-01
DAV:   2    -0.628959410172E+02   -0.61764E-02   -0.26672E-02  3328   0.281E+00    0.490E-01
DAV:   3    -0.628913610685E+02    0.45799E-02   -0.15213E-02  3264   0.268E+00    0.114E-01
DAV:   4    -0.628913597508E+02    0.13177E-05   -0.15560E-03  1800   0.102E+00
  18 F= -.69910506E+02 E0= -.69897843E+02  d E =-.288060E-02  mag=     0.0000
       N       E                     dE             d eps       ncg     rms          rms(c)
DAV:   1    -0.628812759468E+02    0.10085E-01   -0.40117E+00  1904   0.605E+00    0.262E-01
DAV:   2    -0.628957692245E+02   -0.14493E-01   -0.93004E-02  3200   0.385E+00    0.667E-01
DAV:   3    -0.628887140686E+02    0.70552E-02   -0.33063E-02  3088   0.391E+00    0.255E-01
DAV:   4    -0.628887107010E+02    0.33676E-05   -0.73255E-03  2336   0.199E+00    0.225E-01
DAV:   5    -0.628882429011E+02    0.46780E-03   -0.39877E-03  2152   0.193E+00    0.168E-01
DAV:   6    -0.628881417611E+02    0.10114E-03   -0.26614E-03  2208   0.158E+00    0.135E-01
DAV:   7    -0.628879217190E+02    0.22004E-03   -0.15669E-03  1992   0.107E+00    0.342E-02
DAV:   8    -0.628879374625E+02   -0.15744E-04   -0.43226E-04  1312   0.303E-01
  19 F= -.69912131E+02 E0= -.69899349E+02  d E =-.450546E-02  mag=     0.0000
       N       E                     dE             d eps       ncg     rms          rms(c)
DAV:   1    -0.628887268831E+02   -0.80516E-03   -0.91857E-02  1920   0.914E-01    0.379E-02
DAV:   2    -0.628889198375E+02   -0.19295E-03   -0.19161E-03  2504   0.405E-01
  20 F= -.69912321E+02 E0= -.69899633E+02  d E =-.469596E-02  mag=     0.0000
       N       E                     dE             d eps       ncg     rms          rms(c)
DAV:   1    -0.628891374390E+02   -0.41056E-03   -0.30366E-01  1936   0.174E+00    0.683E-02
DAV:   2    -0.629000436230E+02   -0.10906E-01   -0.31419E-02  2784   0.373E+00    0.690E-01
DAV:   3    -0.628895092925E+02    0.10534E-01   -0.25047E-02  3008   0.345E+00    0.536E-02
DAV:   4    -0.628897195858E+02   -0.21029E-03   -0.17323E-03  2216   0.514E-01    0.496E-02
DAV:   5    -0.628897242371E+02   -0.46512E-05   -0.46877E-04  1360   0.454E-01
  21 F= -.69914073E+02 E0= -.69901218E+02  d E =-.175219E-02  mag=     0.0000
       N       E                     dE             d eps       ncg     rms          rms(c)
DAV:   1    -0.628856180821E+02    0.41015E-02   -0.27467E+00  1920   0.498E+00    0.182E-01
DAV:   2    -0.628973116009E+02   -0.11694E-01   -0.71787E-02  3248   0.351E+00    0.602E-01
DAV:   3    -0.628908269017E+02    0.64847E-02   -0.25108E-02  3088   0.333E+00    0.171E-01
DAV:   4    -0.628908555741E+02   -0.28672E-04   -0.28862E-03  2056   0.948E-01    0.148E-01
DAV:   5    -0.628909547784E+02   -0.99204E-04   -0.20284E-03  2112   0.130E+00    0.144E-01
DAV:   6    -0.628908282966E+02    0.12648E-03   -0.15495E-03  2096   0.118E+00
  22 F= -.69918060E+02 E0= -.69905578E+02  d E =-.573865E-02  mag=     0.0000
       N       E                     dE             d eps       ncg     rms          rms(c)
DAV:   1    -0.628641559591E+02    0.26799E-01   -0.10991E+01  1920   0.100E+01    0.354E-01
DAV:   2    -0.629060588455E+02   -0.41903E-01   -0.27713E-01  3040   0.654E+00    0.107E+00
DAV:   3    -0.628866453612E+02    0.19413E-01   -0.92876E-02  3264   0.633E+00    0.348E-01
DAV:   4    -0.628857772252E+02    0.86814E-03   -0.97198E-03  2176   0.163E+00    0.244E-01
DAV:   5    -0.628870563692E+02   -0.12791E-02   -0.75465E-03  2160   0.255E+00    0.324E-01
DAV:   6    -0.628857480260E+02    0.13083E-02   -0.69612E-03  2120   0.249E+00    0.176E-01
DAV:   7    -0.628854058159E+02    0.34221E-03   -0.35411E-03  2976   0.136E+00    0.943E-02
DAV:   8    -0.628854061826E+02   -0.36670E-06   -0.79049E-04  1744   0.421E-01
  23 F= -.69918574E+02 E0= -.69905875E+02  d E =-.625313E-02  mag=     0.0000
       N       E                     dE             d eps       ncg     rms          rms(c)
DAV:   1    -0.628853745666E+02    0.31249E-04   -0.17522E+00  1920   0.400E+00    0.141E-01
DAV:   2    -0.628889964433E+02   -0.36219E-02   -0.38185E-02  2576   0.136E+00    0.180E-01
DAV:   3    -0.628897291836E+02   -0.73274E-03   -0.59199E-03  2144   0.176E+00    0.239E-01
DAV:   4    -0.628887379865E+02    0.99120E-03   -0.31589E-03  1616   0.128E+00    0.108E-01
DAV:   5    -0.628887557269E+02   -0.17740E-04   -0.52356E-04  1296   0.765E-01
  24 F= -.69919526E+02 E0= -.69907199E+02  d E =-.720500E-02  mag=     0.0000
       N       E                     dE             d eps       ncg     rms          rms(c)
DAV:   1    -0.628880365351E+02    0.70145E-03   -0.74273E-02  2664   0.128E+00    0.737E-02
DAV:   2    -0.628899979267E+02   -0.19614E-02   -0.52591E-03  2232   0.239E+00    0.287E-01
DAV:   3    -0.628889379234E+02    0.10600E-02   -0.82743E-03  2000   0.228E+00    0.209E-01
DAV:   4    -0.628880274187E+02    0.91050E-03   -0.24358E-03  1296   0.117E+00    0.387E-02
DAV:   5    -0.628880250888E+02    0.23299E-05   -0.16028E-04  1128   0.268E-01
  25 F= -.69919287E+02 E0= -.69906597E+02  d E =-.696607E-02  mag=     0.0000
       N       E                     dE             d eps       ncg     rms          rms(c)
DAV:   1    -0.628883635115E+02   -0.33609E-03   -0.33787E-02  1936   0.568E-01    0.199E-02
DAV:   2    -0.628884139520E+02   -0.50440E-04   -0.36864E-04  1344   0.276E-01
  26 F= -.69919343E+02 E0= -.69906731E+02  d E =-.702151E-02  mag=     0.0000
       N       E                     dE             d eps       ncg     rms          rms(c)
DAV:   1    -0.628882473286E+02    0.11618E-03   -0.85307E-03  2720   0.436E-01    0.299E-02
DAV:   2    -0.628911147660E+02   -0.28674E-02   -0.77404E-03  1376   0.203E+00    0.364E-01
DAV:   3    -0.628882129599E+02    0.29018E-02   -0.66150E-03  1336   0.185E+00    0.203E-02
DAV:   4    -0.628882389044E+02   -0.25944E-04   -0.32356E-05  1176   0.175E-01
  27 F= -.69919334E+02 E0= -.69906696E+02  d E =-.701311E-02  mag=     0.0000
       N       E                     dE             d eps       ncg     rms          rms(c)
DAV:   1    -0.628883442206E+02   -0.13126E-03   -0.24615E-03  2592   0.200E-01    0.833E-03
DAV:   2    -0.628883614212E+02   -0.17201E-04   -0.59437E-05  1264   0.199E-01
  28 F= -.69919367E+02 E0= -.69906739E+02  d E =-.704567E-02  mag=     0.0000
       N       E                     dE             d eps       ncg     rms          rms(c)
DAV:   1    -0.628885594309E+02   -0.21521E-03   -0.33007E-01  1904   0.172E+00    0.696E-02
DAV:   2    -0.628902504490E+02   -0.16910E-02   -0.95842E-03  3184   0.128E+00    0.225E-01
DAV:   3    -0.628892000046E+02    0.10504E-02   -0.36634E-03  2008   0.132E+00    0.695E-02
DAV:   4    -0.628892244448E+02   -0.24440E-04   -0.51043E-04  1536   0.387E-01
  29 F= -.69920384E+02 E0= -.69907825E+02  d E =-.101713E-02  mag=     0.0000
       N       E                     dE             d eps       ncg     rms          rms(c)
DAV:   1    -0.628850504404E+02    0.41496E-02   -0.29754E+00  1904   0.514E+00    0.238E-01
DAV:   2    -0.628939166445E+02   -0.88662E-02   -0.73331E-02  2848   0.278E+00    0.429E-01
DAV:   3    -0.628917935109E+02    0.21231E-02   -0.20480E-02  2688   0.306E+00    0.278E-01
DAV:   4    -0.628913733163E+02    0.42019E-03   -0.52506E-03  2128   0.195E+00    0.225E-01
DAV:   5    -0.628907772338E+02    0.59608E-03   -0.25786E-03  2104   0.157E+00    0.121E-01
DAV:   6    -0.628908223795E+02   -0.45146E-04   -0.17489E-03  2104   0.111E+00
  30 F= -.69922497E+02 E0= -.69909650E+02  d E =-.313045E-02  mag=     0.0000
       N       E                     dE             d eps       ncg     rms          rms(c)
DAV:   1    -0.628896624592E+02    0.11148E-02   -0.50041E-01  1968   0.233E+00    0.866E-02
DAV:   2    -0.628910089959E+02   -0.13465E-02   -0.12952E-02  2672   0.868E-01    0.121E-01
DAV:   3    -0.628911170739E+02   -0.10808E-03   -0.27603E-03  2000   0.117E+00    0.137E-01
DAV:   4    -0.628909095962E+02    0.20748E-03   -0.97921E-04  1276   0.806E-01    0.762E-02
DAV:   5    -0.628908559499E+02    0.53646E-04   -0.33519E-04  1232   0.582E-01
  31 F= -.69922766E+02 E0= -.69909852E+02  d E =-.339944E-02  mag=     0.0000
       N       E                     dE             d eps       ncg     rms          rms(c)
DAV:   1    -0.628929622067E+02   -0.20526E-02   -0.66028E-01  1864   0.240E+00    0.136E-01
DAV:   2    -0.628947992603E+02   -0.18371E-02   -0.17472E-02  3184   0.134E+00    0.190E-01
DAV:   3    -0.628950441377E+02   -0.24488E-03   -0.65995E-03  2224   0.181E+00    0.216E-01
DAV:   4    -0.628942928789E+02    0.75126E-03   -0.19074E-03  1800   0.115E+00    0.875E-02
DAV:   5    -0.628942734087E+02    0.19470E-04   -0.39937E-04  1376   0.499E-01
  32 F= -.69924444E+02 E0= -.69911624E+02  d E =-.167810E-02  mag=     0.0000
       N       E                     dE             d eps       ncg     rms          rms(c)
DAV:   1    -0.628876347643E+02    0.66581E-02   -0.55867E+00  1864   0.694E+00    0.365E-01
DAV:   2    -0.629013888434E+02   -0.13754E-01   -0.14046E-01  2800   0.296E+00    0.428E-01
DAV:   3    -0.629058422430E+02   -0.44534E-02   -0.35567E-02  2304   0.454E+00    0.603E-01
DAV:   4    -0.629013871267E+02    0.44551E-02   -0.25056E-02  2176   0.382E+00    0.359E-01
DAV:   5    -0.628994479705E+02    0.19392E-02   -0.54911E-03  2224   0.238E+00    0.171E-01
DAV:   6    -0.628995421927E+02   -0.94222E-04   -0.35943E-03  2248   0.170E+00    0.146E-01
DAV:   7    -0.628993040694E+02    0.23812E-03   -0.20104E-03  2104   0.113E+00    0.361E-02
DAV:   8    -0.628993292885E+02   -0.25219E-04   -0.50181E-04  1440   0.351E-01
  33 F= -.69924887E+02 E0= -.69912247E+02  d E =-.212062E-02  mag=     0.0000
       N       E                     dE             d eps       ncg     rms          rms(c)
DAV:   1    -0.628962277602E+02    0.30763E-02   -0.97174E-01  1864   0.287E+00    0.149E-01
DAV:   2    -0.628983523518E+02   -0.21246E-02   -0.23498E-02  2608   0.950E-01    0.154E-01
DAV:   3    -0.628993982015E+02   -0.10458E-02   -0.53449E-03  2144   0.173E+00    0.264E-01
DAV:   4    -0.628982037987E+02    0.11944E-02   -0.41698E-03  1520   0.148E+00    0.988E-02
DAV:   5    -0.628981760241E+02    0.27775E-04   -0.55058E-04  1272   0.753E-01
  34 F= -.69925567E+02 E0= -.69913240E+02  d E =-.280065E-02  mag=     0.0000
       N       E                     dE             d eps       ncg     rms          rms(c)
DAV:   1    -0.628991795780E+02   -0.97578E-03   -0.30174E-02  2752   0.116E+00    0.949E-02
DAV:   2    -0.629035582184E+02   -0.43786E-02   -0.12125E-02  2224   0.355E+00    0.414E-01
DAV:   3    -0.629007028569E+02    0.28554E-02   -0.16122E-02  2144   0.321E+00    0.282E-01
DAV:   4    -0.628990004280E+02    0.17024E-02   -0.40089E-03  1320   0.153E+00    0.320E-02
DAV:   5    -0.628990218853E+02   -0.21457E-04   -0.18711E-04  1184   0.215E-01
  35 F= -.69925880E+02 E0= -.69913241E+02  d E =-.313091E-03  mag=     0.0000
       N       E                     dE             d eps       ncg     rms          rms(c)
DAV:   1    -0.629008338957E+02   -0.18335E-02   -0.16738E-01  1864   0.120E+00    0.689E-02
DAV:   2    -0.629012950754E+02   -0.46118E-03   -0.45851E-03  2648   0.609E-01    0.908E-02
DAV:   3    -0.629013428483E+02   -0.47773E-04   -0.12932E-03  1312   0.839E-01
  36 F= -.69926946E+02 E0= -.69914366E+02  d E =-.137887E-02  mag=     0.0000
       N       E                     dE             d eps       ncg     rms          rms(c)
DAV:   1    -0.629039545399E+02   -0.26595E-02   -0.66483E-01  1864   0.247E+00    0.164E-01
DAV:   2    -0.629066605372E+02   -0.27060E-02   -0.19628E-02  3096   0.198E+00    0.277E-01
DAV:   3    -0.629061698915E+02    0.49065E-03   -0.91113E-03  2464   0.225E+00    0.245E-01
DAV:   4    -0.629054652691E+02    0.70462E-03   -0.48303E-03  2040   0.170E+00    0.151E-01
DAV:   5    -0.629051784521E+02    0.28682E-03   -0.10377E-03  1688   0.980E-01    0.735E-02
DAV:   6    -0.629051975265E+02   -0.19074E-04   -0.68141E-04  1744   0.735E-01
  37 F= -.69928309E+02 E0= -.69915646E+02  d E =-.274220E-02  mag=     0.0000
       N       E                     dE             d eps       ncg     rms          rms(c)
DAV:   1    -0.629064204055E+02   -0.12420E-02   -0.26521E+00  1864   0.477E+00    0.252E-01
DAV:   2    -0.629126950557E+02   -0.62747E-02   -0.70872E-02  2552   0.150E+00    0.224E-01
DAV:   3    -0.629130424882E+02   -0.34743E-03   -0.48065E-03  2152   0.165E+00    0.246E-01
DAV:   4    -0.629144828283E+02   -0.14403E-02   -0.10150E-02  2144   0.241E+00    0.340E-01
DAV:   5    -0.629125189977E+02    0.19638E-02   -0.81685E-03  1984   0.217E+00    0.135E-01
DAV:   6    -0.629129011274E+02   -0.38213E-03   -0.25850E-03  1792   0.175E+00    0.168E-01
DAV:   7    -0.629122554806E+02    0.64565E-03   -0.12995E-03  1528   0.133E+00    0.443E-02
DAV:   8    -0.629122539964E+02    0.14842E-05   -0.31645E-04  1160   0.347E-01
  38 F= -.69930475E+02 E0= -.69918069E+02  d E =-.490820E-02  mag=     0.0000
       N       E                     dE             d eps       ncg     rms          rms(c)
DAV:   1    -0.629138337948E+02   -0.15783E-02   -0.62183E-01  1864   0.230E+00    0.123E-01
DAV:   2    -0.629153519669E+02   -0.15182E-02   -0.16520E-02  2616   0.791E-01    0.124E-01
DAV:   3    -0.629162069249E+02   -0.85496E-03   -0.41390E-03  2032   0.151E+00    0.237E-01
DAV:   4    -0.629152132816E+02    0.99364E-03   -0.26792E-03  1456   0.124E+00    0.732E-02
DAV:   5    -0.629152119164E+02    0.13652E-05   -0.28185E-04  1288   0.495E-01
  39 F= -.69931124E+02 E0= -.69918880E+02  d E =-.555761E-02  mag=     0.0000
       N       E                     dE             d eps       ncg     rms          rms(c)
DAV:   1    -0.629148844412E+02    0.32884E-03   -0.24824E+00  1864   0.465E+00    0.255E-01
DAV:   2    -0.629220449084E+02   -0.71605E-02   -0.64906E-02  2976   0.286E+00    0.337E-01
DAV:   3    -0.629205078682E+02    0.15370E-02   -0.10579E-02  2568   0.297E+00    0.231E-01
DAV:   4    -0.629236559211E+02   -0.31481E-02   -0.11910E-02  2208   0.251E+00    0.444E-01
DAV:   5    -0.629200313938E+02    0.36245E-02   -0.11000E-02  2192   0.253E+00    0.128E-01
DAV:   6    -0.629201276218E+02   -0.96228E-04   -0.17338E-03  2176   0.101E+00
  40 F= -.69931537E+02 E0= -.69919257E+02  d E =-.597057E-02  mag=     0.0000
       N       E                     dE             d eps       ncg     rms          rms(c)
DAV:   1    -0.629229257617E+02   -0.28944E-02   -0.10582E+00  1864   0.308E+00    0.175E-01
DAV:   2    -0.629257613937E+02   -0.28356E-02   -0.29227E-02  2704   0.134E+00    0.196E-01
DAV:   3    -0.629268421936E+02   -0.10808E-02   -0.65852E-03  2224   0.205E+00    0.285E-01
DAV:   4    -0.629258674565E+02    0.97474E-03   -0.64340E-03  1920   0.188E+00    0.176E-01
DAV:   5    -0.629254670192E+02    0.40044E-03   -0.13266E-03  1472   0.122E+00    0.904E-02
DAV:   6    -0.629254812044E+02   -0.14185E-04   -0.11290E-03  1560   0.103E+00
  41 F= -.69933706E+02 E0= -.69921778E+02  d E =-.216816E-02  mag=     0.0000
       N       E                     dE             d eps       ncg     rms          rms(c)
DAV:   1    -0.629203945917E+02    0.50724E-02   -0.95643E+00  1864   0.885E+00    0.526E-01
DAV:   2    -0.629447938737E+02   -0.24399E-01   -0.25436E-01  2688   0.329E+00    0.605E-01
DAV:   3    -0.629532625269E+02   -0.84687E-02   -0.63867E-02  2256   0.591E+00    0.814E-01
DAV:   4    -0.629414729174E+02    0.11790E-01   -0.41021E-02  2720   0.435E+00    0.318E-01
DAV:   5    -0.629429359230E+02   -0.14630E-02   -0.10402E-02  2368   0.348E+00    0.368E-01
DAV:   6    -0.629420073965E+02    0.92853E-03   -0.11566E-02  2384   0.375E+00    0.265E-01
DAV:   7    -0.629404276168E+02    0.15798E-02   -0.55100E-03  2376   0.209E+00    0.705E-02
DAV:   8    -0.629404541322E+02   -0.26515E-04   -0.12947E-03  1952   0.591E-01
  42 F= -.69939531E+02 E0= -.69927874E+02  d E =-.799340E-02  mag=     0.0000
       N       E                     dE             d eps       ncg     rms          rms(c)
DAV:   1    -0.628876018176E+02    0.52826E-01   -0.38450E+01  1872   0.178E+01    0.108E+00
DAV:   2    -0.629767267091E+02   -0.89125E-01   -0.10157E+00  2608   0.501E+00    0.972E-01
DAV:   3    -0.630395105577E+02   -0.62784E-01   -0.20965E-01  2256   0.116E+01    0.189E+00
DAV:   4    -0.629731046942E+02    0.66406E-01   -0.21403E-01  2528   0.106E+01    0.700E-01
DAV:   5    -0.629699201532E+02    0.31845E-02   -0.61188E-02  2784   0.599E+00    0.495E-01
DAV:   6    -0.629669407474E+02    0.29794E-02   -0.30848E-02  2560   0.434E+00    0.275E-01
DAV:   7    -0.629666124529E+02    0.32829E-03   -0.97895E-03  2776   0.301E+00    0.198E-01
DAV:   8    -0.629658856535E+02    0.72680E-03   -0.45099E-03  2768   0.166E+00    0.915E-02
DAV:   9    -0.629659303402E+02   -0.44687E-04   -0.13619E-03  1904   0.550E-01
  43 F= -.69948466E+02 E0= -.69937783E+02  d E =-.169289E-01  mag=     0.0000
       N       E                     dE             d eps       ncg     rms          rms(c)
DAV:   1    -0.629703672364E+02   -0.44816E-02   -0.97165E-01  1880   0.280E+00    0.181E-01
DAV:   2    -0.629732755255E+02   -0.29083E-02   -0.23752E-02  3088   0.153E+00    0.273E-01
DAV:   3    -0.629730657824E+02    0.20974E-03   -0.85982E-03  2384   0.220E+00    0.229E-01
DAV:   4    -0.629723267759E+02    0.73901E-03   -0.35605E-03  1736   0.139E+00    0.115E-01
DAV:   5    -0.629724133047E+02   -0.86529E-04   -0.11368E-03  1600   0.124E+00
  44 F= -.69952655E+02 E0= -.69941368E+02  d E =-.418885E-02  mag=     0.0000
       N       E                     dE             d eps       ncg     rms          rms(c)
DAV:   1    -0.629726351159E+02   -0.30834E-03   -0.87012E+00  1864   0.844E+00    0.529E-01
DAV:   2    -0.629925367397E+02   -0.19902E-01   -0.20388E-01  2912   0.357E+00    0.589E-01
DAV:   3    -0.630016714588E+02   -0.91347E-02   -0.68536E-02  2656   0.619E+00    0.844E-01
DAV:   4    -0.629931478169E+02    0.85236E-02   -0.39329E-02  2240   0.525E+00    0.526E-01
DAV:   5    -0.629882239285E+02    0.49239E-02   -0.10634E-02  2464   0.374E+00    0.197E-01
DAV:   6    -0.629883052513E+02   -0.81323E-04   -0.47550E-03  2960   0.164E+00    0.141E-01
DAV:   7    -0.629881580883E+02    0.14716E-03   -0.25114E-03  2048   0.128E+00    0.649E-02
DAV:   8    -0.629881402872E+02    0.17801E-04   -0.75286E-04  1560   0.474E-01
  45 F= -.69961669E+02 E0= -.69951548E+02  d E =-.132029E-01  mag=     0.0000
       N       E                     dE             d eps       ncg     rms          rms(c)
DAV:   1    -0.629459200499E+02    0.42238E-01   -0.34699E+01  1872   0.168E+01    0.102E+00
DAV:   2    -0.630166802043E+02   -0.70760E-01   -0.81081E-01  2576   0.459E+00    0.896E-01
DAV:   3    -0.630826448770E+02   -0.65965E-01   -0.20035E-01  2288   0.116E+01    0.189E+00
DAV:   4    -0.630142141930E+02    0.68431E-01   -0.21117E-01  2592   0.105E+01    0.620E-01
DAV:   5    -0.630120578713E+02    0.21563E-02   -0.63567E-02  2800   0.611E+00    0.470E-01
DAV:   6    -0.630094230072E+02    0.26349E-02   -0.28740E-02  2472   0.448E+00    0.318E-01
DAV:   7    -0.630083104190E+02    0.11126E-02   -0.98977E-03  2880   0.317E+00    0.179E-01
DAV:   8    -0.630076440515E+02    0.66637E-03   -0.38374E-03  2960   0.146E+00    0.835E-02
DAV:   9    -0.630077060736E+02   -0.62022E-04   -0.13373E-03  1920   0.567E-01
  46 F= -.69967848E+02 E0= -.69958792E+02  d E =-.193814E-01  mag=     0.0000
       N       E                     dE             d eps       ncg     rms          rms(c)
DAV:   1    -0.630019478202E+02    0.56962E-02   -0.17482E+00  1880   0.373E+00    0.229E-01
DAV:   2    -0.630055729893E+02   -0.36252E-02   -0.38137E-02  2784   0.166E+00    0.254E-01
DAV:   3    -0.630072128385E+02   -0.16398E-02   -0.13506E-02  2416   0.272E+00    0.379E-01
DAV:   4    -0.630054467513E+02    0.17661E-02   -0.68626E-03  2128   0.229E+00    0.212E-01
DAV:   5    -0.630047819670E+02    0.66478E-03   -0.22145E-03  1800   0.172E+00    0.107E-01
DAV:   6    -0.630047278000E+02    0.54167E-04   -0.11579E-03  1744   0.117E+00
  47 F= -.69967931E+02 E0= -.69958857E+02  d E =-.194646E-01  mag=     0.0000
       N       E                     dE             d eps       ncg     rms          rms(c)
DAV:   1    -0.630055745930E+02   -0.79263E-03   -0.32835E-01  1888   0.173E+00    0.103E-01
DAV:   2    -0.630063720601E+02   -0.79747E-03   -0.79089E-03  2976   0.727E-01    0.132E-01
DAV:   3    -0.630064673448E+02   -0.95285E-04   -0.23510E-03  1584   0.116E+00    0.153E-01
DAV:   4    -0.630061390195E+02    0.32833E-03   -0.10335E-03  1248   0.842E-01    0.706E-02
DAV:   5    -0.630061992268E+02   -0.60207E-04   -0.42812E-04  1328   0.761E-01
  48 F= -.69968082E+02 E0= -.69958325E+02  d E =-.196157E-01  mag=     0.0000
       N       E                     dE             d eps       ncg     rms          rms(c)
DAV:   1    -0.630066978986E+02   -0.55888E-03   -0.66316E+00  1864   0.733E+00    0.435E-01
DAV:   2    -0.630199548823E+02   -0.13257E-01   -0.14795E-01  2560   0.214E+00    0.411E-01
DAV:   3    -0.630309401309E+02   -0.10985E-01   -0.43086E-02  2240   0.507E+00    0.808E-01
DAV:   4    -0.630193146438E+02    0.11625E-01   -0.35210E-02  2416   0.435E+00    0.287E-01
DAV:   5    -0.630200194234E+02   -0.70478E-03   -0.74464E-03  2272   0.323E+00    0.304E-01
DAV:   6    -0.630186612427E+02    0.13582E-02   -0.72093E-03  2496   0.276E+00    0.166E-01
DAV:   7    -0.630180618845E+02    0.59936E-03   -0.25522E-03  2184   0.136E+00    0.523E-02
DAV:   8    -0.630180786498E+02   -0.16765E-04   -0.80665E-04  1744   0.381E-01
  49 F= -.69972942E+02 E0= -.69964094E+02  d E =-.486033E-02  mag=     0.0000
       N       E                     dE             d eps       ncg     rms          rms(c)
DAV:   1    -0.630122377357E+02    0.58241E-02   -0.12515E+01  1864   0.100E+01    0.607E-01
DAV:   2    -0.630353496824E+02   -0.23112E-01   -0.27154E-01  2496   0.256E+00    0.476E-01
DAV:   3    -0.630403684888E+02   -0.50188E-02   -0.33445E-02  2192   0.405E+00    0.648E-01
DAV:   4    -0.630407630217E+02   -0.39453E-03   -0.56135E-02  2272   0.578E+00    0.683E-01
DAV:   5    -0.630361908156E+02    0.45722E-02   -0.18666E-02  2480   0.462E+00    0.402E-01
DAV:   6    -0.630342985536E+02    0.18923E-02   -0.12214E-02  2928   0.401E+00    0.287E-01
DAV:   7    -0.630327425575E+02    0.15560E-02   -0.38275E-03  2880   0.220E+00    0.641E-02
DAV:   8    -0.630327786767E+02   -0.36119E-04   -0.10658E-03  1968   0.472E-01
  50 F= -.69977432E+02 E0= -.69969255E+02  d E =-.934974E-02  mag=     0.0000
       N       E                     dE             d eps       ncg     rms          rms(c)
DAV:   1    -0.629724009717E+02    0.60342E-01   -0.50052E+01  1864   0.201E+01    0.122E+00
DAV:   2    -0.630704154678E+02   -0.98014E-01   -0.11123E+00  2536   0.555E+00    0.111E+00
DAV:   3    -0.631616036749E+02   -0.91188E-01   -0.28674E-01  2272   0.140E+01    0.218E+00
DAV:   4    -0.630646895562E+02    0.96914E-01   -0.27309E-01  2576   0.122E+01    0.731E-01
DAV:   5    -0.630608100667E+02    0.38795E-02   -0.74333E-02  2864   0.704E+00    0.545E-01
DAV:   6    -0.630561987705E+02    0.46113E-02   -0.27950E-02  2632   0.450E+00    0.219E-01
DAV:   7    -0.630562114936E+02   -0.12723E-04   -0.81521E-03  3024   0.237E+00    0.178E-01
DAV:   8    -0.630558440056E+02    0.36749E-03   -0.44816E-03  2624   0.160E+00    0.113E-01
DAV:   9    -0.630558249314E+02    0.19074E-04   -0.15054E-03  1936   0.726E-01
  51 F= -.69978210E+02 E0= -.69971133E+02  d E =-.101284E-01  mag=     0.0000
       N       E                     dE             d eps       ncg     rms          rms(c)
DAV:   1    -0.630093322789E+02    0.46512E-01   -0.21680E+01  1872   0.130E+01    0.846E-01
DAV:   2    -0.630488474820E+02   -0.39515E-01   -0.46400E-01  2528   0.491E+00    0.753E-01
DAV:   3    -0.630906979270E+02   -0.41850E-01   -0.17728E-01  2288   0.103E+01    0.147E+00
DAV:   4    -0.630521880525E+02    0.38510E-01   -0.12386E-01  2496   0.876E+00    0.756E-01
DAV:   5    -0.630441501656E+02    0.80379E-02   -0.26345E-02  2584   0.606E+00    0.405E-01
DAV:   6    -0.630431269986E+02    0.10232E-02   -0.16125E-02  2672   0.440E+00    0.322E-01
DAV:   7    -0.630415075042E+02    0.16195E-02   -0.86544E-03  2488   0.262E+00    0.694E-02
DAV:   8    -0.630416202224E+02   -0.11272E-03   -0.27110E-03  2200   0.682E-01    0.463E-02
DAV:   9    -0.630416752857E+02   -0.55063E-04   -0.81771E-04  1728   0.412E-01
  52 F= -.69978936E+02 E0= -.69971003E+02  d E =-.108542E-01  mag=     0.0000
       N       E                     dE             d eps       ncg     rms          rms(c)
DAV:   1    -0.630419762165E+02   -0.35599E-03   -0.54234E+00  1880   0.648E+00    0.410E-01
DAV:   2    -0.630509316311E+02   -0.89554E-02   -0.10351E-01  2520   0.194E+00    0.379E-01
DAV:   3    -0.630618342562E+02   -0.10903E-01   -0.38368E-02  2256   0.501E+00    0.795E-01
DAV:   4    -0.630502642662E+02    0.11570E-01   -0.36595E-02  2416   0.435E+00    0.243E-01
DAV:   5    -0.630504339627E+02   -0.16970E-03   -0.63019E-03  2256   0.278E+00    0.244E-01
DAV:   6    -0.630498877883E+02    0.54617E-03   -0.52725E-03  2336   0.251E+00    0.168E-01
DAV:   7    -0.630491976738E+02    0.69011E-03   -0.24803E-03  2000   0.137E+00    0.443E-02
DAV:   8    -0.630492114306E+02   -0.13757E-04   -0.58621E-04  1432   0.343E-01
  53 F= -.69979126E+02 E0= -.69971597E+02  d E =-.110444E-01  mag=     0.0000
       N       E                     dE             d eps       ncg     rms          rms(c)
DAV:   1    -0.630448865958E+02    0.43111E-02   -0.99993E-01  1864   0.277E+00    0.181E-01
DAV:   2    -0.630471433291E+02   -0.22567E-02   -0.19156E-02  2992   0.143E+00    0.266E-01
DAV:   3    -0.630469417935E+02    0.20154E-03   -0.72433E-03  2304   0.203E+00    0.217E-01
DAV:   4    -0.630463548977E+02    0.58690E-03   -0.41485E-03  1824   0.147E+00    0.122E-01
DAV:   5    -0.630463248046E+02    0.30093E-04   -0.17458E-03  1592   0.136E+00
  54 F= -.69979421E+02 E0= -.69970928E+02  d E =-.113387E-01  mag=     0.0000
       N       E                     dE             d eps       ncg     rms          rms(c)
DAV:   1    -0.630480225488E+02   -0.16677E-02   -0.49168E-01  2096   0.238E+00    0.124E-01
DAV:   2    -0.630532197216E+02   -0.51972E-02   -0.18618E-02  3216   0.297E+00    0.470E-01
DAV:   3    -0.630492468566E+02    0.39729E-02   -0.14256E-02  2816   0.276E+00    0.191E-01
DAV:   4    -0.630487739629E+02    0.47289E-03   -0.20079E-03  1736   0.138E+00    0.980E-02
DAV:   5    -0.630487316543E+02    0.42309E-04   -0.12000E-03  1792   0.793E-01
  55 F= -.69982426E+02 E0= -.69974642E+02  d E =-.300534E-02  mag=     0.0000
       N       E                     dE             d eps       ncg     rms          rms(c)
DAV:   1    -0.630483812149E+02    0.39275E-03   -0.30392E-01  1936   0.171E+00    0.954E-02
DAV:   2    -0.630493891641E+02   -0.10079E-02   -0.65402E-03  3040   0.112E+00    0.192E-01
DAV:   3    -0.630490761279E+02    0.31304E-03   -0.28643E-03  1656   0.132E+00    0.119E-01
DAV:   4    -0.630489270698E+02    0.14906E-03   -0.15607E-03  1280   0.937E-01
  56 F= -.69983160E+02 E0= -.69975802E+02  d E =-.373923E-02  mag=    -0.0000
       N       E                     dE             d eps       ncg     rms          rms(c)
DAV:   1    -0.630498172425E+02   -0.74111E-03   -0.11435E+00  1976   0.330E+00    0.125E-01
DAV:   2    -0.630540250816E+02   -0.42078E-02   -0.23944E-02  3200   0.239E+00    0.360E-01
DAV:   3    -0.630524134721E+02    0.16116E-02   -0.10872E-02  2744   0.242E+00    0.205E-01
DAV:   4    -0.630518101539E+02    0.60332E-03   -0.34538E-03  2056   0.147E+00    0.115E-01
DAV:   5    -0.630517438877E+02    0.66266E-04   -0.85609E-04  1712   0.659E-01
  57 F= -.69986678E+02 E0= -.69979072E+02  d E =-.351856E-02  mag=    -0.0000
       N       E                     dE             d eps       ncg     rms          rms(c)
DAV:   1    -0.630364271818E+02    0.15383E-01   -0.10280E+01  1976   0.965E+00    0.334E-01
DAV:   2    -0.630918795041E+02   -0.55452E-01   -0.25316E-01  3376   0.798E+00    0.140E+00
DAV:   3    -0.630542477225E+02    0.37632E-01   -0.10884E-01  3376   0.714E+00    0.319E-01
DAV:   4    -0.630540215843E+02    0.22614E-03   -0.11093E-02  2248   0.159E+00    0.241E-01
DAV:   5    -0.630541117874E+02   -0.90203E-04   -0.71393E-03  2136   0.161E+00    0.225E-01
DAV:   6    -0.630545745706E+02   -0.46278E-03   -0.49460E-03  2168   0.229E+00    0.251E-01
DAV:   7    -0.630534436949E+02    0.11309E-02   -0.30558E-03  2536   0.181E+00    0.539E-02
DAV:   8    -0.630534766461E+02   -0.32951E-04   -0.76478E-04  1536   0.586E-01
  58 F= -.69990609E+02 E0= -.69982806E+02  d E =-.744878E-02  mag=     0.0000
       N       E                     dE             d eps       ncg     rms          rms(c)
DAV:   1    -0.630539714239E+02   -0.52773E-03   -0.85741E-01  2008   0.283E+00    0.795E-02
DAV:   2    -0.630621491921E+02   -0.81778E-02   -0.26116E-02  3472   0.319E+00    0.592E-01
DAV:   3    -0.630553890702E+02    0.67601E-02   -0.16692E-02  3272   0.286E+00    0.776E-02
DAV:   4    -0.630555029012E+02   -0.11383E-03   -0.13735E-03  2096   0.562E-01
  59 F= -.69992705E+02 E0= -.69984924E+02  d E =-.209612E-02  mag=     0.0000
       N       E                     dE             d eps       ncg     rms          rms(c)
DAV:   1    -0.630447661282E+02    0.10623E-01   -0.77313E+00  2000   0.845E+00    0.237E-01
DAV:   2    -0.630896131763E+02   -0.44847E-01   -0.18865E-01  3488   0.732E+00    0.127E+00
DAV:   3    -0.630581190093E+02    0.31494E-01   -0.83037E-02  3488   0.620E+00    0.271E-01
DAV:   4    -0.630581189803E+02    0.29017E-07   -0.84800E-03  2352   0.163E+00    0.234E-01
DAV:   5    -0.630580728151E+02    0.46165E-04   -0.38440E-03  2104   0.120E+00    0.198E-01
DAV:   6    -0.630577987858E+02    0.27403E-03   -0.28711E-03  2120   0.129E+00    0.174E-01
DAV:   7    -0.630573564303E+02    0.44236E-03   -0.18479E-03  2104   0.114E+00    0.422E-02
DAV:   8    -0.630573365630E+02    0.19867E-04   -0.57345E-04  1360   0.464E-01
  60 F= -.69994808E+02 E0= -.69986572E+02  d E =-.419917E-02  mag=     0.0000
       N       E                     dE             d eps       ncg     rms          rms(c)
DAV:   1    -0.630574159640E+02   -0.59534E-04   -0.57140E-01  2072   0.231E+00    0.949E-02
DAV:   2    -0.630637399194E+02   -0.63240E-02   -0.19893E-02  3448   0.295E+00    0.524E-01
DAV:   3    -0.630583960434E+02    0.53439E-02   -0.13892E-02  3176   0.269E+00    0.101E-01
DAV:   4    -0.630583593040E+02    0.36739E-04   -0.10103E-03  1512   0.857E-01
  61 F= -.69994996E+02 E0= -.69986489E+02  d E =-.187861E-03  mag=     0.0000
       N       E                     dE             d eps       ncg     rms          rms(c)
DAV:   1    -0.630583053064E+02    0.90737E-04   -0.61195E-02  2624   0.927E-01    0.441E-02
DAV:   2    -0.630621800223E+02   -0.38747E-02   -0.96705E-03  1936   0.244E+00    0.431E-01
DAV:   3    -0.630583614128E+02    0.38186E-02   -0.80486E-03  1376   0.219E+00    0.728E-02
DAV:   4    -0.630583077244E+02    0.53688E-04   -0.22781E-04  1240   0.535E-01
  62 F= -.69995199E+02 E0= -.69987198E+02  d E =-.390872E-03  mag=     0.0000
       N       E                     dE             d eps       ncg     rms          rms(c)
DAV:   1    -0.630587453726E+02   -0.38396E-03   -0.32084E-01  2032   0.173E+00    0.481E-02
DAV:   2    -0.630622080120E+02   -0.34626E-02   -0.99648E-03  3408   0.214E+00    0.397E-01
DAV:   3    -0.630592048707E+02    0.30031E-02   -0.76222E-03  2456   0.196E+00    0.530E-02
DAV:   4    -0.630592734135E+02   -0.68543E-04   -0.73063E-04  1720   0.365E-01
  63 F= -.69995677E+02 E0= -.69987423E+02  d E =-.478379E-03  mag=     0.0000
       N       E                     dE             d eps       ncg     rms          rms(c)
DAV:   1    -0.630594398368E+02   -0.23497E-03   -0.25893E-01  2032   0.155E+00    0.501E-02
DAV:   2    -0.630603322114E+02   -0.89237E-03   -0.52010E-03  3136   0.959E-01    0.174E-01
DAV:   3    -0.630598451983E+02    0.48701E-03   -0.16113E-03  1584   0.878E-01    0.563E-02
DAV:   4    -0.630598493720E+02   -0.41736E-05   -0.27294E-04  1144   0.290E-01
  64 F= -.69995822E+02 E0= -.69987692E+02  d E =-.623685E-03  mag=     0.0000
       N       E                     dE             d eps       ncg     rms          rms(c)
DAV:   1    -0.630601971491E+02   -0.35195E-03   -0.28639E-02  2232   0.568E-01    0.532E-02
DAV:   2    -0.630604999271E+02   -0.30278E-03   -0.84874E-04  1440   0.839E-01    0.131E-01
DAV:   3    -0.630602860293E+02    0.21390E-03   -0.13911E-03  1264   0.948E-01    0.835E-02
DAV:   4    -0.630601878115E+02    0.98218E-04   -0.45398E-04  1128   0.576E-01
  65 F= -.69995951E+02 E0= -.69987525E+02  d E =-.128990E-03  mag=     0.0000
       N       E                     dE             d eps       ncg     rms          rms(c)
DAV:   1    -0.630601441734E+02    0.14186E-03   -0.21117E-03  2480   0.283E-01    0.204E-02
DAV:   2    -0.630611191723E+02   -0.97500E-03   -0.24671E-03  1352   0.118E+00    0.216E-01
DAV:   3    -0.630601174536E+02    0.10017E-02   -0.18646E-03  1304   0.103E+00    0.163E-02
DAV:   4    -0.630601398789E+02   -0.22425E-04   -0.46991E-05  1152   0.137E-01
  66 F= -.69995955E+02 E0= -.69987765E+02  d E =-.132382E-03  mag=     0.0000
       N       E                     dE             d eps       ncg     rms          rms(c)
DAV:   1    -0.630601566372E+02   -0.39184E-04   -0.19923E-04  1192   0.108E-01    0.136E-02
DAV:   2    -0.630601842434E+02   -0.27606E-04   -0.15067E-04  1096   0.294E-01
  67 F= -.69995978E+02 E0= -.69987638E+02  d E =-.155586E-03  mag=     0.0000
       N       E                     dE             d eps       ncg     rms          rms(c)
DAV:   1    -0.630601752071E+02   -0.18570E-04   -0.14471E-04  1288   0.309E-01    0.325E-02
DAV:   2    -0.630642785836E+02   -0.41034E-02   -0.97130E-03  1376   0.240E+00    0.440E-01
DAV:   3    -0.630600992299E+02    0.41794E-02   -0.77886E-03  1328   0.210E+00    0.214E-02
DAV:   4    -0.630601494947E+02   -0.50265E-04   -0.24347E-05  1160   0.186E-01
  68 F= -.69995958E+02 E0= -.69987671E+02  d E =-.135896E-03  mag=     0.0000
       N       E                     dE             d eps       ncg     rms          rms(c)
DAV:   1    -0.630601611572E+02   -0.61927E-04   -0.24266E-05  1200   0.121E-01    0.790E-03
DAV:   2    -0.630601946821E+02   -0.33525E-04   -0.67722E-05  1240   0.258E-01
  69 F= -.69995996E+02 E0= -.69987687E+02  d E =-.173536E-03  mag=     0.0000
       N       E                     dE             d eps       ncg     rms          rms(c)
DAV:   1    -0.630601648522E+02   -0.36950E-05   -0.10426E-04  1128   0.262E-01    0.172E-02
DAV:   2    -0.630610073126E+02   -0.84246E-03   -0.19783E-03  1280   0.111E+00    0.198E-01
DAV:   3    -0.630601531478E+02    0.85416E-03   -0.16806E-03  1224   0.102E+00    0.257E-02
DAV:   4    -0.630601588996E+02   -0.57518E-05   -0.23100E-05  1088   0.190E-01
  70 F= -.69995963E+02 E0= -.69987741E+02  d E =-.140689E-03  mag=     0.0000
       N       E                     dE             d eps       ncg     rms          rms(c)
DAV:   1    -0.630608017812E+02   -0.64863E-03   -0.29074E-02  1992   0.517E-01    0.151E-02
DAV:   2    -0.630608365566E+02   -0.34775E-04   -0.29330E-04  1240   0.178E-01
  71 F= -.69996129E+02 E0= -.69987974E+02  d E =-.165828E-03  mag=     0.0000
       N       E                     dE             d eps       ncg     rms          rms(c)
DAV:   1    -0.630612815388E+02   -0.47976E-03   -0.13628E-02  2600   0.425E-01    0.244E-02
DAV:   2    -0.630616157141E+02   -0.33418E-03   -0.76961E-04  1248   0.700E-01    0.130E-01
DAV:   3    -0.630612635914E+02    0.35212E-03   -0.72357E-04  1144   0.674E-01    0.158E-02
DAV:   4    -0.630612832505E+02   -0.19659E-04   -0.46552E-05  1096   0.161E-01
  72 F= -.69996239E+02 E0= -.69988227E+02  d E =-.275676E-03  mag=     0.0000
       N       E                     dE             d eps       ncg     rms          rms(c)
DAV:   1    -0.630619947296E+02   -0.73114E-03   -0.50436E-02  1984   0.705E-01    0.202E-02
DAV:   2    -0.630620692519E+02   -0.74522E-04   -0.74728E-04  1688   0.265E-01
  73 F= -.69996352E+02 E0= -.69988314E+02  d E =-.389078E-03  mag=     0.0000
       N       E                     dE             d eps       ncg     rms          rms(c)
DAV:   1    -0.630629095167E+02   -0.91479E-03   -0.25274E-02  2408   0.552E-01    0.446E-02
DAV:   2    -0.630652248200E+02   -0.23153E-02   -0.54202E-03  1520   0.184E+00    0.337E-01
DAV:   3    -0.630628669347E+02    0.23579E-02   -0.48797E-03  1328   0.166E+00    0.318E-02
DAV:   4    -0.630629168557E+02   -0.49921E-04   -0.10247E-04  1200   0.344E-01
  74 F= -.69996578E+02 E0= -.69988198E+02  d E =-.225850E-03  mag=     0.0000
       N       E                     dE             d eps       ncg     rms          rms(c)
DAV:   1    -0.630649494941E+02   -0.20826E-02   -0.21834E-01  1864   0.138E+00    0.730E-02
DAV:   2    -0.630660481537E+02   -0.10987E-02   -0.46425E-03  2864   0.118E+00    0.214E-01
DAV:   3    -0.630652194565E+02    0.82870E-03   -0.27859E-03  1736   0.124E+00    0.658E-02
DAV:   4    -0.630652425157E+02   -0.23059E-04   -0.47137E-04  1424   0.416E-01
  75 F= -.69997040E+02 E0= -.69988987E+02  d E =-.687825E-03  mag=     0.0000
       N       E                     dE             d eps       ncg     rms          rms(c)
DAV:   1    -0.630683526400E+02   -0.31332E-02   -0.87219E-01  1864   0.271E+00    0.144E-01
DAV:   2    -0.630703650989E+02   -0.20125E-02   -0.15339E-02  3000   0.132E+00    0.231E-01
DAV:   3    -0.630699363300E+02    0.42877E-03   -0.55605E-03  2192   0.178E+00    0.170E-01
DAV:   4    -0.630698861189E+02    0.50211E-04   -0.25919E-03  1792   0.135E+00    0.140E-01
DAV:   5    -0.630695474965E+02    0.33862E-03   -0.10660E-03  1520   0.114E+00    0.627E-02
DAV:   6    -0.630695570933E+02   -0.95968E-05   -0.44352E-04  1280   0.661E-01
  76 F= -.69997634E+02 E0= -.69989574E+02  d E =-.128138E-02  mag=     0.0000
       N       E                     dE             d eps       ncg     rms          rms(c)
DAV:   1    -0.630710072955E+02   -0.14598E-02   -0.18420E-01  1888   0.134E+00    0.617E-02
DAV:   2    -0.630713944066E+02   -0.38711E-03   -0.37898E-03  2640   0.534E-01    0.729E-02
DAV:   3    -0.630715388215E+02   -0.14441E-03   -0.12965E-03  1280   0.854E-01
  77 F= -.69997909E+02 E0= -.69989980E+02  d E =-.155703E-02  mag=     0.0000
       N       E                     dE             d eps       ncg     rms          rms(c)
DAV:   1    -0.630702503262E+02    0.11441E-02   -0.61721E-02  2456   0.953E-01    0.367E-02
DAV:   2    -0.630706422542E+02   -0.39193E-03   -0.96164E-04  1432   0.103E+00    0.131E-01
DAV:   3    -0.630704514656E+02    0.19079E-03   -0.12916E-03  1400   0.100E+00
  78 F= -.69997812E+02 E0= -.69990016E+02  d E =-.146020E-02  mag=     0.0000
       N       E                     dE             d eps       ncg     rms          rms(c)
DAV:   1    -0.630709424471E+02   -0.30019E-03   -0.25407E-02  2584   0.756E-01    0.234E-02
DAV:   2    -0.630713517760E+02   -0.40933E-03   -0.10195E-03  1312   0.807E-01    0.138E-01
DAV:   3    -0.630709639511E+02    0.38782E-03   -0.94441E-04  1232   0.731E-01    0.358E-02
DAV:   4    -0.630709621125E+02    0.18386E-05   -0.12407E-04  1120   0.327E-01
  79 F= -.69997694E+02 E0= -.69989639E+02  d E =-.134176E-02  mag=     0.0000
       N       E                     dE             d eps       ncg     rms          rms(c)
DAV:   1    -0.630706380721E+02    0.32588E-03   -0.61264E-03  2272   0.287E-01    0.119E-02
DAV:   2    -0.630706860554E+02   -0.47983E-04   -0.13563E-04  1224   0.305E-01
  80 F= -.69997732E+02 E0= -.69989746E+02  d E =-.138022E-02  mag=     0.0000
       N       E                     dE             d eps       ncg     rms          rms(c)
DAV:   1    -0.630707913814E+02   -0.15331E-03   -0.17502E-03  2020   0.354E-01    0.220E-02
DAV:   2    -0.630720624887E+02   -0.12711E-02   -0.32300E-03  1632   0.137E+00    0.248E-01
DAV:   3    -0.630707861596E+02    0.12763E-02   -0.25151E-03  1316   0.121E+00    0.182E-02
DAV:   4    -0.630708213963E+02   -0.35237E-04   -0.12958E-04  1168   0.152E-01
  81 F= -.69997684E+02 E0= -.69989672E+02  d E =-.133199E-02  mag=     0.0000
       N       E                     dE             d eps       ncg     rms          rms(c)
DAV:   1    -0.630706988378E+02    0.87322E-04   -0.79901E-04  1600   0.144E-01    0.101E-02
DAV:   2    -0.630707816323E+02   -0.82795E-04   -0.20574E-04  1240   0.368E-01
  82 F= -.69997773E+02 E0= -.69989712E+02  d E =-.142075E-02  mag=     0.0000
       N       E                     dE             d eps       ncg     rms          rms(c)
DAV:   1    -0.630707599086E+02   -0.61071E-04   -0.26019E-04  1264   0.357E-01    0.133E-02
DAV:   2    -0.630710336155E+02   -0.27371E-03   -0.61424E-04  1228   0.655E-01    0.114E-01
DAV:   3    -0.630707679551E+02    0.26566E-03   -0.61282E-04  1216   0.621E-01    0.254E-02
DAV:   4    -0.630707652031E+02    0.27520E-05   -0.48966E-05  1088   0.191E-01
  83 F= -.69997692E+02 E0= -.69989718E+02  d E =-.134006E-02  mag=     0.0000
       N       E                     dE             d eps       ncg     rms          rms(c)
DAV:   1    -0.630707340264E+02    0.33929E-04   -0.36720E-05  1144   0.440E-02    0.497E-03
DAV:   2    -0.630707494950E+02   -0.15469E-04   -0.35265E-05  1112   0.152E-01
  84 F= -.69997715E+02 E0= -.69989807E+02  d E =-.136235E-02  mag=     0.0000
       N       E                     dE             d eps       ncg     rms          rms(c)
DAV:   1    -0.630707426820E+02   -0.86555E-05   -0.42283E-05  1112   0.159E-01    0.690E-03
DAV:   2    -0.630708001906E+02   -0.57509E-04   -0.14834E-04  1216   0.310E-01
  85 F= -.69997757E+02 E0= -.69989700E+02  d E =-.140472E-02  mag=     0.0000
       N       E                     dE             d eps       ncg     rms          rms(c)
DAV:   1    -0.630709218046E+02   -0.17912E-03   -0.16289E-03  2008   0.322E-01    0.170E-02
DAV:   2    -0.630712343079E+02   -0.31250E-03   -0.80283E-04  1336   0.728E-01    0.124E-01
DAV:   3    -0.630709478856E+02    0.28642E-03   -0.75929E-04  1200   0.664E-01    0.291E-02
DAV:   4    -0.630709462899E+02    0.15957E-05   -0.11561E-04  1096   0.220E-01
  86 F= -.69997739E+02 E0= -.69989757E+02  d E =0.176711E-04  mag=     0.0000
       N       E                     dE             d eps       ncg     rms          rms(c)
DAV:   1    -0.630709618436E+02   -0.13958E-04   -0.13346E-04  1096   0.758E-02    0.784E-03
DAV:   2    -0.630710437123E+02   -0.81869E-04   -0.22477E-04  1200   0.352E-01
  87 F= -.69997833E+02 E0= -.69989864E+02  d E =-.764103E-04  mag=     0.0000
       N       E                     dE             d eps       ncg     rms          rms(c)
DAV:   1    -0.630709680257E+02   -0.61820E-05   -0.19438E-04  1144   0.342E-01    0.783E-03
DAV:   2    -0.630710033103E+02   -0.35285E-04   -0.57348E-05  1088   0.227E-01
  88 F= -.69997786E+02 E0= -.69989892E+02  d E =-.293263E-04  mag=     0.0000
       N       E                     dE             d eps       ncg     rms          rms(c)
DAV:   1    -0.630709885430E+02   -0.20517E-04   -0.10388E-04  1104   0.246E-01    0.120E-02
DAV:   2    -0.630714213618E+02   -0.43282E-03   -0.10993E-03  1216   0.803E-01    0.144E-01
DAV:   3    -0.630709789968E+02    0.44237E-03   -0.85147E-04  1200   0.738E-01    0.149E-02
DAV:   4    -0.630709899588E+02   -0.10962E-04   -0.16609E-05  1104   0.108E-01
  89 F= -.69997760E+02 E0= -.69989848E+02  d E =-.261111E-05  mag=     0.0000
       N       E                     dE             d eps       ncg     rms          rms(c)
DAV:   1    -0.630710243087E+02   -0.45312E-04   -0.95381E-05  1184   0.723E-02    0.865E-03
DAV:   2    -0.630710392063E+02   -0.14898E-04   -0.67370E-05   976   0.185E-01
  90 F= -.69997827E+02 E0= -.69989969E+02  d E =-.672751E-04  mag=     0.0000
       N       E                     dE             d eps       ncg     rms          rms(c)
DAV:   1    -0.630710455425E+02   -0.21234E-04   -0.49625E-04  1368   0.236E-01    0.279E-02
DAV:   2    -0.630722223571E+02   -0.11768E-02   -0.29360E-03  1520   0.138E+00    0.246E-01
DAV:   3    -0.630710407162E+02    0.11816E-02   -0.25960E-03  1328   0.123E+00    0.195E-02
DAV:   4    -0.630710693455E+02   -0.28629E-04   -0.12951E-04  1152   0.202E-01
  91 F= -.69997900E+02 E0= -.69990055E+02  d E =-.140231E-03  mag=     0.0000
       N       E                     dE             d eps       ncg     rms          rms(c)
DAV:   1    -0.630710815954E+02   -0.40879E-04   -0.33372E-04  1232   0.149E-01    0.135E-02
DAV:   2    -0.630712992114E+02   -0.21762E-03   -0.56244E-04  1280   0.573E-01    0.105E-01
DAV:   3    -0.630710838450E+02    0.21537E-03   -0.55014E-04  1200   0.577E-01    0.131E-02
DAV:   4    -0.630711041037E+02   -0.20259E-04   -0.13194E-04  1088   0.849E-02
  92 F= -.69997949E+02 E0= -.69989951E+02  d E =-.189241E-03  mag=     0.0000
       N       E                     dE             d eps       ncg     rms          rms(c)
DAV:   1    -0.630711228718E+02   -0.39027E-04   -0.47599E-04  1208   0.140E-01    0.175E-02
DAV:   2    -0.630711574782E+02   -0.34606E-04   -0.25816E-04  1144   0.317E-01
  93 F= -.69998031E+02 E0= -.69989896E+02  d E =-.271355E-03  mag=     0.0000
       N       E                     dE             d eps       ncg     rms          rms(c)
DAV:   1    -0.630711672306E+02   -0.44359E-04   -0.18155E-03  2176   0.416E-01    0.465E-02
DAV:   2    -0.630777633404E+02   -0.65961E-02   -0.14782E-02  1776   0.308E+00    0.565E-01
DAV:   3    -0.630710670629E+02    0.66963E-02   -0.12565E-02  1376   0.268E+00    0.244E-02
DAV:   4    -0.630711527069E+02   -0.85644E-04   -0.16062E-04  1224   0.232E-01
  94 F= -.69998084E+02 E0= -.69989988E+02  d E =-.324966E-03  mag=     0.0000
       N       E                     dE             d eps       ncg     rms          rms(c)
DAV:   1    -0.630711807839E+02   -0.11372E-03   -0.68657E-03  2656   0.313E-01    0.223E-02
DAV:   2    -0.630714785849E+02   -0.29780E-03   -0.75452E-04  1360   0.659E-01    0.121E-01
DAV:   3    -0.630711676131E+02    0.31097E-03   -0.60688E-04  1176   0.619E-01    0.157E-02
DAV:   4    -0.630711855156E+02   -0.17902E-04   -0.28306E-05  1120   0.191E-01
  95 F= -.69998238E+02 E0= -.69990447E+02  d E =-.478381E-03  mag=     0.0000
       N       E                     dE             d eps       ncg     rms          rms(c)
DAV:   1    -0.630707869109E+02    0.38070E-03   -0.20358E-02  2136   0.463E-01    0.339E-02
DAV:   2    -0.630708114233E+02   -0.24512E-04   -0.25767E-04  1288   0.345E-01
  96 F= -.69998121E+02 E0= -.69990383E+02  d E =-.361979E-03  mag=     0.0000
       N       E                     dE             d eps       ncg     rms          rms(c)
DAV:   1    -0.630711697718E+02   -0.38286E-03   -0.12105E-02  2784   0.576E-01    0.547E-02
DAV:   2    -0.630818279007E+02   -0.10658E-01   -0.23263E-02  1984   0.383E+00    0.710E-01
DAV:   3    -0.630710567673E+02    0.10771E-01   -0.19695E-02  1600   0.338E+00    0.457E-02
DAV:   4    -0.630711101573E+02   -0.53390E-04   -0.14029E-04  1248   0.372E-01
  97 F= -.69998222E+02 E0= -.69990169E+02  d E =-.462237E-03  mag=     0.0000
       N       E                     dE             d eps       ncg     rms          rms(c)
DAV:   1    -0.630710792455E+02   -0.22478E-04   -0.19389E-04  1272   0.166E-01    0.113E-02
DAV:   2    -0.630711516696E+02   -0.72424E-04   -0.27131E-04  1240   0.362E-01
  98 F= -.69998293E+02 E0= -.69990310E+02  d E =-.533159E-03  mag=     0.0000
       N       E                     dE             d eps       ncg     rms          rms(c)
DAV:   1    -0.630711277575E+02   -0.48512E-04   -0.28230E-04  1208   0.365E-01    0.206E-02
DAV:   2    -0.630714842204E+02   -0.35646E-03   -0.67498E-04  1208   0.744E-01    0.136E-01
DAV:   3    -0.630711295475E+02    0.35467E-03   -0.91564E-04  1136   0.738E-01    0.265E-02
DAV:   4    -0.630711270953E+02    0.24521E-05   -0.53858E-05  1072   0.207E-01
  99 F= -.69998242E+02 E0= -.69990246E+02  d E =-.482536E-03  mag=     0.0000
       N       E                     dE             d eps       ncg     rms          rms(c)
DAV:   1    -0.630711122892E+02    0.17258E-04   -0.25056E-05  1096   0.690E-02    0.468E-03
DAV:   2    -0.630711236631E+02   -0.11374E-04   -0.44787E-05  1152   0.159E-01
 100 F= -.69998252E+02 E0= -.69990257E+02  d E =-.492099E-03  mag=     0.0000
       N       E                     dE             d eps       ncg     rms          rms(c)
DAV:   1    -0.630711245856E+02   -0.12296E-04   -0.42030E-05  1112   0.151E-01    0.104E-02
DAV:   2    -0.630713456063E+02   -0.22102E-03   -0.45475E-04  1312   0.565E-01    0.104E-01
DAV:   3    -0.630711181979E+02    0.22741E-03   -0.45561E-04  1168   0.537E-01    0.128E-02
DAV:   4    -0.630711235348E+02   -0.53369E-05   -0.10284E-05  1072   0.105E-01
 101 F= -.69998243E+02 E0= -.69990272E+02  d E =-.483869E-03  mag=     0.0000
       N       E                     dE             d eps       ncg     rms          rms(c)
DAV:   1    -0.630711985322E+02   -0.80334E-04   -0.15945E-03  1880   0.127E-01    0.384E-03
DAV:   2    -0.630712071949E+02   -0.86627E-05   -0.27558E-05  1072   0.112E-01
 102 F= -.69998298E+02 E0= -.69990376E+02  d E =-.547244E-04  mag=     0.0000
       N       E                     dE             d eps       ncg     rms          rms(c)
DAV:   1    -0.630713410290E+02   -0.14250E-03   -0.84006E-03  2048   0.302E-01    0.902E-03
DAV:   2    -0.630713522684E+02   -0.11239E-04   -0.10579E-04  1104   0.104E-01
 103 F= -.69998379E+02 E0= -.69990414E+02  d E =-.135685E-03  mag=     0.0000
       N       E                     dE             d eps       ncg     rms          rms(c)
DAV:   1    -0.630715607152E+02   -0.21969E-03   -0.33504E-02  2000   0.574E-01    0.223E-02
DAV:   2    -0.630721328161E+02   -0.57210E-03   -0.13881E-03  1344   0.897E-01    0.168E-01
DAV:   3    -0.630715514098E+02    0.58141E-03   -0.12529E-03  1280   0.846E-01    0.148E-02
DAV:   4    -0.630715902876E+02   -0.38878E-04   -0.23403E-04  1136   0.160E-01
 104 F= -.69998490E+02 E0= -.69990496E+02  d E =-.246725E-03  mag=     0.0000
       N       E                     dE             d eps       ncg     rms          rms(c)
DAV:   1    -0.630716585447E+02   -0.10713E-03   -0.19673E-03  2480   0.267E-01    0.186E-02
DAV:   2    -0.630718194711E+02   -0.16093E-03   -0.39443E-04  1296   0.546E-01
 105 F= -.69998692E+02 E0= -.69990477E+02  d E =-.448922E-03  mag=     0.0000
       N       E                     dE             d eps       ncg     rms          rms(c)
DAV:   1    -0.630717338114E+02   -0.75267E-04   -0.65946E-03  2736   0.593E-01    0.358E-02
DAV:   2    -0.630742883308E+02   -0.25545E-02   -0.57613E-03  1424   0.197E+00    0.345E-01
DAV:   3    -0.630717788769E+02    0.25095E-02   -0.54745E-03  1344   0.176E+00    0.669E-02
DAV:   4    -0.630717148985E+02    0.63978E-04   -0.18972E-04  1216   0.484E-01
 106 F= -.69998534E+02 E0= -.69990609E+02  d E =-.290608E-03  mag=     0.0000
       N       E                     dE             d eps       ncg     rms          rms(c)
DAV:   1    -0.630716942907E+02    0.84586E-04   -0.16903E-03  2064   0.159E-01    0.120E-02
DAV:   2    -0.630717023838E+02   -0.80930E-05   -0.43669E-05  1136   0.181E-01
 107 F= -.69998550E+02 E0= -.69990669E+02  d E =-.306235E-03  mag=     0.0000
       N       E                     dE             d eps       ncg     rms          rms(c)
DAV:   1    -0.630716866515E+02    0.76392E-05   -0.26646E-04  1376   0.274E-01    0.361E-02
DAV:   2    -0.630756133517E+02   -0.39267E-02   -0.91304E-03  1712   0.241E+00    0.440E-01
DAV:   3    -0.630716243196E+02    0.39890E-02   -0.75991E-03  1328   0.209E+00    0.185E-02
DAV:   4    -0.630716897834E+02   -0.65464E-04   -0.17487E-04  1168   0.143E-01
 108 F= -.69998518E+02 E0= -.69990561E+02  d E =-.274851E-03  mag=     0.0000
       N       E                     dE             d eps       ncg     rms          rms(c)
DAV:   1    -0.630716961143E+02   -0.71795E-04   -0.15464E-04  1248   0.150E-01    0.151E-02
DAV:   2    -0.630721256354E+02   -0.42952E-03   -0.96176E-04  1280   0.790E-01    0.146E-01
DAV:   3    -0.630716832600E+02    0.44238E-03   -0.85700E-04  1200   0.742E-01    0.113E-02
DAV:   4    -0.630716969998E+02   -0.13740E-04   -0.12846E-05  1088   0.105E-01
 109 F= -.69998541E+02 E0= -.69990715E+02  d E =-.297888E-03  mag=     0.0000
       N       E                     dE             d eps       ncg     rms          rms(c)
DAV:   1    -0.630717088532E+02   -0.25593E-04   -0.25741E-05  1152   0.968E-02    0.695E-03
DAV:   2    -0.630717468898E+02   -0.38037E-04   -0.99126E-05  1240   0.259E-01
 110 F= -.69998583E+02 E0= -.69990806E+02  d E =-.339864E-03  mag=     0.0000
       N       E                     dE             d eps       ncg     rms          rms(c)
DAV:   1    -0.630717084466E+02    0.40667E-06   -0.10073E-04  1168   0.248E-01    0.122E-02
DAV:   2    -0.630719803814E+02   -0.27193E-03   -0.59184E-04  1264   0.642E-01    0.114E-01
DAV:   3    -0.630717111041E+02    0.26928E-03   -0.62049E-04  1200   0.605E-01    0.244E-02
DAV:   4    -0.630717072893E+02    0.38147E-05   -0.24187E-05  1072   0.169E-01
 111 F= -.69998546E+02 E0= -.69990668E+02  d E =-.302851E-03  mag=     0.0000
       N       E                     dE             d eps       ncg     rms          rms(c)
DAV:   1    -0.630717079685E+02    0.31356E-05   -0.26969E-06  1104   0.220E-02    0.196E-03
DAV:   2    -0.630717094136E+02   -0.14451E-05   -0.58059E-06   936   0.573E-02
 112 F= -.69998548E+02 E0= -.69990649E+02  d E =-.304698E-03  mag=     0.0000
       N       E                     dE             d eps       ncg     rms          rms(c)
DAV:   1    -0.630717094577E+02   -0.14892E-05   -0.67172E-06   928   0.588E-02    0.464E-03
DAV:   2    -0.630717471508E+02   -0.37693E-04   -0.76398E-05   928   0.237E-01
 113 F= -.69998585E+02 E0= -.69990704E+02  d E =-.341280E-03  mag=     0.0000
       N       E                     dE             d eps       ncg     rms          rms(c)
DAV:   1    -0.630717066394E+02    0.28183E-05   -0.79104E-05  1096   0.226E-01    0.429E-03
DAV:   2    -0.630717434418E+02   -0.36802E-04   -0.87816E-05  1144   0.228E-01
 114 F= -.69998582E+02 E0= -.69990654E+02  d E =-.338399E-03  mag=     0.0000
       N       E                     dE             d eps       ncg     rms          rms(c)
DAV:   1    -0.630717897425E+02   -0.83103E-04   -0.40912E-04  1256   0.228E-01    0.160E-02
DAV:   2    -0.630718391729E+02   -0.49430E-04   -0.31007E-04  1128   0.313E-01
 115 F= -.69998568E+02 E0= -.69990775E+02  d E =0.139582E-04  mag=     0.0000
       N       E                     dE             d eps       ncg     rms          rms(c)
DAV:   1    -0.630717742953E+02    0.15447E-04   -0.26155E-04  1344   0.360E-01    0.281E-02
DAV:   2    -0.630759028817E+02   -0.41286E-02   -0.93287E-03  1352   0.235E+00    0.443E-01
DAV:   3    -0.630716918881E+02    0.42110E-02   -0.73110E-03  1328   0.210E+00    0.194E-02
DAV:   4    -0.630717459153E+02   -0.54027E-04   -0.26236E-05  1184   0.139E-01
 116 F= -.69998548E+02 E0= -.69990719E+02  d E =0.333890E-04  mag=     0.0000
       N       E                     dE             d eps       ncg     rms          rms(c)
DAV:   1    -0.630717815162E+02   -0.89628E-04   -0.41965E-05  1176   0.128E-01    0.108E-02
DAV:   2    -0.630718124717E+02   -0.30955E-04   -0.80439E-05  1264   0.302E-01
 117 F= -.69998591E+02 E0= -.69990940E+02  d E =-.931717E-05  mag=     0.0000
