<?xml version="1.0" encoding="ISO-8859-1"?>
<modeling>
 <generator>
  <i name="program" type="string">vasp </i>
  <i name="version" type="string">6.3.2  </i>
  <i name="subversion" type="string">27Jun22 (build Aug 17 2022 15:43:34) complex                          parallel </i>
  <i name="platform" type="string">tv2STDVTST </i>
  <i name="date" type="string">2025 02 04 </i>
  <i name="time" type="string">13:12:02 </i>
 </generator>
 <incar>
  <i type="int" name="ISTART">     0</i>
  <i type="string" name="PREC">Normal</i>
  <i type="int" name="ISPIN">     2</i>
  <i type="int" name="ICHARG">     2</i>
  <i type="int" name="IBRION">     2</i>
  <i name="EDIFF">      0.00020000</i>
  <i name="EDIFFG">     -0.03000000</i>
  <i type="int" name="NSW">   800</i>
  <i type="int" name="ISIF">     2</i>
  <i type="int" name="ISYM">     1</i>
  <i name="ENCUT">    400.00000000</i>
  <i name="POTIM">      0.50000000</i>
  <i type="logical" name="LREAL"> F  </i>
  <i type="int" name="ISMEAR">     1</i>
  <i name="SIGMA">      0.20000000</i>
  <i type="logical" name="LWAVE"> F  </i>
  <i type="logical" name="LCHARG"> F  </i>
  <i type="string" name="GGA">PE</i>
  <i type="int" name="IVDW">    11</i>
 </incar>
 <primitive_cell>
  <structure name="primitive_cell" >
   <crystal>
    <varray name="basis" >
     <v>       3.63000011       0.00000000       0.00000000 </v>
     <v>       0.00000000       3.63000011       0.00000000 </v>
     <v>       0.00000000       0.00000000      27.70499992 </v>
    </varray>
    <i name="volume">    365.06603650 </i>
    <varray name="rec_basis" >
     <v>       0.27548208       0.00000000       0.00000000 </v>
     <v>       0.00000000       0.27548208       0.00000000 </v>
     <v>       0.00000000       0.00000000       0.03609457 </v>
    </varray>
   </crystal>
   <varray name="positions" >
    <v>       0.00000000       0.00000000       0.00000000 </v>
    <v>       0.50000000       0.50000000       0.00000000 </v>
    <v>       0.00000000       0.50000000       0.06551164 </v>
    <v>       0.50000000       0.00000000       0.06551164 </v>
    <v>       0.00000000       0.00000000       0.12876120 </v>
    <v>       0.50000000       0.50000000       0.12876120 </v>
    <v>       0.00000000       0.50000000       0.19193187 </v>
    <v>       0.50000000       0.00000000       0.19193187 </v>
    <v>       0.00000000       0.00000000       0.25406550 </v>
    <v>       0.50000000       0.50000000       0.25406550 </v>
    <v>       0.00000000       0.50000000       0.31747855 </v>
    <v>       0.50000000       0.00000000       0.31747855 </v>
    <v>       0.00000000       0.00000000       0.38132233 </v>
    <v>       0.50000000       0.50000000       0.38132233 </v>
    <v>       0.00000000       0.50000000       0.44440075 </v>
    <v>       0.50000000       0.00000000       0.44440075 </v>
    <v>       1.00000000       0.50000000       0.50150658 </v>
    <v>       1.00000000       0.70550964       0.50150658 </v>
   </varray>
  </structure>
  <varray name="primitive_index" >
   <v type="int" >        1 </v>
   <v type="int" >        2 </v>
   <v type="int" >        3 </v>
   <v type="int" >        4 </v>
   <v type="int" >        5 </v>
   <v type="int" >        6 </v>
   <v type="int" >        7 </v>
   <v type="int" >        8 </v>
   <v type="int" >        9 </v>
   <v type="int" >       10 </v>
   <v type="int" >       11 </v>
   <v type="int" >       12 </v>
   <v type="int" >       13 </v>
   <v type="int" >       14 </v>
   <v type="int" >       15 </v>
   <v type="int" >       16 </v>
   <v type="int" >       17 </v>
   <v type="int" >       18 </v>
  </varray>
 </primitive_cell>
 <kpoints>
  <generation param="Monkhorst-Pack">
   <v type="int" name="divisions">       3        3        1 </v>
   <v name="usershift">      0.00000000       0.00000000       0.00000000 </v>
   <v name="genvec1">      0.33333333       0.00000000       0.00000000 </v>
   <v name="genvec2">      0.00000000       0.33333333       0.00000000 </v>
   <v name="genvec3">      0.00000000       0.00000000       1.00000000 </v>
   <v name="shift">      0.00000000       0.00000000       0.00000000 </v>
  </generation>
  <varray name="kpointlist" >
   <v>       0.00000000       0.00000000       0.00000000 </v>
   <v>       0.33333333       0.00000000       0.00000000 </v>
   <v>       0.00000000       0.33333333       0.00000000 </v>
   <v>       0.33333333       0.33333333       0.00000000 </v>
  </varray>
  <varray name="weights" >
   <v>       0.11111111 </v>
   <v>       0.22222222 </v>
   <v>       0.22222222 </v>
   <v>       0.44444444 </v>
  </varray>
 </kpoints>
 <parameters>
  <separator name="general" >
   <i type="string" name="SYSTEM">unknown system</i>
   <i type="logical" name="LCOMPAT"> F  </i>
  </separator>
  <separator name="electronic" >
   <i type="string" name="PREC">normal</i>
   <i name="ENMAX">    400.00000000</i>
   <i name="ENAUG">    586.98000000</i>
   <i name="EDIFF">      0.00020000</i>
   <i type="int" name="IALGO">    38</i>
   <i type="int" name="IWAVPR">    11</i>
   <i type="int" name="NBANDS">   116</i>
   <i type="int" name="NBANDSLOW">    -1</i>
   <i type="int" name="NBANDSHIGH">    -1</i>
   <i name="NELECT">    178.00000000</i>
   <i type="int" name="TURBO">     0</i>
   <i type="int" name="IRESTART">     0</i>
   <i type="int" name="NREBOOT">     0</i>
   <i type="int" name="NMIN">     0</i>
   <i name="EREF">      0.00000000</i>
   <separator name="electronic smearing" >
    <i type="int" name="ISMEAR">     1</i>
    <i name="SIGMA">      0.20000000</i>
    <i name="KSPACING">      0.50000000</i>
    <i type="logical" name="KGAMMA"> T  </i>
    <i type="logical" name="KBLOWUP"> T  </i>
   </separator>
   <separator name="electronic projectors" >
    <i type="logical" name="LREAL"> F  </i>
    <v name="ROPT">      0.00000000      0.00000000</v>
    <i type="int" name="LMAXPAW">  -100</i>
    <i type="int" name="LMAXMIX">     2</i>
    <i type="logical" name="NLSPLINE"> F  </i>
   </separator>
   <separator name="electronic startup" >
    <i type="int" name="ISTART">     0</i>
    <i type="int" name="ICHARG">     2</i>
    <i type="int" name="INIWAV">     1</i>
   </separator>
   <separator name="electronic spin" >
    <i type="int" name="ISPIN">     2</i>
    <i type="logical" name="LNONCOLLINEAR"> F  </i>
    <v name="MAGMOM">      1.00000000      1.00000000      1.00000000      1.00000000      1.00000000      1.00000000      1.00000000      1.00000000      1.00000000      1.00000000      1.00000000      1.00000000      1.00000000      1.00000000      1.00000000      1.00000000      1.00000000      1.00000000</v>
    <i name="NUPDOWN">     -1.00000000</i>
    <i type="logical" name="LSORBIT"> F  </i>
    <v name="SAXIS">      0.00000000      0.00000000      1.00000000</v>
    <i type="logical" name="LSPIRAL"> F  </i>
    <v name="QSPIRAL">      0.00000000      0.00000000      0.00000000</v>
    <i type="logical" name="LZEROZ"> F  </i>
   </separator>
   <separator name="electronic exchange-correlation" >
    <i type="logical" name="LASPH"> F  </i>
    <i type="logical" name="LMETAGGA"> F  </i>
   </separator>
   <separator name="electronic convergence" >
    <i type="int" name="NELM">    60</i>
    <i type="int" name="NELMDL">    -5</i>
    <i type="int" name="NELMIN">     2</i>
    <i name="ENINI">    400.00000000</i>
    <separator name="electronic convergence detail" >
     <i type="logical" name="LDIAG"> T  </i>
     <i type="logical" name="LSUBROT"> F  </i>
     <i name="WEIMIN">      0.00100000</i>
     <i name="EBREAK">      0.00000043</i>
     <i name="DEPER">      0.30000000</i>
     <i type="int" name="NRMM">     4</i>
     <i name="TIME">      0.40000000</i>
    </separator>
   </separator>
   <separator name="electronic mixer" >
    <i name="AMIX">      0.40000000</i>
    <i name="BMIX">      1.00000000</i>
    <i name="AMIN">      0.10000000</i>
    <i name="AMIX_MAG">      1.60000000</i>
    <i name="BMIX_MAG">      1.00000000</i>
    <separator name="electronic mixer details" >
     <i type="int" name="IMIX">     4</i>
     <i type="logical" name="MIXFIRST"> F  </i>
     <i type="int" name="MAXMIX">   -45</i>
     <i name="WC">    100.00000000</i>
     <i type="int" name="INIMIX">     1</i>
     <i type="int" name="MIXPRE">     1</i>
     <i type="int" name="MREMOVE">     5</i>
    </separator>
   </separator>
   <separator name="electronic dipolcorrection" >
    <i type="logical" name="LDIPOL"> F  </i>
    <i type="logical" name="LMONO"> F  </i>
    <i type="int" name="IDIPOL">     0</i>
    <i name="EPSILON">      1.00000000</i>
    <v name="DIPOL">   -100.00000000   -100.00000000   -100.00000000</v>
    <i name="EFIELD">      0.00000000</i>
   </separator>
  </separator>
  <separator name="grids" >
   <i type="int" name="NGX">    18</i>
   <i type="int" name="NGY">    18</i>
   <i type="int" name="NGZ">   140</i>
   <i type="int" name="NGXF">    36</i>
   <i type="int" name="NGYF">    36</i>
   <i type="int" name="NGZF">   280</i>
   <i type="logical" name="ADDGRID"> F  </i>
  </separator>
  <separator name="ionic" >
   <i type="int" name="NSW">   800</i>
   <i type="int" name="IBRION">     2</i>
   <i type="int" name="MDALGO">     0</i>
   <i type="int" name="ISIF">     2</i>
   <i name="PSTRESS">      0.00000000</i>
   <i name="EDIFFG">     -0.03000000</i>
   <i type="int" name="NFREE">     1</i>
   <i name="POTIM">      0.50000000</i>
   <i name="SMASS">     -3.00000000</i>
   <i name="SCALEE">      1.00000000</i>
  </separator>
  <separator name="ionic md" >
   <i name="TEBEG">      0.00010000</i>
   <i name="TEEND">      0.00010000</i>
   <i type="int" name="NBLOCK">     1</i>
   <i type="int" name="KBLOCK">   800</i>
   <i type="int" name="NPACO">   256</i>
   <i name="APACO">     10.00000000</i>
  </separator>
  <separator name="symmetry" >
   <i type="int" name="ISYM">     1</i>
   <i name="SYMPREC">      0.00001000</i>
  </separator>
  <separator name="dos" >
   <i type="int" name="LORBIT">     0</i>
   <v name="RWIGS">     -1.00000000     -1.00000000</v>
   <i type="int" name="NEDOS">   301</i>
   <i name="EMIN">     10.00000000</i>
   <i name="EMAX">    -10.00000000</i>
   <i name="EFERMI">      0.00000000</i>
  </separator>
  <separator name="writing" >
   <i type="int" name="NWRITE">     2</i>
   <i type="logical" name="LWAVE"> F  </i>
   <i type="logical" name="LDOWNSAMPLE"> F  </i>
   <i type="logical" name="LCHARG"> F  </i>
   <i type="logical" name="LPARD"> F  </i>
   <i type="logical" name="LVTOT"> F  </i>
   <i type="logical" name="LVHAR"> F  </i>
   <i type="logical" name="LELF"> F  </i>
   <i type="logical" name="LOPTICS"> F  </i>
   <v name="STM">      0.00000000      0.00000000      0.00000000      0.00000000      0.00000000      0.00000000      0.00000000</v>
  </separator>
  <separator name="performance" >
   <i type="int" name="NPAR">     4</i>
   <i type="int" name="NSIM">     4</i>
   <i type="int" name="NBLK">    -1</i>
   <i type="logical" name="LPLANE"> T  </i>
   <i type="logical" name="LSCALAPACK"> T  </i>
   <i type="logical" name="LSCAAWARE"> F  </i>
   <i type="logical" name="LSCALU"> F  </i>
   <i type="logical" name="LASYNC"> F  </i>
   <i type="logical" name="LORBITALREAL"> F  </i>
  </separator>
  <separator name="miscellaneous" >
   <i type="int" name="IDIOT">     3</i>
   <i type="int" name="PHON_NSTRUCT">    -1</i>
   <i type="logical" name="LMUSIC"> F  </i>
   <v name="POMASS">     63.54600000      1.00000000</v>
   <v name="DARWINR">      0.00000000      0.00000000</v>
   <v name="DARWINV">      1.00000000      1.00000000</v>
   <i type="logical" name="LCORR"> T  </i>
  </separator>
  <i type="logical" name="GGA_COMPAT"> T  </i>
  <i type="logical" name="LBERRY"> F  </i>
  <i type="int" name="ICORELEVEL">     0</i>
  <i type="logical" name="LDAU"> F  </i>
  <i type="int" name="I_CONSTRAINED_M">     0</i>
  <separator name="electronic exchange-correlation" >
   <i type="string" name="GGA">PE</i>
   <i type="int" name="VOSKOWN">     0</i>
   <i type="logical" name="LHFCALC"> F  </i>
   <i type="string" name="PRECFOCK"></i>
   <i type="logical" name="LSYMGRAD"> F  </i>
   <i type="logical" name="LHFONE"> F  </i>
   <i type="logical" name="LRHFCALC"> F  </i>
   <i type="logical" name="LTHOMAS"> F  </i>
   <i type="logical" name="LMODELHF"> F  </i>
   <i type="logical" name="LFOCKACE"> F  </i>
   <i name="ENCUT4O">     -1.00000000</i>
   <i type="int" name="EXXOEP">     0</i>
   <i type="int" name="FOURORBIT">     0</i>
   <i name="AEXX">      0.00000000</i>
   <i name="HFALPHA">      0.00000000</i>
   <i name="MCALPHA">      0.00000000</i>
   <i name="ALDAX">      1.00000000</i>
   <i name="AGGAX">      1.00000000</i>
   <i name="ALDAC">      1.00000000</i>
   <i name="AGGAC">      1.00000000</i>
   <i type="int" name="NKREDX">     1</i>
   <i type="int" name="NKREDY">     1</i>
   <i type="int" name="NKREDZ">     1</i>
   <i type="logical" name="SHIFTRED"> F  </i>
   <i type="logical" name="ODDONLY"> F  </i>
   <i type="logical" name="EVENONLY"> F  </i>
   <i type="int" name="LMAXFOCK">     0</i>
   <i type="int" name="NMAXFOCKAE">     0</i>
   <i type="logical" name="LFOCKAEDFT"> F  </i>
   <i name="HFSCREEN">      0.00000000</i>
   <i name="HFSCREENC">      0.00000000</i>
   <i type="int" name="NBANDSGWLOW">     0</i>
  </separator>
  <separator name="vdW DFT" >
   <i type="logical" name="LUSE_VDW"> F  </i>
   <i name="Zab_VDW">     -0.84910000</i>
   <i name="PARAM1">      0.12340000</i>
   <i name="PARAM2">      1.00000000</i>
   <i name="PARAM3">      0.00000000</i>
  </separator>
  <separator name="model GW" >
   <i type="int" name="MODEL_GW">     0</i>
   <i name="MODEL_EPS0">     12.16886788</i>
   <i name="MODEL_ALPHA">      1.00000000</i>
  </separator>
  <separator name="linear response parameters" >
   <i type="logical" name="LEPSILON"> F  </i>
   <i type="logical" name="LRPA"> F  </i>
   <i type="logical" name="LNABLA"> F  </i>
   <i type="logical" name="LVEL"> F  </i>
   <i name="CSHIFT">      0.10000000</i>
   <i name="OMEGAMAX">     -1.00000000</i>
   <i name="DEG_THRESHOLD">      0.00200000</i>
   <i name="RTIME">     -0.10000000</i>
   <i name="WPLASMAI">      0.00000000</i>
   <v name="DFIELD">      0.00000000      0.00000000      0.00000000</v>
   <v name="WPLASMA">      0.00000000      0.00000000      0.00000000      0.00000000      0.00000000      0.00000000      0.00000000      0.00000000      0.00000000</v>
  </separator>
  <separator name="orbital magnetization" >
   <i type="logical" name="NUCIND"> F  </i>
   <v name="MAGPOS">      0.00000000      0.00000000      0.00000000</v>
   <i type="logical" name="LNICSALL"> T  </i>
   <i type="logical" name="ORBITALMAG"> F  </i>
   <i type="logical" name="LMAGBLOCH"> F  </i>
   <i type="logical" name="LCHIMAG"> F  </i>
   <i type="logical" name="LGAUGE"> T  </i>
   <i type="int" name="MAGATOM">     0</i>
   <v name="MAGDIPOL">      0.00000000      0.00000000      0.00000000</v>
   <v name="AVECCONST">      0.00000000      0.00000000      0.00000000</v>
  </separator>
  <separator name="response functions" >
   <i type="logical" name="LFINITE_TEMPERATURE"> F  </i>
   <i type="logical" name="LADDER"> F  </i>
   <i type="logical" name="LRPAFORCE"> F  </i>
   <i type="logical" name="LFXC"> F  </i>
   <i type="logical" name="LHARTREE"> T  </i>
   <i type="int" name="IBSE">     0</i>
   <v type="int" name="KPOINT">    -1     0     0     0</v>
   <i type="logical" name="LTCTC"> F  </i>
   <i type="logical" name="LTCTE"> F  </i>
   <i type="logical" name="LTETE"> F  </i>
   <i type="logical" name="LTRIPLET"> F  </i>
   <i type="logical" name="LFXCEPS"> F  </i>
   <i type="logical" name="LFXHEG"> F  </i>
   <i type="int" name="NATURALO">     2</i>
   <i type="logical" name="LHOLEGF"> F  </i>
   <i type="logical" name="L2ORDER"> F  </i>
   <i type="logical" name="LDMP1"> F  </i>
   <i type="logical" name="LMP2LT"> F  </i>
   <i type="logical" name="LSMP2LT"> F  </i>
   <i type="logical" name="LGWLF"> F  </i>
   <i name="ENCUTGW">     -2.00000000</i>
   <i name="ENCUTGWSOFT">     -2.00000000</i>
   <i name="ENCUTLF">     -1.00000000</i>
   <i type="logical" name="LESF_SPLINES"> F  </i>
   <i type="int" name="LMAXMP2">    -1</i>
   <i name="SCISSOR">      0.00000000</i>
   <i type="int" name="NOMEGA">     0</i>
   <i type="int" name="NOMEGAR">     0</i>
   <i type="int" name="NBANDSGW">    -1</i>
   <i type="int" name="NBANDSO">    -1</i>
   <i type="int" name="NBANDSV">    -1</i>
   <i type="int" name="NELMGW">     1</i>
   <i type="int" name="NELMHF">     1</i>
   <i type="int" name="DIM">     3</i>
   <i type="int" name="IESPILON">     4</i>
   <i type="int" name="ANTIRES">     0</i>
   <i name="OMEGAMAX">    -30.00000000</i>
   <i name="OMEGAMIN">    -30.00000000</i>
   <i name="OMEGATL">   -200.00000000</i>
   <i type="int" name="OMEGAGRID">     0</i>
   <i name="CSHIFT">     -0.10000000</i>
   <i type="logical" name="LSELFENERGY"> F  </i>
   <i type="logical" name="LSPECTRAL"> F  </i>
   <i type="logical" name="LSPECTRALGW"> F  </i>
   <i type="logical" name="LSINGLES"> F  </i>
   <i type="logical" name="LFERMIGW"> F  </i>
   <i type="logical" name="ODDONLYGW"> F  </i>
   <i type="logical" name="EVENONLYGW"> F  </i>
   <i type="int" name="NKREDLFX">     1</i>
   <i type="int" name="NKREDLFY">     1</i>
   <i type="int" name="NKREDLFZ">     1</i>
   <i type="int" name="MAXMEM">  2800</i>
   <i type="int" name="TELESCOPE">     0</i>
   <i type="int" name="NTAUPAR">    -1</i>
   <i type="int" name="NOMEGAPAR">    -1</i>
   <i name="DAMP_NEWTON">      0.80000001</i>
   <i name="LAMBDA">      1.00000000</i>
  </separator>
  <separator name="External order field" >
   <i name="OFIELD_KAPPA">      0.00000000</i>
   <v name="OFIELD_K">      0.00000000      0.00000000      0.00000000</v>
   <i name="OFIELD_Q6_NEAR">      0.00000000</i>
   <i name="OFIELD_Q6_FAR">      0.00000000</i>
   <i name="OFIELD_A">      0.00000000</i>
  </separator>
  <separator name="optional k-points parameters" >
   <i type="int" name="KPOINTS_OPT_MODE">     1</i>
   <i type="logical" name="LKPOINTS_OPT"> F  </i>
  </separator>
 </parameters>
 <atominfo>
  <atoms>      18 </atoms>
  <types>       2 </types>
  <array name="atoms" >
   <dimension dim="1">ion</dimension>
   <field type="string">element</field>
   <field type="int">atomtype</field>
   <set>
    <rc><c>Cu</c><c>   1</c></rc>
    <rc><c>Cu</c><c>   1</c></rc>
    <rc><c>Cu</c><c>   1</c></rc>
    <rc><c>Cu</c><c>   1</c></rc>
    <rc><c>Cu</c><c>   1</c></rc>
    <rc><c>Cu</c><c>   1</c></rc>
    <rc><c>Cu</c><c>   1</c></rc>
    <rc><c>Cu</c><c>   1</c></rc>
    <rc><c>Cu</c><c>   1</c></rc>
    <rc><c>Cu</c><c>   1</c></rc>
    <rc><c>Cu</c><c>   1</c></rc>
    <rc><c>Cu</c><c>   1</c></rc>
    <rc><c>Cu</c><c>   1</c></rc>
    <rc><c>Cu</c><c>   1</c></rc>
    <rc><c>Cu</c><c>   1</c></rc>
    <rc><c>Cu</c><c>   1</c></rc>
    <rc><c>H </c><c>   2</c></rc>
    <rc><c>H </c><c>   2</c></rc>
   </set>
  </array>
  <array name="atomtypes" >
   <dimension dim="1">type</dimension>
   <field type="int">atomspertype</field>
   <field type="string">element</field>
   <field>mass</field>
   <field>valence</field>
   <field type="string">pseudopotential</field>
   <set>
    <rc><c>  16</c><c>Cu</c><c>     63.54600000</c><c>     11.00000000</c><c>  PAW_PBE Cu 22Jun2005                  </c></rc>
    <rc><c>   2</c><c>H </c><c>      1.00000000</c><c>      1.00000000</c><c>  PAW_PBE H 15Jun2001                   </c></rc>
   </set>
  </array>
 </atominfo>
 <structure name="initialpos" >
  <crystal>
   <varray name="basis" >
    <v>       3.63000011       0.00000000       0.00000000 </v>
    <v>       0.00000000       3.63000011       0.00000000 </v>
    <v>       0.00000000       0.00000000      27.70499992 </v>
   </varray>
   <i name="volume">    365.06603650 </i>
   <varray name="rec_basis" >
    <v>       0.27548208       0.00000000       0.00000000 </v>
    <v>       0.00000000       0.27548208       0.00000000 </v>
    <v>       0.00000000       0.00000000       0.03609457 </v>
   </varray>
  </crystal>
  <varray name="positions" >
   <v>       0.00000000       0.00000000       0.00000000 </v>
   <v>       0.50000000       0.50000000       0.00000000 </v>
   <v>       0.00000000       0.50000000       0.06551164 </v>
   <v>       0.50000000       0.00000000       0.06551164 </v>
   <v>       0.00000000       0.00000000       0.12876120 </v>
   <v>       0.50000000       0.50000000       0.12876120 </v>
   <v>       0.00000000       0.50000000       0.19193187 </v>
   <v>       0.50000000       0.00000000       0.19193187 </v>
   <v>       0.00000000       0.00000000       0.25406550 </v>
   <v>       0.50000000       0.50000000       0.25406550 </v>
   <v>       0.00000000       0.50000000       0.31747855 </v>
   <v>       0.50000000       0.00000000       0.31747855 </v>
   <v>       0.00000000       0.00000000       0.38132233 </v>
   <v>       0.50000000       0.50000000       0.38132233 </v>
   <v>       0.00000000       0.50000000       0.44440075 </v>
   <v>       0.50000000       0.00000000       0.44440075 </v>
   <v>       1.00000000       0.50000000       0.50150658 </v>
   <v>       1.00000000       0.70550964       0.50150658 </v>
  </varray>
 </structure>
 <calculation>
  <scstep>
   <time name="dav">    1.14    1.15</time>
   <time name="total">    1.18    1.19</time>
   <energy>
    <i name="alphaZ">    521.04204123 </i>
    <i name="ewald"> 102948.85282081 </i>
    <i name="hartreedc">-124853.16393866 </i>
    <i name="XCdc">    738.82553899 </i>
    <i name="pawpsdc">  19653.14859652 </i>
    <i name="pawaedc"> -21346.34030725 </i>
    <i name="eentropy">     -0.01774785 </i>
    <i name="bandstr">   1729.83600357 </i>
    <i name="atom">  22280.27950853 </i>
    <i name="e_fr_energy">   1672.46251590 </i>
    <i name="e_wo_entrp">   1672.48026375 </i>
    <i name="e_0_energy">   1672.46843185 </i>
   </energy>
  </scstep>
  <scstep>
   <time name="dav">    1.13    1.14</time>
   <time name="total">    1.13    1.14</time>
   <energy>
    <i name="e_fr_energy">    199.53986822 </i>
    <i name="e_wo_entrp">    199.54708116 </i>
    <i name="e_0_energy">    199.54227253 </i>
   </energy>
  </scstep>
  <scstep>
   <time name="dav">    1.13    1.14</time>
   <time name="total">    1.13    1.14</time>
   <energy>
    <i name="e_fr_energy">    -53.85543335 </i>
    <i name="e_wo_entrp">    -53.86839117 </i>
    <i name="e_0_energy">    -53.85975262 </i>
   </energy>
  </scstep>
  <scstep>
   <time name="dav">    1.24    1.25</time>
   <time name="total">    1.24    1.25</time>
   <energy>
    <i name="e_fr_energy">    -69.67249851 </i>
    <i name="e_wo_entrp">    -69.66641039 </i>
    <i name="e_0_energy">    -69.67046914 </i>
   </energy>
  </scstep>
  <scstep>
   <time name="dav">    1.24    1.25</time>
   <time name="total">    1.35    1.36</time>
   <energy>
    <i name="e_fr_energy">    -70.02872251 </i>
    <i name="e_wo_entrp">    -70.02235856 </i>
    <i name="e_0_energy">    -70.02660119 </i>
   </energy>
  </scstep>
  <scstep>
   <time name="dav">    1.22    1.23</time>
   <time name="total">    1.35    1.37</time>
   <energy>
    <i name="e_fr_energy">    -57.38450588 </i>
    <i name="e_wo_entrp">    -57.36739305 </i>
    <i name="e_0_energy">    -57.37880160 </i>
   </energy>
  </scstep>
  <scstep>
   <time name="dav">    1.24    1.25</time>
   <time name="total">    1.37    1.38</time>
   <energy>
    <i name="e_fr_energy">    -52.22131416 </i>
    <i name="e_wo_entrp">    -52.19722469 </i>
    <i name="e_0_energy">    -52.21328433 </i>
   </energy>
  </scstep>
  <scstep>
   <time name="dav">    1.41    1.42</time>
   <time name="total">    1.55    1.56</time>
   <energy>
    <i name="e_fr_energy">    -54.91275806 </i>
    <i name="e_wo_entrp">    -54.94308458 </i>
    <i name="e_0_energy">    -54.92286690 </i>
   </energy>
  </scstep>
  <scstep>
   <time name="dav">    1.45    1.46</time>
   <time name="total">    1.58    1.59</time>
   <energy>
    <i name="e_fr_energy">    -50.66599816 </i>
    <i name="e_wo_entrp">    -50.65838519 </i>
    <i name="e_0_energy">    -50.66346050 </i>
   </energy>
  </scstep>
  <scstep>
   <time name="dav">    1.71    1.72</time>
   <time name="total">    1.84    1.86</time>
   <energy>
    <i name="e_fr_energy">    -51.05311445 </i>
    <i name="e_wo_entrp">    -51.04543890 </i>
    <i name="e_0_energy">    -51.05055593 </i>
   </energy>
  </scstep>
  <scstep>
   <time name="dav">    1.39    1.40</time>
   <time name="total">    1.52    1.53</time>
   <energy>
    <i name="e_fr_energy">    -51.71377873 </i>
    <i name="e_wo_entrp">    -51.70571670 </i>
    <i name="e_0_energy">    -51.71109139 </i>
   </energy>
  </scstep>
  <scstep>
   <time name="dav">    1.28    1.29</time>
   <time name="total">    1.41    1.42</time>
   <energy>
    <i name="e_fr_energy">    -52.92883499 </i>
    <i name="e_wo_entrp">    -52.89789379 </i>
    <i name="e_0_energy">    -52.91852125 </i>
   </energy>
  </scstep>
  <scstep>
   <time name="dav">    1.46    1.47</time>
   <time name="total">    1.59    1.60</time>
   <energy>
    <i name="e_fr_energy">    -54.16241358 </i>
    <i name="e_wo_entrp">    -54.14274443 </i>
    <i name="e_0_energy">    -54.15585720 </i>
   </energy>
  </scstep>
  <scstep>
   <time name="dav">    1.30    1.31</time>
   <time name="total">    1.43    1.44</time>
   <energy>
    <i name="e_fr_energy">    -55.13545286 </i>
    <i name="e_wo_entrp">    -55.13383693 </i>
    <i name="e_0_energy">    -55.13491422 </i>
   </energy>
  </scstep>
  <scstep>
   <time name="dav">    1.30    1.31</time>
   <time name="total">    1.43    1.44</time>
   <energy>
    <i name="e_fr_energy">    -58.72136936 </i>
    <i name="e_wo_entrp">    -58.72368391 </i>
    <i name="e_0_energy">    -58.72214088 </i>
   </energy>
  </scstep>
  <scstep>
   <time name="dav">    1.44    1.45</time>
   <time name="total">    1.57    1.58</time>
   <energy>
    <i name="e_fr_energy">    -59.88927034 </i>
    <i name="e_wo_entrp">    -59.89009842 </i>
    <i name="e_0_energy">    -59.88954636 </i>
   </energy>
  </scstep>
  <scstep>
   <time name="dav">    1.41    1.42</time>
   <time name="total">    1.55    1.56</time>
   <energy>
    <i name="e_fr_energy">    -60.13853180 </i>
    <i name="e_wo_entrp">    -60.12973244 </i>
    <i name="e_0_energy">    -60.13559868 </i>
   </energy>
  </scstep>
  <scstep>
   <time name="dav">    1.36    1.37</time>
   <time name="total">    1.49    1.50</time>
   <energy>
    <i name="e_fr_energy">    -60.56617916 </i>
    <i name="e_wo_entrp">    -60.55107906 </i>
    <i name="e_0_energy">    -60.56114579 </i>
   </energy>
  </scstep>
  <scstep>
   <time name="dav">    1.35    1.36</time>
   <time name="total">    1.48    1.49</time>
   <energy>
    <i name="e_fr_energy">    -60.86021658 </i>
    <i name="e_wo_entrp">    -60.83817089 </i>
    <i name="e_0_energy">    -60.85286801 </i>
   </energy>
  </scstep>
  <scstep>
   <time name="dav">    1.33    1.34</time>
   <time name="total">    1.46    1.47</time>
   <energy>
    <i name="e_fr_energy">    -61.15852000 </i>
    <i name="e_wo_entrp">    -61.12572040 </i>
    <i name="e_0_energy">    -61.14758680 </i>
   </energy>
  </scstep>
  <scstep>
   <time name="dav">    1.38    1.39</time>
   <time name="total">    1.51    1.53</time>
   <energy>
    <i name="e_fr_energy">    -61.40449202 </i>
    <i name="e_wo_entrp">    -61.36732293 </i>
    <i name="e_0_energy">    -61.39210232 </i>
   </energy>
  </scstep>
  <scstep>
   <time name="dav">    1.41    1.42</time>
   <time name="total">    1.55    1.56</time>
   <energy>
    <i name="e_fr_energy">    -61.65487235 </i>
    <i name="e_wo_entrp">    -61.61391100 </i>
    <i name="e_0_energy">    -61.64121857 </i>
   </energy>
  </scstep>
  <scstep>
   <time name="dav">    1.42    1.43</time>
   <time name="total">    1.55    1.56</time>
   <energy>
    <i name="e_fr_energy">    -61.99411740 </i>
    <i name="e_wo_entrp">    -61.95508662 </i>
    <i name="e_0_energy">    -61.98110714 </i>
   </energy>
  </scstep>
  <scstep>
   <time name="dav">    1.38    1.39</time>
   <time name="total">    1.51    1.52</time>
   <energy>
    <i name="e_fr_energy">    -62.21919595 </i>
    <i name="e_wo_entrp">    -62.18004088 </i>
    <i name="e_0_energy">    -62.20614426 </i>
   </energy>
  </scstep>
  <scstep>
   <time name="dav">    1.36    1.38</time>
   <time name="total">    1.50    1.51</time>
   <energy>
    <i name="e_fr_energy">    -62.40981688 </i>
    <i name="e_wo_entrp">    -62.36928820 </i>
    <i name="e_0_energy">    -62.39630732 </i>
   </energy>
  </scstep>
  <scstep>
   <time name="dav">    1.27    1.28</time>
   <time name="total">    1.40    1.41</time>
   <energy>
    <i name="e_fr_energy">    -62.56629800 </i>
    <i name="e_wo_entrp">    -62.52562804 </i>
    <i name="e_0_energy">    -62.55274135 </i>
   </energy>
  </scstep>
  <scstep>
   <time name="dav">    1.17    1.18</time>
   <time name="total">    1.30    1.31</time>
   <energy>
    <i name="e_fr_energy">    -62.62130813 </i>
    <i name="e_wo_entrp">    -62.57998588 </i>
    <i name="e_0_energy">    -62.60753404 </i>
   </energy>
  </scstep>
  <scstep>
   <time name="dav">    1.19    1.20</time>
   <time name="total">    1.33    1.34</time>
   <energy>
    <i name="e_fr_energy">    -62.65848897 </i>
    <i name="e_wo_entrp">    -62.61690790 </i>
    <i name="e_0_energy">    -62.64462862 </i>
   </energy>
  </scstep>
  <scstep>
   <time name="dav">    1.20    1.21</time>
   <time name="total">    1.34    1.35</time>
   <energy>
    <i name="e_fr_energy">    -62.67938501 </i>
    <i name="e_wo_entrp">    -62.63869053 </i>
    <i name="e_0_energy">    -62.66582018 </i>
   </energy>
  </scstep>
  <scstep>
   <time name="dav">    0.90    0.91</time>
   <time name="total">    1.04    1.05</time>
   <energy>
    <i name="e_fr_energy">    -62.68192600 </i>
    <i name="e_wo_entrp">    -62.64093874 </i>
    <i name="e_0_energy">    -62.66826358 </i>
   </energy>
  </scstep>
  <scstep>
   <time name="dav">    0.87    0.88</time>
   <time name="total">    1.01    1.02</time>
   <energy>
    <i name="e_fr_energy">    -62.68288204 </i>
    <i name="e_wo_entrp">    -62.64183627 </i>
    <i name="e_0_energy">    -62.66920011 </i>
   </energy>
  </scstep>
  <scstep>
   <time name="dav">    0.88    0.88</time>
   <time name="total">    1.01    1.02</time>
   <energy>
    <i name="e_fr_energy">    -62.68339484 </i>
    <i name="e_wo_entrp">    -62.64245618 </i>
    <i name="e_0_energy">    -62.66974862 </i>
   </energy>
  </scstep>
  <scstep>
   <time name="dav">    0.87    0.88</time>
   <time name="total">    0.90    0.91</time>
   <energy>
    <i name="alphaZ">    521.04204123 </i>
    <i name="ewald"> 102948.85282081 </i>
    <i name="hartreedc">-124647.38646177 </i>
    <i name="XCdc">    719.72920427 </i>
    <i name="pawpsdc">  21111.21408598 </i>
    <i name="pawaedc"> -22838.04897157 </i>
    <i name="eentropy">     -0.04098798 </i>
    <i name="bandstr">   -158.32446131 </i>
    <i name="atom">  22280.27950853 </i>
    <i name="e_fr_energy">    -62.68322181 </i>
    <i name="e_wo_entrp">    -62.64223383 </i>
    <i name="e_0_energy">    -62.66955915 </i>
   </energy>
  </scstep>
  <structure>
   <crystal>
    <varray name="basis" >
     <v>       3.63000011       0.00000000       0.00000000 </v>
     <v>       0.00000000       3.63000011       0.00000000 </v>
     <v>       0.00000000       0.00000000      27.70499992 </v>
    </varray>
    <i name="volume">    365.06603650 </i>
    <varray name="rec_basis" >
     <v>       0.27548208       0.00000000       0.00000000 </v>
     <v>       0.00000000       0.27548208       0.00000000 </v>
     <v>       0.00000000       0.00000000       0.03609457 </v>
    </varray>
   </crystal>
   <varray name="positions" >
    <v>       0.00000000       0.00000000       0.00000000 </v>
    <v>       0.50000000       0.50000000       0.00000000 </v>
    <v>       0.00000000       0.50000000       0.06551164 </v>
    <v>       0.50000000       0.00000000       0.06551164 </v>
    <v>       0.00000000       0.00000000       0.12876120 </v>
    <v>       0.50000000       0.50000000       0.12876120 </v>
    <v>       0.00000000       0.50000000       0.19193187 </v>
    <v>       0.50000000       0.00000000       0.19193187 </v>
    <v>       0.00000000       0.00000000       0.25406550 </v>
    <v>       0.50000000       0.50000000       0.25406550 </v>
    <v>       0.00000000       0.50000000       0.31747855 </v>
    <v>       0.50000000       0.00000000       0.31747855 </v>
    <v>       0.00000000       0.00000000       0.38132233 </v>
    <v>       0.50000000       0.50000000       0.38132233 </v>
    <v>       0.00000000       0.50000000       0.44440075 </v>
    <v>       0.50000000       0.00000000       0.44440075 </v>
    <v>       1.00000000       0.50000000       0.50150658 </v>
    <v>       1.00000000       0.70550964       0.50150658 </v>
   </varray>
  </structure>
  <varray name="forces" >
   <v>       0.00000000       0.00314045       0.25927512 </v>
   <v>       0.00000000      -0.00330403       0.26832282 </v>
   <v>       0.00000000       0.00361287      -0.19734512 </v>
   <v>       0.00000000      -0.00308192      -0.21902182 </v>
   <v>       0.00000000      -0.00214247       0.01772836 </v>
   <v>       0.00000000       0.00169596       0.01144180 </v>
   <v>       0.00000000       0.01177406      -0.03072932 </v>
   <v>       0.00000000      -0.01271941      -0.06230285 </v>
   <v>       0.00000000       0.02668138       0.05516670 </v>
   <v>       0.00000000      -0.02602884       0.03260213 </v>
   <v>       0.00000000       0.01131799       0.11056836 </v>
   <v>       0.00000000      -0.01154861      -0.05345328 </v>
   <v>       0.00000000       0.04483763      -0.00918944 </v>
   <v>       0.00000000      -0.01815113      -0.03425269 </v>
   <v>       0.00000000      -0.01649478      -0.93847182 </v>
   <v>       0.00000000       0.18961478      -0.49374409 </v>
   <v>       0.00000000      -2.01640874       1.19812870 </v>
   <v>       0.00000000       1.81720481       0.08527646 </v>
  </varray>
  <varray name="stress" >
   <v>     -16.99528871       0.00000000       0.00000000 </v>
   <v>       0.00000000     -11.01099742      -1.57340227 </v>
   <v>       0.00000000      -1.57340225      -5.58132567 </v>
  </varray>
  <energy>
   <i name="e_fr_energy">    -69.65223365 </i>
   <i name="e_wo_entrp">    -69.61124567 </i>
   <i name="e_0_energy">    -69.63857099 </i>
  </energy>
  <time name="totalsc">   47.53   47.93</time>
 </calculation>
 <calculation>
  <scstep>
   <time name="dav">    1.18    1.19</time>
   <time name="total">    1.31    1.32</time>
   <energy>
    <i name="alphaZ">    521.04204123 </i>
    <i name="ewald"> 103351.54089744 </i>
    <i name="hartreedc">-125052.77018674 </i>
    <i name="XCdc">    719.60758110 </i>
    <i name="pawpsdc">  21111.22271616 </i>
    <i name="pawaedc"> -22838.05920075 </i>
    <i name="eentropy">     -0.03700522 </i>
    <i name="bandstr">   -155.51482759 </i>
    <i name="atom">  22280.27950853 </i>
    <i name="e_fr_energy">    -62.68847584 </i>
    <i name="e_wo_entrp">    -62.65147062 </i>
    <i name="e_0_energy">    -62.67614077 </i>
   </energy>
  </scstep>
  <scstep>
   <time name="dav">    1.67    1.68</time>
   <time name="total">    1.80    1.82</time>
   <energy>
    <i name="e_fr_energy">    -62.80007773 </i>
    <i name="e_wo_entrp">    -62.77373595 </i>
    <i name="e_0_energy">    -62.79129714 </i>
   </energy>
  </scstep>
  <scstep>
   <time name="dav">    1.35    1.37</time>
   <time name="total">    1.49    1.50</time>
   <energy>
    <i name="e_fr_energy">    -62.77030428 </i>
    <i name="e_wo_entrp">    -62.74185642 </i>
    <i name="e_0_energy">    -62.76082166 </i>
   </energy>
  </scstep>
  <scstep>
   <time name="dav">    1.35    1.36</time>
   <time name="total">    1.49    1.50</time>
   <energy>
    <i name="e_fr_energy">    -62.72588276 </i>
    <i name="e_wo_entrp">    -62.68642349 </i>
    <i name="e_0_energy">    -62.71272967 </i>
   </energy>
  </scstep>
  <scstep>
   <time name="dav">    1.45    1.46</time>
   <time name="total">    1.58    1.60</time>
   <energy>
    <i name="e_fr_energy">    -62.72901381 </i>
    <i name="e_wo_entrp">    -62.70011000 </i>
    <i name="e_0_energy">    -62.71937920 </i>
   </energy>
  </scstep>
  <scstep>
   <time name="dav">    1.34    1.35</time>
   <time name="total">    1.48    1.49</time>
   <energy>
    <i name="e_fr_energy">    -62.71924754 </i>
    <i name="e_wo_entrp">    -62.67727107 </i>
    <i name="e_0_energy">    -62.70525538 </i>
   </energy>
  </scstep>
  <scstep>
   <time name="dav">    1.58    1.60</time>
   <time name="total">    1.72    1.73</time>
   <energy>
    <i name="e_fr_energy">    -62.71555517 </i>
    <i name="e_wo_entrp">    -62.67950421 </i>
    <i name="e_0_energy">    -62.70353818 </i>
   </energy>
  </scstep>
  <scstep>
   <time name="dav">    1.29    1.30</time>
   <time name="total">    1.42    1.43</time>
   <energy>
    <i name="e_fr_energy">    -62.71577588 </i>
    <i name="e_wo_entrp">    -62.67890363 </i>
    <i name="e_0_energy">    -62.70348513 </i>
   </energy>
  </scstep>
  <scstep>
   <time name="dav">    1.19    1.20</time>
   <time name="total">    1.32    1.33</time>
   <energy>
    <i name="e_fr_energy">    -62.71600857 </i>
    <i name="e_wo_entrp">    -62.67910030 </i>
    <i name="e_0_energy">    -62.70370581 </i>
   </energy>
  </scstep>
  <scstep>
   <time name="dav">    1.13    1.14</time>
   <time name="total">    1.16    1.17</time>
   <energy>
    <i name="alphaZ">    521.04204123 </i>
    <i name="ewald"> 103351.54089744 </i>
    <i name="hartreedc">-125041.49730114 </i>
    <i name="XCdc">    719.41091974 </i>
    <i name="pawpsdc">  21102.89663012 </i>
    <i name="pawaedc"> -22829.79498081 </i>
    <i name="eentropy">     -0.03686523 </i>
    <i name="bandstr">   -166.55695911 </i>
    <i name="atom">  22280.27950853 </i>
    <i name="e_fr_energy">    -62.71610921 </i>
    <i name="e_wo_entrp">    -62.67924399 </i>
    <i name="e_0_energy">    -62.70382080 </i>
   </energy>
  </scstep>
  <structure>
   <crystal>
    <varray name="basis" >
     <v>       3.63000011       0.00000000       0.00000000 </v>
     <v>       0.00000000       3.63000011       0.00000000 </v>
     <v>       0.00000000       0.00000000      27.70499992 </v>
    </varray>
    <i name="volume">    365.06603650 </i>
    <varray name="rec_basis" >
     <v>       0.27548208       0.00000000       0.00000000 </v>
     <v>       0.00000000       0.27548208       0.00000000 </v>
     <v>       0.00000000       0.00000000       0.03609457 </v>
    </varray>
   </crystal>
   <varray name="positions" >
    <v>       0.00000000       0.00004174       0.00045148 </v>
    <v>       0.50000000       0.49995609       0.00046723 </v>
    <v>       0.00000000       0.50004801       0.06516801 </v>
    <v>       0.50000000      -0.00004096       0.06513026 </v>
    <v>       0.00000000      -0.00002847       0.12879207 </v>
    <v>       0.50000000       0.50002254       0.12878112 </v>
    <v>       0.00000000       0.50015648       0.19187836 </v>
    <v>       0.50000000      -0.00016904       0.19182338 </v>
    <v>       0.00000000       0.00035460       0.25416156 </v>
    <v>       0.50000000       0.49965408       0.25412227 </v>
    <v>       0.00000000       0.50015042       0.31767109 </v>
    <v>       0.50000000      -0.00015348       0.31738548 </v>
    <v>       0.00000000       0.00059589       0.38130632 </v>
    <v>       0.50000000       0.49975877       0.38126268 </v>
    <v>       0.00000000       0.49978078       0.44276659 </v>
    <v>       0.50000000       0.00251998       0.44354099 </v>
    <v>       1.00000000       0.47320195       0.50359288 </v>
    <v>       1.00000000       0.72966026       0.50165507 </v>
   </varray>
  </structure>
  <varray name="forces" >
   <v>       0.00000000       0.00327255       0.17141414 </v>
   <v>       0.00000000      -0.00243648       0.18907677 </v>
   <v>       0.00000000       0.00307632      -0.07822410 </v>
   <v>       0.00000000      -0.00203612      -0.08878212 </v>
   <v>       0.00000000       0.00132492      -0.02659901 </v>
   <v>       0.00000000      -0.00029839      -0.04145696 </v>
   <v>       0.00000000       0.00811125      -0.02038389 </v>
   <v>       0.00000000      -0.00729149      -0.02880098 </v>
   <v>       0.00000000       0.01538957       0.04121029 </v>
   <v>       0.00000000      -0.01547657       0.00352247 </v>
   <v>       0.00000000       0.01235073       0.06782469 </v>
   <v>       0.00000000      -0.00889065      -0.02689588 </v>
   <v>       0.00000000       0.00971841      -0.12841977 </v>
   <v>       0.00000000       0.02613877      -0.17412714 </v>
   <v>       0.00000000       0.09433223       0.21532044 </v>
   <v>       0.00000000       0.10036531      -0.26897072 </v>
   <v>       0.00000000       1.20873758       0.24724941 </v>
   <v>       0.00000000      -1.44638791      -0.05295764 </v>
  </varray>
  <varray name="stress" >
   <v>     -15.55669416       0.00000000       0.00000000 </v>
   <v>       0.00000000     -20.87540418      -1.72967800 </v>
   <v>       0.00000000      -1.72967809     -11.38127952 </v>
  </varray>
  <energy>
   <i name="e_fr_energy">    -69.70593274 </i>
   <i name="e_wo_entrp">    -69.66906751 </i>
   <i name="e_0_energy">    -69.69364433 </i>
  </energy>
  <time name="totalsc">   16.66   16.84</time>
 </calculation>
 <calculation>
  <scstep>
   <time name="dav">    1.14    1.15</time>
   <time name="total">    1.28    1.29</time>
   <energy>
    <i name="alphaZ">    521.04204123 </i>
    <i name="ewald"> 103157.31952602 </i>
    <i name="hartreedc">-124845.51615989 </i>
    <i name="XCdc">    719.46266120 </i>
    <i name="pawpsdc">  21103.41321180 </i>
    <i name="pawaedc"> -22830.33263004 </i>
    <i name="eentropy">     -0.03848278 </i>
    <i name="bandstr">   -168.41421042 </i>
    <i name="atom">  22280.27950853 </i>
    <i name="e_fr_energy">    -62.78453434 </i>
    <i name="e_wo_entrp">    -62.74605156 </i>
    <i name="e_0_energy">    -62.77170675 </i>
   </energy>
  </scstep>
  <scstep>
   <time name="dav">    1.78    1.80</time>
   <time name="total">    1.92    1.93</time>
   <energy>
    <i name="e_fr_energy">    -62.82445588 </i>
    <i name="e_wo_entrp">    -62.78596210 </i>
    <i name="e_0_energy">    -62.81162462 </i>
   </energy>
  </scstep>
  <scstep>
   <time name="dav">    1.76    1.77</time>
   <time name="total">    1.89    1.91</time>
   <energy>
    <i name="e_fr_energy">    -62.79943634 </i>
    <i name="e_wo_entrp">    -62.75916255 </i>
    <i name="e_0_energy">    -62.78601174 </i>
   </energy>
  </scstep>
  <scstep>
   <time name="dav">    1.44    1.45</time>
   <time name="total">    1.57    1.59</time>
   <energy>
    <i name="e_fr_energy">    -62.80023867 </i>
    <i name="e_wo_entrp">    -62.76681164 </i>
    <i name="e_0_energy">    -62.78909633 </i>
   </energy>
  </scstep>
  <scstep>
   <time name="dav">    1.41    1.42</time>
   <time name="total">    1.55    1.56</time>
   <energy>
    <i name="e_fr_energy">    -62.79543344 </i>
    <i name="e_wo_entrp">    -62.75425690 </i>
    <i name="e_0_energy">    -62.78170793 </i>
   </energy>
  </scstep>
  <scstep>
   <time name="dav">    1.26    1.27</time>
   <time name="total">    1.40    1.41</time>
   <energy>
    <i name="e_fr_energy">    -62.79482471 </i>
    <i name="e_wo_entrp">    -62.75653571 </i>
    <i name="e_0_energy">    -62.78206171 </i>
   </energy>
  </scstep>
  <scstep>
   <time name="dav">    1.36    1.37</time>
   <time name="total">    1.50    1.51</time>
   <energy>
    <i name="e_fr_energy">    -62.79457773 </i>
    <i name="e_wo_entrp">    -62.75528049 </i>
    <i name="e_0_energy">    -62.78147865 </i>
   </energy>
  </scstep>
  <scstep>
   <time name="dav">    1.14    1.15</time>
   <time name="total">    1.18    1.19</time>
   <energy>
    <i name="alphaZ">    521.04204123 </i>
    <i name="ewald"> 103157.31952602 </i>
    <i name="hartreedc">-124850.00981219 </i>
    <i name="XCdc">    719.54751186 </i>
    <i name="pawpsdc">  21106.84356863 </i>
    <i name="pawaedc"> -22833.74623978 </i>
    <i name="eentropy">     -0.03933826 </i>
    <i name="bandstr">   -164.03137238 </i>
    <i name="atom">  22280.27950853 </i>
    <i name="e_fr_energy">    -62.79460634 </i>
    <i name="e_wo_entrp">    -62.75526808 </i>
    <i name="e_0_energy">    -62.78149359 </i>
   </energy>
  </scstep>
  <structure>
   <crystal>
    <varray name="basis" >
     <v>       3.63000011       0.00000000       0.00000000 </v>
     <v>       0.00000000       3.63000011       0.00000000 </v>
     <v>       0.00000000       0.00000000      27.70499992 </v>
    </varray>
    <i name="volume">    365.06603650 </i>
    <varray name="rec_basis" >
     <v>       0.27548208       0.00000000       0.00000000 </v>
     <v>       0.00000000       0.27548208       0.00000000 </v>
     <v>       0.00000000       0.00000000       0.03609457 </v>
    </varray>
   </crystal>
   <varray name="positions" >
    <v>       0.00000000       0.00002167       0.00023437 </v>
    <v>       0.50000000       0.49997720       0.00024255 </v>
    <v>       0.00000000       0.50002493       0.06533325 </v>
    <v>       0.50000000      -0.00002126       0.06531366 </v>
    <v>       0.00000000      -0.00001478       0.12877722 </v>
    <v>       0.50000000       0.50001170       0.12877154 </v>
    <v>       0.00000000       0.50008123       0.19190409 </v>
    <v>       0.50000000      -0.00008775       0.19187555 </v>
    <v>       0.00000000       0.00018408       0.25411537 </v>
    <v>       0.50000000       0.49982042       0.25409497 </v>
    <v>       0.00000000       0.50007808       0.31757850 </v>
    <v>       0.50000000      -0.00007968       0.31743023 </v>
    <v>       0.00000000       0.00030934       0.38131402 </v>
    <v>       0.50000000       0.49987477       0.38129136 </v>
    <v>       0.00000000       0.49988620       0.44355242 </v>
    <v>       0.50000000       0.00130818       0.44395443 </v>
    <v>       1.00000000       0.48608853       0.50258962 </v>
    <v>       1.00000000       0.71804677       0.50158366 </v>
   </varray>
  </structure>
  <varray name="forces" >
   <v>       0.00000000       0.00310342       0.20803207 </v>
   <v>       0.00000000      -0.00285023       0.22054249 </v>
   <v>       0.00000000       0.00330503      -0.13842284 </v>
   <v>       0.00000000      -0.00262330      -0.15391105 </v>
   <v>       0.00000000      -0.00033879      -0.00625552 </v>
   <v>       0.00000000       0.00057884      -0.01614376 </v>
   <v>       0.00000000       0.01055736      -0.02363697 </v>
   <v>       0.00000000      -0.01070551      -0.04406090 </v>
   <v>       0.00000000       0.02195101       0.05313717 </v>
   <v>       0.00000000      -0.02172154       0.02277093 </v>
   <v>       0.00000000       0.01226947       0.09633857 </v>
   <v>       0.00000000      -0.01084038      -0.03593885 </v>
   <v>       0.00000000       0.02810474      -0.06772102 </v>
   <v>       0.00000000       0.00337447      -0.10405802 </v>
   <v>       0.00000000       0.08134913      -0.23447555 </v>
   <v>       0.00000000       0.14395513      -0.38267743 </v>
   <v>       0.00000000       0.26339123       0.68125957 </v>
   <v>       0.00000000      -0.52286009      -0.07477887 </v>
  </varray>
  <varray name="stress" >
   <v>     -17.36935910       0.00000000       0.00000000 </v>
   <v>       0.00000000     -18.95076729      -2.01131865 </v>
   <v>       0.00000000      -2.01131861     -10.11425103 </v>
  </varray>
  <energy>
   <i name="e_fr_energy">    -69.76721230 </i>
   <i name="e_wo_entrp">    -69.72787405 </i>
   <i name="e_0_energy">    -69.75409955 </i>
  </energy>
  <time name="totalsc">   14.19   14.32</time>
 </calculation>
 <calculation>
  <scstep>
   <time name="dav">    1.15    1.16</time>
   <time name="total">    1.29    1.30</time>
   <energy>
    <i name="alphaZ">    521.04204123 </i>
    <i name="ewald"> 103406.67054955 </i>
    <i name="hartreedc">-125099.19722425 </i>
    <i name="XCdc">    719.60090244 </i>
    <i name="pawpsdc">  21106.81028602 </i>
    <i name="pawaedc"> -22833.69939859 </i>
    <i name="eentropy">     -0.04027920 </i>
    <i name="bandstr">   -164.28774639 </i>
    <i name="atom">  22280.27950853 </i>
    <i name="e_fr_energy">    -62.82136066 </i>
    <i name="e_wo_entrp">    -62.78108145 </i>
    <i name="e_0_energy">    -62.80793425 </i>
   </energy>
  </scstep>
  <scstep>
   <time name="dav">    1.51    1.52</time>
   <time name="total">    1.64    1.66</time>
   <energy>
    <i name="e_fr_energy">    -62.83486913 </i>
    <i name="e_wo_entrp">    -62.79339131 </i>
    <i name="e_0_energy">    -62.82104319 </i>
   </energy>
  </scstep>
  <scstep>
   <time name="dav">    1.31    1.32</time>
   <time name="total">    1.45    1.46</time>
   <energy>
    <i name="e_fr_energy">    -62.83823836 </i>
    <i name="e_wo_entrp">    -62.80036324 </i>
    <i name="e_0_energy">    -62.82561332 </i>
   </energy>
  </scstep>
  <scstep>
   <time name="dav">    1.24    1.25</time>
   <time name="total">    1.37    1.38</time>
   <energy>
    <i name="e_fr_energy">    -62.83436327 </i>
    <i name="e_wo_entrp">    -62.79551984 </i>
    <i name="e_0_energy">    -62.82141546 </i>
   </energy>
  </scstep>
  <scstep>
   <time name="dav">    1.21    1.22</time>
   <time name="total">    1.34    1.35</time>
   <energy>
    <i name="e_fr_energy">    -62.83410664 </i>
    <i name="e_wo_entrp">    -62.79226021 </i>
    <i name="e_0_energy">    -62.82015783 </i>
   </energy>
  </scstep>
  <scstep>
   <time name="dav">    1.21    1.22</time>
   <time name="total">    1.34    1.35</time>
   <energy>
    <i name="e_fr_energy">    -62.83381915 </i>
    <i name="e_wo_entrp">    -62.79426939 </i>
    <i name="e_0_energy">    -62.82063590 </i>
   </energy>
  </scstep>
  <scstep>
   <time name="dav">    1.21    1.22</time>
   <time name="total">    1.24    1.25</time>
   <energy>
    <i name="alphaZ">    521.04204123 </i>
    <i name="ewald"> 103406.67054955 </i>
    <i name="hartreedc">-125099.89360703 </i>
    <i name="XCdc">    719.60817164 </i>
    <i name="pawpsdc">  21113.18887416 </i>
    <i name="pawaedc"> -22840.23745580 </i>
    <i name="eentropy">     -0.04005314 </i>
    <i name="bandstr">   -163.45180268 </i>
    <i name="atom">  22280.27950853 </i>
    <i name="e_fr_energy">    -62.83377354 </i>
    <i name="e_wo_entrp">    -62.79372040 </i>
    <i name="e_0_energy">    -62.82042249 </i>
   </energy>
  </scstep>
  <structure>
   <crystal>
    <varray name="basis" >
     <v>       3.63000011       0.00000000       0.00000000 </v>
     <v>       0.00000000       3.63000011       0.00000000 </v>
     <v>       0.00000000       0.00000000      27.70499992 </v>
    </varray>
    <i name="volume">    365.06603650 </i>
    <varray name="rec_basis" >
     <v>       0.27548208       0.00000000       0.00000000 </v>
     <v>       0.00000000       0.27548208       0.00000000 </v>
     <v>       0.00000000       0.00000000       0.03609457 </v>
    </varray>
   </crystal>
   <varray name="positions" >
    <v>       0.00000000       0.00006354       0.00061150 </v>
    <v>       0.50000000       0.49993813       0.00064110 </v>
    <v>       0.00000000       0.50006991       0.06507756 </v>
    <v>       0.50000000      -0.00005728       0.06502943 </v>
    <v>       0.00000000      -0.00002199       0.12877078 </v>
    <v>       0.50000000       0.50002114       0.12874833 </v>
    <v>       0.00000000       0.50022528       0.19186100 </v>
    <v>       0.50000000      -0.00023496       0.19179426 </v>
    <v>       0.00000000       0.00048680       0.25420958 </v>
    <v>       0.50000000       0.49952141       0.25413706 </v>
    <v>       0.00000000       0.50024203       0.31775132 </v>
    <v>       0.50000000      -0.00022679       0.31736342 </v>
    <v>       0.00000000       0.00071255       0.38120568 </v>
    <v>       0.50000000       0.49988874       0.38112103 </v>
    <v>       0.00000000       0.50083921       0.44300344 </v>
    <v>       0.50000000       0.00331485       0.44325748 </v>
    <v>       1.00000000       0.48630124       0.50389156 </v>
    <v>       1.00000000       0.71442583       0.50148233 </v>
   </varray>
  </structure>
  <varray name="forces" >
   <v>       0.00000000       0.00219513       0.13370702 </v>
   <v>       0.00000000      -0.00034963       0.14195609 </v>
   <v>       0.00000000       0.00157228      -0.04509750 </v>
   <v>       0.00000000       0.00073427      -0.05406280 </v>
   <v>       0.00000000       0.00292083      -0.03913214 </v>
   <v>       0.00000000      -0.00127008      -0.04221746 </v>
   <v>       0.00000000       0.00642120      -0.00805348 </v>
   <v>       0.00000000      -0.00477545      -0.01901498 </v>
   <v>       0.00000000       0.00812841       0.01820163 </v>
   <v>       0.00000000      -0.00549771       0.00149253 </v>
   <v>       0.00000000       0.01160525       0.03371634 </v>
   <v>       0.00000000      -0.00552501      -0.02854590 </v>
   <v>       0.00000000       0.02291847      -0.10408850 </v>
   <v>       0.00000000       0.02502226      -0.12440157 </v>
   <v>       0.00000000       0.05666201       0.00285340 </v>
   <v>       0.00000000       0.08687302      -0.30533605 </v>
   <v>       0.00000000       0.22152825       0.43513023 </v>
   <v>       0.00000000      -0.42916352       0.00289313 </v>
  </varray>
  <varray name="stress" >
   <v>     -16.60780506       0.00000000       0.00000000 </v>
   <v>       0.00000000     -17.81637981      -1.81649043 </v>
   <v>       0.00000000      -1.81649038      -9.45950499 </v>
  </varray>
  <energy>
   <i name="e_fr_energy">    -69.81066785 </i>
   <i name="e_wo_entrp">    -69.77061472 </i>
   <i name="e_0_energy">    -69.79731681 </i>
  </energy>
  <time name="totalsc">   11.57   11.69</time>
 </calculation>
 <calculation>
  <scstep>
   <time name="dav">    1.16    1.17</time>
   <time name="total">    1.29    1.31</time>
   <energy>
    <i name="alphaZ">    521.04204123 </i>
    <i name="ewald"> 103835.81638509 </i>
    <i name="hartreedc">-125528.46587304 </i>
    <i name="XCdc">    719.70701105 </i>
    <i name="pawpsdc">  21113.31194028 </i>
    <i name="pawaedc"> -22840.33920890 </i>
    <i name="eentropy">     -0.04172122 </i>
    <i name="bandstr">   -164.13487692 </i>
    <i name="atom">  22280.27950853 </i>
    <i name="e_fr_energy">    -62.82479388 </i>
    <i name="e_wo_entrp">    -62.78307266 </i>
    <i name="e_0_energy">    -62.81088681 </i>
   </energy>
  </scstep>
  <scstep>
   <time name="dav">    1.51    1.52</time>
   <time name="total">    1.65    1.66</time>
   <energy>
    <i name="e_fr_energy">    -62.86719228 </i>
    <i name="e_wo_entrp">    -62.82322220 </i>
    <i name="e_0_energy">    -62.85253559 </i>
   </energy>
  </scstep>
  <scstep>
   <time name="dav">    1.32    1.33</time>
   <time name="total">    1.46    1.47</time>
   <energy>
    <i name="e_fr_energy">    -62.88062497 </i>
    <i name="e_wo_entrp">    -62.84470199 </i>
    <i name="e_0_energy">    -62.86865064 </i>
   </energy>
  </scstep>
  <scstep>
   <time name="dav">    1.32    1.33</time>
   <time name="total">    1.46    1.47</time>
   <energy>
    <i name="e_fr_energy">    -62.86414251 </i>
    <i name="e_wo_entrp">    -62.82513648 </i>
    <i name="e_0_energy">    -62.85114050 </i>
   </energy>
  </scstep>
  <scstep>
   <time name="dav">    1.40    1.42</time>
   <time name="total">    1.54    1.56</time>
   <energy>
    <i name="e_fr_energy">    -62.86363296 </i>
    <i name="e_wo_entrp">    -62.81917052 </i>
    <i name="e_0_energy">    -62.84881215 </i>
   </energy>
  </scstep>
  <scstep>
   <time name="dav">    1.32    1.33</time>
   <time name="total">    1.46    1.48</time>
   <energy>
    <i name="e_fr_energy">    -62.86286589 </i>
    <i name="e_wo_entrp">    -62.82202802 </i>
    <i name="e_0_energy">    -62.84925327 </i>
   </energy>
  </scstep>
  <scstep>
   <time name="dav">    1.31    1.32</time>
   <time name="total">    1.45    1.46</time>
   <energy>
    <i name="e_fr_energy">    -62.86263113 </i>
    <i name="e_wo_entrp">    -62.82151363 </i>
    <i name="e_0_energy">    -62.84892530 </i>
   </energy>
  </scstep>
  <scstep>
   <time name="dav">    1.20    1.21</time>
   <time name="total">    1.34    1.35</time>
   <energy>
    <i name="e_fr_energy">    -62.86254811 </i>
    <i name="e_wo_entrp">    -62.82102896 </i>
    <i name="e_0_energy">    -62.84870840 </i>
   </energy>
  </scstep>
  <scstep>
   <time name="dav">    0.89    0.90</time>
   <time name="total">    0.92    0.93</time>
   <energy>
    <i name="alphaZ">    521.04204123 </i>
    <i name="ewald"> 103835.81638509 </i>
    <i name="hartreedc">-125529.53837765 </i>
    <i name="XCdc">    719.70320787 </i>
    <i name="pawpsdc">  21128.01013819 </i>
    <i name="pawaedc"> -22855.33270727 </i>
    <i name="eentropy">     -0.04179620 </i>
    <i name="bandstr">   -162.80093032 </i>
    <i name="atom">  22280.27950853 </i>
    <i name="e_fr_energy">    -62.86253053 </i>
    <i name="e_wo_entrp">    -62.82073432 </i>
    <i name="e_0_energy">    -62.84859846 </i>
   </energy>
  </scstep>
  <structure>
   <crystal>
    <varray name="basis" >
     <v>       3.63000011       0.00000000       0.00000000 </v>
     <v>       0.00000000       3.63000011       0.00000000 </v>
     <v>       0.00000000       0.00000000      27.70499992 </v>
    </varray>
    <i name="volume">    365.06603650 </i>
    <varray name="rec_basis" >
     <v>       0.27548208       0.00000000       0.00000000 </v>
     <v>       0.00000000       0.27548208       0.00000000 </v>
     <v>       0.00000000       0.00000000       0.03609457 </v>
    </varray>
   </crystal>
   <varray name="positions" >
    <v>       0.00000000       0.00013528       0.00125760 </v>
    <v>       0.50000000       0.49987119       0.00132390 </v>
    <v>       0.00000000       0.50014699       0.06463949 </v>
    <v>       0.50000000      -0.00011900       0.06454248 </v>
    <v>       0.00000000      -0.00003433       0.12875973 </v>
    <v>       0.50000000       0.50003730       0.12870856 </v>
    <v>       0.00000000       0.50047206       0.19178717 </v>
    <v>       0.50000000      -0.00048716       0.19165499 </v>
    <v>       0.00000000       0.00100543       0.25437098 </v>
    <v>       0.50000000       0.49900914       0.25420917 </v>
    <v>       0.00000000       0.50052290       0.31804741 </v>
    <v>       0.50000000      -0.00047883       0.31724896 </v>
    <v>       0.00000000       0.00140334       0.38102006 </v>
    <v>       0.50000000       0.49991267       0.38082920 </v>
    <v>       0.00000000       0.50247193       0.44206290 </v>
    <v>       0.50000000       0.00675274       0.44206345 </v>
    <v>       1.00000000       0.48666566       0.50612207 </v>
    <v>       1.00000000       0.70822232       0.50130872 </v>
   </varray>
  </structure>
  <varray name="forces" >
   <v>       0.00000000      -0.00002432       0.03833849 </v>
   <v>       0.00000000       0.00219819       0.04089769 </v>
   <v>       0.00000000      -0.00150498       0.09928699 </v>
   <v>       0.00000000       0.00429121       0.10171649 </v>
   <v>       0.00000000       0.00691768      -0.09603110 </v>
   <v>       0.00000000      -0.00558711      -0.09072634 </v>
   <v>       0.00000000       0.00045905       0.02340660 </v>
   <v>       0.00000000       0.00112267       0.02218018 </v>
   <v>       0.00000000      -0.00999623      -0.02011649 </v>
   <v>       0.00000000       0.01478619      -0.01938105 </v>
   <v>       0.00000000       0.01162651      -0.05611231 </v>
   <v>       0.00000000       0.00087238      -0.01938807 </v>
   <v>       0.00000000       0.01229636      -0.18008495 </v>
   <v>       0.00000000       0.06377277      -0.17980313 </v>
   <v>       0.00000000       0.02259130       0.25436800 </v>
   <v>       0.00000000       0.00837875      -0.18550808 </v>
   <v>       0.00000000       0.14364596       0.16153627 </v>
   <v>       0.00000000      -0.27584637       0.10542082 </v>
  </varray>
  <varray name="stress" >
   <v>     -15.24783223       0.00000000       0.00000000 </v>
   <v>       0.00000000     -15.85212871      -1.61646702 </v>
   <v>       0.00000000      -1.61646706      -8.41059384 </v>
  </varray>
  <energy>
   <i name="e_fr_energy">    -69.84727984 </i>
   <i name="e_wo_entrp">    -69.80548363 </i>
   <i name="e_0_energy">    -69.83334777 </i>
  </energy>
  <time name="totalsc">   14.49   14.64</time>
 </calculation>
 <calculation>
  <scstep>
   <time name="dav">    1.15    1.16</time>
   <time name="total">    1.29    1.30</time>
   <energy>
    <i name="alphaZ">    521.04204123 </i>
    <i name="ewald"> 104009.62144028 </i>
    <i name="hartreedc">-125703.02818939 </i>
    <i name="XCdc">    719.74541518 </i>
    <i name="pawpsdc">  21128.03488008 </i>
    <i name="pawaedc"> -22855.34498254 </i>
    <i name="eentropy">     -0.04238469 </i>
    <i name="bandstr">   -163.16519731 </i>
    <i name="atom">  22280.27950853 </i>
    <i name="e_fr_energy">    -62.85746862 </i>
    <i name="e_wo_entrp">    -62.81508393 </i>
    <i name="e_0_energy">    -62.84334039 </i>
   </energy>
  </scstep>
  <scstep>
   <time name="dav">    1.50    1.51</time>
   <time name="total">    1.63    1.65</time>
   <energy>
    <i name="e_fr_energy">    -62.86380124 </i>
    <i name="e_wo_entrp">    -62.82155395 </i>
    <i name="e_0_energy">    -62.84971881 </i>
   </energy>
  </scstep>
  <scstep>
   <time name="dav">    1.29    1.31</time>
   <time name="total">    1.43    1.44</time>
   <energy>
    <i name="e_fr_energy">    -62.86605318 </i>
    <i name="e_wo_entrp">    -62.82484964 </i>
    <i name="e_0_energy">    -62.85231867 </i>
   </energy>
  </scstep>
  <scstep>
   <time name="dav">    1.21    1.22</time>
   <time name="total">    1.34    1.35</time>
   <energy>
    <i name="e_fr_energy">    -62.86337407 </i>
    <i name="e_wo_entrp">    -62.82122700 </i>
    <i name="e_0_energy">    -62.84932505 </i>
   </energy>
  </scstep>
  <scstep>
   <time name="dav">    1.10    1.11</time>
   <time name="total">    1.13    1.14</time>
   <energy>
    <i name="alphaZ">    521.04204123 </i>
    <i name="ewald"> 104009.62144028 </i>
    <i name="hartreedc">-125703.27813577 </i>
    <i name="XCdc">    719.74095827 </i>
    <i name="pawpsdc">  21132.50787529 </i>
    <i name="pawaedc"> -22859.85018238 </i>
    <i name="eentropy">     -0.04251126 </i>
    <i name="bandstr">   -162.88435678 </i>
    <i name="atom">  22280.27950853 </i>
    <i name="e_fr_energy">    -62.86336259 </i>
    <i name="e_wo_entrp">    -62.82085133 </i>
    <i name="e_0_energy">    -62.84919217 </i>
   </energy>
  </scstep>
  <structure>
   <crystal>
    <varray name="basis" >
     <v>       3.63000011       0.00000000       0.00000000 </v>
     <v>       0.00000000       3.63000011       0.00000000 </v>
     <v>       0.00000000       0.00000000      27.70499992 </v>
    </varray>
    <i name="volume">    365.06603650 </i>
    <varray name="rec_basis" >
     <v>       0.27548208       0.00000000       0.00000000 </v>
     <v>       0.00000000       0.27548208       0.00000000 </v>
     <v>       0.00000000       0.00000000       0.03609457 </v>
    </varray>
   </crystal>
   <varray name="positions" >
    <v>       0.00000000       0.00016422       0.00151825 </v>
    <v>       0.50000000       0.49984419       0.00159936 </v>
    <v>       0.00000000       0.50017808       0.06446277 </v>
    <v>       0.50000000      -0.00014389       0.06434604 </v>
    <v>       0.00000000      -0.00003931       0.12875528 </v>
    <v>       0.50000000       0.50004382       0.12869251 </v>
    <v>       0.00000000       0.50057161       0.19175738 </v>
    <v>       0.50000000      -0.00058890       0.19159880 </v>
    <v>       0.00000000       0.00121465       0.25443609 </v>
    <v>       0.50000000       0.49880248       0.25423826 </v>
    <v>       0.00000000       0.50063621       0.31816686 </v>
    <v>       0.50000000      -0.00058051       0.31720278 </v>
    <v>       0.00000000       0.00168202       0.38094518 </v>
    <v>       0.50000000       0.49992233       0.38071147 </v>
    <v>       0.00000000       0.50313061       0.44168347 </v>
    <v>       0.50000000       0.00813965       0.44158176 </v>
    <v>       1.00000000       0.48681267       0.50702191 </v>
    <v>       1.00000000       0.70571970       0.50123868 </v>
   </varray>
  </structure>
  <varray name="forces" >
   <v>       0.00000000      -0.00041598      -0.01491314 </v>
   <v>       0.00000000       0.00349043      -0.01548383 </v>
   <v>       0.00000000      -0.00236527       0.16567569 </v>
   <v>       0.00000000       0.00596305       0.17422647 </v>
   <v>       0.00000000       0.00908032      -0.12186317 </v>
   <v>       0.00000000      -0.00682059      -0.11305230 </v>
   <v>       0.00000000      -0.00183531       0.03433652 </v>
   <v>       0.00000000       0.00434391       0.03800963 </v>
   <v>       0.00000000      -0.01768258      -0.03850038 </v>
   <v>       0.00000000       0.02454015      -0.02973006 </v>
   <v>       0.00000000       0.01173868      -0.09576170 </v>
   <v>       0.00000000       0.00461073      -0.01577803 </v>
   <v>       0.00000000       0.00671475      -0.21341570 </v>
   <v>       0.00000000       0.08289803      -0.20328109 </v>
   <v>       0.00000000       0.01220132       0.33193051 </v>
   <v>       0.00000000      -0.02701256      -0.11520079 </v>
   <v>       0.00000000       0.12921380       0.08840268 </v>
   <v>       0.00000000      -0.23866289       0.14439868 </v>
  </varray>
  <varray name="stress" >
   <v>     -12.74163198       0.00000000       0.00000000 </v>
   <v>       0.00000000     -13.20037461      -1.58762222 </v>
   <v>       0.00000000      -1.58762222      -6.02203030 </v>
  </varray>
  <energy>
   <i name="e_fr_energy">    -69.85148076 </i>
   <i name="e_wo_entrp">    -69.80896950 </i>
   <i name="e_0_energy">    -69.83731034 </i>
  </energy>
  <time name="totalsc">    8.74    8.83</time>
 </calculation>
 <calculation>
  <scstep>
   <time name="dav">    1.17    1.18</time>
   <time name="total">    1.31    1.32</time>
   <energy>
    <i name="alphaZ">    521.04204123 </i>
    <i name="ewald"> 104185.34209122 </i>
    <i name="hartreedc">-125877.98037921 </i>
    <i name="XCdc">    719.76475668 </i>
    <i name="pawpsdc">  21133.62166038 </i>
    <i name="pawaedc"> -22860.99347597 </i>
    <i name="eentropy">     -0.04099601 </i>
    <i name="bandstr">   -163.89855818 </i>
    <i name="atom">  22280.27950853 </i>
    <i name="e_fr_energy">    -62.86335132 </i>
    <i name="e_wo_entrp">    -62.82235531 </i>
    <i name="e_0_energy">    -62.84968599 </i>
   </energy>
  </scstep>
  <scstep>
   <time name="dav">    1.74    1.75</time>
   <time name="total">    1.88    1.89</time>
   <energy>
    <i name="e_fr_energy">    -62.88934780 </i>
    <i name="e_wo_entrp">    -62.83997100 </i>
    <i name="e_0_energy">    -62.87288887 </i>
   </energy>
  </scstep>
  <scstep>
   <time name="dav">    1.71    1.73</time>
   <time name="total">    1.85    1.87</time>
   <energy>
    <i name="e_fr_energy">    -62.88305576 </i>
    <i name="e_wo_entrp">    -62.83962112 </i>
    <i name="e_0_energy">    -62.86857755 </i>
   </energy>
  </scstep>
  <scstep>
   <time name="dav">    1.38    1.40</time>
   <time name="total">    1.52    1.54</time>
   <energy>
    <i name="e_fr_energy">    -62.87675427 </i>
    <i name="e_wo_entrp">    -62.83571905 </i>
    <i name="e_0_energy">    -62.86307586 </i>
   </energy>
  </scstep>
  <scstep>
   <time name="dav">    1.21    1.22</time>
   <time name="total">    1.35    1.36</time>
   <energy>
    <i name="e_fr_energy">    -62.87625658 </i>
    <i name="e_wo_entrp">    -62.83291650 </i>
    <i name="e_0_energy">    -62.86180988 </i>
   </energy>
  </scstep>
  <scstep>
   <time name="dav">    1.18    1.19</time>
   <time name="total">    1.32    1.33</time>
   <energy>
    <i name="e_fr_energy">    -62.87629155 </i>
    <i name="e_wo_entrp">    -62.83373928 </i>
    <i name="e_0_energy">    -62.86210746 </i>
   </energy>
  </scstep>
  <scstep>
   <time name="dav">    1.25    1.27</time>
   <time name="total">    1.39    1.40</time>
   <energy>
    <i name="e_fr_energy">    -62.87598012 </i>
    <i name="e_wo_entrp">    -62.83267443 </i>
    <i name="e_0_energy">    -62.86154489 </i>
   </energy>
  </scstep>
  <scstep>
   <time name="dav">    0.96    0.97</time>
   <time name="total">    0.99    1.00</time>
   <energy>
    <i name="alphaZ">    521.04204123 </i>
    <i name="ewald"> 104185.34209122 </i>
    <i name="hartreedc">-125879.80161678 </i>
    <i name="XCdc">    719.79840658 </i>
    <i name="pawpsdc">  21137.26738855 </i>
    <i name="pawaedc"> -22864.69559538 </i>
    <i name="eentropy">     -0.04278752 </i>
    <i name="bandstr">   -162.06538195 </i>
    <i name="atom">  22280.27950853 </i>
    <i name="e_fr_energy">    -62.87594553 </i>
    <i name="e_wo_entrp">    -62.83315801 </i>
    <i name="e_0_energy">    -62.86168302 </i>
   </energy>
  </scstep>
  <structure>
   <crystal>
    <varray name="basis" >
     <v>       3.63000011       0.00000000       0.00000000 </v>
     <v>       0.00000000       3.63000011       0.00000000 </v>
     <v>       0.00000000       0.00000000      27.70499992 </v>
    </varray>
    <i name="volume">    365.06603650 </i>
    <varray name="rec_basis" >
     <v>       0.27548208       0.00000000       0.00000000 </v>
     <v>       0.00000000       0.27548208       0.00000000 </v>
     <v>       0.00000000       0.00000000       0.03609457 </v>
    </varray>
   </crystal>
   <varray name="positions" >
    <v>       0.00000000       0.00017131       0.00161398 </v>
    <v>       0.50000000       0.49989276       0.00170118 </v>
    <v>       0.00000000       0.50015157       0.06476042 </v>
    <v>       0.50000000      -0.00005028       0.06465375 </v>
    <v>       0.00000000       0.00011972       0.12846903 </v>
    <v>       0.50000000       0.49992576       0.12842100 </v>
    <v>       0.00000000       0.50058881       0.19182250 </v>
    <v>       0.50000000      -0.00056257       0.19165926 </v>
    <v>       0.00000000       0.00100486       0.25437895 </v>
    <v>       0.50000000       0.49913554       0.25418353 </v>
    <v>       0.00000000       0.50090174       0.31800347 </v>
    <v>       0.50000000      -0.00054940       0.31714289 </v>
    <v>       0.00000000       0.00194098       0.38041029 </v>
    <v>       0.50000000       0.50140175       0.38017875 </v>
    <v>       0.00000000       0.50367740       0.44226713 </v>
    <v>       0.50000000       0.00835349       0.44107211 </v>
    <v>       1.00000000       0.48918473       0.50767844 </v>
    <v>       1.00000000       0.70022145       0.50154015 </v>
   </varray>
  </structure>
  <varray name="forces" >
   <v>       0.00000000      -0.00094881       0.02173174 </v>
   <v>       0.00000000       0.00327413       0.01958257 </v>
   <v>       0.00000000       0.00012617       0.06958812 </v>
   <v>       0.00000000       0.00204152       0.07411918 </v>
   <v>       0.00000000       0.00281050      -0.01946141 </v>
   <v>       0.00000000      -0.00171325      -0.01261006 </v>
   <v>       0.00000000      -0.00231049      -0.01222699 </v>
   <v>       0.00000000       0.00486994      -0.01203455 </v>
   <v>       0.00000000      -0.00532830      -0.02471715 </v>
   <v>       0.00000000       0.01130637      -0.01445358 </v>
   <v>       0.00000000       0.00390569      -0.11827887 </v>
   <v>       0.00000000       0.01999259      -0.05853672 </v>
   <v>       0.00000000       0.02128763      -0.09706142 </v>
   <v>       0.00000000       0.04486284      -0.08451571 </v>
   <v>       0.00000000      -0.01819732       0.10091478 </v>
   <v>       0.00000000      -0.00884598      -0.14477828 </v>
   <v>       0.00000000      -0.42353027       0.22348822 </v>
   <v>       0.00000000       0.34639704       0.08925012 </v>
  </varray>
  <varray name="stress" >
   <v>     -13.56491096       0.00000000       0.00000000 </v>
   <v>       0.00000000     -12.16724683      -1.78529984 </v>
   <v>       0.00000000      -1.78529989      -5.54603909 </v>
  </varray>
  <energy>
   <i name="e_fr_energy">    -69.86677865 </i>
   <i name="e_wo_entrp">    -69.82399113 </i>
   <i name="e_0_energy">    -69.85251614 </i>
  </energy>
  <time name="totalsc">   13.52   13.68</time>
 </calculation>
 <calculation>
  <scstep>
   <time name="dav">    1.20    1.21</time>
   <time name="total">    1.34    1.35</time>
   <energy>
    <i name="alphaZ">    521.04204123 </i>
    <i name="ewald"> 104207.36921273 </i>
    <i name="hartreedc">-125901.79084296 </i>
    <i name="XCdc">    719.80085680 </i>
    <i name="pawpsdc">  21137.30827350 </i>
    <i name="pawaedc"> -22864.73251293 </i>
    <i name="eentropy">     -0.04263663 </i>
    <i name="bandstr">   -162.10941484 </i>
    <i name="atom">  22280.27950853 </i>
    <i name="e_fr_energy">    -62.87551457 </i>
    <i name="e_wo_entrp">    -62.83287794 </i>
    <i name="e_0_energy">    -62.86130236 </i>
   </energy>
  </scstep>
  <scstep>
   <time name="dav">    1.50    1.51</time>
   <time name="total">    1.64    1.66</time>
   <energy>
    <i name="e_fr_energy">    -62.87593743 </i>
    <i name="e_wo_entrp">    -62.83185178 </i>
    <i name="e_0_energy">    -62.86124221 </i>
   </energy>
  </scstep>
  <scstep>
   <time name="dav">    0.93    0.94</time>
   <time name="total">    0.96    0.97</time>
   <energy>
    <i name="alphaZ">    521.04204123 </i>
    <i name="ewald"> 104207.36921273 </i>
    <i name="hartreedc">-125902.21355322 </i>
    <i name="XCdc">    719.80148110 </i>
    <i name="pawpsdc">  21137.28996262 </i>
    <i name="pawaedc"> -22864.70940146 </i>
    <i name="eentropy">     -0.04291470 </i>
    <i name="bandstr">   -161.69219498 </i>
    <i name="atom">  22280.27950853 </i>
    <i name="e_fr_energy">    -62.87585816 </i>
    <i name="e_wo_entrp">    -62.83294346 </i>
    <i name="e_0_energy">    -62.86155326 </i>
   </energy>
  </scstep>
  <structure>
   <crystal>
    <varray name="basis" >
     <v>       3.63000011       0.00000000       0.00000000 </v>
     <v>       0.00000000       3.63000011       0.00000000 </v>
     <v>       0.00000000       0.00000000      27.70499992 </v>
    </varray>
    <i name="volume">    365.06603650 </i>
    <varray name="rec_basis" >
     <v>       0.27548208       0.00000000       0.00000000 </v>
     <v>       0.00000000       0.27548208       0.00000000 </v>
     <v>       0.00000000       0.00000000       0.03609457 </v>
    </varray>
   </crystal>
   <varray name="positions" >
    <v>       0.00000000       0.00017220       0.00162597 </v>
    <v>       0.50000000       0.49989884       0.00171393 </v>
    <v>       0.00000000       0.50014825       0.06479770 </v>
    <v>       0.50000000      -0.00003856       0.06469228 </v>
    <v>       0.00000000       0.00013963       0.12843318 </v>
    <v>       0.50000000       0.49991098       0.12838699 </v>
    <v>       0.00000000       0.50059096       0.19183065 </v>
    <v>       0.50000000      -0.00055927       0.19166683 </v>
    <v>       0.00000000       0.00097859       0.25437180 </v>
    <v>       0.50000000       0.49917725       0.25417668 </v>
    <v>       0.00000000       0.50093500       0.31798301 </v>
    <v>       0.50000000      -0.00054550       0.31713539 </v>
    <v>       0.00000000       0.00197341       0.38034331 </v>
    <v>       0.50000000       0.50158702       0.38011204 </v>
    <v>       0.00000000       0.50374588       0.44234022 </v>
    <v>       0.50000000       0.00838027       0.44100829 </v>
    <v>       1.00000000       0.48948178       0.50776065 </v>
    <v>       1.00000000       0.69953291       0.50157791 </v>
   </varray>
  </structure>
  <varray name="forces" >
   <v>       0.00000000       0.00012565       0.01677015 </v>
   <v>       0.00000000       0.00397841       0.01434616 </v>
   <v>       0.00000000       0.00158582       0.04603030 </v>
   <v>       0.00000000       0.00197536       0.04960183 </v>
   <v>       0.00000000       0.00231085       0.00049444 </v>
   <v>       0.00000000       0.00067388       0.00647340 </v>
   <v>       0.00000000      -0.00142129      -0.02104814 </v>
   <v>       0.00000000       0.00596585      -0.02112278 </v>
   <v>       0.00000000      -0.00186098      -0.02568315 </v>
   <v>       0.00000000       0.00918483      -0.01560755 </v>
   <v>       0.00000000       0.00190600      -0.11496868 </v>
   <v>       0.00000000       0.02301331      -0.06421644 </v>
   <v>       0.00000000       0.02168489      -0.06242075 </v>
   <v>       0.00000000       0.03455925      -0.04983879 </v>
   <v>       0.00000000      -0.02354701       0.05499768 </v>
   <v>       0.00000000      -0.00743874      -0.12988060 </v>
   <v>       0.00000000      -0.49917156       0.23965276 </v>
   <v>       0.00000000       0.42647545       0.07642017 </v>
  </varray>
  <varray name="stress" >
   <v>     -13.44981557       0.00000000       0.00000000 </v>
   <v>       0.00000000     -11.80476809      -1.81741374 </v>
   <v>       0.00000000      -1.81741376      -5.64589049 </v>
  </varray>
  <energy>
   <i name="e_fr_energy">    -69.86705903 </i>
   <i name="e_wo_entrp">    -69.82414433 </i>
   <i name="e_0_energy">    -69.85275413 </i>
  </energy>
  <time name="totalsc">    5.86    5.94</time>
 </calculation>
 <calculation>
  <scstep>
   <time name="dav">    1.17    1.18</time>
   <time name="total">    1.31    1.32</time>
   <energy>
    <i name="alphaZ">    521.04204123 </i>
    <i name="ewald"> 104333.10770084 </i>
    <i name="hartreedc">-126027.85320930 </i>
    <i name="XCdc">    719.79426588 </i>
    <i name="pawpsdc">  21137.26528278 </i>
    <i name="pawaedc"> -22864.68096437 </i>
    <i name="eentropy">     -0.04211902 </i>
    <i name="bandstr">   -161.79154760 </i>
    <i name="atom">  22280.27950853 </i>
    <i name="e_fr_energy">    -62.87904103 </i>
    <i name="e_wo_entrp">    -62.83692201 </i>
    <i name="e_0_energy">    -62.86500136 </i>
   </energy>
  </scstep>
  <scstep>
   <time name="dav">    1.79    1.81</time>
   <time name="total">    1.93    1.95</time>
   <energy>
    <i name="e_fr_energy">    -62.89111316 </i>
    <i name="e_wo_entrp">    -62.84806065 </i>
    <i name="e_0_energy">    -62.87676232 </i>
   </energy>
  </scstep>
  <scstep>
   <time name="dav">    1.65    1.67</time>
   <time name="total">    1.79    1.81</time>
   <energy>
    <i name="e_fr_energy">    -62.88407481 </i>
    <i name="e_wo_entrp">    -62.83964693 </i>
    <i name="e_0_energy">    -62.86926552 </i>
   </energy>
  </scstep>
  <scstep>
   <time name="dav">    1.24    1.25</time>
   <time name="total">    1.38    1.39</time>
   <energy>
    <i name="e_fr_energy">    -62.88375068 </i>
    <i name="e_wo_entrp">    -62.84195498 </i>
    <i name="e_0_energy">    -62.86981878 </i>
   </energy>
  </scstep>
  <scstep>
   <time name="dav">    1.16    1.17</time>
   <time name="total">    1.30    1.31</time>
   <energy>
    <i name="e_fr_energy">    -62.88370854 </i>
    <i name="e_wo_entrp">    -62.84061638 </i>
    <i name="e_0_energy">    -62.86934449 </i>
   </energy>
  </scstep>
  <scstep>
   <time name="dav">    1.09    1.10</time>
[...]
       <r>     8.2042     3.4485   104.7002 </r>
       <r>     8.2797     2.2052   104.8668 </r>
       <r>     8.3553     1.0766   104.9482 </r>
       <r>     8.4308     0.5084   104.9866 </r>
       <r>     8.5064     0.7546   105.0436 </r>
       <r>     8.5819     1.7538   105.1761 </r>
       <r>     8.6575     2.9759   105.4009 </r>
       <r>     8.7330     3.8797   105.6940 </r>
       <r>     8.8086     4.4956   106.0337 </r>
       <r>     8.8841     5.2496   106.4303 </r>
       <r>     8.9597     6.1897   106.8979 </r>
       <r>     9.0352     6.7669   107.4091 </r>
       <r>     9.1107     6.5648   107.9051 </r>
       <r>     9.1863     5.6766   108.3340 </r>
       <r>     9.2618     4.2038   108.6515 </r>
       <r>     9.3374     2.3005   108.8254 </r>
       <r>     9.4129     0.8060   108.8862 </r>
       <r>     9.4885     0.8286   108.9488 </r>
       <r>     9.5640     2.4304   109.1325 </r>
       <r>     9.6396     4.2308   109.4521 </r>
       <r>     9.7151     4.7734   109.8127 </r>
       <r>     9.7907     4.0199   110.1164 </r>
       <r>     9.8662     2.8406   110.3310 </r>
       <r>     9.9418     1.7003   110.4595 </r>
       <r>    10.0173     0.7777   110.5182 </r>
       <r>    10.0929     0.6010   110.5636 </r>
       <r>    10.1684     1.6956   110.6917 </r>
       <r>    10.2440     3.8676   110.9839 </r>
       <r>    10.3195     6.1562   111.4490 </r>
       <r>    10.3951     7.6513   112.0271 </r>
       <r>    10.4706     8.3499   112.6579 </r>
       <r>    10.5462     8.6575   113.3120 </r>
       <r>    10.6217     8.1662   113.9289 </r>
       <r>    10.6973     6.1575   114.3941 </r>
       <r>    10.7728     3.2201   114.6374 </r>
       <r>    10.8484     0.9439   114.7087 </r>
       <r>    10.9239     0.1765   114.7220 </r>
       <r>    10.9995     0.6457   114.7708 </r>
       <r>    11.0750     1.8891   114.9136 </r>
       <r>    11.1506     3.4736   115.1760 </r>
       <r>    11.2261     4.4715   115.5138 </r>
       <r>    11.3017     3.9651   115.8134 </r>
       <r>    11.3772     2.2689   115.9848 </r>
       <r>    11.4528     0.6565   116.0344 </r>
       <r>    11.5283    -0.1037   116.0265 </r>
       <r>    11.6039    -0.2038   116.0111 </r>
       <r>    11.6794    -0.1057   116.0032 </r>
       <r>    11.7550    -0.0333   116.0006 </r>
       <r>    11.8305    -0.0072   116.0001 </r>
       <r>    11.9061    -0.0011   116.0000 </r>
       <r>    11.9816    -0.0001   116.0000 </r>
       <r>    12.0572    -0.0000   116.0000 </r>
       <r>    12.1327    -0.0000   116.0000 </r>
       <r>    12.2083    -0.0000   116.0000 </r>
       <r>    12.2838    -0.0000   116.0000 </r>
       <r>    12.3594    -0.0000   116.0000 </r>
       <r>    12.4349    -0.0000   116.0000 </r>
       <r>    12.5105    -0.0000   116.0000 </r>
       <r>    12.5860     0.0000   116.0000 </r>
       <r>    12.6616     0.0000   116.0000 </r>
       <r>    12.7371     0.0000   116.0000 </r>
       <r>    12.8127     0.0000   116.0000 </r>
       <r>    12.8882     0.0000   116.0000 </r>
       <r>    12.9638     0.0000   116.0000 </r>
       <r>    13.0393     0.0000   116.0000 </r>
       <r>    13.1149     0.0000   116.0000 </r>
       <r>    13.1904     0.0000   116.0000 </r>
       <r>    13.2659     0.0000   116.0000 </r>
      </set>
      <set comment="spin 2">
       <r>    -9.3988     0.0000     0.0000 </r>
       <r>    -9.3232     0.0000     0.0000 </r>
       <r>    -9.2477     0.0000     0.0000 </r>
       <r>    -9.1721     0.0000     0.0000 </r>
       <r>    -9.0966     0.0000     0.0000 </r>
       <r>    -9.0210    -0.0000    -0.0000 </r>
       <r>    -8.9455    -0.0000    -0.0000 </r>
       <r>    -8.8699    -0.0000    -0.0000 </r>
       <r>    -8.7944    -0.0000    -0.0000 </r>
       <r>    -8.7188    -0.0000    -0.0000 </r>
       <r>    -8.6433    -0.0000    -0.0000 </r>
       <r>    -8.5677    -0.0000    -0.0000 </r>
       <r>    -8.4922    -0.0000    -0.0000 </r>
       <r>    -8.4166    -0.0000    -0.0000 </r>
       <r>    -8.3411    -0.0000    -0.0000 </r>
       <r>    -8.2655    -0.0000    -0.0000 </r>
       <r>    -8.1900    -0.0000    -0.0000 </r>
       <r>    -8.1144    -0.0000    -0.0000 </r>
       <r>    -8.0389    -0.0000    -0.0000 </r>
       <r>    -7.9633    -0.0003    -0.0000 </r>
       <r>    -7.8878    -0.0018    -0.0002 </r>
       <r>    -7.8122    -0.0072    -0.0007 </r>
       <r>    -7.7367    -0.0185    -0.0021 </r>
       <r>    -7.6611    -0.0227    -0.0038 </r>
       <r>    -7.5856     0.0258    -0.0019 </r>
       <r>    -7.5100     0.1726     0.0112 </r>
       <r>    -7.4345     0.3687     0.0390 </r>
       <r>    -7.3590     0.4589     0.0737 </r>
       <r>    -7.2834     0.3517     0.1003 </r>
       <r>    -7.2079     0.1430     0.1111 </r>
       <r>    -7.1323    -0.0009     0.1110 </r>
       <r>    -7.0568     0.0094     0.1117 </r>
       <r>    -6.9812     0.1683     0.1244 </r>
       <r>    -6.9057     0.3740     0.1527 </r>
       <r>    -6.8301     0.4583     0.1873 </r>
       <r>    -6.7546     0.3465     0.2135 </r>
       <r>    -6.6790     0.1482     0.2247 </r>
       <r>    -6.6035     0.0081     0.2253 </r>
       <r>    -6.5279    -0.0525     0.2213 </r>
       <r>    -6.4524    -0.0964     0.2140 </r>
       <r>    -6.3768    -0.1216     0.2049 </r>
       <r>    -6.3013     0.0530     0.2089 </r>
       <r>    -6.2257     0.6772     0.2600 </r>
       <r>    -6.1502     1.6330     0.3834 </r>
       <r>    -6.0746     2.2342     0.5522 </r>
       <r>    -5.9991     1.9027     0.6959 </r>
       <r>    -5.9235     0.9358     0.7666 </r>
       <r>    -5.8480     0.1942     0.7813 </r>
       <r>    -5.7724     0.2428     0.7996 </r>
       <r>    -5.6969     0.9684     0.8728 </r>
       <r>    -5.6213     1.6936     1.0008 </r>
       <r>    -5.5458     1.7255     1.1311 </r>
       <r>    -5.4702     1.0568     1.2109 </r>
       <r>    -5.3947     0.2890     1.2328 </r>
       <r>    -5.3191    -0.1356     1.2225 </r>
       <r>    -5.2436    -0.2112     1.2066 </r>
       <r>    -5.1680     0.0358     1.2093 </r>
       <r>    -5.0925     0.7959     1.2694 </r>
       <r>    -5.0169     2.1119     1.4290 </r>
       <r>    -4.9414     3.3566     1.6825 </r>
       <r>    -4.8658     3.5952     1.9542 </r>
       <r>    -4.7903     2.8291     2.1679 </r>
       <r>    -4.7147     2.2506     2.3379 </r>
       <r>    -4.6392     2.7135     2.5429 </r>
       <r>    -4.5636     3.6132     2.8159 </r>
       <r>    -4.4881     3.8680     3.1081 </r>
       <r>    -4.4125     3.2812     3.3560 </r>
       <r>    -4.3370     2.2978     3.5296 </r>
       <r>    -4.2614     1.2555     3.6245 </r>
       <r>    -4.1859     0.5157     3.6634 </r>
       <r>    -4.1103     0.5618     3.7059 </r>
       <r>    -4.0348     1.4636     3.8164 </r>
       <r>    -3.9592     2.6237     4.0147 </r>
       <r>    -3.8837     3.2352     4.2591 </r>
       <r>    -3.8081     2.8681     4.4758 </r>
       <r>    -3.7326     1.7317     4.6066 </r>
       <r>    -3.6570     0.5841     4.6507 </r>
       <r>    -3.5815     0.3139     4.6744 </r>
       <r>    -3.5059     1.2940     4.7722 </r>
       <r>    -3.4304     2.8138     4.9848 </r>
       <r>    -3.3548     3.4293     5.2438 </r>
       <r>    -3.2793     2.5450     5.4361 </r>
       <r>    -3.2038     1.3265     5.5363 </r>
       <r>    -3.1282     1.4373     5.6449 </r>
       <r>    -3.0527     3.3962     5.9015 </r>
       <r>    -2.9771     6.5579     6.3969 </r>
       <r>    -2.9016     9.9548     7.1490 </r>
       <r>    -2.8260    12.5008     8.0934 </r>
       <r>    -2.7505    13.0139     9.0766 </r>
       <r>    -2.6749    11.3792     9.9363 </r>
       <r>    -2.5994     9.3980    10.6463 </r>
       <r>    -2.5238     9.0461    11.3298 </r>
       <r>    -2.4483    10.5954    12.1302 </r>
       <r>    -2.3727    13.4374    13.1454 </r>
       <r>    -2.2972    17.0728    14.4352 </r>
       <r>    -2.2216    20.4351    15.9791 </r>
       <r>    -2.1461    21.7717    17.6239 </r>
       <r>    -2.0705    20.0763    19.1407 </r>
       <r>    -1.9950    16.3464    20.3756 </r>
       <r>    -1.9194    12.9354    21.3529 </r>
       <r>    -1.8439    11.6870    22.2358 </r>
       <r>    -1.7683    12.9328    23.2129 </r>
       <r>    -1.6928    15.7044    24.3993 </r>
       <r>    -1.6172    18.4442    25.7928 </r>
       <r>    -1.5417    19.8297    27.2909 </r>
       <r>    -1.4661    19.5597    28.7686 </r>
       <r>    -1.3906    18.7734    30.1869 </r>
       <r>    -1.3150    19.1712    31.6353 </r>
       <r>    -1.2395    21.4738    33.2576 </r>
       <r>    -1.1639    25.2156    35.1626 </r>
       <r>    -1.0884    29.4167    37.3851 </r>
       <r>    -1.0128    32.6575    39.8523 </r>
       <r>    -0.9373    33.4170    42.3769 </r>
       <r>    -0.8617    31.5528    44.7607 </r>
       <r>    -0.7862    28.7489    46.9327 </r>
       <r>    -0.7106    26.4299    48.9294 </r>
       <r>    -0.6351    24.6584    50.7923 </r>
       <r>    -0.5595    23.7341    52.5854 </r>
       <r>    -0.4840    24.1688    54.4114 </r>
       <r>    -0.4084    24.9424    56.2957 </r>
       <r>    -0.3329    24.8876    58.1760 </r>
       <r>    -0.2573    25.1696    60.0775 </r>
       <r>    -0.1818    27.7386    62.1731 </r>
       <r>    -0.1062    32.1802    64.6043 </r>
       <r>    -0.0307    35.8315    67.3114 </r>
       <r>     0.0449    36.7411    70.0871 </r>
       <r>     0.1204    35.8190    72.7932 </r>
       <r>     0.1960    35.5846    75.4816 </r>
       <r>     0.2715    36.5471    78.2427 </r>
       <r>     0.3471    35.7416    80.9429 </r>
       <r>     0.4226    30.0317    83.2118 </r>
       <r>     0.4982    20.1444    84.7337 </r>
       <r>     0.5737    10.0615    85.4938 </r>
       <r>     0.6493     3.1345    85.7307 </r>
       <r>     0.7248     0.0172    85.7320 </r>
       <r>     0.8004    -0.2794    85.7108 </r>
       <r>     0.8759     1.1523    85.7979 </r>
       <r>     0.9514     3.2103    86.0404 </r>
       <r>     1.0270     4.5342    86.3830 </r>
       <r>     1.1025     4.2773    86.7061 </r>
       <r>     1.1781     2.8104    86.9185 </r>
       <r>     1.2536     1.1879    87.0082 </r>
       <r>     1.3292     0.1776    87.0216 </r>
       <r>     1.4047    -0.1141    87.0130 </r>
       <r>     1.4803     0.0040    87.0133 </r>
       <r>     1.5558     0.2845    87.0348 </r>
       <r>     1.6314     0.8678    87.1004 </r>
       <r>     1.7069     2.1384    87.2619 </r>
       <r>     1.7825     4.0948    87.5713 </r>
       <r>     1.8580     5.9072    88.0176 </r>
       <r>     1.9336     6.5566    88.5129 </r>
       <r>     2.0091     5.9846    88.9650 </r>
       <r>     2.0847     4.8426    89.3309 </r>
       <r>     2.1602     3.3675    89.5853 </r>
       <r>     2.2358     1.7900    89.7205 </r>
       <r>     2.3113     1.2197    89.8127 </r>
       <r>     2.3869     2.5252    90.0035 </r>
       <r>     2.4624     4.6912    90.3579 </r>
       <r>     2.5380     5.6405    90.7840 </r>
       <r>     2.6135     4.7128    91.1400 </r>
       <r>     2.6891     3.2333    91.3843 </r>
       <r>     2.7646     2.7081    91.5889 </r>
       <r>     2.8402     3.3160    91.8394 </r>
       <r>     2.9157     3.9211    92.1357 </r>
       <r>     2.9913     3.3744    92.3906 </r>
       <r>     3.0668     1.9619    92.5388 </r>
       <r>     3.1424     1.0218    92.6160 </r>
       <r>     3.2179     1.1440    92.7025 </r>
       <r>     3.2935     1.5822    92.8220 </r>
       <r>     3.3690     1.5068    92.9358 </r>
       <r>     3.4446     1.0439    93.0147 </r>
       <r>     3.5201     0.7498    93.0713 </r>
       <r>     3.5957     0.7670    93.1293 </r>
       <r>     3.6712     1.0244    93.2067 </r>
       <r>     3.7468     1.6030    93.3278 </r>
       <r>     3.8223     2.3779    93.5074 </r>
       <r>     3.8979     2.8866    93.7255 </r>
       <r>     3.9734     2.8232    93.9388 </r>
       <r>     4.0490     2.2156    94.1062 </r>
       <r>     4.1245     1.2811    94.2030 </r>
       <r>     4.2001     0.3965    94.2329 </r>
       <r>     4.2756    -0.0970    94.2256 </r>
       <r>     4.3512    -0.1052    94.2177 </r>
       <r>     4.4267     0.3272    94.2424 </r>
       <r>     4.5023     1.0857    94.3244 </r>
       <r>     4.5778     1.8497    94.4641 </r>
       <r>     4.6534     2.1665    94.6278 </r>
       <r>     4.7289     1.8758    94.7695 </r>
       <r>     4.8045     1.3992    94.8752 </r>
       <r>     4.8800     1.3229    94.9752 </r>
       <r>     4.9555     1.6485    95.0997 </r>
       <r>     5.0311     1.8857    95.2422 </r>
       <r>     5.1066     1.8594    95.3827 </r>
       <r>     5.1822     1.8117    95.5196 </r>
       <r>     5.2577     1.8729    95.6610 </r>
       <r>     5.3333     2.0172    95.8134 </r>
       <r>     5.4088     2.2349    95.9823 </r>
       <r>     5.4844     2.4418    96.1668 </r>
       <r>     5.5599     2.5135    96.3567 </r>
       <r>     5.6355     2.4437    96.5413 </r>
       <r>     5.7110     2.3920    96.7220 </r>
       <r>     5.7866     2.7059    96.9264 </r>
       <r>     5.8621     3.7773    97.2118 </r>
       <r>     5.9377     5.4289    97.6219 </r>
       <r>     6.0132     6.4555    98.1096 </r>
       <r>     6.0888     5.6826    98.5390 </r>
       <r>     6.1643     3.5683    98.8085 </r>
       <r>     6.2399     1.6673    98.9345 </r>
       <r>     6.3154     0.7891    98.9941 </r>
       <r>     6.3910     0.7238    99.0488 </r>
       <r>     6.4665     1.1996    99.1394 </r>
       <r>     6.5421     2.1733    99.3036 </r>
       <r>     6.6176     3.3117    99.5538 </r>
       <r>     6.6932     3.7703    99.8387 </r>
       <r>     6.7687     3.0796   100.0713 </r>
       <r>     6.8443     2.0818   100.2286 </r>
       <r>     6.9198     2.1235   100.3890 </r>
       <r>     6.9954     3.3988   100.6458 </r>
       <r>     7.0709     4.8234   101.0102 </r>
       <r>     7.1465     5.3306   101.4129 </r>
       <r>     7.2220     4.6951   101.7676 </r>
       <r>     7.2976     3.3556   102.0212 </r>
       <r>     7.3731     2.1196   102.1813 </r>
       <r>     7.4487     1.8835   102.3236 </r>
       <r>     7.5242     2.8710   102.5405 </r>
       <r>     7.5998     4.1493   102.8540 </r>
       <r>     7.6753     4.4541   103.1905 </r>
       <r>     7.7509     3.4595   103.4518 </r>
       <r>     7.8264     2.0254   103.6048 </r>
       <r>     7.9020     1.4043   103.7109 </r>
       <r>     7.9775     2.1347   103.8722 </r>
       <r>     8.0531     3.4555   104.1333 </r>
       <r>     8.1286     4.0558   104.4397 </r>
       <r>     8.2042     3.4485   104.7002 </r>
       <r>     8.2797     2.2053   104.8668 </r>
       <r>     8.3553     1.0767   104.9482 </r>
       <r>     8.4308     0.5084   104.9866 </r>
       <r>     8.5064     0.7546   105.0436 </r>
       <r>     8.5819     1.7537   105.1761 </r>
       <r>     8.6575     2.9758   105.4009 </r>
       <r>     8.7330     3.8796   105.6940 </r>
       <r>     8.8086     4.4956   106.0336 </r>
       <r>     8.8841     5.2495   106.4302 </r>
       <r>     8.9597     6.1897   106.8979 </r>
       <r>     9.0352     6.7669   107.4091 </r>
       <r>     9.1107     6.5649   107.9051 </r>
       <r>     9.1863     5.6767   108.3339 </r>
       <r>     9.2618     4.2039   108.6515 </r>
       <r>     9.3374     2.3006   108.8254 </r>
       <r>     9.4129     0.8060   108.8862 </r>
       <r>     9.4885     0.8285   108.9488 </r>
       <r>     9.5640     2.4303   109.1324 </r>
       <r>     9.6396     4.2307   109.4521 </r>
       <r>     9.7151     4.7734   109.8127 </r>
       <r>     9.7907     4.0200   110.1164 </r>
       <r>     9.8662     2.8407   110.3310 </r>
       <r>     9.9418     1.7003   110.4595 </r>
       <r>    10.0173     0.7777   110.5182 </r>
       <r>    10.0929     0.6009   110.5636 </r>
       <r>    10.1684     1.6955   110.6917 </r>
       <r>    10.2440     3.8675   110.9839 </r>
       <r>    10.3195     6.1560   111.4490 </r>
       <r>    10.3951     7.6513   112.0271 </r>
       <r>    10.4706     8.3499   112.6579 </r>
       <r>    10.5462     8.6576   113.3119 </r>
       <r>    10.6217     8.1663   113.9289 </r>
       <r>    10.6973     6.1576   114.3941 </r>
       <r>    10.7728     3.2202   114.6374 </r>
       <r>    10.8484     0.9440   114.7087 </r>
       <r>    10.9239     0.1765   114.7220 </r>
       <r>    10.9995     0.6457   114.7708 </r>
       <r>    11.0750     1.8890   114.9135 </r>
       <r>    11.1506     3.4735   115.1760 </r>
       <r>    11.2261     4.4714   115.5138 </r>
       <r>    11.3017     3.9651   115.8133 </r>
       <r>    11.3772     2.2690   115.9848 </r>
       <r>    11.4528     0.6566   116.0344 </r>
       <r>    11.5283    -0.1037   116.0265 </r>
       <r>    11.6039    -0.2038   116.0111 </r>
       <r>    11.6794    -0.1057   116.0032 </r>
       <r>    11.7550    -0.0333   116.0006 </r>
       <r>    11.8305    -0.0072   116.0001 </r>
       <r>    11.9061    -0.0011   116.0000 </r>
       <r>    11.9816    -0.0001   116.0000 </r>
       <r>    12.0572    -0.0000   116.0000 </r>
       <r>    12.1327    -0.0000   116.0000 </r>
       <r>    12.2083    -0.0000   116.0000 </r>
       <r>    12.2838    -0.0000   116.0000 </r>
       <r>    12.3594    -0.0000   116.0000 </r>
       <r>    12.4349    -0.0000   116.0000 </r>
       <r>    12.5105    -0.0000   116.0000 </r>
       <r>    12.5860     0.0000   116.0000 </r>
       <r>    12.6616     0.0000   116.0000 </r>
       <r>    12.7371     0.0000   116.0000 </r>
       <r>    12.8127     0.0000   116.0000 </r>
       <r>    12.8882     0.0000   116.0000 </r>
       <r>    12.9638     0.0000   116.0000 </r>
       <r>    13.0393     0.0000   116.0000 </r>
       <r>    13.1149     0.0000   116.0000 </r>
       <r>    13.1904     0.0000   116.0000 </r>
       <r>    13.2659     0.0000   116.0000 </r>
      </set>
     </set>
    </array>
   </total>
  </dos>
 </calculation>
 <structure name="finalpos" >
  <crystal>
   <varray name="basis" >
    <v>       3.63000011       0.00000000       0.00000000 </v>
    <v>       0.00000000       3.63000011       0.00000000 </v>
    <v>       0.00000000       0.00000000      27.70499992 </v>
   </varray>
   <i name="volume">    365.06603650 </i>
   <varray name="rec_basis" >
    <v>       0.27548208       0.00000000       0.00000000 </v>
    <v>       0.00000000       0.27548208       0.00000000 </v>
    <v>       0.00000000       0.00000000       0.03609457 </v>
   </varray>
  </crystal>
  <varray name="positions" >
   <v>       0.00000000       0.01198862      -0.00149892 </v>
   <v>       0.50000000       0.51194420      -0.00149283 </v>
   <v>       0.00000000       0.51149424       0.06152462 </v>
   <v>       0.50000000       0.01147863       0.06149329 </v>
   <v>       0.00000000       0.01105818       0.12482610 </v>
   <v>       0.50000000       0.51109948       0.12482565 </v>
   <v>       0.00000000       0.51118359       0.18774007 </v>
   <v>       0.50000000       0.01135953       0.18769299 </v>
   <v>       0.00000000       0.01087223       0.24955796 </v>
   <v>       0.50000000       0.51101356       0.24953784 </v>
   <v>       0.00000000       0.51111834       0.31244463 </v>
   <v>       0.50000000       0.01125359       0.31231623 </v>
   <v>       0.00000000       0.01124343       0.37560378 </v>
   <v>       0.50000000       0.51144117       0.37557283 </v>
   <v>       0.00000000       0.51078240       0.43844919 </v>
   <v>       0.50000000       0.01104064       0.43801194 </v>
   <v>       1.00000000       0.41202400       0.54019447 </v>
   <v>       1.00000000       0.61311380       0.53315698 </v>
  </varray>
 </structure>
</modeling>
