unknown system                          
           1
     3.630000    0.000000    0.000000
     0.000000    3.630000    0.000000
     0.000000    0.000000   27.705000
   Cu   H 
    16     2
Direct configuration=     1
   0.00000000  0.00000000  0.00000000
   0.50000000  0.50000000  0.00000000
   0.00000000  0.50000000  0.06551164
   0.50000000  0.00000000  0.06551164
   0.00000000  0.00000000  0.12876120
   0.50000000  0.50000000  0.12876120
   0.00000000  0.50000000  0.19193187
   0.50000000  0.00000000  0.19193187
   0.00000000  0.00000000  0.25406550
   0.50000000  0.50000000  0.25406550
   0.00000000  0.50000000  0.31747855
   0.50000000  0.00000000  0.31747855
   0.00000000  0.00000000  0.38132233
   0.50000000  0.50000000  0.38132233
   0.00000000  0.50000000  0.44440075
   0.50000000  0.00000000  0.44440075
   1.00000000  0.50000000  0.50150658
   1.00000000  0.70550964  0.50150658
Direct configuration=     2
   0.00000000  0.00004174  0.00045148
   0.50000000  0.49995609  0.00046723
   0.00000000  0.50004801  0.06516801
   0.50000000 -0.00004096  0.06513026
   0.00000000 -0.00002847  0.12879207
   0.50000000  0.50002254  0.12878112
   0.00000000  0.50015648  0.19187836
   0.50000000 -0.00016904  0.19182338
   0.00000000  0.00035460  0.25416156
   0.50000000  0.49965408  0.25412227
   0.00000000  0.50015042  0.31767109
   0.50000000 -0.00015348  0.31738548
   0.00000000  0.00059589  0.38130632
   0.50000000  0.49975877  0.38126268
   0.00000000  0.49978078  0.44276659
   0.50000000  0.00251998  0.44354099
   1.00000000  0.47320195  0.50359288
   1.00000000  0.72966026  0.50165507
Direct configuration=     3
   0.00000000  0.00002167  0.00023437
   0.50000000  0.49997720  0.00024255
   0.00000000  0.50002493  0.06533325
   0.50000000 -0.00002126  0.06531366
   0.00000000 -0.00001478  0.12877722
   0.50000000  0.50001170  0.12877154
   0.00000000  0.50008123  0.19190409
   0.50000000 -0.00008775  0.19187555
   0.00000000  0.00018408  0.25411537
   0.50000000  0.49982042  0.25409497
   0.00000000  0.50007808  0.31757850
   0.50000000 -0.00007968  0.31743023
   0.00000000  0.00030934  0.38131402
   0.50000000  0.49987477  0.38129136
   0.00000000  0.49988620  0.44355242
   0.50000000  0.00130818  0.44395443
   1.00000000  0.48608853  0.50258962
   1.00000000  0.71804677  0.50158366
Direct configuration=     4
   0.00000000  0.00006354  0.00061150
   0.50000000  0.49993813  0.00064110
   0.00000000  0.50006991  0.06507756
   0.50000000 -0.00005728  0.06502943
   0.00000000 -0.00002199  0.12877078
   0.50000000  0.50002114  0.12874833
   0.00000000  0.50022528  0.19186100
   0.50000000 -0.00023496  0.19179426
   0.00000000  0.00048680  0.25420958
   0.50000000  0.49952141  0.25413706
   0.00000000  0.50024203  0.31775132
   0.50000000 -0.00022679  0.31736342
   0.00000000  0.00071255  0.38120568
   0.50000000  0.49988874  0.38112103
   0.00000000  0.50083921  0.44300344
   0.50000000  0.00331485  0.44325748
   1.00000000  0.48630124  0.50389156
   1.00000000  0.71442583  0.50148233
Direct configuration=     5
   0.00000000  0.00013528  0.00125760
   0.50000000  0.49987119  0.00132390
   0.00000000  0.50014699  0.06463949
   0.50000000 -0.00011900  0.06454248
   0.00000000 -0.00003433  0.12875973
   0.50000000  0.50003730  0.12870856
   0.00000000  0.50047206  0.19178717
   0.50000000 -0.00048716  0.19165499
   0.00000000  0.00100543  0.25437098
   0.50000000  0.49900914  0.25420917
   0.00000000  0.50052290  0.31804741
   0.50000000 -0.00047883  0.31724896
   0.00000000  0.00140334  0.38102006
   0.50000000  0.49991267  0.38082920
   0.00000000  0.50247193  0.44206290
   0.50000000  0.00675274  0.44206345
   1.00000000  0.48666566  0.50612207
   1.00000000  0.70822232  0.50130872
Direct configuration=     6
   0.00000000  0.00016422  0.00151825
   0.50000000  0.49984419  0.00159936
   0.00000000  0.50017808  0.06446277
   0.50000000 -0.00014389  0.06434604
   0.00000000 -0.00003931  0.12875528
   0.50000000  0.50004382  0.12869251
   0.00000000  0.50057161  0.19175738
   0.50000000 -0.00058890  0.19159880
   0.00000000  0.00121465  0.25443609
   0.50000000  0.49880248  0.25423826
   0.00000000  0.50063621  0.31816686
   0.50000000 -0.00058051  0.31720278
   0.00000000  0.00168202  0.38094518
   0.50000000  0.49992233  0.38071147
   0.00000000  0.50313061  0.44168347
   0.50000000  0.00813965  0.44158176
   1.00000000  0.48681267  0.50702191
   1.00000000  0.70571970  0.50123868
Direct configuration=     7
   0.00000000  0.00017131  0.00161398
   0.50000000  0.49989276  0.00170118
   0.00000000  0.50015157  0.06476042
   0.50000000 -0.00005028  0.06465375
   0.00000000  0.00011972  0.12846903
   0.50000000  0.49992576  0.12842100
   0.00000000  0.50058881  0.19182250
   0.50000000 -0.00056257  0.19165926
   0.00000000  0.00100486  0.25437895
   0.50000000  0.49913554  0.25418353
   0.00000000  0.50090174  0.31800347
   0.50000000 -0.00054940  0.31714289
   0.00000000  0.00194098  0.38041029
   0.50000000  0.50140175  0.38017875
   0.00000000  0.50367740  0.44226713
   0.50000000  0.00835349  0.44107211
   1.00000000  0.48918473  0.50767844
   1.00000000  0.70022145  0.50154015
Direct configuration=     8
   0.00000000  0.00017220  0.00162597
   0.50000000  0.49989884  0.00171393
   0.00000000  0.50014825  0.06479770
   0.50000000 -0.00003856  0.06469228
   0.00000000  0.00013963  0.12843318
   0.50000000  0.49991098  0.12838699
   0.00000000  0.50059096  0.19183065
   0.50000000 -0.00055927  0.19166683
   0.00000000  0.00097859  0.25437180
   0.50000000  0.49917725  0.25417668
   0.00000000  0.50093500  0.31798301
   0.50000000 -0.00054550  0.31713539
   0.00000000  0.00197341  0.38034331
   0.50000000  0.50158702  0.38011204
   0.00000000  0.50374588  0.44234022
   0.50000000  0.00838027  0.44100829
   1.00000000  0.48948178  0.50776065
   1.00000000  0.69953291  0.50157791
Direct configuration=     9
   0.00000000  0.00017651  0.00168727
   0.50000000  0.49994788  0.00177626
   0.00000000  0.50014503  0.06498327
   0.50000000  0.00002029  0.06488578
   0.00000000  0.00023307  0.12829146
   0.50000000  0.49985658  0.12825750
   0.00000000  0.50059060  0.19184570
   0.50000000 -0.00050882  0.19167951
   0.00000000  0.00086277  0.25432235
   0.50000000  0.49940017  0.25413670
   0.00000000  0.50107878  0.31780750
   0.50000000 -0.00038586  0.31705294
   0.00000000  0.00223786  0.38002649
   0.50000000  0.50253811  0.37980663
   0.00000000  0.50386983  0.44267516
   0.50000000  0.00843984  0.44064861
   1.00000000  0.48753185  0.50828337
   1.00000000  0.69947515  0.50179033
Direct configuration=    10
   0.00000000  0.00018681  0.00183388
   0.50000000  0.50006517  0.00192533
   0.00000000  0.50013731  0.06542710
   0.50000000  0.00016105  0.06534856
   0.00000000  0.00045654  0.12795253
   0.50000000  0.49972649  0.12794780
   0.00000000  0.50058972  0.19188170
   0.50000000 -0.00038815  0.19170983
   0.00000000  0.00058577  0.25420408
   0.50000000  0.49993329  0.25404107
   0.00000000  0.50142265  0.31738776
   0.50000000 -0.00000406  0.31685574
   0.00000000  0.00287031  0.37926879
   0.50000000  0.50481271  0.37907620
   0.00000000  0.50416627  0.44347620
   0.50000000  0.00858230  0.43978843
   1.00000000  0.48286846  0.50953349
   1.00000000  0.69933701  0.50229836
Direct configuration=    11
   0.00000000  0.00018356  0.00178761
   0.50000000  0.50002815  0.00187828
   0.00000000  0.50013975  0.06528702
   0.50000000  0.00011662  0.06520250
   0.00000000  0.00038601  0.12805950
   0.50000000  0.49976755  0.12804554
   0.00000000  0.50058999  0.19187034
   0.50000000 -0.00042624  0.19170026
   0.00000000  0.00067319  0.25424141
   0.50000000  0.49976503  0.25407125
   0.00000000  0.50131412  0.31752024
   0.50000000 -0.00012456  0.31691798
   0.00000000  0.00267070  0.37950793
   0.50000000  0.50409482  0.37930674
   0.00000000  0.50407271  0.44322338
   0.50000000  0.00853734  0.44005991
   1.00000000  0.48434029  0.50913894
   1.00000000  0.69938061  0.50213802
Direct configuration=    12
   0.00000000  0.00019110  0.00188047
   0.50000000  0.50007545  0.00196845
   0.00000000  0.50018225  0.06530811
   0.50000000  0.00012010  0.06522604
   0.00000000  0.00038274  0.12815176
   0.50000000  0.49981275  0.12814368
   0.00000000  0.50057980  0.19180097
   0.50000000 -0.00034289  0.19162670
   0.00000000  0.00072734  0.25418007
   0.50000000  0.49983213  0.25401888
   0.00000000  0.50135669  0.31729760
   0.50000000  0.00029969  0.31674501
   0.00000000  0.00304211  0.37943841
   0.50000000  0.50433328  0.37924953
   0.00000000  0.50395235  0.44328789
   0.50000000  0.00854706  0.43978963
   1.00000000  0.48382706  0.50941485
   1.00000000  0.69859063  0.50242880
Direct configuration=    13
   0.00000000  0.00021372  0.00215906
   0.50000000  0.50021732  0.00223897
   0.00000000  0.50030975  0.06537138
   0.50000000  0.00013054  0.06529665
   0.00000000  0.00037294  0.12842853
   0.50000000  0.49994835  0.12843811
   0.00000000  0.50054922  0.19159284
   0.50000000 -0.00009284  0.19140601
   0.00000000  0.00088979  0.25399605
   0.50000000  0.50003342  0.25386176
   0.00000000  0.50148439  0.31662968
   0.50000000  0.00157244  0.31622610
   0.00000000  0.00415633  0.37922984
   0.50000000  0.50504866  0.37907791
   0.00000000  0.50359129  0.44348142
   0.50000000  0.00857624  0.43897880
   1.00000000  0.48228739  0.51024257
   1.00000000  0.69622067  0.50330115
Direct configuration=    14
   0.00000000  0.00025896  0.00271624
   0.50000000  0.50050108  0.00278000
   0.00000000  0.50056475  0.06549791
   0.50000000  0.00015141  0.06543787
   0.00000000  0.00035333  0.12898208
   0.50000000  0.50021956  0.12902698
   0.00000000  0.50048805  0.19117660
   0.50000000  0.00040726  0.19096463
   0.00000000  0.00121470  0.25362801
   0.50000000  0.50043602  0.25354754
   0.00000000  0.50173981  0.31529384
   0.50000000  0.00411794  0.31518828
   0.00000000  0.00638478  0.37881272
   0.50000000  0.50647943  0.37873468
   0.00000000  0.50286917  0.44386849
   0.50000000  0.00863460  0.43735712
   1.00000000  0.47920803  0.51189801
   1.00000000  0.69148075  0.50504584
Direct configuration=    15
   0.00000000  0.00023072  0.00236846
   0.50000000  0.50032397  0.00244231
   0.00000000  0.50040558  0.06541893
   0.50000000  0.00013838  0.06534973
   0.00000000  0.00036557  0.12863657
   0.50000000  0.50005028  0.12865943
   0.00000000  0.50052623  0.19143641
   0.50000000  0.00009511  0.19124013
   0.00000000  0.00101190  0.25385773
   0.50000000  0.50018473  0.25374367
   0.00000000  0.50158038  0.31612763
   0.50000000  0.00252911  0.31583606
   0.00000000  0.00499385  0.37907307
   0.50000000  0.50558639  0.37894891
   0.00000000  0.50331990  0.44362690
   0.50000000  0.00859817  0.43836933
   1.00000000  0.48113008  0.51086473
   1.00000000  0.69443927  0.50395685
Direct configuration=    16
   0.00000000  0.00034829  0.00253858
   0.50000000  0.50038184  0.00260268
   0.00000000  0.50045213  0.06552690
   0.50000000  0.00024067  0.06544901
   0.00000000  0.00037300  0.12873040
   0.50000000  0.50023123  0.12874629
   0.00000000  0.50066595  0.19144960
   0.50000000  0.00023599  0.19124369
   0.00000000  0.00117690  0.25344827
   0.50000000  0.50061808  0.25334295
   0.00000000  0.50230610  0.31598993
   0.50000000  0.00290975  0.31565670
   0.00000000  0.00519180  0.37882909
   0.50000000  0.50573527  0.37870355
   0.00000000  0.50356303  0.44342758
   0.50000000  0.00832170  0.43820495
   1.00000000  0.48071810  0.51135267
   1.00000000  0.69203982  0.50471400
Direct configuration=    17
   0.00000000  0.00052201  0.00278993
   0.50000000  0.50046733  0.00283964
   0.00000000  0.50052091  0.06568641
   0.50000000  0.00039180  0.06559570
   0.00000000  0.00038398  0.12886902
   0.50000000  0.50049856  0.12887464
   0.00000000  0.50087238  0.19146910
   0.50000000  0.00044414  0.19124895
   0.00000000  0.00142067  0.25284332
   0.50000000  0.50125832  0.25275090
   0.00000000  0.50337830  0.31578647
   0.50000000  0.00347212  0.31539170
   0.00000000  0.00548426  0.37846861
   0.50000000  0.50595524  0.37834104
   0.00000000  0.50392224  0.44313310
   0.50000000  0.00791323  0.43796210
   1.00000000  0.48010942  0.51207358
   1.00000000  0.68849472  0.50583264
Direct configuration=    18
   0.00000000  0.00059180  0.00287224
   0.50000000  0.50050288  0.00291605
   0.00000000  0.50054914  0.06576066
   0.50000000  0.00046322  0.06566485
   0.00000000  0.00042540  0.12889051
   0.50000000  0.50058800  0.12889157
   0.00000000  0.50096316  0.19145088
   0.50000000  0.00055214  0.19122910
   0.00000000  0.00157786  0.25267215
   0.50000000  0.50149015  0.25258187
   0.00000000  0.50376904  0.31570859
   0.50000000  0.00363632  0.31528016
   0.00000000  0.00552322  0.37834132
   0.50000000  0.50595306  0.37821166
   0.00000000  0.50411551  0.44295856
   0.50000000  0.00777665  0.43792694
   1.00000000  0.47861845  0.51237876
   1.00000000  0.68841366  0.50622097
Direct configuration=    19
   0.00000000  0.00074700  0.00305530
   0.50000000  0.50058192  0.00308599
   0.00000000  0.50061192  0.06592579
   0.50000000  0.00062204  0.06581862
   0.00000000  0.00051750  0.12893831
   0.50000000  0.50078689  0.12892923
   0.00000000  0.50116504  0.19141036
   0.50000000  0.00079231  0.19118496
   0.00000000  0.00192746  0.25229150
   0.50000000  0.50200573  0.25220594
   0.00000000  0.50463801  0.31553540
   0.50000000  0.00400148  0.31503210
   0.00000000  0.00560986  0.37805823
   0.50000000  0.50594823  0.37792393
   0.00000000  0.50454532  0.44257041
   0.50000000  0.00747291  0.43784874
   1.00000000  0.47530264  0.51305746
   1.00000000  0.68823339  0.50708457
Direct configuration=    20
   0.00000000  0.00072363  0.00302774
   0.50000000  0.50057002  0.00306040
   0.00000000  0.50060246  0.06590092
   0.50000000  0.00059812  0.06579547
   0.00000000  0.00050363  0.12893111
   0.50000000  0.50075694  0.12892356
   0.00000000  0.50113464  0.19141646
   0.50000000  0.00075615  0.19119161
   0.00000000  0.00187482  0.25234881
   0.50000000  0.50192810  0.25226255
   0.00000000  0.50450716  0.31556148
   0.50000000  0.00394650  0.31506945
   0.00000000  0.00559681  0.37810086
   0.50000000  0.50594896  0.37796725
   0.00000000  0.50448060  0.44262885
   0.50000000  0.00751865  0.43786051
   1.00000000  0.47580190  0.51295526
   1.00000000  0.68826053  0.50695454
Direct configuration=    21
   0.00000000  0.00075940  0.00306115
   0.50000000  0.50060478  0.00309073
   0.00000000  0.50063483  0.06595432
   0.50000000  0.00065148  0.06584777
   0.00000000  0.00058706  0.12890921
   0.50000000  0.50079102  0.12889975
   0.00000000  0.50120616  0.19134617
   0.50000000  0.00087527  0.19112700
   0.00000000  0.00207461  0.25236388
   0.50000000  0.50202490  0.25227444
   0.00000000  0.50462058  0.31547632
   0.50000000  0.00401058  0.31496532
   0.00000000  0.00557898  0.37804817
   0.50000000  0.50585209  0.37791223
   0.00000000  0.50467063  0.44248862
   0.50000000  0.00749831  0.43789579
   1.00000000  0.47541438  0.51311215
   1.00000000  0.68765457  0.50718382
Direct configuration=    22
   0.00000000  0.00086671  0.00316140
   0.50000000  0.50070905  0.00318174
   0.00000000  0.50073192  0.06611450
   0.50000000  0.00081156  0.06600469
   0.00000000  0.00083733  0.12884351
   0.50000000  0.50089326  0.12882831
   0.00000000  0.50142069  0.19113528
   0.50000000  0.00123264  0.19093317
   0.00000000  0.00267398  0.25240909
   0.50000000  0.50231532  0.25231010
   0.00000000  0.50496083  0.31522085
   0.50000000  0.00420285  0.31465294
   0.00000000  0.00552550  0.37789009
   0.50000000  0.50556149  0.37774716
   0.00000000  0.50524070  0.44206790
   0.50000000  0.00743729  0.43800164
   1.00000000  0.47425182  0.51358281
   1.00000000  0.68583669  0.50787165
Direct configuration=    23
   0.00000000  0.00108131  0.00336190
   0.50000000  0.50091759  0.00336374
   0.00000000  0.50092611  0.06643487
   0.50000000  0.00113172  0.06631851
   0.00000000  0.00133787  0.12871210
   0.50000000  0.50109773  0.12868544
   0.00000000  0.50184976  0.19071351
   0.50000000  0.00194739  0.19054550
   0.00000000  0.00387273  0.25249951
   0.50000000  0.50289615  0.25238144
   0.00000000  0.50564133  0.31470991
   0.50000000  0.00458737  0.31402817
   0.00000000  0.00541854  0.37757393
   0.50000000  0.50498029  0.37741703
   0.00000000  0.50638084  0.44122647
   0.50000000  0.00731525  0.43821334
   1.00000000  0.47192671  0.51452412
   1.00000000  0.68220094  0.50924733
Direct configuration=    24
   0.00000000  0.00099564  0.00328186
   0.50000000  0.50083434  0.00329108
   0.00000000  0.50084859  0.06630697
   0.50000000  0.00100390  0.06619323
   0.00000000  0.00113805  0.12876456
   0.50000000  0.50101610  0.12874248
   0.00000000  0.50167847  0.19088189
   0.50000000  0.00166205  0.19070026
   0.00000000  0.00339417  0.25246341
   0.50000000  0.50266428  0.25235296
   0.00000000  0.50536966  0.31491389
   0.50000000  0.00443386  0.31427759
   0.00000000  0.00546124  0.37770015
   0.50000000  0.50521231  0.37754883
   0.00000000  0.50592568  0.44156239
   0.50000000  0.00736397  0.43812883
   1.00000000  0.47285493  0.51414833
   1.00000000  0.68365239  0.50869814
Direct configuration=    25
   0.00000000  0.00101332  0.00329838
   0.50000000  0.50085152  0.00330607
   0.00000000  0.50086459  0.06633336
   0.50000000  0.00103028  0.06621908
   0.00000000  0.00117929  0.12875373
   0.50000000  0.50103295  0.12873071
   0.00000000  0.50171382  0.19084714
   0.50000000  0.00172094  0.19066832
   0.00000000  0.00349294  0.25247086
   0.50000000  0.50271213  0.25235883
   0.00000000  0.50542573  0.31487179
   0.50000000  0.00446554  0.31422612
   0.00000000  0.00545243  0.37767410
   0.50000000  0.50516443  0.37752163
   0.00000000  0.50601961  0.44149306
   0.50000000  0.00735391  0.43814627
   1.00000000  0.47266337  0.51422589
   1.00000000  0.68335285  0.50881148
Direct configuration=    26
   0.00000000  0.00100134  0.00328718
   0.50000000  0.50083988  0.00329591
   0.00000000  0.50085375  0.06631548
   0.50000000  0.00101240  0.06620156
   0.00000000  0.00115134  0.12876107
   0.50000000  0.50102153  0.12873869
   0.00000000  0.50168986  0.19087069
   0.50000000  0.00168103  0.19068997
   0.00000000  0.00342600  0.25246581
   0.50000000  0.50267970  0.25235485
   0.00000000  0.50538773  0.31490032
   0.50000000  0.00444407  0.31426100
   0.00000000  0.00545840  0.37769175
   0.50000000  0.50519688  0.37754006
   0.00000000  0.50595595  0.44154005
   0.50000000  0.00736073  0.43813445
   1.00000000  0.47279320  0.51417333
   1.00000000  0.68355586  0.50873466
Direct configuration=    27
   0.00000000  0.00100733  0.00329278
   0.50000000  0.50084570  0.00330099
   0.00000000  0.50085917  0.06632442
   0.50000000  0.00102134  0.06621032
   0.00000000  0.00116531  0.12875740
   0.50000000  0.50102724  0.12873470
   0.00000000  0.50170184  0.19085892
   0.50000000  0.00170098  0.19067915
   0.00000000  0.00345947  0.25246834
   0.50000000  0.50269591  0.25235684
   0.00000000  0.50540673  0.31488606
   0.50000000  0.00445481  0.31424356
   0.00000000  0.00545542  0.37768292
   0.50000000  0.50518065  0.37753084
   0.00000000  0.50598778  0.44151655
   0.50000000  0.00735732  0.43814036
   1.00000000  0.47272828  0.51419961
   1.00000000  0.68345435  0.50877307
Direct configuration=    28
   0.00000000  0.00100409  0.00328976
   0.50000000  0.50084256  0.00329825
   0.00000000  0.50085624  0.06631959
   0.50000000  0.00101652  0.06620559
   0.00000000  0.00115777  0.12875938
   0.50000000  0.50102416  0.12873685
   0.00000000  0.50169538  0.19086527
   0.50000000  0.00169021  0.19068499
   0.00000000  0.00344141  0.25246698
   0.50000000  0.50268716  0.25235577
   0.00000000  0.50539647  0.31489376
   0.50000000  0.00444901  0.31425297
   0.00000000  0.00545703  0.37768769
   0.50000000  0.50518941  0.37753582
   0.00000000  0.50597060  0.44152923
   0.50000000  0.00735916  0.43813717
   1.00000000  0.47276332  0.51418542
   1.00000000  0.68350914  0.50875234
Direct configuration=    29
   0.00000000  0.00103941  0.00333210
   0.50000000  0.50094346  0.00333993
   0.00000000  0.50101627  0.06627106
   0.50000000  0.00107188  0.06616862
   0.00000000  0.00128722  0.12869894
   0.50000000  0.50117098  0.12868173
   0.00000000  0.50199558  0.19083532
   0.50000000  0.00181889  0.19066544
   0.00000000  0.00365511  0.25242251
   0.50000000  0.50289722  0.25231277
   0.00000000  0.50517980  0.31486391
   0.50000000  0.00437495  0.31427453
   0.00000000  0.00551253  0.37761602
   0.50000000  0.50517385  0.37746900
   0.00000000  0.50621017  0.44136030
   0.50000000  0.00751465  0.43817052
   1.00000000  0.47205867  0.51442590
   1.00000000  0.68258898  0.50904824
Direct configuration=    30
   0.00000000  0.00114538  0.00345913
   0.50000000  0.50124618  0.00346496
   0.00000000  0.50149636  0.06612547
   0.50000000  0.00123797  0.06605770
   0.00000000  0.00167556  0.12851763
   0.50000000  0.50161144  0.12851639
   0.00000000  0.50289620  0.19074546
   0.50000000  0.00220492  0.19060679
   0.00000000  0.00429624  0.25228911
   0.50000000  0.50352739  0.25218379
   0.00000000  0.50452977  0.31477435
   0.50000000  0.00415276  0.31433919
   0.00000000  0.00567902  0.37740102
   0.50000000  0.50512717  0.37726854
   0.00000000  0.50692887  0.44085349
   0.50000000  0.00798114  0.43827057
   1.00000000  0.46994474  0.51514732
   1.00000000  0.67982852  0.50993594
Direct configuration=    31
   0.00000000  0.00118879  0.00351116
   0.50000000  0.50137018  0.00351617
   0.00000000  0.50169302  0.06606583
   0.50000000  0.00130600  0.06601226
   0.00000000  0.00183464  0.12844335
   0.50000000  0.50179187  0.12844866
   0.00000000  0.50326512  0.19070865
   0.50000000  0.00236305  0.19058277
   0.00000000  0.00455886  0.25223446
   0.50000000  0.50378553  0.25213095
   0.00000000  0.50426350  0.31473767
   0.50000000  0.00406175  0.31436568
   0.00000000  0.00574722  0.37731295
   0.50000000  0.50510805  0.37718643
   0.00000000  0.50722327  0.44064588
   0.50000000  0.00817223  0.43831156
   1.00000000  0.46907881  0.51544283
   1.00000000  0.67869776  0.51029956
Direct configuration=    32
   0.00000000  0.00142925  0.00341371
   0.50000000  0.50148012  0.00342128
   0.00000000  0.50183099  0.06593918
   0.50000000  0.00165848  0.06589143
   0.00000000  0.00224568  0.12842174
   0.50000000  0.50197308  0.12842986
   0.00000000  0.50353708  0.19066968
   0.50000000  0.00285786  0.19053937
   0.00000000  0.00452161  0.25216209
   0.50000000  0.50392613  0.25206871
   0.00000000  0.50427893  0.31469684
   0.50000000  0.00394588  0.31436303
   0.00000000  0.00580506  0.37731505
   0.50000000  0.50553662  0.37719689
   0.00000000  0.50736572  0.44049934
   0.50000000  0.00842498  0.43818831
   1.00000000  0.46704937  0.51594744
   1.00000000  0.67764278  0.51079287
Direct configuration=    33
   0.00000000  0.00212984  0.00312979
   0.50000000  0.50180044  0.00314483
   0.00000000  0.50223296  0.06557020
   0.50000000  0.00268543  0.06553938
   0.00000000  0.00344326  0.12835879
   0.50000000  0.50250101  0.12837509
   0.00000000  0.50432944  0.19055612
   0.50000000  0.00429948  0.19041293
   0.00000000  0.00441306  0.25195123
   0.50000000  0.50433575  0.25188737
   0.00000000  0.50432390  0.31457790
   0.50000000  0.00360831  0.31435532
   0.00000000  0.00597358  0.37732116
   0.50000000  0.50678526  0.37722738
   0.00000000  0.50778076  0.44007238
   0.50000000  0.00916138  0.43782922
   1.00000000  0.46113663  0.51741761
   1.00000000  0.67456913  0.51223013
Direct configuration=    34
   0.00000000  0.00183785  0.00324812
   0.50000000  0.50166693  0.00326005
   0.00000000  0.50206542  0.06572399
   0.50000000  0.00225741  0.06568611
   0.00000000  0.00294412  0.12838503
   0.50000000  0.50228098  0.12839791
   0.00000000  0.50399919  0.19060345
   0.50000000  0.00369863  0.19046563
   0.00000000  0.00445830  0.25203912
   0.50000000  0.50416503  0.25196295
   0.00000000  0.50430516  0.31462747
   0.50000000  0.00374900  0.31435854
   0.00000000  0.00590334  0.37731861
   0.50000000  0.50626485  0.37721467
   0.00000000  0.50760778  0.44025033
   0.50000000  0.00885446  0.43797888
   1.00000000  0.46360099  0.51680486
   1.00000000  0.67585019  0.51163110
Direct configuration=    35
   0.00000000  0.00188961  0.00322240
   0.50000000  0.50169399  0.00323494
   0.00000000  0.50210078  0.06569790
   0.50000000  0.00232985  0.06566063
   0.00000000  0.00302691  0.12837962
   0.50000000  0.50232924  0.12839288
   0.00000000  0.50405455  0.19059542
   0.50000000  0.00380073  0.19045654
   0.00000000  0.00444628  0.25202523
   0.50000000  0.50418842  0.25195112
   0.00000000  0.50430937  0.31461950
   0.50000000  0.00373421  0.31435683
   0.00000000  0.00592108  0.37731875
   0.50000000  0.50635466  0.37721645
   0.00000000  0.50763320  0.44022564
   0.50000000  0.00890562  0.43795213
   1.00000000  0.46335293  0.51691038
   1.00000000  0.67543821  0.51174046
Direct configuration=    36
   0.00000000  0.00201195  0.00316162
   0.50000000  0.50175793  0.00317558
   0.00000000  0.50218433  0.06563626
   0.50000000  0.00250106  0.06560043
   0.00000000  0.00322257  0.12836683
   0.50000000  0.50244330  0.12838098
   0.00000000  0.50418539  0.19057645
   0.50000000  0.00404202  0.19043506
   0.00000000  0.00441788  0.25199241
   0.50000000  0.50424370  0.25192315
   0.00000000  0.50431932  0.31460065
   0.50000000  0.00369925  0.31435279
   0.00000000  0.00596300  0.37731908
   0.50000000  0.50656692  0.37722065
   0.00000000  0.50769328  0.44016729
   0.50000000  0.00902654  0.43788892
   1.00000000  0.46276667  0.51715977
   1.00000000  0.67446455  0.51199894
Direct configuration=    37
   0.00000000  0.00225664  0.00304005
   0.50000000  0.50188581  0.00305686
   0.00000000  0.50235143  0.06551296
   0.50000000  0.00284347  0.06548002
   0.00000000  0.00361389  0.12834125
   0.50000000  0.50267142  0.12835717
   0.00000000  0.50444707  0.19053852
   0.50000000  0.00452461  0.19039210
   0.00000000  0.00436106  0.25192676
   0.50000000  0.50435426  0.25186722
   0.00000000  0.50433921  0.31456296
   0.50000000  0.00362933  0.31434471
   0.00000000  0.00604684  0.37731973
   0.50000000  0.50699144  0.37722904
   0.00000000  0.50781345  0.44005059
   0.50000000  0.00926836  0.43776248
   1.00000000  0.46159415  0.51765854
   1.00000000  0.67251721  0.51251588
Direct configuration=    38
   0.00000000  0.00274600  0.00279691
   0.50000000  0.50214157  0.00281943
   0.00000000  0.50268563  0.06526636
   0.50000000  0.00352829  0.06523920
   0.00000000  0.00439652  0.12829009
   0.50000000  0.50312766  0.12830956
   0.00000000  0.50497043  0.19046264
   0.50000000  0.00548978  0.19030617
   0.00000000  0.00424743  0.25179548
   0.50000000  0.50457538  0.25175536
   0.00000000  0.50437900  0.31448758
   0.50000000  0.00348949  0.31432856
   0.00000000  0.00621451  0.37732104
   0.50000000  0.50784048  0.37724584
   0.00000000  0.50805378  0.43981718
   0.50000000  0.00975202  0.43750960
   1.00000000  0.45924911  0.51865608
   1.00000000  0.66862255  0.51354978
Direct configuration=    39
   0.00000000  0.00298213  0.00267959
   0.50000000  0.50226498  0.00270486
   0.00000000  0.50284689  0.06514737
   0.50000000  0.00385873  0.06512299
   0.00000000  0.00477416  0.12826540
   0.50000000  0.50334781  0.12828659
   0.00000000  0.50522297  0.19042603
   0.50000000  0.00595550  0.19026471
   0.00000000  0.00419260  0.25173213
   0.50000000  0.50468208  0.25170138
   0.00000000  0.50439819  0.31445120
   0.50000000  0.00342202  0.31432076
   0.00000000  0.00629542  0.37732167
   0.50000000  0.50825016  0.37725394
   0.00000000  0.50816975  0.43970456
   0.50000000  0.00998539  0.43738758
   1.00000000  0.45811758  0.51913741
   1.00000000  0.66674328  0.51404866
Direct configuration=    40
   0.00000000  0.00345440  0.00244495
   0.50000000  0.50251180  0.00247573
   0.00000000  0.50316941  0.06490940
   0.50000000  0.00451962  0.06489059
   0.00000000  0.00552944  0.12821603
   0.50000000  0.50378810  0.12824064
   0.00000000  0.50572803  0.19035281
   0.50000000  0.00688694  0.19018179
   0.00000000  0.00408294  0.25160543
   0.50000000  0.50489547  0.25159343
   0.00000000  0.50443659  0.31437845
   0.50000000  0.00328707  0.31430517
   0.00000000  0.00645723  0.37732293
   0.50000000  0.50906953  0.37727015
   0.00000000  0.50840168  0.43947931
   0.50000000  0.01045214  0.43714354
   1.00000000  0.45585451  0.52010008
   1.00000000  0.66298475  0.51504642
Direct configuration=    41
   0.00000000  0.00374279  0.00225694
   0.50000000  0.50281137  0.00228988
   0.00000000  0.50354463  0.06478554
   0.50000000  0.00480721  0.06476597
   0.00000000  0.00587087  0.12813178
   0.50000000  0.50428584  0.12815648
   0.00000000  0.50607748  0.19030163
   0.50000000  0.00727917  0.19013035
   0.00000000  0.00414896  0.25155157
   0.50000000  0.50502742  0.25154586
   0.00000000  0.50443702  0.31432899
   0.50000000  0.00346474  0.31426683
   0.00000000  0.00671524  0.37724752
   0.50000000  0.50938168  0.37720086
   0.00000000  0.50852809  0.43938223
   0.50000000  0.01071677  0.43706039
   1.00000000  0.45406349  0.52080649
   1.00000000  0.66060688  0.51574751
Direct configuration=    42
   0.00000000  0.00460796  0.00169291
   0.50000000  0.50371008  0.00173235
   0.00000000  0.50467026  0.06441396
   0.50000000  0.00566997  0.06439211
   0.00000000  0.00689519  0.12787903
   0.50000000  0.50577907  0.12790401
   0.00000000  0.50712582  0.19014808
   0.50000000  0.00845587  0.18997604
   0.00000000  0.00434701  0.25138997
   0.50000000  0.50542327  0.25140315
   0.00000000  0.50443830  0.31418062
   0.50000000  0.00399775  0.31415184
   0.00000000  0.00748929  0.37702128
   0.50000000  0.51031812  0.37699301
   0.00000000  0.50890733  0.43909100