  34  34   0   0
  0.2629040E+02  0.7260000E-09  0.5133596E-09  0.2398379E-08  0.5000000E-15
  1.000000000000000E-004
  CAR 
 unknown system                          
     11.87846062    -10.23199349  301      0.85841166      1.00000000
    -10.232  0.0000E+00  0.0000E+00  0.0000E+00  0.0000E+00
    -10.158  0.0000E+00  0.0000E+00  0.0000E+00  0.0000E+00
    -10.085  0.0000E+00  0.0000E+00  0.0000E+00  0.0000E+00
    -10.011  0.0000E+00  0.0000E+00  0.0000E+00  0.0000E+00
     -9.937  0.0000E+00  0.0000E+00  0.0000E+00  0.0000E+00
     -9.863 -0.5462E-31 -0.5462E-31 -0.4026E-32 -0.4026E-32
     -9.790 -0.1854E-28 -0.1854E-28 -0.1370E-29 -0.1370E-29
     -9.716 -0.4795E-26 -0.4795E-26 -0.3547E-27 -0.3547E-27
     -9.642 -0.9425E-24 -0.9425E-24 -0.6982E-25 -0.6982E-25
     -9.569 -0.1408E-21 -0.1408E-21 -0.1044E-22 -0.1044E-22
     -9.495 -0.1597E-19 -0.1597E-19 -0.1187E-20 -0.1187E-20
     -9.421 -0.1375E-17 -0.1375E-17 -0.1025E-18 -0.1025E-18
     -9.348 -0.8684E-16 -0.8684E-16 -0.6503E-17 -0.6503E-17
     -9.274 -0.4282E-14 -0.4282E-14 -0.3221E-15 -0.3221E-15
     -9.200 -0.1595E-12 -0.1595E-12 -0.1208E-13 -0.1208E-13
     -9.126 -0.4487E-11 -0.4487E-11 -0.3428E-12 -0.3428E-12
     -9.053 -0.9504E-10 -0.9504E-10 -0.7347E-11 -0.7347E-11
     -8.979 -0.1511E-08 -0.1511E-08 -0.1187E-09 -0.1187E-09
     -8.905 -0.1795E-07 -0.1795E-07 -0.1442E-08 -0.1442E-08
     -8.832 -0.1582E-06 -0.1582E-06 -0.1310E-07 -0.1310E-07
     -8.758 -0.1023E-05 -0.1023E-05 -0.8846E-07 -0.8846E-07
     -8.684 -0.4754E-05 -0.4754E-05 -0.4388E-06 -0.4388E-06
     -8.611 -0.1529E-04 -0.1529E-04 -0.1565E-05 -0.1565E-05
     -8.537 -0.3077E-04 -0.3077E-04 -0.3833E-05 -0.3833E-05
     -8.463 -0.2405E-04 -0.2405E-04 -0.5606E-05 -0.5606E-05
     -8.389  0.5721E-04  0.5721E-04 -0.1389E-05 -0.1389E-05
     -8.316  0.2216E-03  0.2216E-03  0.1494E-04  0.1494E-04
     -8.242  0.3760E-03  0.3760E-03  0.4265E-04  0.4265E-04
     -8.168  0.4731E-03  0.4731E-03  0.7752E-04  0.7752E-04
     -8.095  0.7642E-03  0.7642E-03  0.1338E-03  0.1338E-03
     -8.021  0.1696E-02  0.1696E-02  0.2588E-03  0.2588E-03
     -7.947  0.3320E-02  0.3320E-02  0.5035E-03  0.5035E-03
     -7.874  0.4837E-02  0.4837E-02  0.8601E-03  0.8601E-03
     -7.800  0.5096E-02  0.5096E-02  0.1236E-02  0.1236E-02
     -7.726  0.3831E-02  0.3831E-02  0.1518E-02  0.1518E-02
     -7.652  0.2080E-02  0.2080E-02  0.1671E-02  0.1671E-02
     -7.579  0.1020E-02  0.1020E-02  0.1746E-02  0.1746E-02
     -7.505  0.7927E-03  0.7927E-03  0.1805E-02  0.1805E-02
     -7.431  0.8327E-03  0.8327E-03  0.1866E-02  0.1866E-02
     -7.358  0.9603E-03  0.9603E-03  0.1937E-02  0.1937E-02
     -7.284  0.1469E-02  0.1469E-02  0.2045E-02  0.2045E-02
     -7.210  0.2234E-02  0.2234E-02  0.2210E-02  0.2210E-02
     -7.137  0.2553E-02  0.2553E-02  0.2398E-02  0.2398E-02
     -7.063  0.2166E-02  0.2166E-02  0.2558E-02  0.2558E-02
     -6.989  0.1694E-02  0.1694E-02  0.2683E-02  0.2683E-02
     -6.915  0.1714E-02  0.1714E-02  0.2809E-02  0.2809E-02
     -6.842  0.1942E-02  0.1942E-02  0.2952E-02  0.2952E-02
     -6.768  0.1767E-02  0.1767E-02  0.3082E-02  0.3082E-02
     -6.694  0.1183E-02  0.1183E-02  0.3169E-02  0.3169E-02
     -6.621  0.7362E-03  0.7362E-03  0.3224E-02  0.3224E-02
     -6.547  0.7705E-03  0.7705E-03  0.3281E-02  0.3281E-02
     -6.473  0.1252E-02  0.1252E-02  0.3373E-02  0.3373E-02
     -6.400  0.2179E-02  0.2179E-02  0.3533E-02  0.3533E-02
     -6.326  0.3421E-02  0.3421E-02  0.3786E-02  0.3786E-02
     -6.252  0.4232E-02  0.4232E-02  0.4097E-02  0.4097E-02
     -6.178  0.3834E-02  0.3834E-02  0.4380E-02  0.4380E-02
     -6.105  0.2541E-02  0.2541E-02  0.4567E-02  0.4567E-02
     -6.031  0.1429E-02  0.1429E-02  0.4673E-02  0.4673E-02
     -5.957  0.1020E-02  0.1020E-02  0.4748E-02  0.4748E-02
     -5.884  0.1037E-02  0.1037E-02  0.4824E-02  0.4824E-02
     -5.810  0.1172E-02  0.1172E-02  0.4911E-02  0.4911E-02
     -5.736  0.1425E-02  0.1425E-02  0.5016E-02  0.5016E-02
     -5.662  0.2039E-02  0.2039E-02  0.5166E-02  0.5166E-02
     -5.589  0.3363E-02  0.3363E-02  0.5414E-02  0.5414E-02
     -5.515  0.5173E-02  0.5173E-02  0.5795E-02  0.5795E-02
     -5.441  0.6217E-02  0.6217E-02  0.6253E-02  0.6253E-02
     -5.368  0.5391E-02  0.5391E-02  0.6651E-02  0.6651E-02
     -5.294  0.3238E-02  0.3238E-02  0.6889E-02  0.6889E-02
     -5.220  0.1480E-02  0.1480E-02  0.6998E-02  0.6998E-02
     -5.147  0.1387E-02  0.1387E-02  0.7101E-02  0.7101E-02
     -5.073  0.3142E-02  0.3142E-02  0.7332E-02  0.7332E-02
     -4.999  0.5998E-02  0.5998E-02  0.7774E-02  0.7774E-02
     -4.925  0.8431E-02  0.8431E-02  0.8396E-02  0.8396E-02
     -4.852  0.9041E-02  0.9041E-02  0.9062E-02  0.9062E-02
     -4.778  0.7686E-02  0.7686E-02  0.9628E-02  0.9628E-02
     -4.704  0.5229E-02  0.5229E-02  0.1001E-01  0.1001E-01
     -4.631  0.2589E-02  0.2589E-02  0.1020E-01  0.1020E-01
     -4.557  0.6222E-03  0.6222E-03  0.1025E-01  0.1025E-01
     -4.483  0.2525E-03  0.2525E-03  0.1027E-01  0.1027E-01
     -4.410  0.2045E-02  0.2045E-02  0.1042E-01  0.1042E-01
     -4.336  0.5600E-02  0.5600E-02  0.1083E-01  0.1083E-01
     -4.262  0.9426E-02  0.9426E-02  0.1153E-01  0.1153E-01
     -4.188  0.1178E-01  0.1178E-01  0.1240E-01  0.1240E-01
     -4.115  0.1216E-01  0.1216E-01  0.1329E-01  0.1329E-01
     -4.041  0.1195E-01  0.1195E-01  0.1417E-01  0.1417E-01
     -3.967  0.1312E-01  0.1312E-01  0.1514E-01  0.1514E-01
     -3.894  0.1605E-01  0.1605E-01  0.1632E-01  0.1632E-01
     -3.820  0.1912E-01  0.1912E-01  0.1773E-01  0.1773E-01
     -3.746  0.2088E-01  0.2088E-01  0.1927E-01  0.1927E-01
     -3.673  0.2194E-01  0.2194E-01  0.2089E-01  0.2089E-01
     -3.599  0.2352E-01  0.2352E-01  0.2262E-01  0.2262E-01
     -3.525  0.2520E-01  0.2520E-01  0.2448E-01  0.2448E-01
     -3.451  0.2630E-01  0.2630E-01  0.2642E-01  0.2642E-01
     -3.378  0.2834E-01  0.2834E-01  0.2851E-01  0.2851E-01
     -3.304  0.3329E-01  0.3329E-01  0.3096E-01  0.3096E-01
     -3.230  0.3972E-01  0.3972E-01  0.3389E-01  0.3389E-01
     -3.157  0.4344E-01  0.4344E-01  0.3709E-01  0.3709E-01
     -3.083  0.4273E-01  0.4273E-01  0.4024E-01  0.4024E-01
     -3.009  0.4009E-01  0.4009E-01  0.4319E-01  0.4319E-01
     -2.936  0.3807E-01  0.3807E-01  0.4600E-01  0.4600E-01
     -2.862  0.3668E-01  0.3668E-01  0.4870E-01  0.4870E-01
     -2.788  0.3609E-01  0.3609E-01  0.5136E-01  0.5136E-01
     -2.714  0.3817E-01  0.3817E-01  0.5417E-01  0.5417E-01
     -2.641  0.4371E-01  0.4371E-01  0.5740E-01  0.5740E-01
     -2.567  0.5036E-01  0.5036E-01  0.6111E-01  0.6111E-01
     -2.493  0.5500E-01  0.5500E-01  0.6516E-01  0.6516E-01
     -2.420  0.5682E-01  0.5682E-01  0.6935E-01  0.6935E-01
     -2.346  0.5741E-01  0.5741E-01  0.7358E-01  0.7358E-01
     -2.272  0.5908E-01  0.5908E-01  0.7794E-01  0.7794E-01
     -2.199  0.6333E-01  0.6333E-01  0.8260E-01  0.8260E-01
     -2.125  0.6986E-01  0.6986E-01  0.8775E-01  0.8775E-01
     -2.051  0.7656E-01  0.7656E-01  0.9339E-01  0.9339E-01
     -1.977  0.8037E-01  0.8037E-01  0.9932E-01  0.9932E-01
     -1.904  0.7925E-01  0.7925E-01  0.1052E+00  0.1052E+00
     -1.830  0.7396E-01  0.7396E-01  0.1106E+00  0.1106E+00
     -1.756  0.6734E-01  0.6734E-01  0.1156E+00  0.1156E+00
     -1.683  0.6171E-01  0.6171E-01  0.1201E+00  0.1201E+00
     -1.609  0.5807E-01  0.5807E-01  0.1244E+00  0.1244E+00
     -1.535  0.5729E-01  0.5729E-01  0.1286E+00  0.1286E+00
     -1.462  0.6013E-01  0.6013E-01  0.1331E+00  0.1331E+00
     -1.388  0.6545E-01  0.6545E-01  0.1379E+00  0.1379E+00
     -1.314  0.7030E-01  0.7030E-01  0.1431E+00  0.1431E+00
     -1.240  0.7318E-01  0.7318E-01  0.1485E+00  0.1485E+00
     -1.167  0.7531E-01  0.7531E-01  0.1540E+00  0.1540E+00
     -1.093  0.7766E-01  0.7766E-01  0.1597E+00  0.1597E+00
     -1.019  0.7953E-01  0.7953E-01  0.1656E+00  0.1656E+00
     -0.946  0.8157E-01  0.8157E-01  0.1716E+00  0.1716E+00
     -0.872  0.8697E-01  0.8697E-01  0.1780E+00  0.1780E+00
     -0.798  0.9645E-01  0.9645E-01  0.1851E+00  0.1851E+00
     -0.724  0.1037E+00  0.1037E+00  0.1928E+00  0.1928E+00
     -0.651  0.9898E-01  0.9898E-01  0.2001E+00  0.2001E+00
     -0.577  0.7895E-01  0.7895E-01  0.2059E+00  0.2059E+00
     -0.503  0.5079E-01  0.5079E-01  0.2096E+00  0.2096E+00
     -0.430  0.2644E-01  0.2644E-01  0.2116E+00  0.2116E+00
     -0.356  0.1279E-01  0.1279E-01  0.2125E+00  0.2125E+00
     -0.282  0.8543E-02  0.8543E-02  0.2131E+00  0.2131E+00
     -0.209  0.8535E-02  0.8535E-02  0.2138E+00  0.2138E+00
     -0.135  0.8688E-02  0.8688E-02  0.2144E+00  0.2144E+00
     -0.061  0.7314E-02  0.7314E-02  0.2149E+00  0.2149E+00
      0.013  0.4534E-02  0.4534E-02  0.2153E+00  0.2153E+00
      0.086  0.1717E-02  0.1717E-02  0.2154E+00  0.2154E+00
      0.160  0.5455E-03  0.5455E-03  0.2154E+00  0.2154E+00
      0.234  0.1720E-02  0.1720E-02  0.2156E+00  0.2156E+00
      0.307  0.4429E-02  0.4429E-02  0.2159E+00  0.2159E+00
      0.381  0.7086E-02  0.7086E-02  0.2164E+00  0.2164E+00
      0.455  0.8757E-02  0.8757E-02  0.2171E+00  0.2171E+00
      0.528  0.9829E-02  0.9829E-02  0.2178E+00  0.2178E+00
      0.602  0.1106E-01  0.1106E-01  0.2186E+00  0.2186E+00
      0.676  0.1209E-01  0.1209E-01  0.2195E+00  0.2195E+00
      0.750  0.1160E-01  0.1160E-01  0.2203E+00  0.2203E+00
      0.823  0.9068E-02  0.9068E-02  0.2210E+00  0.2210E+00
      0.897  0.5838E-02  0.5838E-02  0.2214E+00  0.2214E+00
      0.971  0.3965E-02  0.3965E-02  0.2217E+00  0.2217E+00
      1.044  0.4375E-02  0.4375E-02  0.2221E+00  0.2221E+00
      1.118  0.6156E-02  0.6156E-02  0.2225E+00  0.2225E+00
      1.192  0.7561E-02  0.7561E-02  0.2231E+00  0.2231E+00
      1.265  0.7588E-02  0.7588E-02  0.2236E+00  0.2236E+00
      1.339  0.6362E-02  0.6362E-02  0.2241E+00  0.2241E+00
      1.413  0.4645E-02  0.4645E-02  0.2244E+00  0.2244E+00
      1.487  0.3674E-02  0.3674E-02  0.2247E+00  0.2247E+00
      1.560  0.4446E-02  0.4446E-02  0.2250E+00  0.2250E+00
      1.634  0.6225E-02  0.6225E-02  0.2255E+00  0.2255E+00
      1.708  0.6970E-02  0.6970E-02  0.2260E+00  0.2260E+00
      1.781  0.6027E-02  0.6027E-02  0.2265E+00  0.2265E+00
      1.855  0.4992E-02  0.4992E-02  0.2268E+00  0.2268E+00
      1.929  0.5341E-02  0.5341E-02  0.2272E+00  0.2272E+00
      2.002  0.6737E-02  0.6737E-02  0.2277E+00  0.2277E+00
      2.076  0.8007E-02  0.8007E-02  0.2283E+00  0.2283E+00
      2.150  0.8415E-02  0.8415E-02  0.2289E+00  0.2289E+00
      2.224  0.7836E-02  0.7836E-02  0.2295E+00  0.2295E+00
      2.297  0.6728E-02  0.6728E-02  0.2300E+00  0.2300E+00
      2.371  0.6002E-02  0.6002E-02  0.2304E+00  0.2304E+00
      2.445  0.6296E-02  0.6296E-02  0.2309E+00  0.2309E+00
      2.518  0.7178E-02  0.7178E-02  0.2314E+00  0.2314E+00
      2.592  0.7419E-02  0.7419E-02  0.2320E+00  0.2320E+00
      2.666  0.6304E-02  0.6304E-02  0.2324E+00  0.2324E+00
      2.739  0.4527E-02  0.4527E-02  0.2328E+00  0.2328E+00
      2.813  0.3361E-02  0.3361E-02  0.2330E+00  0.2330E+00
      2.887  0.3207E-02  0.3207E-02  0.2333E+00  0.2333E+00
      2.961  0.3700E-02  0.3700E-02  0.2335E+00  0.2335E+00
      3.034  0.4779E-02  0.4779E-02  0.2339E+00  0.2339E+00
      3.108  0.6358E-02  0.6358E-02  0.2344E+00  0.2344E+00
      3.182  0.7398E-02  0.7398E-02  0.2349E+00  0.2349E+00
      3.255  0.6904E-02  0.6904E-02  0.2354E+00  0.2354E+00
      3.329  0.5587E-02  0.5587E-02  0.2358E+00  0.2358E+00
      3.403  0.5081E-02  0.5081E-02  0.2362E+00  0.2362E+00
      3.476  0.5791E-02  0.5791E-02  0.2366E+00  0.2366E+00
      3.550  0.6561E-02  0.6561E-02  0.2371E+00  0.2371E+00
      3.624  0.6204E-02  0.6204E-02  0.2376E+00  0.2376E+00
      3.698  0.4843E-02  0.4843E-02  0.2379E+00  0.2379E+00
      3.771  0.3750E-02  0.3750E-02  0.2382E+00  0.2382E+00
      3.845  0.3858E-02  0.3858E-02  0.2385E+00  0.2385E+00
      3.919  0.4859E-02  0.4859E-02  0.2388E+00  0.2388E+00
      3.992  0.6021E-02  0.6021E-02  0.2393E+00  0.2393E+00
      4.066  0.7023E-02  0.7023E-02  0.2398E+00  0.2398E+00
      4.140  0.7547E-02  0.7547E-02  0.2404E+00  0.2404E+00
      4.214  0.7167E-02  0.7167E-02  0.2409E+00  0.2409E+00
      4.287  0.6232E-02  0.6232E-02  0.2413E+00  0.2413E+00
      4.361  0.5675E-02  0.5675E-02  0.2418E+00  0.2418E+00
      4.435  0.5602E-02  0.5602E-02  0.2422E+00  0.2422E+00
      4.508  0.5270E-02  0.5270E-02  0.2426E+00  0.2426E+00
      4.582  0.4497E-02  0.4497E-02  0.2429E+00  0.2429E+00
      4.656  0.4061E-02  0.4061E-02  0.2432E+00  0.2432E+00
      4.729  0.4683E-02  0.4683E-02  0.2435E+00  0.2435E+00
      4.803  0.6136E-02  0.6136E-02  0.2440E+00  0.2440E+00
      4.877  0.7376E-02  0.7376E-02  0.2445E+00  0.2445E+00
      4.951  0.7557E-02  0.7557E-02  0.2451E+00  0.2451E+00
      5.024  0.6740E-02  0.6740E-02  0.2456E+00  0.2456E+00
      5.098  0.5422E-02  0.5422E-02  0.2460E+00  0.2460E+00
      5.172  0.4077E-02  0.4077E-02  0.2463E+00  0.2463E+00
      5.245  0.3446E-02  0.3446E-02  0.2465E+00  0.2465E+00
      5.319  0.4313E-02  0.4313E-02  0.2469E+00  0.2469E+00
      5.393  0.6532E-02  0.6532E-02  0.2473E+00  0.2473E+00
      5.466  0.8875E-02  0.8875E-02  0.2480E+00  0.2480E+00
      5.540  0.1020E-01  0.1020E-01  0.2488E+00  0.2488E+00
      5.614  0.1044E-01  0.1044E-01  0.2495E+00  0.2495E+00
      5.688  0.1030E-01  0.1030E-01  0.2503E+00  0.2503E+00
      5.761  0.1019E-01  0.1019E-01  0.2510E+00  0.2510E+00
      5.835  0.9951E-02  0.9951E-02  0.2518E+00  0.2518E+00
      5.909  0.9496E-02  0.9496E-02  0.2525E+00  0.2525E+00
      5.982  0.9145E-02  0.9145E-02  0.2531E+00  0.2531E+00
      6.056  0.9061E-02  0.9061E-02  0.2538E+00  0.2538E+00
      6.130  0.9083E-02  0.9084E-02  0.2545E+00  0.2545E+00
      6.203  0.9146E-02  0.9146E-02  0.2552E+00  0.2552E+00
      6.277  0.9203E-02  0.9203E-02  0.2558E+00  0.2558E+00
      6.351  0.9023E-02  0.9023E-02  0.2565E+00  0.2565E+00
      6.425  0.8614E-02  0.8614E-02  0.2571E+00  0.2571E+00
      6.498  0.8433E-02  0.8433E-02  0.2578E+00  0.2578E+00
      6.572  0.8713E-02  0.8713E-02  0.2584E+00  0.2584E+00
      6.646  0.9006E-02  0.9006E-02  0.2591E+00  0.2591E+00
      6.719  0.8833E-02  0.8833E-02  0.2597E+00  0.2597E+00
      6.793  0.8387E-02  0.8387E-02  0.2603E+00  0.2603E+00
      6.867  0.8334E-02  0.8334E-02  0.2609E+00  0.2609E+00
      6.940  0.9078E-02  0.9078E-02  0.2616E+00  0.2616E+00
      7.014  0.1008E-01  0.1008E-01  0.2624E+00  0.2624E+00
      7.088  0.1032E-01  0.1032E-01  0.2631E+00  0.2631E+00
      7.162  0.9781E-02  0.9781E-02  0.2638E+00  0.2638E+00
      7.235  0.9612E-02  0.9612E-02  0.2645E+00  0.2645E+00
      7.309  0.1029E-01  0.1029E-01  0.2653E+00  0.2653E+00
      7.383  0.1088E-01  0.1088E-01  0.2661E+00  0.2661E+00
      7.456  0.1046E-01  0.1046E-01  0.2669E+00  0.2669E+00
      7.530  0.9201E-02  0.9201E-02  0.2676E+00  0.2676E+00
      7.604  0.8036E-02  0.8036E-02  0.2681E+00  0.2681E+00
      7.677  0.7864E-02  0.7864E-02  0.2687E+00  0.2687E+00
      7.751  0.8996E-02  0.8996E-02  0.2694E+00  0.2694E+00
      7.825  0.1090E-01  0.1090E-01  0.2702E+00  0.2702E+00
      7.899  0.1263E-01  0.1263E-01  0.2711E+00  0.2711E+00
      7.972  0.1348E-01  0.1348E-01  0.2721E+00  0.2721E+00
      8.046  0.1313E-01  0.1313E-01  0.2731E+00  0.2731E+00
      8.120  0.1164E-01  0.1164E-01  0.2739E+00  0.2739E+00
      8.193  0.9918E-02  0.9918E-02  0.2747E+00  0.2747E+00
      8.267  0.9239E-02  0.9239E-02  0.2754E+00  0.2754E+00
      8.341  0.9632E-02  0.9632E-02  0.2761E+00  0.2761E+00
      8.414  0.9789E-02  0.9789E-02  0.2768E+00  0.2768E+00
      8.488  0.9061E-02  0.9061E-02  0.2775E+00  0.2775E+00
      8.562  0.8412E-02  0.8412E-02  0.2781E+00  0.2781E+00
      8.636  0.9029E-02  0.9029E-02  0.2787E+00  0.2787E+00
      8.709  0.1068E-01  0.1068E-01  0.2795E+00  0.2795E+00
      8.783  0.1190E-01  0.1190E-01  0.2804E+00  0.2804E+00
      8.857  0.1182E-01  0.1182E-01  0.2813E+00  0.2813E+00
      8.930  0.1113E-01  0.1113E-01  0.2821E+00  0.2821E+00
      9.004  0.1076E-01  0.1076E-01  0.2829E+00  0.2829E+00
      9.078  0.1051E-01  0.1051E-01  0.2837E+00  0.2837E+00
      9.152  0.9810E-02  0.9810E-02  0.2844E+00  0.2844E+00
      9.225  0.8868E-02  0.8868E-02  0.2850E+00  0.2850E+00
      9.299  0.8197E-02  0.8197E-02  0.2856E+00  0.2856E+00
      9.373  0.7911E-02  0.7912E-02  0.2862E+00  0.2862E+00
      9.446  0.7937E-02  0.7937E-02  0.2868E+00  0.2868E+00
      9.520  0.8219E-02  0.8219E-02  0.2874E+00  0.2874E+00
      9.594  0.8528E-02  0.8528E-02  0.2880E+00  0.2880E+00
      9.667  0.8309E-02  0.8309E-02  0.2887E+00  0.2887E+00
      9.741  0.7083E-02  0.7083E-02  0.2892E+00  0.2892E+00
      9.815  0.5166E-02  0.5167E-02  0.2896E+00  0.2896E+00
      9.889  0.3354E-02  0.3354E-02  0.2898E+00  0.2898E+00
      9.962  0.1959E-02  0.1959E-02  0.2899E+00  0.2899E+00
     10.036  0.8782E-03  0.8782E-03  0.2900E+00  0.2900E+00
     10.110  0.1557E-03  0.1557E-03  0.2900E+00  0.2900E+00
     10.183 -0.1321E-03 -0.1321E-03  0.2900E+00  0.2900E+00
     10.257 -0.1332E-03 -0.1332E-03  0.2900E+00  0.2900E+00
     10.331 -0.6308E-04 -0.6308E-04  0.2900E+00  0.2900E+00
     10.404 -0.1928E-04 -0.1928E-04  0.2900E+00  0.2900E+00
     10.478 -0.4116E-05 -0.4117E-05  0.2900E+00  0.2900E+00
     10.552 -0.6347E-06 -0.6347E-06  0.2900E+00  0.2900E+00
     10.626 -0.7190E-07 -0.7191E-07  0.2900E+00  0.2900E+00
     10.699 -0.6048E-08 -0.6049E-08  0.2900E+00  0.2900E+00
     10.773 -0.3802E-09 -0.3803E-09  0.2900E+00  0.2900E+00
     10.847 -0.1795E-10 -0.1795E-10  0.2900E+00  0.2900E+00
     10.920 -0.6381E-12 -0.6382E-12  0.2900E+00  0.2900E+00
     10.994 -0.1713E-13 -0.1713E-13  0.2900E+00  0.2900E+00
     11.068 -0.3481E-15 -0.3481E-15  0.2900E+00  0.2900E+00
     11.141 -0.5021E-17 -0.5021E-17  0.2900E+00  0.2900E+00
     11.215  0.0000E+00  0.0000E+00  0.2900E+00  0.2900E+00
     11.289  0.0000E+00  0.0000E+00  0.2900E+00  0.2900E+00
     11.363  0.0000E+00  0.0000E+00  0.2900E+00  0.2900E+00
     11.436  0.0000E+00  0.0000E+00  0.2900E+00  0.2900E+00
     11.510  0.0000E+00  0.0000E+00  0.2900E+00  0.2900E+00
     11.584  0.0000E+00  0.0000E+00  0.2900E+00  0.2900E+00
     11.657  0.0000E+00  0.0000E+00  0.2900E+00  0.2900E+00
     11.731  0.0000E+00  0.0000E+00  0.2900E+00  0.2900E+00
     11.805  0.0000E+00  0.0000E+00  0.2900E+00  0.2900E+00
     11.878  0.0000E+00  0.0000E+00  0.2900E+00  0.2900E+00
