<?xml version="1.0" encoding="ISO-8859-1"?>
<modeling>
 <generator>
  <i name="program" type="string">vasp </i>
  <i name="version" type="string">6.3.2  </i>
  <i name="subversion" type="string">27Jun22 (build Aug 17 2022 15:43:34) complex                          parallel </i>
  <i name="platform" type="string">tv2STDVTST </i>
  <i name="date" type="string">2025 02 17 </i>
  <i name="time" type="string">16:09:46 </i>
 </generator>
 <incar>
  <i type="int" name="ISTART">     0</i>
  <i type="string" name="PREC">Normal</i>
  <i type="int" name="ISPIN">     2</i>
  <i type="int" name="ICHARG">     2</i>
  <i type="int" name="IBRION">     2</i>
  <i name="EDIFF">      0.00020000</i>
  <i name="EDIFFG">     -0.03000000</i>
  <i type="int" name="NSW">   800</i>
  <i type="int" name="ISIF">     2</i>
  <i type="int" name="ISYM">     1</i>
  <i name="ENCUT">    400.00000000</i>
  <i name="POTIM">      0.50000000</i>
  <i type="logical" name="LREAL"> F  </i>
  <i type="int" name="ISMEAR">     1</i>
  <i name="SIGMA">      0.20000000</i>
  <i type="logical" name="LWAVE"> F  </i>
  <i type="logical" name="LCHARG"> F  </i>
  <i type="string" name="GGA">PE</i>
  <i type="int" name="IVDW">    11</i>
 </incar>
 <primitive_cell>
  <structure name="primitive_cell" >
   <crystal>
    <varray name="basis" >
     <v>       7.26000023       0.00000000       0.00000000 </v>
     <v>       0.00000000       5.13359547       0.00000000 </v>
     <v>       0.00000000       0.00000000      23.98379135 </v>
    </varray>
    <i name="volume">    893.87360752 </i>
    <varray name="rec_basis" >
     <v>       0.13774104       0.00000000       0.00000000 </v>
     <v>       0.00000000       0.19479525       0.00000000 </v>
     <v>       0.00000000       0.00000000       0.04169483 </v>
    </varray>
   </crystal>
   <varray name="positions" >
    <v>       0.00000000       0.00000000       0.00000000 </v>
    <v>       0.00000000       0.50000000       0.00000000 </v>
    <v>       0.50000000       0.00000000       0.00000000 </v>
    <v>       0.50000000       0.50000000       0.00000000 </v>
    <v>       0.25000000       0.25000000       0.05351109 </v>
    <v>       0.25000000       0.75000000       0.05351109 </v>
    <v>       0.75000000       0.25000000       0.05351109 </v>
    <v>       0.75000000       0.75000000       0.05351109 </v>
    <v>       0.00000000       0.00000000       0.10541371 </v>
    <v>       0.00000000       0.50000000       0.10541371 </v>
    <v>       0.50000000       0.00000000       0.10541371 </v>
    <v>       0.50000000       0.50000000       0.10541371 </v>
    <v>       0.25000000       0.25000000       0.15715010 </v>
    <v>       0.25000000       0.75000000       0.15715010 </v>
    <v>       0.75000000       0.25000000       0.15715010 </v>
    <v>       0.75000000       0.75000000       0.15715010 </v>
    <v>       0.00000000       0.00000000       0.20866257 </v>
    <v>       0.00000000       0.50000000       0.20866257 </v>
    <v>       0.50000000       0.00000000       0.20866257 </v>
    <v>       0.50000000       0.50000000       0.20866257 </v>
    <v>       0.25000000       0.25000000       0.25947965 </v>
    <v>       0.25000000       0.75000000       0.25947965 </v>
    <v>       0.75000000       0.25000000       0.25947965 </v>
    <v>       0.75000000       0.75000000       0.25947965 </v>
    <v>       0.00000000       0.00000000       0.31415415 </v>
    <v>       0.00000000       0.50000000       0.31415415 </v>
    <v>       0.50000000       0.00000000       0.31415415 </v>
    <v>       0.50000000       0.50000000       0.31415415 </v>
    <v>       0.25000000       0.25000000       0.36181799 </v>
    <v>       0.25000000       0.75000000       0.36181799 </v>
    <v>       0.75000000       0.25000000       0.36181799 </v>
    <v>       0.75000000       0.75000000       0.36181799 </v>
    <v>       0.75000000       0.50000000       0.42690792 </v>
    <v>       0.75000000       0.64531725       0.42690792 </v>
   </varray>
  </structure>
  <varray name="primitive_index" >
   <v type="int" >        1 </v>
   <v type="int" >        2 </v>
   <v type="int" >        3 </v>
   <v type="int" >        4 </v>
   <v type="int" >        5 </v>
   <v type="int" >        6 </v>
   <v type="int" >        7 </v>
   <v type="int" >        8 </v>
   <v type="int" >        9 </v>
   <v type="int" >       10 </v>
   <v type="int" >       11 </v>
   <v type="int" >       12 </v>
   <v type="int" >       13 </v>
   <v type="int" >       14 </v>
   <v type="int" >       15 </v>
   <v type="int" >       16 </v>
   <v type="int" >       17 </v>
   <v type="int" >       18 </v>
   <v type="int" >       19 </v>
   <v type="int" >       20 </v>
   <v type="int" >       21 </v>
   <v type="int" >       22 </v>
   <v type="int" >       23 </v>
   <v type="int" >       24 </v>
   <v type="int" >       25 </v>
   <v type="int" >       26 </v>
   <v type="int" >       27 </v>
   <v type="int" >       28 </v>
   <v type="int" >       29 </v>
   <v type="int" >       30 </v>
   <v type="int" >       31 </v>
   <v type="int" >       32 </v>
   <v type="int" >       33 </v>
   <v type="int" >       34 </v>
  </varray>
 </primitive_cell>
 <kpoints>
  <generation param="Monkhorst-Pack">
   <v type="int" name="divisions">       3        3        1 </v>
   <v name="usershift">      0.00000000       0.00000000       0.00000000 </v>
   <v name="genvec1">      0.33333333       0.00000000       0.00000000 </v>
   <v name="genvec2">      0.00000000       0.33333333       0.00000000 </v>
   <v name="genvec3">      0.00000000       0.00000000       1.00000000 </v>
   <v name="shift">      0.00000000       0.00000000       0.00000000 </v>
  </generation>
  <varray name="kpointlist" >
   <v>       0.00000000       0.00000000       0.00000000 </v>
   <v>       0.33333333       0.00000000       0.00000000 </v>
   <v>       0.00000000       0.33333333       0.00000000 </v>
   <v>       0.33333333       0.33333333       0.00000000 </v>
  </varray>
  <varray name="weights" >
   <v>       0.11111111 </v>
   <v>       0.22222222 </v>
   <v>       0.22222222 </v>
   <v>       0.44444444 </v>
  </varray>
 </kpoints>
 <parameters>
  <separator name="general" >
   <i type="string" name="SYSTEM">unknown system</i>
   <i type="logical" name="LCOMPAT"> F  </i>
  </separator>
  <separator name="electronic" >
   <i type="string" name="PREC">normal</i>
   <i name="ENMAX">    400.00000000</i>
   <i name="ENAUG">    586.98000000</i>
   <i name="EDIFF">      0.00020000</i>
   <i type="int" name="IALGO">    38</i>
   <i type="int" name="IWAVPR">    11</i>
   <i type="int" name="NBANDS">   232</i>
   <i type="int" name="NBANDSLOW">    -1</i>
   <i type="int" name="NBANDSHIGH">    -1</i>
   <i name="NELECT">    354.00000000</i>
   <i type="int" name="TURBO">     0</i>
   <i type="int" name="IRESTART">     0</i>
   <i type="int" name="NREBOOT">     0</i>
   <i type="int" name="NMIN">     0</i>
   <i name="EREF">      0.00000000</i>
   <separator name="electronic smearing" >
    <i type="int" name="ISMEAR">     1</i>
    <i name="SIGMA">      0.20000000</i>
    <i name="KSPACING">      0.50000000</i>
    <i type="logical" name="KGAMMA"> T  </i>
    <i type="logical" name="KBLOWUP"> T  </i>
   </separator>
   <separator name="electronic projectors" >
    <i type="logical" name="LREAL"> F  </i>
    <v name="ROPT">      0.00000000      0.00000000</v>
    <i type="int" name="LMAXPAW">  -100</i>
    <i type="int" name="LMAXMIX">     2</i>
    <i type="logical" name="NLSPLINE"> F  </i>
   </separator>
   <separator name="electronic startup" >
    <i type="int" name="ISTART">     0</i>
    <i type="int" name="ICHARG">     2</i>
    <i type="int" name="INIWAV">     1</i>
   </separator>
   <separator name="electronic spin" >
    <i type="int" name="ISPIN">     2</i>
    <i type="logical" name="LNONCOLLINEAR"> F  </i>
    <v name="MAGMOM">      1.00000000      1.00000000      1.00000000      1.00000000      1.00000000      1.00000000      1.00000000      1.00000000      1.00000000      1.00000000      1.00000000      1.00000000      1.00000000      1.00000000      1.00000000      1.00000000      1.00000000      1.00000000      1.00000000      1.00000000
      1.00000000      1.00000000      1.00000000      1.00000000      1.00000000      1.00000000      1.00000000      1.00000000      1.00000000      1.00000000      1.00000000      1.00000000      1.00000000      1.00000000</v>
    <i name="NUPDOWN">     -1.00000000</i>
    <i type="logical" name="LSORBIT"> F  </i>
    <v name="SAXIS">      0.00000000      0.00000000      1.00000000</v>
    <i type="logical" name="LSPIRAL"> F  </i>
    <v name="QSPIRAL">      0.00000000      0.00000000      0.00000000</v>
    <i type="logical" name="LZEROZ"> F  </i>
   </separator>
   <separator name="electronic exchange-correlation" >
    <i type="logical" name="LASPH"> F  </i>
    <i type="logical" name="LMETAGGA"> F  </i>
   </separator>
   <separator name="electronic convergence" >
    <i type="int" name="NELM">    60</i>
    <i type="int" name="NELMDL">    -5</i>
    <i type="int" name="NELMIN">     2</i>
    <i name="ENINI">    400.00000000</i>
    <separator name="electronic convergence detail" >
     <i type="logical" name="LDIAG"> T  </i>
     <i type="logical" name="LSUBROT"> F  </i>
     <i name="WEIMIN">      0.00100000</i>
     <i name="EBREAK">      0.00000022</i>
     <i name="DEPER">      0.30000000</i>
     <i type="int" name="NRMM">     4</i>
     <i name="TIME">      0.40000000</i>
    </separator>
   </separator>
   <separator name="electronic mixer" >
    <i name="AMIX">      0.40000000</i>
    <i name="BMIX">      1.00000000</i>
    <i name="AMIN">      0.10000000</i>
    <i name="AMIX_MAG">      1.60000000</i>
    <i name="BMIX_MAG">      1.00000000</i>
    <separator name="electronic mixer details" >
     <i type="int" name="IMIX">     4</i>
     <i type="logical" name="MIXFIRST"> F  </i>
     <i type="int" name="MAXMIX">   -45</i>
     <i name="WC">    100.00000000</i>
     <i type="int" name="INIMIX">     1</i>
     <i type="int" name="MIXPRE">     1</i>
     <i type="int" name="MREMOVE">     5</i>
    </separator>
   </separator>
   <separator name="electronic dipolcorrection" >
    <i type="logical" name="LDIPOL"> F  </i>
    <i type="logical" name="LMONO"> F  </i>
    <i type="int" name="IDIPOL">     0</i>
    <i name="EPSILON">      1.00000000</i>
    <v name="DIPOL">   -100.00000000   -100.00000000   -100.00000000</v>
    <i name="EFIELD">      0.00000000</i>
   </separator>
  </separator>
  <separator name="grids" >
   <i type="int" name="NGX">    36</i>
   <i type="int" name="NGY">    28</i>
   <i type="int" name="NGZ">   120</i>
   <i type="int" name="NGXF">    72</i>
   <i type="int" name="NGYF">    56</i>
   <i type="int" name="NGZF">   240</i>
   <i type="logical" name="ADDGRID"> F  </i>
  </separator>
  <separator name="ionic" >
   <i type="int" name="NSW">   800</i>
   <i type="int" name="IBRION">     2</i>
   <i type="int" name="MDALGO">     0</i>
   <i type="int" name="ISIF">     2</i>
   <i name="PSTRESS">      0.00000000</i>
   <i name="EDIFFG">     -0.03000000</i>
   <i type="int" name="NFREE">     1</i>
   <i name="POTIM">      0.50000000</i>
   <i name="SMASS">     -3.00000000</i>
   <i name="SCALEE">      1.00000000</i>
  </separator>
  <separator name="ionic md" >
   <i name="TEBEG">      0.00010000</i>
   <i name="TEEND">      0.00010000</i>
   <i type="int" name="NBLOCK">     1</i>
   <i type="int" name="KBLOCK">   800</i>
   <i type="int" name="NPACO">   256</i>
   <i name="APACO">     10.00000000</i>
  </separator>
  <separator name="symmetry" >
   <i type="int" name="ISYM">     1</i>
   <i name="SYMPREC">      0.00001000</i>
  </separator>
  <separator name="dos" >
   <i type="int" name="LORBIT">     0</i>
   <v name="RWIGS">     -1.00000000     -1.00000000</v>
   <i type="int" name="NEDOS">   301</i>
   <i name="EMIN">     10.00000000</i>
   <i name="EMAX">    -10.00000000</i>
   <i name="EFERMI">      0.00000000</i>
  </separator>
  <separator name="writing" >
   <i type="int" name="NWRITE">     2</i>
   <i type="logical" name="LWAVE"> F  </i>
   <i type="logical" name="LDOWNSAMPLE"> F  </i>
   <i type="logical" name="LCHARG"> F  </i>
   <i type="logical" name="LPARD"> F  </i>
   <i type="logical" name="LVTOT"> F  </i>
   <i type="logical" name="LVHAR"> F  </i>
   <i type="logical" name="LELF"> F  </i>
   <i type="logical" name="LOPTICS"> F  </i>
   <v name="STM">      0.00000000      0.00000000      0.00000000      0.00000000      0.00000000      0.00000000      0.00000000</v>
  </separator>
  <separator name="performance" >
   <i type="int" name="NPAR">     4</i>
   <i type="int" name="NSIM">     4</i>
   <i type="int" name="NBLK">    -1</i>
   <i type="logical" name="LPLANE"> T  </i>
   <i type="logical" name="LSCALAPACK"> T  </i>
   <i type="logical" name="LSCAAWARE"> F  </i>
   <i type="logical" name="LSCALU"> F  </i>
   <i type="logical" name="LASYNC"> F  </i>
   <i type="logical" name="LORBITALREAL"> F  </i>
  </separator>
  <separator name="miscellaneous" >
   <i type="int" name="IDIOT">     3</i>
   <i type="int" name="PHON_NSTRUCT">    -1</i>
   <i type="logical" name="LMUSIC"> F  </i>
   <v name="POMASS">     63.54600000      1.00000000</v>
   <v name="DARWINR">      0.00000000      0.00000000</v>
   <v name="DARWINV">      1.00000000      1.00000000</v>
   <i type="logical" name="LCORR"> T  </i>
  </separator>
  <i type="logical" name="GGA_COMPAT"> T  </i>
  <i type="logical" name="LBERRY"> F  </i>
  <i type="int" name="ICORELEVEL">     0</i>
  <i type="logical" name="LDAU"> F  </i>
  <i type="int" name="I_CONSTRAINED_M">     0</i>
  <separator name="electronic exchange-correlation" >
   <i type="string" name="GGA">PE</i>
   <i type="int" name="VOSKOWN">     0</i>
   <i type="logical" name="LHFCALC"> F  </i>
   <i type="string" name="PRECFOCK"></i>
   <i type="logical" name="LSYMGRAD"> F  </i>
   <i type="logical" name="LHFONE"> F  </i>
   <i type="logical" name="LRHFCALC"> F  </i>
   <i type="logical" name="LTHOMAS"> F  </i>
   <i type="logical" name="LMODELHF"> F  </i>
   <i type="logical" name="LFOCKACE"> F  </i>
   <i name="ENCUT4O">     -1.00000000</i>
   <i type="int" name="EXXOEP">     0</i>
   <i type="int" name="FOURORBIT">     0</i>
   <i name="AEXX">      0.00000000</i>
   <i name="HFALPHA">      0.00000000</i>
   <i name="MCALPHA">      0.00000000</i>
   <i name="ALDAX">      1.00000000</i>
   <i name="AGGAX">      1.00000000</i>
   <i name="ALDAC">      1.00000000</i>
   <i name="AGGAC">      1.00000000</i>
   <i type="int" name="NKREDX">     1</i>
   <i type="int" name="NKREDY">     1</i>
   <i type="int" name="NKREDZ">     1</i>
   <i type="logical" name="SHIFTRED"> F  </i>
   <i type="logical" name="ODDONLY"> F  </i>
   <i type="logical" name="EVENONLY"> F  </i>
   <i type="int" name="LMAXFOCK">     0</i>
   <i type="int" name="NMAXFOCKAE">     0</i>
   <i type="logical" name="LFOCKAEDFT"> F  </i>
   <i name="HFSCREEN">      0.00000000</i>
   <i name="HFSCREENC">      0.00000000</i>
   <i type="int" name="NBANDSGWLOW">     0</i>
  </separator>
  <separator name="vdW DFT" >
   <i type="logical" name="LUSE_VDW"> F  </i>
   <i name="Zab_VDW">     -0.84910000</i>
   <i name="PARAM1">      0.12340000</i>
   <i name="PARAM2">      1.00000000</i>
   <i name="PARAM3">      0.00000000</i>
  </separator>
  <separator name="model GW" >
   <i type="int" name="MODEL_GW">     0</i>
   <i name="MODEL_EPS0">     15.77424013</i>
   <i name="MODEL_ALPHA">      1.00000000</i>
  </separator>
  <separator name="linear response parameters" >
   <i type="logical" name="LEPSILON"> F  </i>
   <i type="logical" name="LRPA"> F  </i>
   <i type="logical" name="LNABLA"> F  </i>
   <i type="logical" name="LVEL"> F  </i>
   <i name="CSHIFT">      0.10000000</i>
   <i name="OMEGAMAX">     -1.00000000</i>
   <i name="DEG_THRESHOLD">      0.00200000</i>
   <i name="RTIME">     -0.10000000</i>
   <i name="WPLASMAI">      0.00000000</i>
   <v name="DFIELD">      0.00000000      0.00000000      0.00000000</v>
   <v name="WPLASMA">      0.00000000      0.00000000      0.00000000      0.00000000      0.00000000      0.00000000      0.00000000      0.00000000      0.00000000</v>
  </separator>
  <separator name="orbital magnetization" >
   <i type="logical" name="NUCIND"> F  </i>
   <v name="MAGPOS">      0.00000000      0.00000000      0.00000000</v>
   <i type="logical" name="LNICSALL"> T  </i>
   <i type="logical" name="ORBITALMAG"> F  </i>
   <i type="logical" name="LMAGBLOCH"> F  </i>
   <i type="logical" name="LCHIMAG"> F  </i>
   <i type="logical" name="LGAUGE"> T  </i>
   <i type="int" name="MAGATOM">     0</i>
   <v name="MAGDIPOL">      0.00000000      0.00000000      0.00000000</v>
   <v name="AVECCONST">      0.00000000      0.00000000      0.00000000</v>
  </separator>
  <separator name="response functions" >
   <i type="logical" name="LFINITE_TEMPERATURE"> F  </i>
   <i type="logical" name="LADDER"> F  </i>
   <i type="logical" name="LRPAFORCE"> F  </i>
   <i type="logical" name="LFXC"> F  </i>
   <i type="logical" name="LHARTREE"> T  </i>
   <i type="int" name="IBSE">     0</i>
   <v type="int" name="KPOINT">    -1     0     0     0</v>
   <i type="logical" name="LTCTC"> F  </i>
   <i type="logical" name="LTCTE"> F  </i>
   <i type="logical" name="LTETE"> F  </i>
   <i type="logical" name="LTRIPLET"> F  </i>
   <i type="logical" name="LFXCEPS"> F  </i>
   <i type="logical" name="LFXHEG"> F  </i>
   <i type="int" name="NATURALO">     2</i>
   <i type="logical" name="LHOLEGF"> F  </i>
   <i type="logical" name="L2ORDER"> F  </i>
   <i type="logical" name="LDMP1"> F  </i>
   <i type="logical" name="LMP2LT"> F  </i>
   <i type="logical" name="LSMP2LT"> F  </i>
   <i type="logical" name="LGWLF"> F  </i>
   <i name="ENCUTGW">     -2.00000000</i>
   <i name="ENCUTGWSOFT">     -2.00000000</i>
   <i name="ENCUTLF">     -1.00000000</i>
   <i type="logical" name="LESF_SPLINES"> F  </i>
   <i type="int" name="LMAXMP2">    -1</i>
   <i name="SCISSOR">      0.00000000</i>
   <i type="int" name="NOMEGA">     0</i>
   <i type="int" name="NOMEGAR">     0</i>
   <i type="int" name="NBANDSGW">    -1</i>
   <i type="int" name="NBANDSO">    -1</i>
   <i type="int" name="NBANDSV">    -1</i>
   <i type="int" name="NELMGW">     1</i>
   <i type="int" name="NELMHF">     1</i>
   <i type="int" name="DIM">     3</i>
   <i type="int" name="IESPILON">     4</i>
   <i type="int" name="ANTIRES">     0</i>
   <i name="OMEGAMAX">    -30.00000000</i>
   <i name="OMEGAMIN">    -30.00000000</i>
   <i name="OMEGATL">   -200.00000000</i>
   <i type="int" name="OMEGAGRID">     0</i>
   <i name="CSHIFT">     -0.10000000</i>
   <i type="logical" name="LSELFENERGY"> F  </i>
   <i type="logical" name="LSPECTRAL"> F  </i>
   <i type="logical" name="LSPECTRALGW"> F  </i>
   <i type="logical" name="LSINGLES"> F  </i>
   <i type="logical" name="LFERMIGW"> F  </i>
   <i type="logical" name="ODDONLYGW"> F  </i>
   <i type="logical" name="EVENONLYGW"> F  </i>
   <i type="int" name="NKREDLFX">     1</i>
   <i type="int" name="NKREDLFY">     1</i>
   <i type="int" name="NKREDLFZ">     1</i>
   <i type="int" name="MAXMEM">  2800</i>
   <i type="int" name="TELESCOPE">     0</i>
   <i type="int" name="NTAUPAR">    -1</i>
   <i type="int" name="NOMEGAPAR">    -1</i>
   <i name="DAMP_NEWTON">      0.80000001</i>
   <i name="LAMBDA">      1.00000000</i>
  </separator>
  <separator name="External order field" >
   <i name="OFIELD_KAPPA">      0.00000000</i>
   <v name="OFIELD_K">      0.00000000      0.00000000      0.00000000</v>
   <i name="OFIELD_Q6_NEAR">      0.00000000</i>
   <i name="OFIELD_Q6_FAR">      0.00000000</i>
   <i name="OFIELD_A">      0.00000000</i>
  </separator>
  <separator name="optional k-points parameters" >
   <i type="int" name="KPOINTS_OPT_MODE">     1</i>
   <i type="logical" name="LKPOINTS_OPT"> F  </i>
  </separator>
 </parameters>
 <atominfo>
  <atoms>      34 </atoms>
  <types>       2 </types>
  <array name="atoms" >
   <dimension dim="1">ion</dimension>
   <field type="string">element</field>
   <field type="int">atomtype</field>
   <set>
    <rc><c>Cu</c><c>   1</c></rc>
    <rc><c>Cu</c><c>   1</c></rc>
    <rc><c>Cu</c><c>   1</c></rc>
    <rc><c>Cu</c><c>   1</c></rc>
    <rc><c>Cu</c><c>   1</c></rc>
    <rc><c>Cu</c><c>   1</c></rc>
    <rc><c>Cu</c><c>   1</c></rc>
    <rc><c>Cu</c><c>   1</c></rc>
    <rc><c>Cu</c><c>   1</c></rc>
    <rc><c>Cu</c><c>   1</c></rc>
    <rc><c>Cu</c><c>   1</c></rc>
    <rc><c>Cu</c><c>   1</c></rc>
    <rc><c>Cu</c><c>   1</c></rc>
    <rc><c>Cu</c><c>   1</c></rc>
    <rc><c>Cu</c><c>   1</c></rc>
    <rc><c>Cu</c><c>   1</c></rc>
    <rc><c>Cu</c><c>   1</c></rc>
    <rc><c>Cu</c><c>   1</c></rc>
    <rc><c>Cu</c><c>   1</c></rc>
    <rc><c>Cu</c><c>   1</c></rc>
    <rc><c>Cu</c><c>   1</c></rc>
    <rc><c>Cu</c><c>   1</c></rc>
    <rc><c>Cu</c><c>   1</c></rc>
    <rc><c>Cu</c><c>   1</c></rc>
    <rc><c>Cu</c><c>   1</c></rc>
    <rc><c>Cu</c><c>   1</c></rc>
    <rc><c>Cu</c><c>   1</c></rc>
    <rc><c>Cu</c><c>   1</c></rc>
    <rc><c>Cu</c><c>   1</c></rc>
    <rc><c>Cu</c><c>   1</c></rc>
    <rc><c>Cu</c><c>   1</c></rc>
    <rc><c>Cu</c><c>   1</c></rc>
    <rc><c>H </c><c>   2</c></rc>
    <rc><c>H </c><c>   2</c></rc>
   </set>
  </array>
  <array name="atomtypes" >
   <dimension dim="1">type</dimension>
   <field type="int">atomspertype</field>
   <field type="string">element</field>
   <field>mass</field>
   <field>valence</field>
   <field type="string">pseudopotential</field>
   <set>
    <rc><c>  32</c><c>Cu</c><c>     63.54600000</c><c>     11.00000000</c><c>  PAW_PBE Cu 22Jun2005                  </c></rc>
    <rc><c>   2</c><c>H </c><c>      1.00000000</c><c>      1.00000000</c><c>  PAW_PBE H 15Jun2001                   </c></rc>
   </set>
  </array>
 </atominfo>
 <structure name="initialpos" >
  <crystal>
   <varray name="basis" >
    <v>       7.26000023       0.00000000       0.00000000 </v>
    <v>       0.00000000       5.13359547       0.00000000 </v>
    <v>       0.00000000       0.00000000      23.98379135 </v>
   </varray>
   <i name="volume">    893.87360752 </i>
   <varray name="rec_basis" >
    <v>       0.13774104       0.00000000       0.00000000 </v>
    <v>       0.00000000       0.19479525       0.00000000 </v>
    <v>       0.00000000       0.00000000       0.04169483 </v>
   </varray>
  </crystal>
  <varray name="positions" >
   <v>       0.00000000       0.00000000       0.00000000 </v>
   <v>       0.00000000       0.50000000       0.00000000 </v>
   <v>       0.50000000       0.00000000       0.00000000 </v>
   <v>       0.50000000       0.50000000       0.00000000 </v>
   <v>       0.25000000       0.25000000       0.05351109 </v>
   <v>       0.25000000       0.75000000       0.05351109 </v>
   <v>       0.75000000       0.25000000       0.05351109 </v>
   <v>       0.75000000       0.75000000       0.05351109 </v>
   <v>       0.00000000       0.00000000       0.10541371 </v>
   <v>       0.00000000       0.50000000       0.10541371 </v>
   <v>       0.50000000       0.00000000       0.10541371 </v>
   <v>       0.50000000       0.50000000       0.10541371 </v>
   <v>       0.25000000       0.25000000       0.15715010 </v>
   <v>       0.25000000       0.75000000       0.15715010 </v>
   <v>       0.75000000       0.25000000       0.15715010 </v>
   <v>       0.75000000       0.75000000       0.15715010 </v>
   <v>       0.00000000       0.00000000       0.20866257 </v>
   <v>       0.00000000       0.50000000       0.20866257 </v>
   <v>       0.50000000       0.00000000       0.20866257 </v>
   <v>       0.50000000       0.50000000       0.20866257 </v>
   <v>       0.25000000       0.25000000       0.25947965 </v>
   <v>       0.25000000       0.75000000       0.25947965 </v>
   <v>       0.75000000       0.25000000       0.25947965 </v>
   <v>       0.75000000       0.75000000       0.25947965 </v>
   <v>       0.00000000       0.00000000       0.31415415 </v>
   <v>       0.00000000       0.50000000       0.31415415 </v>
   <v>       0.50000000       0.00000000       0.31415415 </v>
   <v>       0.50000000       0.50000000       0.31415415 </v>
   <v>       0.25000000       0.25000000       0.36181799 </v>
   <v>       0.25000000       0.75000000       0.36181799 </v>
   <v>       0.75000000       0.25000000       0.36181799 </v>
   <v>       0.75000000       0.75000000       0.36181799 </v>
   <v>       0.75000000       0.50000000       0.42690792 </v>
   <v>       0.75000000       0.64531725       0.42690792 </v>
  </varray>
  <varray name="selective"  type="logical" >
   <v type="logical" >  F  F  F </v>
   <v type="logical" >  F  F  F </v>
   <v type="logical" >  F  F  F </v>
   <v type="logical" >  F  F  F </v>
   <v type="logical" >  F  F  F </v>
   <v type="logical" >  F  F  F </v>
   <v type="logical" >  F  F  F </v>
   <v type="logical" >  F  F  F </v>
   <v type="logical" >  F  F  F </v>
   <v type="logical" >  F  F  F </v>
   <v type="logical" >  F  F  F </v>
   <v type="logical" >  F  F  F </v>
   <v type="logical" >  T  T  T </v>
   <v type="logical" >  T  T  T </v>
   <v type="logical" >  T  T  T </v>
   <v type="logical" >  T  T  T </v>
   <v type="logical" >  T  T  T </v>
   <v type="logical" >  T  T  T </v>
   <v type="logical" >  T  T  T </v>
   <v type="logical" >  T  T  T </v>
   <v type="logical" >  T  T  T </v>
   <v type="logical" >  T  T  T </v>
   <v type="logical" >  T  T  T </v>
   <v type="logical" >  T  T  T </v>
   <v type="logical" >  T  T  T </v>
   <v type="logical" >  T  T  T </v>
   <v type="logical" >  T  T  T </v>
   <v type="logical" >  T  T  T </v>
   <v type="logical" >  T  T  T </v>
   <v type="logical" >  T  T  T </v>
   <v type="logical" >  T  T  T </v>
   <v type="logical" >  T  T  T </v>
   <v type="logical" >  T  T  T </v>
   <v type="logical" >  T  T  T </v>
  </varray>
  <nose>
   <v>      -3.00000000       0.00000000       0.00010000       0.00010000 </v>
  </nose>
 </structure>
 <calculation>
  <scstep>
   <time name="dav">    7.59    7.65</time>
   <time name="total">    7.67    7.73</time>
   <energy>
    <i name="alphaZ">    844.48149002 </i>
    <i name="ewald"> 173297.45041255 </i>
    <i name="hartreedc">-216431.84460001 </i>
    <i name="XCdc">   1468.80794136 </i>
    <i name="pawpsdc">  39302.70853331 </i>
    <i name="pawaedc"> -42689.07521165 </i>
    <i name="eentropy">      0.00684452 </i>
    <i name="bandstr">   2945.41837650 </i>
    <i name="atom">  44535.60175172 </i>
    <i name="e_fr_energy">   3273.55553832 </i>
    <i name="e_wo_entrp">   3273.54869380 </i>
    <i name="e_0_energy">   3273.55325681 </i>
   </energy>
  </scstep>
  <scstep>
   <time name="dav">    7.48    7.54</time>
   <time name="total">    7.48    7.54</time>
   <energy>
    <i name="e_fr_energy">    383.92825466 </i>
    <i name="e_wo_entrp">    383.93937102 </i>
    <i name="e_0_energy">    383.93196011 </i>
   </energy>
  </scstep>
  <scstep>
   <time name="dav">    7.44    7.50</time>
   <time name="total">    7.44    7.50</time>
   <energy>
    <i name="e_fr_energy">   -100.98416870 </i>
    <i name="e_wo_entrp">   -101.00248039 </i>
    <i name="e_0_energy">   -100.99027260 </i>
   </energy>
  </scstep>
  <scstep>
   <time name="dav">    8.24    8.31</time>
   <time name="total">    8.25    8.31</time>
   <energy>
    <i name="e_fr_energy">   -134.25752309 </i>
    <i name="e_wo_entrp">   -134.27805717 </i>
    <i name="e_0_energy">   -134.26436778 </i>
   </energy>
  </scstep>
  <scstep>
   <time name="dav">    8.33    8.40</time>
   <time name="total">    8.73    8.80</time>
   <energy>
    <i name="e_fr_energy">   -135.04645242 </i>
    <i name="e_wo_entrp">   -135.06896188 </i>
    <i name="e_0_energy">   -135.05395557 </i>
   </energy>
  </scstep>
  <scstep>
   <time name="dav">    7.94    8.00</time>
   <time name="total">    8.41    8.47</time>
   <energy>
    <i name="e_fr_energy">   -107.49414817 </i>
    <i name="e_wo_entrp">   -107.49498557 </i>
    <i name="e_0_energy">   -107.49442731 </i>
   </energy>
  </scstep>
  <scstep>
   <time name="dav">    8.03    8.09</time>
   <time name="total">    8.48    8.54</time>
   <energy>
    <i name="e_fr_energy">    -94.50351373 </i>
    <i name="e_wo_entrp">    -94.49679677 </i>
    <i name="e_0_energy">    -94.50127475 </i>
   </energy>
  </scstep>
  <scstep>
   <time name="dav">    8.30    8.37</time>
   <time name="total">    8.75    8.82</time>
   <energy>
    <i name="e_fr_energy">    -93.35004056 </i>
    <i name="e_wo_entrp">    -93.36078141 </i>
    <i name="e_0_energy">    -93.35362084 </i>
   </energy>
  </scstep>
  <scstep>
   <time name="dav">    9.36    9.43</time>
   <time name="total">    9.81    9.88</time>
   <energy>
    <i name="e_fr_energy">    -91.43547792 </i>
    <i name="e_wo_entrp">    -91.43392014 </i>
    <i name="e_0_energy">    -91.43495866 </i>
   </energy>
  </scstep>
  <scstep>
   <time name="dav">    9.78    9.85</time>
   <time name="total">   10.24   10.32</time>
   <energy>
    <i name="e_fr_energy">    -93.16248965 </i>
    <i name="e_wo_entrp">    -93.16794688 </i>
    <i name="e_0_energy">    -93.16430873 </i>
   </energy>
  </scstep>
  <scstep>
   <time name="dav">   10.06   10.14</time>
   <time name="total">   10.51   10.59</time>
   <energy>
    <i name="e_fr_energy">    -92.97648918 </i>
    <i name="e_wo_entrp">    -92.96056458 </i>
    <i name="e_0_energy">    -92.97118098 </i>
   </energy>
  </scstep>
  <scstep>
   <time name="dav">    9.40    9.48</time>
   <time name="total">    9.87    9.95</time>
   <energy>
    <i name="e_fr_energy">    -94.73300776 </i>
    <i name="e_wo_entrp">    -94.69686763 </i>
    <i name="e_0_energy">    -94.72096105 </i>
   </energy>
  </scstep>
  <scstep>
   <time name="dav">    9.03    9.10</time>
   <time name="total">    9.49    9.56</time>
   <energy>
    <i name="e_fr_energy">    -99.68530407 </i>
    <i name="e_wo_entrp">    -99.67046062 </i>
    <i name="e_0_energy">    -99.68035625 </i>
   </energy>
  </scstep>
  <scstep>
   <time name="dav">    8.94    9.01</time>
   <time name="total">    9.40    9.47</time>
   <energy>
    <i name="e_fr_energy">   -104.78971256 </i>
    <i name="e_wo_entrp">   -104.77570580 </i>
    <i name="e_0_energy">   -104.78504364 </i>
   </energy>
  </scstep>
  <scstep>
   <time name="dav">    9.26    9.34</time>
   <time name="total">    9.72    9.80</time>
   <energy>
    <i name="e_fr_energy">   -110.02473031 </i>
    <i name="e_wo_entrp">   -110.06112237 </i>
    <i name="e_0_energy">   -110.03686099 </i>
   </energy>
  </scstep>
  <scstep>
   <time name="dav">    8.15    8.21</time>
   <time name="total">    8.63    8.69</time>
   <energy>
    <i name="e_fr_energy">   -112.71208626 </i>
    <i name="e_wo_entrp">   -112.76744311 </i>
    <i name="e_0_energy">   -112.73053855 </i>
   </energy>
  </scstep>
  <scstep>
   <time name="dav">    8.09    8.15</time>
   <time name="total">    8.54    8.61</time>
   <energy>
    <i name="e_fr_energy">   -114.29357463 </i>
    <i name="e_wo_entrp">   -114.35183084 </i>
    <i name="e_0_energy">   -114.31299337 </i>
   </energy>
  </scstep>
  <scstep>
   <time name="dav">    8.33    8.40</time>
   <time name="total">    8.80    8.87</time>
   <energy>
    <i name="e_fr_energy">   -115.81526197 </i>
    <i name="e_wo_entrp">   -115.86012956 </i>
    <i name="e_0_energy">   -115.83021783 </i>
   </energy>
  </scstep>
  <scstep>
   <time name="dav">    8.52    8.59</time>
   <time name="total">    8.98    9.06</time>
   <energy>
    <i name="e_fr_energy">   -116.55270122 </i>
    <i name="e_wo_entrp">   -116.58453772 </i>
    <i name="e_0_energy">   -116.56331338 </i>
   </energy>
  </scstep>
  <scstep>
   <time name="dav">    8.42    8.49</time>
   <time name="total">    8.88    8.95</time>
   <energy>
    <i name="e_fr_energy">   -116.86898536 </i>
    <i name="e_wo_entrp">   -116.89660800 </i>
    <i name="e_0_energy">   -116.87819291 </i>
   </energy>
  </scstep>
  <scstep>
   <time name="dav">    8.56    8.62</time>
   <time name="total">    9.01    9.08</time>
   <energy>
    <i name="e_fr_energy">   -117.08649626 </i>
    <i name="e_wo_entrp">   -117.11237161 </i>
    <i name="e_0_energy">   -117.09512138 </i>
   </energy>
  </scstep>
  <scstep>
   <time name="dav">    8.89    8.96</time>
   <time name="total">    9.35    9.43</time>
   <energy>
    <i name="e_fr_energy">   -117.37404248 </i>
    <i name="e_wo_entrp">   -117.39902233 </i>
    <i name="e_0_energy">   -117.38236910 </i>
   </energy>
  </scstep>
  <scstep>
   <time name="dav">    8.20    8.26</time>
   <time name="total">    8.66    8.72</time>
   <energy>
    <i name="e_fr_energy">   -117.52112620 </i>
    <i name="e_wo_entrp">   -117.54602832 </i>
    <i name="e_0_energy">   -117.52942690 </i>
   </energy>
  </scstep>
  <scstep>
   <time name="dav">    8.57    8.63</time>
   <time name="total">    9.03    9.10</time>
   <energy>
    <i name="e_fr_energy">   -117.68697723 </i>
    <i name="e_wo_entrp">   -117.71192479 </i>
    <i name="e_0_energy">   -117.69529308 </i>
   </energy>
  </scstep>
  <scstep>
   <time name="dav">    9.12    9.19</time>
   <time name="total">    9.57    9.65</time>
   <energy>
    <i name="e_fr_energy">   -117.82940268 </i>
    <i name="e_wo_entrp">   -117.85456163 </i>
    <i name="e_0_energy">   -117.83778900 </i>
   </energy>
  </scstep>
  <scstep>
   <time name="dav">    9.01    9.09</time>
   <time name="total">    9.47    9.55</time>
   <energy>
    <i name="e_fr_energy">   -118.00889217 </i>
    <i name="e_wo_entrp">   -118.03413507 </i>
    <i name="e_0_energy">   -118.01730647 </i>
   </energy>
  </scstep>
  <scstep>
   <time name="dav">    7.78    7.84</time>
   <time name="total">    8.24    8.30</time>
   <energy>
    <i name="e_fr_energy">   -118.06529294 </i>
    <i name="e_wo_entrp">   -118.09053341 </i>
    <i name="e_0_energy">   -118.07370643 </i>
   </energy>
  </scstep>
  <scstep>
   <time name="dav">    6.85    6.91</time>
   <time name="total">    7.32    7.37</time>
   <energy>
    <i name="e_fr_energy">   -118.09424755 </i>
    <i name="e_wo_entrp">   -118.11953764 </i>
    <i name="e_0_energy">   -118.10267758 </i>
   </energy>
  </scstep>
  <scstep>
   <time name="dav">    6.18    6.23</time>
   <time name="total">    6.64    6.69</time>
   <energy>
    <i name="e_fr_energy">   -118.10256936 </i>
    <i name="e_wo_entrp">   -118.12787526 </i>
    <i name="e_0_energy">   -118.11100466 </i>
   </energy>
  </scstep>
  <scstep>
   <time name="dav">    5.66    5.70</time>
   <time name="total">    6.13    6.17</time>
   <energy>
    <i name="e_fr_energy">   -118.10475193 </i>
    <i name="e_wo_entrp">   -118.13003865 </i>
    <i name="e_0_energy">   -118.11318084 </i>
   </energy>
  </scstep>
  <scstep>
   <time name="dav">    5.62    5.67</time>
   <time name="total">    6.09    6.14</time>
   <energy>
    <i name="e_fr_energy">   -118.10607054 </i>
    <i name="e_wo_entrp">   -118.13132163 </i>
    <i name="e_0_energy">   -118.11448757 </i>
   </energy>
  </scstep>
  <scstep>
   <time name="dav">    5.53    5.57</time>
   <time name="total">    5.99    6.03</time>
   <energy>
    <i name="e_fr_energy">   -118.10628807 </i>
    <i name="e_wo_entrp">   -118.13156234 </i>
    <i name="e_0_energy">   -118.11471283 </i>
   </energy>
  </scstep>
  <scstep>
   <time name="dav">    5.47    5.51</time>
   <time name="total">    5.55    5.59</time>
   <energy>
    <i name="alphaZ">    844.48149002 </i>
    <i name="ewald"> 173297.45041255 </i>
    <i name="hartreedc">-216054.89099487 </i>
    <i name="XCdc">   1432.03921138 </i>
    <i name="pawpsdc">  41975.02152495 </i>
    <i name="pawaedc"> -45423.36453497 </i>
    <i name="eentropy">      0.02526128 </i>
    <i name="bandstr">   -724.47046540 </i>
    <i name="atom">  44535.60175172 </i>
    <i name="e_fr_energy">   -118.10634334 </i>
    <i name="e_wo_entrp">   -118.13160462 </i>
    <i name="e_0_energy">   -118.11476377 </i>
   </energy>
  </scstep>
  <structure>
   <crystal>
    <varray name="basis" >
     <v>       7.26000023       0.00000000       0.00000000 </v>
     <v>       0.00000000       5.13359547       0.00000000 </v>
     <v>       0.00000000       0.00000000      23.98379135 </v>
    </varray>
    <i name="volume">    893.87360752 </i>
    <varray name="rec_basis" >
     <v>       0.13774104       0.00000000       0.00000000 </v>
     <v>       0.00000000       0.19479525       0.00000000 </v>
     <v>       0.00000000       0.00000000       0.04169483 </v>
    </varray>
   </crystal>
   <varray name="positions" >
    <v>       0.00000000       0.00000000       0.00000000 </v>
    <v>       0.00000000       0.50000000       0.00000000 </v>
    <v>       0.50000000       0.00000000       0.00000000 </v>
    <v>       0.50000000       0.50000000       0.00000000 </v>
    <v>       0.25000000       0.25000000       0.05351109 </v>
    <v>       0.25000000       0.75000000       0.05351109 </v>
    <v>       0.75000000       0.25000000       0.05351109 </v>
    <v>       0.75000000       0.75000000       0.05351109 </v>
    <v>       0.00000000       0.00000000       0.10541371 </v>
    <v>       0.00000000       0.50000000       0.10541371 </v>
    <v>       0.50000000       0.00000000       0.10541371 </v>
    <v>       0.50000000       0.50000000       0.10541371 </v>
    <v>       0.25000000       0.25000000       0.15715010 </v>
    <v>       0.25000000       0.75000000       0.15715010 </v>
    <v>       0.75000000       0.25000000       0.15715010 </v>
    <v>       0.75000000       0.75000000       0.15715010 </v>
    <v>       0.00000000       0.00000000       0.20866257 </v>
    <v>       0.00000000       0.50000000       0.20866257 </v>
    <v>       0.50000000       0.00000000       0.20866257 </v>
    <v>       0.50000000       0.50000000       0.20866257 </v>
    <v>       0.25000000       0.25000000       0.25947965 </v>
    <v>       0.25000000       0.75000000       0.25947965 </v>
    <v>       0.75000000       0.25000000       0.25947965 </v>
    <v>       0.75000000       0.75000000       0.25947965 </v>
    <v>       0.00000000       0.00000000       0.31415415 </v>
    <v>       0.00000000       0.50000000       0.31415415 </v>
    <v>       0.50000000       0.00000000       0.31415415 </v>
    <v>       0.50000000       0.50000000       0.31415415 </v>
    <v>       0.25000000       0.25000000       0.36181799 </v>
    <v>       0.25000000       0.75000000       0.36181799 </v>
    <v>       0.75000000       0.25000000       0.36181799 </v>
    <v>       0.75000000       0.75000000       0.36181799 </v>
    <v>       0.75000000       0.50000000       0.42690792 </v>
    <v>       0.75000000       0.64531725       0.42690792 </v>
   </varray>
  </structure>
  <varray name="forces" >
   <v>       0.01056299      -0.00944142       0.43605725 </v>
   <v>       0.02851917       0.00909515       0.43277698 </v>
   <v>      -0.01056299      -0.00944142       0.43605725 </v>
   <v>      -0.02851917       0.00909515       0.43277698 </v>
   <v>       0.00000000       0.02615707      -0.47823105 </v>
   <v>       0.00000000      -0.02609552      -0.49498407 </v>
   <v>       0.00000000      -0.00182538      -0.42166451 </v>
   <v>       0.00000000       0.00330517      -0.42565575 </v>
   <v>       0.00259274      -0.00005949      -0.02217760 </v>
   <v>      -0.01595874      -0.00117961      -0.01980728 </v>
   <v>      -0.00259274      -0.00005949      -0.02217760 </v>
   <v>       0.01595874      -0.00117961      -0.01980728 </v>
   <v>       0.00000000       0.01474788      -0.00259146 </v>
   <v>       0.00000000      -0.01649690       0.00422845 </v>
   <v>       0.00000000      -0.00200355       0.04230773 </v>
   <v>       0.00000000       0.00164685       0.02518597 </v>
   <v>      -0.01145515       0.00687124      -0.01957598 </v>
   <v>       0.02603714      -0.00531213       0.01322725 </v>
   <v>       0.01145515       0.00687124      -0.01957598 </v>
   <v>      -0.02603714      -0.00531213       0.01322725 </v>
   <v>       0.00000000      -0.01988650      -0.02416851 </v>
   <v>       0.00000000       0.02066614      -0.01049123 </v>
   <v>       0.00000000       0.09399841       0.05952387 </v>
   <v>       0.00000000      -0.08042999       0.10177561 </v>
   <v>       0.01235703       0.01121924       0.04208995 </v>
   <v>       0.11846152      -0.02853178      -0.16856988 </v>
   <v>      -0.01235703       0.01121924       0.04208995 </v>
   <v>      -0.11846152      -0.02853178      -0.16856988 </v>
   <v>       0.00000000      -0.00316969       0.00960176 </v>
   <v>       0.00000000       0.00707037      -0.01207684 </v>
   <v>       0.00000000      -0.37337065      -0.18459125 </v>
   <v>       0.00000000       0.16891090      -0.40018912 </v>
   <v>       0.00000000      -1.57403296      -0.11263408 </v>
   <v>       0.00000000       1.79548599       0.93661311 </v>
  </varray>
  <varray name="stress" >
   <v>     -31.90075117       0.00000000       0.00000000 </v>
   <v>       0.00000000     -26.59148780       0.63604916 </v>
   <v>       0.00000000       0.63604912      -4.48975112 </v>
  </varray>
  <energy>
   <i name="e_fr_energy">   -130.48819873 </i>
   <i name="e_wo_entrp">   -130.51346000 </i>
   <i name="e_0_energy">   -130.49661915 </i>
  </energy>
  <time name="totalsc">  294.08  296.37</time>
 </calculation>
 <calculation>
  <scstep>
   <time name="dav">    7.51    7.57</time>
   <time name="total">    7.98    8.04</time>
   <energy>
    <i name="alphaZ">    844.48149002 </i>
    <i name="ewald"> 173436.45195147 </i>
    <i name="hartreedc">-216196.04102099 </i>
    <i name="XCdc">   1431.91598636 </i>
    <i name="pawpsdc">  41974.93712739 </i>
    <i name="pawaedc"> -45423.26157396 </i>
    <i name="eentropy">      0.01935240 </i>
    <i name="bandstr">   -722.22415974 </i>
    <i name="atom">  44535.60175172 </i>
    <i name="e_fr_energy">   -118.11909533 </i>
    <i name="e_wo_entrp">   -118.13844773 </i>
    <i name="e_0_energy">   -118.12554613 </i>
   </energy>
  </scstep>
  <scstep>
   <time name="dav">    9.88    9.96</time>
   <time name="total">   10.34   10.42</time>
   <energy>
    <i name="e_fr_energy">   -118.13168695 </i>
    <i name="e_wo_entrp">   -118.15170673 </i>
    <i name="e_0_energy">   -118.13836021 </i>
   </energy>
  </scstep>
  <scstep>
   <time name="dav">    8.21    8.28</time>
   <time name="total">    8.67    8.74</time>
   <energy>
    <i name="e_fr_energy">   -118.13048533 </i>
    <i name="e_wo_entrp">   -118.15101954 </i>
    <i name="e_0_energy">   -118.13733007 </i>
   </energy>
  </scstep>
  <scstep>
   <time name="dav">    8.41    8.47</time>
   <time name="total">    8.86    8.93</time>
   <energy>
    <i name="e_fr_energy">   -118.12624434 </i>
    <i name="e_wo_entrp">   -118.14644106 </i>
    <i name="e_0_energy">   -118.13297658 </i>
   </energy>
  </scstep>
  <scstep>
   <time name="dav">    9.78    9.86</time>
   <time name="total">   10.24   10.33</time>
   <energy>
    <i name="e_fr_energy">   -118.12738431 </i>
    <i name="e_wo_entrp">   -118.14828056 </i>
    <i name="e_0_energy">   -118.13434973 </i>
   </energy>
  </scstep>
  <scstep>
   <time name="dav">   11.11   11.20</time>
   <time name="total">   11.56   11.65</time>
   <energy>
    <i name="e_fr_energy">   -118.12520482 </i>
    <i name="e_wo_entrp">   -118.14594551 </i>
    <i name="e_0_energy">   -118.13211838 </i>
   </energy>
  </scstep>
  <scstep>
   <time name="dav">    8.19    8.26</time>
   <time name="total">    8.27    8.34</time>
   <energy>
    <i name="alphaZ">    844.48149002 </i>
    <i name="ewald"> 173436.45195147 </i>
    <i name="hartreedc">-216184.48983856 </i>
    <i name="XCdc">   1431.72131527 </i>
    <i name="pawpsdc">  41968.48757380 </i>
    <i name="pawaedc"> -45416.76853788 </i>
    <i name="eentropy">      0.02054432 </i>
    <i name="bandstr">   -733.63149785 </i>
    <i name="atom">  44535.60175172 </i>
    <i name="e_fr_energy">   -118.12524768 </i>
    <i name="e_wo_entrp">   -118.14579200 </i>
    <i name="e_0_energy">   -118.13209579 </i>
   </energy>
  </scstep>
  <structure>
   <crystal>
    <varray name="basis" >
     <v>       7.26000023       0.00000000       0.00000000 </v>
     <v>       0.00000000       5.13359547       0.00000000 </v>
     <v>       0.00000000       0.00000000      23.98379135 </v>
    </varray>
    <i name="volume">    893.87360752 </i>
    <varray name="rec_basis" >
     <v>       0.13774104       0.00000000       0.00000000 </v>
     <v>       0.00000000       0.19479525       0.00000000 </v>
     <v>       0.00000000       0.00000000       0.04169483 </v>
    </varray>
   </crystal>
   <varray name="positions" >
    <v>       0.00000000       0.00000000       0.00000000 </v>
    <v>       0.00000000       0.50000000       0.00000000 </v>
    <v>       0.50000000       0.00000000       0.00000000 </v>
    <v>       0.50000000       0.50000000       0.00000000 </v>
    <v>       0.25000000       0.25000000       0.05351109 </v>
    <v>       0.25000000       0.75000000       0.05351109 </v>
    <v>       0.75000000       0.25000000       0.05351109 </v>
    <v>       0.75000000       0.75000000       0.05351109 </v>
    <v>       0.00000000       0.00000000       0.10541371 </v>
    <v>       0.00000000       0.50000000       0.10541371 </v>
    <v>       0.50000000       0.00000000       0.10541371 </v>
    <v>       0.50000000       0.50000000       0.10541371 </v>
    <v>       0.25000000       0.25013859       0.15714488 </v>
    <v>       0.25000000       0.74984497       0.15715860 </v>
    <v>       0.75000000       0.24998117       0.15723520 </v>
    <v>       0.75000000       0.75001548       0.15720076 </v>
    <v>      -0.00007612       0.00006457       0.20862319 </v>
    <v>       0.00017302       0.49995008       0.20868918 </v>
    <v>       0.50007612       0.00006457       0.20862319 </v>
    <v>       0.49982698       0.49995008       0.20868918 </v>
    <v>       0.25000000       0.24981312       0.25943104 </v>
    <v>       0.25000000       0.75019421       0.25945855 </v>
    <v>       0.75000000       0.25088334       0.25959938 </v>
    <v>       0.75000000       0.74924416       0.25968437 </v>
    <v>       0.00008211       0.00010543       0.31423881 </v>
    <v>       0.00078718       0.49973187       0.31381508 </v>
    <v>       0.49991789       0.00010543       0.31423881 </v>
    <v>       0.49921282       0.49973187       0.31381508 </v>
    <v>       0.25000000       0.24997021       0.36183730 </v>
    <v>       0.25000000       0.75006644       0.36179370 </v>
    <v>       0.75000000       0.24649127       0.36144669 </v>
    <v>       0.75000000       0.75158733       0.36101302 </v>
    <v>       0.75000000       0.48520812       0.42668136 </v>
    <v>       0.75000000       0.66219023       0.42879189 </v>
   </varray>
  </structure>
  <varray name="forces" >
   <v>       0.00769881      -0.01062821       0.43156285 </v>
   <v>       0.02632486       0.00936307       0.42696513 </v>
   <v>      -0.00769881      -0.01062821       0.43156285 </v>
   <v>      -0.02632486       0.00936307       0.42696513 </v>
   <v>       0.00000000       0.02506726      -0.47734014 </v>
   <v>       0.00000000      -0.02600566      -0.49499820 </v>
   <v>       0.00000000       0.00161498      -0.41554176 </v>
   <v>       0.00000000       0.00041196      -0.42181563 </v>
   <v>      -0.00157275      -0.00042507      -0.02113654 </v>
   <v>      -0.02252985      -0.00260880      -0.01826142 </v>
   <v>       0.00157275      -0.00042507      -0.02113654 </v>
   <v>       0.02252985      -0.00260880      -0.01826142 </v>
   <v>       0.00000000       0.00366675      -0.00505274 </v>
   <v>       0.00000000      -0.00690349       0.00120900 </v>
   <v>       0.00000000       0.00423764       0.02182221 </v>
   <v>       0.00000000      -0.00249627       0.01942229 </v>
   <v>      -0.01807613       0.00183686      -0.00141339 </v>
   <v>       0.01176543      -0.00064797      -0.01040247 </v>
   <v>       0.01807613       0.00183686      -0.00141339 </v>
   <v>      -0.01176543      -0.00064797      -0.01040247 </v>
   <v>       0.00000000      -0.02776268      -0.01936398 </v>
   <v>       0.00000000       0.02586883      -0.01355499 </v>
   <v>       0.00000000       0.04985253       0.00393672 </v>
   <v>       0.00000000      -0.03918968      -0.00727238 </v>
   <v>       0.05535873       0.00313088      -0.01811913 </v>
   <v>       0.08034484      -0.02667977      -0.12518641 </v>
   <v>      -0.05535873       0.00313088      -0.01811913 </v>
   <v>      -0.08034484      -0.02667977      -0.12518641 </v>
   <v>       0.00000000      -0.00131162       0.00681952 </v>
   <v>       0.00000000       0.00278429      -0.00822329 </v>
   <v>       0.00000000      -0.14643815       0.04983789 </v>
   <v>       0.00000000      -0.13255081       0.21418928 </v>
   <v>       0.00000000       1.23654574      -0.20924183 </v>
   <v>       0.00000000      -0.91407363       0.42715079 </v>
  </varray>
  <varray name="stress" >
   <v>     -30.55940792       0.00000000       0.00000000 </v>
   <v>       0.00000000     -30.22684345       0.89024896 </v>
   <v>       0.00000000       0.89024903      -4.53445542 </v>
  </varray>
  <energy>
   <i name="e_fr_energy">   -130.53143112 </i>
   <i name="e_wo_entrp">   -130.55197543 </i>
   <i name="e_0_energy">   -130.53827922 </i>
  </energy>
  <time name="totalsc">   80.88   81.60</time>
 </calculation>
 <calculation>
  <scstep>
   <time name="dav">    7.55    7.61</time>
   <time name="total">    8.01    8.07</time>
   <energy>
    <i name="alphaZ">    844.48149002 </i>
    <i name="ewald"> 173371.71941886 </i>
    <i name="hartreedc">-216118.43269740 </i>
    <i name="XCdc">   1431.77355995 </i>
    <i name="pawpsdc">  41968.81631250 </i>
    <i name="pawaedc"> -45417.11427000 </i>
    <i name="eentropy">      0.02360026 </i>
    <i name="bandstr">   -735.04574332 </i>
    <i name="atom">  44535.60175172 </i>
    <i name="e_fr_energy">   -118.17657743 </i>
    <i name="e_wo_entrp">   -118.20017768 </i>
    <i name="e_0_energy">   -118.18444418 </i>
   </energy>
  </scstep>
  <scstep>
   <time name="dav">    9.81    9.89</time>
   <time name="total">   10.27   10.35</time>
   <energy>
    <i name="e_fr_energy">   -118.18206722 </i>
    <i name="e_wo_entrp">   -118.20500081 </i>
    <i name="e_0_energy">   -118.18971175 </i>
   </energy>
  </scstep>
  <scstep>
   <time name="dav">    8.15    8.22</time>
   <time name="total">    8.61    8.68</time>
   <energy>
    <i name="e_fr_energy">   -118.18306930 </i>
    <i name="e_wo_entrp">   -118.20610258 </i>
    <i name="e_0_energy">   -118.19074706 </i>
   </energy>
  </scstep>
  <scstep>
   <time name="dav">    8.13    8.20</time>
   <time name="total">    8.59    8.66</time>
   <energy>
    <i name="e_fr_energy">   -118.18240342 </i>
    <i name="e_wo_entrp">   -118.20560552 </i>
    <i name="e_0_energy">   -118.19013745 </i>
   </energy>
  </scstep>
  <scstep>
   <time name="dav">    8.39    8.46</time>
   <time name="total">    8.84    8.91</time>
   <energy>
    <i name="e_fr_energy">   -118.18105308 </i>
    <i name="e_wo_entrp">   -118.20372261 </i>
    <i name="e_0_energy">   -118.18860959 </i>
   </energy>
  </scstep>
  <scstep>
   <time name="dav">    8.98    9.06</time>
   <time name="total">    9.06    9.14</time>
   <energy>
    <i name="alphaZ">    844.48149002 </i>
    <i name="ewald"> 173371.71941886 </i>
    <i name="hartreedc">-216122.72623084 </i>
    <i name="XCdc">   1431.86169925 </i>
    <i name="pawpsdc">  41972.18082081 </i>
    <i name="pawaedc"> -45420.53991794 </i>
    <i name="eentropy">      0.02280507 </i>
    <i name="bandstr">   -730.78283406 </i>
    <i name="atom">  44535.60175172 </i>
    <i name="e_fr_energy">   -118.18099710 </i>
    <i name="e_wo_entrp">   -118.20380218 </i>
    <i name="e_0_energy">   -118.18859879 </i>
   </energy>
  </scstep>
  <structure>
   <crystal>
    <varray name="basis" >
     <v>       7.26000023       0.00000000       0.00000000 </v>
     <v>       0.00000000       5.13359547       0.00000000 </v>
     <v>       0.00000000       0.00000000      23.98379135 </v>
    </varray>
    <i name="volume">    893.87360752 </i>
    <varray name="rec_basis" >
     <v>       0.13774104       0.00000000       0.00000000 </v>
     <v>       0.00000000       0.19479525       0.00000000 </v>
     <v>       0.00000000       0.00000000       0.04169483 </v>
    </varray>
   </crystal>
   <varray name="positions" >
    <v>       0.00000000       0.00000000       0.00000000 </v>
    <v>       0.00000000       0.50000000       0.00000000 </v>
    <v>       0.50000000       0.00000000       0.00000000 </v>
    <v>       0.50000000       0.50000000       0.00000000 </v>
    <v>       0.25000000       0.25000000       0.05351109 </v>
    <v>       0.25000000       0.75000000       0.05351109 </v>
    <v>       0.75000000       0.25000000       0.05351109 </v>
    <v>       0.75000000       0.75000000       0.05351109 </v>
    <v>       0.00000000       0.00000000       0.10541371 </v>
    <v>       0.00000000       0.50000000       0.10541371 </v>
    <v>       0.50000000       0.00000000       0.10541371 </v>
    <v>       0.50000000       0.50000000       0.10541371 </v>
    <v>       0.25000000       0.25007431       0.15714730 </v>
    <v>       0.25000000       0.74991687       0.15715466 </v>
    <v>       0.75000000       0.24998990       0.15719573 </v>
    <v>       0.75000000       0.75000830       0.15717726 </v>
    <v>      -0.00004082       0.00003462       0.20864146 </v>
    <v>       0.00009277       0.49997323       0.20867684 </v>
    <v>       0.50004082       0.00003462       0.20864146 </v>
    <v>       0.49990723       0.49997323       0.20867684 </v>
    <v>       0.25000000       0.24989979       0.25945359 </v>
    <v>       0.25000000       0.75010413       0.25946834 </v>
    <v>       0.75000000       0.25047365       0.25954385 </v>
    <v>       0.75000000       0.74959472       0.25958942 </v>
    <v>       0.00004403       0.00005653       0.31419955 </v>
    <v>       0.00042208       0.49985623       0.31397234 </v>
    <v>       0.49995597       0.00005653       0.31419955 </v>
    <v>       0.49957792       0.49985623       0.31397234 </v>
    <v>       0.25000000       0.24998403       0.36182835 </v>
    <v>       0.25000000       0.75003563       0.36180496 </v>
    <v>       0.75000000       0.24811862       0.36161890 </v>
    <v>       0.75000000       0.75085113       0.36138637 </v>
    <v>       0.75000000       0.49206859       0.42678644 </v>
    <v>       0.75000000       0.65436455       0.42791811 </v>
   </varray>
  </structure>
  <varray name="forces" >
   <v>       0.00955413      -0.00948014       0.43364994 </v>
   <v>       0.02792112       0.00964363       0.43000984 </v>
   <v>      -0.00955413      -0.00948014       0.43364994 </v>
   <v>      -0.02792112       0.00964363       0.43000984 </v>
   <v>       0.00000000       0.02649620      -0.47866994 </v>
   <v>       0.00000000      -0.02595402      -0.49576930 </v>
   <v>       0.00000000       0.00039991      -0.41948666 </v>
   <v>       0.00000000       0.00227937      -0.42499050 </v>
   <v>       0.00053145       0.00033213      -0.02209172 </v>
   <v>      -0.01946502      -0.00154587      -0.01915933 </v>
   <v>      -0.00053145       0.00033213      -0.02209172 </v>
   <v>       0.01946502      -0.00154587      -0.01915933 </v>
   <v>       0.00000000       0.01236583      -0.00246409 </v>
   <v>       0.00000000      -0.01417391       0.00534263 </v>
   <v>       0.00000000       0.00183747       0.03973697 </v>
   <v>       0.00000000      -0.00008611       0.02728201 </v>
   <v>      -0.01672799       0.00564227      -0.00821162 </v>
   <v>       0.02230037      -0.00331151       0.00731512 </v>
   <v>       0.01672799       0.00564227      -0.00821162 </v>
   <v>      -0.02230037      -0.00331151       0.00731512 </v>
   <v>       0.00000000      -0.02580598      -0.01895579 </v>
   <v>       0.00000000       0.02664349      -0.00736265 </v>
   <v>       0.00000000       0.08230030       0.04120729 </v>
   <v>       0.00000000      -0.06837555       0.06038402 </v>
   <v>       0.03767132       0.00976056       0.02077884 </v>
   <v>       0.11278240      -0.03023445      -0.15891728 </v>
   <v>      -0.03767132       0.00976056       0.02077884 </v>
   <v>      -0.11278240      -0.03023445      -0.15891728 </v>
   <v>       0.00000000      -0.00269664       0.01050815 </v>
   <v>       0.00000000       0.00699123      -0.01097434 </v>
   <v>       0.00000000      -0.26730097      -0.07410277 </v>
   <v>       0.00000000       0.00052949      -0.09308273 </v>
   <v>       0.00000000       0.42733469      -0.21125690 </v>
   <v>       0.00000000      -0.14439801       0.68590704 </v>
  </varray>
  <varray name="stress" >
   <v>     -31.15305453       0.00000000       0.00000000 </v>
   <v>       0.00000000     -29.09694604       0.81449234 </v>
   <v>       0.00000000       0.81449229      -4.36684044 </v>
  </varray>
  <energy>
   <i name="e_fr_energy">   -130.56848578 </i>
   <i name="e_wo_entrp">   -130.59129085 </i>
   <i name="e_0_energy">   -130.57608747 </i>
  </energy>
  <time name="totalsc">   68.30   68.88</time>
 </calculation>
 <calculation>
  <scstep>
   <time name="dav">    7.60    7.66</time>
   <time name="total">    8.06    8.12</time>
   <energy>
    <i name="alphaZ">    844.48149002 </i>
    <i name="ewald"> 173449.30704327 </i>
    <i name="hartreedc">-216200.58388352 </i>
    <i name="XCdc">   1431.85973624 </i>
    <i name="pawpsdc">  41972.12172946 </i>
    <i name="pawaedc"> -45420.48797018 </i>
    <i name="eentropy">      0.02392226 </i>
    <i name="bandstr">   -730.53069649 </i>
    <i name="atom">  44535.60175172 </i>
    <i name="e_fr_energy">   -118.20687722 </i>
    <i name="e_wo_entrp">   -118.23079948 </i>
    <i name="e_0_energy">   -118.21485131 </i>
   </energy>
  </scstep>
  <scstep>
   <time name="dav">    9.86    9.94</time>
   <time name="total">   10.31   10.39</time>
   <energy>
    <i name="e_fr_energy">   -118.21293518 </i>
    <i name="e_wo_entrp">   -118.23657581 </i>
    <i name="e_0_energy">   -118.22081539 </i>
   </energy>
  </scstep>
  <scstep>
   <time name="dav">    7.95    8.02</time>
   <time name="total">    8.41    8.48</time>
   <energy>
    <i name="e_fr_energy">   -118.21300562 </i>
    <i name="e_wo_entrp">   -118.23688189 </i>
    <i name="e_0_energy">   -118.22096438 </i>
   </energy>
  </scstep>
  <scstep>
   <time name="dav">    6.35    6.40</time>
   <time name="total">    6.43    6.49</time>
   <energy>
    <i name="alphaZ">    844.48149002 </i>
    <i name="ewald"> 173449.30704327 </i>
    <i name="hartreedc">-216201.19558238 </i>
    <i name="XCdc">   1431.86465044 </i>
    <i name="pawpsdc">  41972.76916038 </i>
    <i name="pawaedc"> -45421.10928296 </i>
    <i name="eentropy">      0.02378474 </i>
    <i name="bandstr">   -729.95584684 </i>
    <i name="atom">  44535.60175172 </i>
    <i name="e_fr_energy">   -118.21283161 </i>
    <i name="e_wo_entrp">   -118.23661635 </i>
    <i name="e_0_energy">   -118.22075986 </i>
   </energy>
  </scstep>
  <structure>
   <crystal>
    <varray name="basis" >
     <v>       7.26000023       0.00000000       0.00000000 </v>
     <v>       0.00000000       5.13359547       0.00000000 </v>
     <v>       0.00000000       0.00000000      23.98379135 </v>
    </varray>
    <i name="volume">    893.87360752 </i>
    <varray name="rec_basis" >
     <v>       0.13774104       0.00000000       0.00000000 </v>
     <v>       0.00000000       0.19479525       0.00000000 </v>
     <v>       0.00000000       0.00000000       0.04169483 </v>
    </varray>
   </crystal>
   <varray name="positions" >
    <v>       0.00000000       0.00000000       0.00000000 </v>
    <v>       0.00000000       0.50000000       0.00000000 </v>
    <v>       0.50000000       0.00000000       0.00000000 </v>
    <v>       0.50000000       0.50000000       0.00000000 </v>
    <v>       0.25000000       0.25000000       0.05351109 </v>
    <v>       0.25000000       0.75000000       0.05351109 </v>
    <v>       0.75000000       0.25000000       0.05351109 </v>
    <v>       0.75000000       0.75000000       0.05351109 </v>
    <v>       0.00000000       0.00000000       0.10541371 </v>
    <v>       0.00000000       0.50000000       0.10541371 </v>
    <v>       0.50000000       0.00000000       0.10541371 </v>
    <v>       0.50000000       0.50000000       0.10541371 </v>
    <v>       0.25000000       0.25019591       0.15714220 </v>
    <v>       0.25000000       0.74977794       0.15716540 </v>
    <v>       0.75000000       0.25000337       0.15727817 </v>
    <v>       0.75000000       0.75000937       0.15723296 </v>
    <v>      -0.00015054       0.00009026       0.20862188 </v>
    <v>       0.00024740       0.49993918       0.20869329 </v>
    <v>       0.50015054       0.00009026       0.20862188 </v>
    <v>       0.49975260       0.49993918       0.20869329 </v>
    <v>       0.25000000       0.24965798       0.25941332 </v>
    <v>       0.25000000       0.75035395       0.25945244 </v>
    <v>       0.75000000       0.25127837       0.25963302 </v>
    <v>       0.75000000       0.74892359       0.25972350 </v>
    <v>       0.00028071       0.00015205       0.31424734 </v>
    <v>       0.00119384       0.49956718       0.31364278 </v>
    <v>       0.49971929       0.00015205       0.31424734 </v>
    <v>       0.49880616       0.49956718       0.31364278 </v>
    <v>       0.25000000       0.24995756       0.36184977 </v>
    <v>       0.25000000       0.75010298       0.36178210 </v>
    <v>       0.75000000       0.24543035       0.36144035 </v>
    <v>       0.75000000       0.75104082       0.36112259 </v>
    <v>       0.75000000       0.49398628       0.42637449 </v>
    <v>       0.75000000       0.65510188       0.42938959 </v>
   </varray>
  </structure>
  <varray name="forces" >
   <v>       0.00925008      -0.01141989       0.43178448 </v>
   <v>       0.02783982       0.00840383       0.42762400 </v>
   <v>      -0.00925008      -0.01141989       0.43178448 </v>
   <v>      -0.02783982       0.00840383       0.42762400 </v>
   <v>       0.00000000       0.02385750      -0.47898495 </v>
   <v>       0.00000000      -0.02668579      -0.49602335 </v>
   <v>       0.00000000      -0.00131595      -0.41503350 </v>
   <v>       0.00000000       0.00109734      -0.42204468 </v>
   <v>      -0.00131677      -0.00143476      -0.02154491 </v>
   <v>      -0.02276697      -0.00317164      -0.01817844 </v>
   <v>       0.00131677      -0.00143476      -0.02154491 </v>
   <v>       0.02276697      -0.00317164      -0.01817844 </v>
   <v>       0.00000000      -0.00446211      -0.00984245 </v>
   <v>       0.00000000       0.00029850      -0.00504496 </v>
   <v>       0.00000000       0.00153949       0.01429169 </v>
   <v>       0.00000000      -0.00278670       0.01595564 </v>
   <v>      -0.01683944      -0.00141331      -0.00079246 </v>
   <v>       0.00836259       0.00072215      -0.02250593 </v>
   <v>       0.01683944      -0.00141331      -0.00079246 </v>
   <v>      -0.00836259       0.00072215      -0.02250593 </v>
   <v>       0.00000000      -0.02546471      -0.02525185 </v>
   <v>       0.00000000       0.02110182      -0.02189413 </v>
   <v>       0.00000000       0.01693987      -0.00342713 </v>
   <v>       0.00000000      -0.00916207      -0.00327973 </v>
   <v>       0.03719068      -0.00945082      -0.01114695 </v>
   <v>       0.03686667      -0.02070971      -0.06481260 </v>
   <v>      -0.03719068      -0.00945082      -0.01114695 </v>
   <v>      -0.03686667      -0.02070971      -0.06481260 </v>
   <v>       0.00000000       0.00100246       0.00925182 </v>
   <v>       0.00000000      -0.00385933      -0.00345435 </v>
   <v>       0.00000000      -0.10342467      -0.03811485 </v>
   <v>       0.00000000      -0.13413363       0.11785489 </v>
   <v>       0.00000000       0.45821212      -0.18130048 </v>
   <v>       0.00000000      -0.13580588       0.50548801 </v>
  </varray>
  <varray name="stress" >
   <v>     -30.02348935       0.00000000       0.00000000 </v>
   <v>       0.00000000     -27.98889647       0.94698297 </v>
   <v>       0.00000000       0.94698305      -3.45371250 </v>
  </varray>
  <energy>
   <i name="e_fr_energy">   -130.60216272 </i>
   <i name="e_wo_entrp">   -130.62594746 </i>
   <i name="e_0_energy">   -130.61009096 </i>
  </energy>
  <time name="totalsc">   48.15   48.60</time>
 </calculation>
 <calculation>
  <scstep>
   <time name="dav">    7.61    7.67</time>
   <time name="total">    8.06    8.12</time>
   <energy>
    <i name="alphaZ">    844.48149002 </i>
    <i name="ewald"> 173599.46152038 </i>
    <i name="hartreedc">-216351.81917904 </i>
    <i name="XCdc">   1431.87598252 </i>
    <i name="pawpsdc">  41972.71375132 </i>
    <i name="pawaedc"> -45421.12331952 </i>
    <i name="eentropy">      0.02592467 </i>
    <i name="bandstr">   -729.43972672 </i>
    <i name="atom">  44535.60175172 </i>
    <i name="e_fr_energy">   -118.22180465 </i>
    <i name="e_wo_entrp">   -118.24772931 </i>
    <i name="e_0_energy">   -118.23044620 </i>
   </energy>
  </scstep>
  <scstep>
   <time name="dav">    9.83    9.91</time>
   <time name="total">   10.28   10.36</time>
   <energy>
    <i name="e_fr_energy">   -118.24611143 </i>
    <i name="e_wo_entrp">   -118.27146069 </i>
    <i name="e_0_energy">   -118.25456118 </i>
   </energy>
  </scstep>
  <scstep>
   <time name="dav">    7.97    8.03</time>
   <time name="total">    8.41    8.48</time>
   <energy>
    <i name="e_fr_energy">   -118.24635454 </i>
    <i name="e_wo_entrp">   -118.27218801 </i>
    <i name="e_0_energy">   -118.25496570 </i>
   </energy>
  </scstep>
  <scstep>
   <time name="dav">    7.81    7.87</time>
   <time name="total">    8.27    8.34</time>
   <energy>
    <i name="e_fr_energy">   -118.24549660 </i>
    <i name="e_wo_entrp">   -118.27113024 </i>
    <i name="e_0_energy">   -118.25404115 </i>
   </energy>
  </scstep>
  <scstep>
   <time name="dav">    9.66    9.74</time>
   <time name="total">   10.11   10.19</time>
   <energy>
    <i name="e_fr_energy">   -118.24539003 </i>
    <i name="e_wo_entrp">   -118.27083033 </i>
    <i name="e_0_energy">   -118.25387013 </i>
   </energy>
  </scstep>
  <scstep>
   <time name="dav">    9.09    9.16</time>
   <time name="total">    9.54    9.62</time>
   <energy>
    <i name="e_fr_energy">   -118.24515118 </i>
    <i name="e_wo_entrp">   -118.27090412 </i>
    <i name="e_0_energy">   -118.25373550 </i>
   </energy>
  </scstep>
  <scstep>
   <time name="dav">    7.32    7.37</time>
   <time name="total">    7.40    7.45</time>
   <energy>
    <i name="alphaZ">    844.48149002 </i>
    <i name="ewald"> 173599.46152038 </i>
    <i name="hartreedc">-216352.96055352 </i>
    <i name="XCdc">   1431.88338111 </i>
    <i name="pawpsdc">  41975.70423856 </i>
    <i name="pawaedc"> -45424.23121784 </i>
    <i name="eentropy">      0.02546667 </i>
    <i name="bandstr">   -728.21120909 </i>
    <i name="atom">  44535.60175172 </i>
    <i name="e_fr_energy">   -118.24513200 </i>
    <i name="e_wo_entrp">   -118.27059868 </i>
    <i name="e_0_energy">   -118.25362089 </i>
   </energy>
  </scstep>
  <structure>
   <crystal>
    <varray name="basis" >
     <v>       7.26000023       0.00000000       0.00000000 </v>
     <v>       0.00000000       5.13359547       0.00000000 </v>
     <v>       0.00000000       0.00000000      23.98379135 </v>
    </varray>
    <i name="volume">    893.87360752 </i>
    <varray name="rec_basis" >
     <v>       0.13774104       0.00000000       0.00000000 </v>
     <v>       0.00000000       0.19479525       0.00000000 </v>
     <v>       0.00000000       0.00000000       0.04169483 </v>
    </varray>
   </crystal>
   <varray name="positions" >
    <v>       0.00000000       0.00000000       0.00000000 </v>
    <v>       0.00000000       0.50000000       0.00000000 </v>
    <v>       0.50000000       0.00000000       0.00000000 </v>
    <v>       0.50000000       0.50000000       0.00000000 </v>
    <v>       0.25000000       0.25000000       0.05351109 </v>
    <v>       0.25000000       0.75000000       0.05351109 </v>
    <v>       0.75000000       0.25000000       0.05351109 </v>
    <v>       0.75000000       0.75000000       0.05351109 </v>
    <v>       0.00000000       0.00000000       0.10541371 </v>
    <v>       0.00000000       0.50000000       0.10541371 </v>
    <v>       0.50000000       0.00000000       0.10541371 </v>
    <v>       0.50000000       0.50000000       0.10541371 </v>
    <v>       0.25000000       0.25043001       0.15713237 </v>
    <v>       0.25000000       0.74951047       0.15718608 </v>
    <v>       0.75000000       0.25002931       0.15743690 </v>
    <v>       0.75000000       0.75001143       0.15734019 </v>
    <v>      -0.00036179       0.00019738       0.20858418 </v>
    <v>       0.00054509       0.49987361       0.20872497 </v>
    <v>       0.50036179       0.00019738       0.20858418 </v>
    <v>       0.49945491       0.49987361       0.20872497 </v>
    <v>       0.25000000       0.24919242       0.25933580 </v>
    <v>       0.25000000       0.75083490       0.25942183 </v>
    <v>       0.75000000       0.25282767       0.25980469 </v>
    <v>       0.75000000       0.74763149       0.25998163 </v>
    <v>       0.00073639       0.00033594       0.31433936 </v>
    <v>       0.00267967       0.49901068       0.31300828 </v>
    <v>       0.49926361       0.00033594       0.31433936 </v>
    <v>       0.49732033       0.49901068       0.31300828 </v>
    <v>       0.25000000       0.24990661       0.36189103 </v>
    <v>       0.25000000       0.75023266       0.36173809 </v>
    <v>       0.75000000       0.24025472       0.36109661 </v>
    <v>       0.75000000       0.75140603       0.36061476 </v>
    <v>       0.75000000       0.49767834       0.42558138 </v>
    <v>       0.75000000       0.65652144       0.43222259 </v>
   </varray>
  </structure>
  <varray name="forces" >
   <v>       0.00902175      -0.01062407       0.43515554 </v>
   <v>       0.02799677       0.00982122       0.43029169 </v>
   <v>      -0.00902175      -0.01062407       0.43515554 </v>
   <v>      -0.02799677       0.00982122       0.43029169 </v>
   <v>       0.00000000       0.02348289      -0.47637641 </v>
   <v>       0.00000000      -0.02437587      -0.49292626 </v>
   <v>       0.00000000      -0.00044556      -0.40517406 </v>
   <v>       0.00000000       0.00309166      -0.41506432 </v>
   <v>      -0.00360649      -0.00026781      -0.01702087 </v>
   <v>      -0.02715607      -0.00250824      -0.01288526 </v>
   <v>       0.00360649      -0.00026781      -0.01702087 </v>
   <v>       0.02715607      -0.00250824      -0.01288526 </v>
   <v>       0.00000000      -0.02086412      -0.01509050 </v>
   <v>       0.00000000       0.01954706      -0.01068720 </v>
   <v>       0.00000000       0.00558549      -0.00037480 </v>
   <v>       0.00000000      -0.00336984       0.01758240 </v>
   <v>      -0.02139496      -0.00580256       0.01573486 </v>
   <v>      -0.00198261       0.00831648      -0.05790306 </v>
   <v>       0.02139496      -0.00580256       0.01573486 </v>
   <v>       0.00198261       0.00831648      -0.05790306 </v>
   <v>       0.00000000      -0.03275932      -0.03790300 </v>
   <v>       0.00000000       0.02740469      -0.04246480 </v>
   <v>       0.00000000      -0.04900306      -0.04766537 </v>
   <v>       0.00000000       0.05820973      -0.07092281 </v>
   <v>       0.05207834      -0.03289741      -0.04562979 </v>
   <v>      -0.03528445      -0.01209976       0.02366428 </v>
   <v>      -0.05207834      -0.03289741      -0.04562979 </v>
   <v>       0.03528445      -0.01209976       0.02366428 </v>
   <v>       0.00000000       0.00548808       0.01699664 </v>
   <v>       0.00000000      -0.01067974       0.00921281 </v>
   <v>       0.00000000       0.03286177      -0.02308295 </v>
   <v>       0.00000000      -0.30217625       0.34947432 </v>
   <v>       0.00000000       0.56517345      -0.11192478 </v>
   <v>       0.00000000      -0.20504676       0.21357630 </v>
  </varray>
  <varray name="stress" >
   <v>     -31.79167249       0.00000000       0.00000000 </v>
   <v>       0.00000000     -29.89851425       1.08530604 </v>
   <v>       0.00000000       1.08530610      -5.76531044 </v>
  </varray>
  <energy>
   <i name="e_fr_energy">   -130.63859122 </i>
   <i name="e_wo_entrp">   -130.66405789 </i>
   <i name="e_0_energy">   -130.64708011 </i>
  </energy>
  <time name="totalsc">   77.01   77.63</time>
 </calculation>
 <calculation>
  <scstep>
   <time name="dav">    7.59    7.65</time>
   <time name="total">    8.06    8.12</time>
   <energy>
    <i name="alphaZ">    844.48149002 </i>
    <i name="ewald"> 173902.70017982 </i>
    <i name="hartreedc">-216656.34046024 </i>
    <i name="XCdc">   1431.90631175 </i>
    <i name="pawpsdc">  41975.71948116 </i>
    <i name="pawaedc"> -45424.23100462 </i>
    <i name="eentropy">      0.02957911 </i>
    <i name="bandstr">   -727.96498751 </i>
    <i name="atom">  44535.60175172 </i>
    <i name="e_fr_energy">   -118.09765878 </i>
    <i name="e_wo_entrp">   -118.12723789 </i>
    <i name="e_0_energy">   -118.10751849 </i>
   </energy>
  </scstep>
  <scstep>
   <time name="dav">    9.98   10.06</time>
   <time name="total">   10.44   10.52</time>
   <energy>
    <i name="e_fr_energy">   -118.20523299 </i>
    <i name="e_wo_entrp">   -118.23332386 </i>
    <i name="e_0_energy">   -118.21459661 </i>
   </energy>
  </scstep>
  <scstep>
   <time name="dav">    8.08    8.15</time>
   <time name="total">    8.54    8.61</time>
   <energy>
    <i name="e_fr_energy">   -118.20122852 </i>
    <i name="e_wo_entrp">   -118.23052520 </i>
    <i name="e_0_energy">   -118.21099408 </i>
   </energy>
  </scstep>
  <scstep>
   <time name="dav">    7.91    7.98</time>
   <time name="total">    8.37    8.43</time>
   <energy>
    <i name="e_fr_energy">   -118.20088824 </i>
    <i name="e_wo_entrp">   -118.22956431 </i>
    <i name="e_0_energy">   -118.21044693 </i>
   </energy>
  </scstep>
  <scstep>
   <time name="dav">    8.17    8.24</time>
   <time name="total">    8.63    8.70</time>
   <energy>
    <i name="e_fr_energy">   -118.20249555 </i>
    <i name="e_wo_entrp">   -118.23181172 </i>
    <i name="e_0_energy">   -118.21226761 </i>
   </energy>
  </scstep>
  <scstep>
   <time name="dav">    9.50    9.57</time>
   <time name="total">    9.95   10.03</time>
   <energy>
    <i name="e_fr_energy">   -118.19947477 </i>
    <i name="e_wo_entrp">   -118.22890101 </i>
    <i name="e_0_energy">   -118.20928352 </i>
   </energy>
  </scstep>
  <scstep>
   <time name="dav">   11.38   11.47</time>
   <time name="total">   11.85   11.94</time>
   <energy>
    <i name="e_fr_energy">   -118.19924531 </i>
    <i name="e_wo_entrp">   -118.22803293 </i>
    <i name="e_0_energy">   -118.20884119 </i>
   </energy>
  </scstep>
  <scstep>
   <time name="dav">    7.44    7.50</time>
   <time name="total">    7.53    7.58</time>
   <energy>
    <i name="alphaZ">    844.48149002 </i>
    <i name="ewald"> 173902.70017982 </i>
    <i name="hartreedc">-216656.53382884 </i>
    <i name="XCdc">   1431.88253682 </i>
    <i name="pawpsdc">  41987.39820688 </i>
    <i name="pawaedc"> -45436.17122949 </i>
    <i name="eentropy">      0.02904149 </i>
    <i name="bandstr">   -727.58742873 </i>
    <i name="atom">  44535.60175172 </i>
    <i name="e_fr_energy">   -118.19928032 </i>
    <i name="e_wo_entrp">   -118.22832181 </i>
    <i name="e_0_energy">   -118.20896082 </i>
   </energy>
  </scstep>
  <structure>
   <crystal>
    <varray name="basis" >
     <v>       7.26000023       0.00000000       0.00000000 </v>
     <v>       0.00000000       5.13359547       0.00000000 </v>
     <v>       0.00000000       0.00000000      23.98379135 </v>
    </varray>
    <i name="volume">    893.87360752 </i>
    <varray name="rec_basis" >
     <v>       0.13774104       0.00000000       0.00000000 </v>
     <v>       0.00000000       0.19479525       0.00000000 </v>
     <v>       0.00000000       0.00000000       0.04169483 </v>
    </varray>
   </crystal>
   <varray name="positions" >
    <v>       0.00000000       0.00000000       0.00000000 </v>
    <v>       0.00000000       0.50000000       0.00000000 </v>
    <v>       0.50000000       0.00000000       0.00000000 </v>
    <v>       0.50000000       0.50000000       0.00000000 </v>
    <v>       0.25000000       0.25000000       0.05351109 </v>
    <v>       0.25000000       0.75000000       0.05351109 </v>
    <v>       0.75000000       0.25000000       0.05351109 </v>
    <v>       0.75000000       0.75000000       0.05351109 </v>
    <v>       0.00000000       0.00000000       0.10541371 </v>
    <v>       0.00000000       0.50000000       0.10541371 </v>
    <v>       0.50000000       0.00000000       0.10541371 </v>
    <v>       0.50000000       0.50000000       0.10541371 </v>
    <v>       0.25000000       0.25089822       0.15711271 </v>
    <v>       0.25000000       0.74897552       0.15722744 </v>
    <v>       0.75000000       0.25008117       0.15775435 </v>
    <v>       0.75000000       0.75001556       0.15755465 </v>
    <v>      -0.00078430       0.00041161       0.20850879 </v>
    <v>       0.00114047       0.49974247       0.20878832 </v>
    <v>       0.50078430       0.00041161       0.20850879 </v>
    <v>       0.49885953       0.49974247       0.20878832 </v>
    <v>       0.25000000       0.24826129       0.25918077 </v>
    <v>       0.25000000       0.75179681       0.25936062 </v>
    <v>       0.75000000       0.25592628       0.26014803 </v>
    <v>       0.75000000       0.74504730       0.26049790 </v>
    <v>       0.00164775       0.00070373       0.31452340 </v>
    <v>       0.00565132       0.49789768       0.31173929 </v>
    <v>       0.49835225       0.00070373       0.31452340 </v>
    <v>       0.49434868       0.49789768       0.31173929 </v>
    <v>       0.25000000       0.24980470       0.36197355 </v>
    <v>       0.25000000       0.75049202       0.36165006 </v>
    <v>       0.75000000       0.22990347       0.36040911 </v>
    <v>       0.75000000       0.75213646       0.35959909 </v>
    <v>       0.75000000       0.50506247       0.42399515 </v>
    <v>       0.75000000       0.65936056       0.43788859 </v>
   </varray>
  </structure>
  <varray name="forces" >
   <v>       0.00787582      -0.01128495       0.43893298 </v>
   <v>       0.02766050       0.00952999       0.43246376 </v>
   <v>      -0.00787582      -0.01128495       0.43893298 </v>
   <v>      -0.02766050       0.00952999       0.43246376 </v>
   <v>       0.00000000       0.01988401      -0.47851245 </v>
   <v>       0.00000000      -0.02239855      -0.49324858 </v>
   <v>       0.00000000      -0.00044446      -0.39215078 </v>
   <v>       0.00000000       0.00345643      -0.40813081 </v>
   <v>      -0.00948355      -0.00073477      -0.01699185 </v>
   <v>      -0.03773463      -0.00374070      -0.01004107 </v>
   <v>       0.00948355      -0.00073477      -0.01699185 </v>
   <v>       0.03773463      -0.00374070      -0.01004107 </v>
   <v>       0.00000000      -0.05945612      -0.02960462 </v>
   <v>       0.00000000       0.05846894      -0.02739161 </v>
[...]
       <r>    10.5518    -0.0005   232.0000 </r>
       <r>    10.6255    -0.0001   232.0000 </r>
       <r>    10.6992    -0.0000   232.0000 </r>
       <r>    10.7729    -0.0000   232.0000 </r>
       <r>    10.8466    -0.0000   232.0000 </r>
       <r>    10.9203    -0.0000   232.0000 </r>
       <r>    10.9940    -0.0000   232.0000 </r>
       <r>    11.0677    -0.0000   232.0000 </r>
       <r>    11.1414    -0.0000   232.0000 </r>
       <r>    11.2151     0.0000   232.0000 </r>
       <r>    11.2888     0.0000   232.0000 </r>
       <r>    11.3626     0.0000   232.0000 </r>
       <r>    11.4363     0.0000   232.0000 </r>
       <r>    11.5100     0.0000   232.0000 </r>
       <r>    11.5837     0.0000   232.0000 </r>
       <r>    11.6574     0.0000   232.0000 </r>
       <r>    11.7311     0.0000   232.0000 </r>
       <r>    11.8048     0.0000   232.0000 </r>
       <r>    11.8785     0.0000   232.0000 </r>
      </set>
      <set comment="spin 2">
       <r>   -10.2320     0.0000     0.0000 </r>
       <r>   -10.1583     0.0000     0.0000 </r>
       <r>   -10.0846     0.0000     0.0000 </r>
       <r>   -10.0109     0.0000     0.0000 </r>
       <r>    -9.9372     0.0000     0.0000 </r>
       <r>    -9.8635    -0.0000    -0.0000 </r>
       <r>    -9.7898    -0.0000    -0.0000 </r>
       <r>    -9.7161    -0.0000    -0.0000 </r>
       <r>    -9.6424    -0.0000    -0.0000 </r>
       <r>    -9.5687    -0.0000    -0.0000 </r>
       <r>    -9.4950    -0.0000    -0.0000 </r>
       <r>    -9.4213    -0.0000    -0.0000 </r>
       <r>    -9.3476    -0.0000    -0.0000 </r>
       <r>    -9.2739    -0.0000    -0.0000 </r>
       <r>    -9.2002    -0.0000    -0.0000 </r>
       <r>    -9.1265    -0.0000    -0.0000 </r>
       <r>    -9.0528    -0.0000    -0.0000 </r>
       <r>    -8.9791    -0.0000    -0.0000 </r>
       <r>    -8.9054    -0.0000    -0.0000 </r>
       <r>    -8.8317    -0.0001    -0.0000 </r>
       <r>    -8.7580    -0.0008    -0.0001 </r>
       <r>    -8.6843    -0.0038    -0.0004 </r>
       <r>    -8.6106    -0.0122    -0.0013 </r>
       <r>    -8.5369    -0.0246    -0.0031 </r>
       <r>    -8.4632    -0.0192    -0.0045 </r>
       <r>    -8.3895     0.0458    -0.0011 </r>
       <r>    -8.3158     0.1772     0.0120 </r>
       <r>    -8.2421     0.3008     0.0341 </r>
       <r>    -8.1684     0.3785     0.0620 </r>
       <r>    -8.0946     0.6114     0.1071 </r>
       <r>    -8.0209     1.3567     0.2071 </r>
       <r>    -7.9472     2.6561     0.4028 </r>
       <r>    -7.8735     3.8698     0.6880 </r>
       <r>    -7.7998     4.0766     0.9885 </r>
       <r>    -7.7261     3.0650     1.2144 </r>
       <r>    -7.6524     1.6638     1.3370 </r>
       <r>    -7.5787     0.8162     1.3972 </r>
       <r>    -7.5050     0.6342     1.4439 </r>
       <r>    -7.4313     0.6662     1.4930 </r>
       <r>    -7.3576     0.7682     1.5496 </r>
       <r>    -7.2839     1.1755     1.6363 </r>
       <r>    -7.2102     1.7868     1.7679 </r>
       <r>    -7.1365     2.0425     1.9185 </r>
       <r>    -7.0628     1.7324     2.0462 </r>
       <r>    -6.9891     1.3551     2.1460 </r>
       <r>    -6.9154     1.3710     2.2471 </r>
       <r>    -6.8417     1.5536     2.3616 </r>
       <r>    -6.7680     1.4139     2.4658 </r>
       <r>    -6.6943     0.9468     2.5356 </r>
       <r>    -6.6206     0.5889     2.5790 </r>
       <r>    -6.5469     0.6164     2.6244 </r>
       <r>    -6.4732     1.0018     2.6983 </r>
       <r>    -6.3995     1.7428     2.8267 </r>
       <r>    -6.3258     2.7371     3.0284 </r>
       <r>    -6.2521     3.3856     3.2779 </r>
       <r>    -6.1784     3.0673     3.5040 </r>
       <r>    -6.1047     2.0331     3.6539 </r>
       <r>    -6.0310     1.1435     3.7381 </r>
       <r>    -5.9573     0.8157     3.7983 </r>
       <r>    -5.8836     0.8297     3.8594 </r>
       <r>    -5.8099     0.9378     3.9285 </r>
       <r>    -5.7362     1.1399     4.0125 </r>
       <r>    -5.6625     1.6311     4.1327 </r>
       <r>    -5.5888     2.6907     4.3311 </r>
       <r>    -5.5151     4.1383     4.6361 </r>
       <r>    -5.4414     4.9736     5.0026 </r>
       <r>    -5.3677     4.3129     5.3205 </r>
       <r>    -5.2940     2.5907     5.5114 </r>
       <r>    -5.2203     1.1843     5.5987 </r>
       <r>    -5.1466     1.1093     5.6805 </r>
       <r>    -5.0729     2.5138     5.8657 </r>
       <r>    -4.9992     4.7983     6.2194 </r>
       <r>    -4.9255     6.7450     6.7165 </r>
       <r>    -4.8518     7.2327     7.2496 </r>
       <r>    -4.7781     6.1487     7.7027 </r>
       <r>    -4.7044     4.1833     8.0110 </r>
       <r>    -4.6307     2.0715     8.1637 </r>
       <r>    -4.5570     0.4978     8.2004 </r>
       <r>    -4.4833     0.2020     8.2153 </r>
       <r>    -4.4096     1.6362     8.3359 </r>
       <r>    -4.3359     4.4803     8.6661 </r>
       <r>    -4.2622     7.5409     9.2219 </r>
       <r>    -4.1885     9.4226     9.9163 </r>
       <r>    -4.1148     9.7263    10.6332 </r>
       <r>    -4.0411     9.5628    11.3380 </r>
       <r>    -3.9674    10.4969    12.1116 </r>
       <r>    -3.8937    12.8387    13.0578 </r>
       <r>    -3.8200    15.2979    14.1853 </r>
       <r>    -3.7463    16.7078    15.4167 </r>
       <r>    -3.6726    17.5549    16.7105 </r>
       <r>    -3.5989    18.8146    18.0972 </r>
       <r>    -3.5252    20.1582    19.5829 </r>
       <r>    -3.4515    21.0411    21.1336 </r>
       <r>    -3.3778    22.6701    22.8045 </r>
       <r>    -3.3041    26.6345    24.7675 </r>
       <r>    -3.2303    31.7794    27.1096 </r>
       <r>    -3.1566    34.7534    29.6710 </r>
       <r>    -3.0829    34.1852    32.1905 </r>
       <r>    -3.0092    32.0742    34.5544 </r>
       <r>    -2.9355    30.4525    36.7988 </r>
       <r>    -2.8618    29.3434    38.9615 </r>
       <r>    -2.7881    28.8694    41.0892 </r>
       <r>    -2.7144    30.5366    43.3398 </r>
       <r>    -2.6407    34.9706    45.9172 </r>
       <r>    -2.5670    40.2917    48.8867 </r>
       <r>    -2.4933    44.0029    52.1298 </r>
       <r>    -2.4196    45.4542    55.4799 </r>
       <r>    -2.3459    45.9256    58.8647 </r>
       <r>    -2.2722    47.2650    62.3482 </r>
       <r>    -2.1985    50.6625    66.0821 </r>
       <r>    -2.1248    55.8895    70.2012 </r>
       <r>    -2.0511    61.2447    74.7150 </r>
       <r>    -1.9774    64.2955    79.4537 </r>
       <r>    -1.9037    63.4008    84.1264 </r>
       <r>    -1.8300    59.1673    88.4872 </r>
       <r>    -1.7563    53.8696    92.4574 </r>
       <r>    -1.6826    49.3668    96.0958 </r>
       <r>    -1.6089    46.4525    99.5195 </r>
       <r>    -1.5352    45.8307   102.8972 </r>
       <r>    -1.4615    48.1071   106.4428 </r>
       <r>    -1.3878    52.3591   110.3018 </r>
       <r>    -1.3141    56.2400   114.4467 </r>
       <r>    -1.2404    58.5468   118.7617 </r>
       <r>    -1.1667    60.2469   123.2020 </r>
       <r>    -1.0930    62.1258   127.7808 </r>
       <r>    -1.0193    63.6208   132.4697 </r>
       <r>    -0.9456    65.2527   137.2789 </r>
       <r>    -0.8719    69.5737   142.4066 </r>
       <r>    -0.7982    77.1563   148.0932 </r>
       <r>    -0.7245    82.9245   154.2048 </r>
       <r>    -0.6508    79.1813   160.0406 </r>
       <r>    -0.5771    63.1600   164.6956 </r>
       <r>    -0.5034    40.6357   167.6905 </r>
       <r>    -0.4297    21.1529   169.2495 </r>
       <r>    -0.3560    10.2345   170.0038 </r>
       <r>    -0.2823     6.8344   170.5075 </r>
       <r>    -0.2086     6.8280   171.0108 </r>
       <r>    -0.1349     6.9506   171.5230 </r>
       <r>    -0.0612     5.8514   171.9543 </r>
       <r>     0.0125     3.6270   172.2216 </r>
       <r>     0.0862     1.3737   172.3229 </r>
       <r>     0.1599     0.4364   172.3550 </r>
       <r>     0.2336     1.3762   172.4564 </r>
       <r>     0.3073     3.5431   172.7176 </r>
       <r>     0.3810     5.6689   173.1354 </r>
       <r>     0.4547     7.0054   173.6517 </r>
       <r>     0.5284     7.8635   174.2312 </r>
       <r>     0.6021     8.8451   174.8831 </r>
       <r>     0.6758     9.6707   175.5959 </r>
       <r>     0.7495     9.2773   176.2796 </r>
       <r>     0.8232     7.2548   176.8143 </r>
       <r>     0.8969     4.6707   177.1586 </r>
       <r>     0.9706     3.1721   177.3924 </r>
       <r>     1.0443     3.5003   177.6503 </r>
       <r>     1.1180     4.9248   178.0133 </r>
       <r>     1.1917     6.0491   178.4591 </r>
       <r>     1.2654     6.0706   178.9065 </r>
       <r>     1.3391     5.0895   179.2816 </r>
       <r>     1.4128     3.7160   179.5555 </r>
       <r>     1.4865     2.9395   179.7722 </r>
       <r>     1.5602     3.5570   180.0343 </r>
       <r>     1.6340     4.9803   180.4014 </r>
       <r>     1.7077     5.5760   180.8123 </r>
       <r>     1.7814     4.8213   181.1677 </r>
       <r>     1.8551     3.9935   181.4620 </r>
       <r>     1.9288     4.2729   181.7769 </r>
       <r>     2.0025     5.3893   182.1741 </r>
       <r>     2.0762     6.4056   182.6462 </r>
       <r>     2.1499     6.7317   183.1423 </r>
       <r>     2.2236     6.2688   183.6044 </r>
       <r>     2.2973     5.3823   184.0010 </r>
       <r>     2.3710     4.8020   184.3550 </r>
       <r>     2.4447     5.0369   184.7262 </r>
       <r>     2.5184     5.7427   185.1494 </r>
       <r>     2.5921     5.9350   185.5869 </r>
       <r>     2.6658     5.0432   185.9585 </r>
       <r>     2.7395     3.6212   186.2254 </r>
       <r>     2.8132     2.6889   186.4236 </r>
       <r>     2.8869     2.5660   186.6127 </r>
       <r>     2.9606     2.9602   186.8309 </r>
       <r>     3.0343     3.8229   187.1126 </r>
       <r>     3.1080     5.0867   187.4875 </r>
       <r>     3.1817     5.9186   187.9238 </r>
       <r>     3.2554     5.5234   188.3308 </r>
       <r>     3.3291     4.4697   188.6603 </r>
       <r>     3.4028     4.0646   188.9598 </r>
       <r>     3.4765     4.6330   189.3013 </r>
       <r>     3.5502     5.2491   189.6882 </r>
       <r>     3.6239     4.9629   190.0539 </r>
       <r>     3.6976     3.8746   190.3395 </r>
       <r>     3.7713     2.9999   190.5606 </r>
       <r>     3.8450     3.0864   190.7881 </r>
       <r>     3.9187     3.8876   191.0746 </r>
       <r>     3.9924     4.8166   191.4296 </r>
       <r>     4.0661     5.6186   191.8437 </r>
       <r>     4.1398     6.0375   192.2886 </r>
       <r>     4.2135     5.7334   192.7112 </r>
       <r>     4.2872     4.9858   193.0787 </r>
       <r>     4.3609     4.5401   193.4133 </r>
       <r>     4.4346     4.4818   193.7436 </r>
       <r>     4.5083     4.2160   194.0543 </r>
       <r>     4.5820     3.5977   194.3195 </r>
       <r>     4.6557     3.2486   194.5589 </r>
       <r>     4.7294     3.7462   194.8350 </r>
       <r>     4.8031     4.9091   195.1968 </r>
       <r>     4.8768     5.9006   195.6317 </r>
       <r>     4.9505     6.0455   196.0773 </r>
       <r>     5.0242     5.3921   196.4747 </r>
       <r>     5.0979     4.3377   196.7944 </r>
       <r>     5.1716     3.2619   197.0348 </r>
       <r>     5.2453     2.7567   197.2379 </r>
       <r>     5.3190     3.4500   197.4922 </r>
       <r>     5.3927     5.2255   197.8773 </r>
       <r>     5.4664     7.1002   198.4006 </r>
       <r>     5.5401     8.1573   199.0018 </r>
       <r>     5.6138     8.3529   199.6174 </r>
       <r>     5.6875     8.2426   200.2249 </r>
       <r>     5.7612     8.1557   200.8260 </r>
       <r>     5.8349     7.9611   201.4128 </r>
       <r>     5.9086     7.5968   201.9727 </r>
       <r>     5.9823     7.3162   202.5119 </r>
       <r>     6.0560     7.2492   203.0462 </r>
       <r>     6.1297     7.2668   203.5817 </r>
       <r>     6.2034     7.3170   204.1210 </r>
       <r>     6.2771     7.3627   204.6637 </r>
       <r>     6.3508     7.2181   205.1956 </r>
       <r>     6.4245     6.8910   205.7035 </r>
       <r>     6.4983     6.7467   206.2008 </r>
       <r>     6.5720     6.9702   206.7145 </r>
       <r>     6.6457     7.2047   207.2455 </r>
       <r>     6.7194     7.0667   207.7663 </r>
       <r>     6.7931     6.7097   208.2608 </r>
       <r>     6.8668     6.6675   208.7522 </r>
       <r>     6.9405     7.2620   209.2874 </r>
       <r>     7.0142     8.0671   209.8820 </r>
       <r>     7.0879     8.2569   210.4905 </r>
       <r>     7.1616     7.8245   211.0672 </r>
       <r>     7.2353     7.6894   211.6339 </r>
       <r>     7.3090     8.2316   212.2406 </r>
       <r>     7.3827     8.7045   212.8822 </r>
       <r>     7.4564     8.3657   213.4987 </r>
       <r>     7.5301     7.3607   214.0412 </r>
       <r>     7.6038     6.4289   214.5150 </r>
       <r>     7.6775     6.2913   214.9787 </r>
       <r>     7.7512     7.1967   215.5091 </r>
       <r>     7.8249     8.7218   216.1519 </r>
       <r>     7.8986    10.1060   216.8967 </r>
       <r>     7.9723    10.7869   217.6918 </r>
       <r>     8.0460    10.5023   218.4658 </r>
       <r>     8.1197     9.3107   219.1520 </r>
       <r>     8.1934     7.9347   219.7368 </r>
       <r>     8.2671     7.3915   220.2816 </r>
       <r>     8.3408     7.7057   220.8495 </r>
       <r>     8.4145     7.8315   221.4267 </r>
       <r>     8.4882     7.2486   221.9609 </r>
       <r>     8.5619     6.7293   222.4569 </r>
       <r>     8.6356     7.2228   222.9892 </r>
       <r>     8.7093     8.5421   223.6188 </r>
       <r>     8.7830     9.5193   224.3204 </r>
       <r>     8.8567     9.4561   225.0173 </r>
       <r>     8.9304     8.9049   225.6736 </r>
       <r>     9.0041     8.6101   226.3082 </r>
       <r>     9.0778     8.4084   226.9279 </r>
       <r>     9.1515     7.8477   227.5063 </r>
       <r>     9.2252     7.0942   228.0291 </r>
       <r>     9.2989     6.5576   228.5124 </r>
       <r>     9.3726     6.3293   228.9789 </r>
       <r>     9.4463     6.3497   229.4469 </r>
       <r>     9.5200     6.5750   229.9315 </r>
       <r>     9.5937     6.8226   230.4343 </r>
       <r>     9.6674     6.6472   230.9242 </r>
       <r>     9.7411     5.6668   231.3419 </r>
       <r>     9.8148     4.1333   231.6465 </r>
       <r>     9.8885     2.6835   231.8443 </r>
       <r>     9.9622     1.5676   231.9598 </r>
       <r>    10.0359     0.7026   232.0116 </r>
       <r>    10.1096     0.1246   232.0208 </r>
       <r>    10.1833    -0.1056   232.0130 </r>
       <r>    10.2570    -0.1066   232.0051 </r>
       <r>    10.3307    -0.0505   232.0014 </r>
       <r>    10.4044    -0.0154   232.0003 </r>
       <r>    10.4781    -0.0033   232.0000 </r>
       <r>    10.5518    -0.0005   232.0000 </r>
       <r>    10.6255    -0.0001   232.0000 </r>
       <r>    10.6992    -0.0000   232.0000 </r>
       <r>    10.7729    -0.0000   232.0000 </r>
       <r>    10.8466    -0.0000   232.0000 </r>
       <r>    10.9203    -0.0000   232.0000 </r>
       <r>    10.9940    -0.0000   232.0000 </r>
       <r>    11.0677    -0.0000   232.0000 </r>
       <r>    11.1414    -0.0000   232.0000 </r>
       <r>    11.2151     0.0000   232.0000 </r>
       <r>    11.2888     0.0000   232.0000 </r>
       <r>    11.3626     0.0000   232.0000 </r>
       <r>    11.4363     0.0000   232.0000 </r>
       <r>    11.5100     0.0000   232.0000 </r>
       <r>    11.5837     0.0000   232.0000 </r>
       <r>    11.6574     0.0000   232.0000 </r>
       <r>    11.7311     0.0000   232.0000 </r>
       <r>    11.8048     0.0000   232.0000 </r>
       <r>    11.8785     0.0000   232.0000 </r>
      </set>
     </set>
    </array>
   </total>
  </dos>
 </calculation>
 <structure name="finalpos" >
  <crystal>
   <varray name="basis" >
    <v>       7.26000023       0.00000000       0.00000000 </v>
    <v>       0.00000000       5.13359547       0.00000000 </v>
    <v>       0.00000000       0.00000000      23.98379135 </v>
   </varray>
   <i name="volume">    893.87360752 </i>
   <varray name="rec_basis" >
    <v>       0.13774104       0.00000000       0.00000000 </v>
    <v>       0.00000000       0.19479525       0.00000000 </v>
    <v>       0.00000000       0.00000000       0.04169483 </v>
   </varray>
  </crystal>
  <varray name="positions" >
   <v>       0.00000000       0.00000000       0.00000000 </v>
   <v>       0.00000000       0.50000000       0.00000000 </v>
   <v>       0.50000000       0.00000000       0.00000000 </v>
   <v>       0.50000000       0.50000000       0.00000000 </v>
   <v>       0.25000000       0.25000000       0.05351109 </v>
   <v>       0.25000000       0.75000000       0.05351109 </v>
   <v>       0.75000000       0.25000000       0.05351109 </v>
   <v>       0.75000000       0.75000000       0.05351109 </v>
   <v>       0.00000000       0.00000000       0.10541371 </v>
   <v>       0.00000000       0.50000000       0.10541371 </v>
   <v>       0.50000000       0.00000000       0.10541371 </v>
   <v>       0.50000000       0.50000000       0.10541371 </v>
   <v>       0.25000000       0.24684968       0.15683762 </v>
   <v>       0.25000000       0.74659949       0.15705127 </v>
   <v>       0.75000000       0.24632824       0.15736055 </v>
   <v>       0.75000000       0.74632387       0.15779383 </v>
   <v>      -0.00010233      -0.00654338       0.20848216 </v>
   <v>      -0.00014317       0.49381285       0.20851225 </v>
   <v>       0.50010233      -0.00654338       0.20848216 </v>
   <v>       0.50014317       0.49381285       0.20851225 </v>
   <v>       0.25000000       0.24148435       0.25884213 </v>
   <v>       0.25000000       0.74171029       0.25897230 </v>
   <v>       0.75000000       0.24134562       0.25940768 </v>
   <v>       0.75000000       0.74127212       0.26123996 </v>
   <v>       0.00078721      -0.00961096       0.31359132 </v>
   <v>       0.00061906       0.48987589       0.31355012 </v>
   <v>       0.49921279      -0.00961096       0.31359132 </v>
   <v>       0.49938094       0.48987589       0.31355012 </v>
   <v>       0.25000000       0.23930943       0.36150320 </v>
   <v>       0.25000000       0.73929271       0.36116605 </v>
   <v>       0.75000000       0.23989158       0.36059383 </v>
   <v>       0.75000000       0.74075108       0.36352629 </v>
   <v>       0.75000000       0.66326450       0.43443381 </v>
   <v>       0.75000000       0.82131982       0.43440741 </v>
  </varray>
  <varray name="selective"  type="logical" >
   <v type="logical" >  F  F  F </v>
   <v type="logical" >  F  F  F </v>
   <v type="logical" >  F  F  F </v>
   <v type="logical" >  F  F  F </v>
   <v type="logical" >  F  F  F </v>
   <v type="logical" >  F  F  F </v>
   <v type="logical" >  F  F  F </v>
   <v type="logical" >  F  F  F </v>
   <v type="logical" >  F  F  F </v>
   <v type="logical" >  F  F  F </v>
   <v type="logical" >  F  F  F </v>
   <v type="logical" >  F  F  F </v>
   <v type="logical" >  T  T  T </v>
   <v type="logical" >  T  T  T </v>
   <v type="logical" >  T  T  T </v>
   <v type="logical" >  T  T  T </v>
   <v type="logical" >  T  T  T </v>
   <v type="logical" >  T  T  T </v>
   <v type="logical" >  T  T  T </v>
   <v type="logical" >  T  T  T </v>
   <v type="logical" >  T  T  T </v>
   <v type="logical" >  T  T  T </v>
   <v type="logical" >  T  T  T </v>
   <v type="logical" >  T  T  T </v>
   <v type="logical" >  T  T  T </v>
   <v type="logical" >  T  T  T </v>
   <v type="logical" >  T  T  T </v>
   <v type="logical" >  T  T  T </v>
   <v type="logical" >  T  T  T </v>
   <v type="logical" >  T  T  T </v>
   <v type="logical" >  T  T  T </v>
   <v type="logical" >  T  T  T </v>
   <v type="logical" >  T  T  T </v>
   <v type="logical" >  T  T  T </v>
  </varray>
  <nose>
   <v>      -3.00000000       0.00000000       0.00010000       0.00010000 </v>
  </nose>
 </structure>
</modeling>
