unknown system                          
           1
     7.260000    0.000000    0.000000
     0.000000    5.133595    0.000000
     0.000000    0.000000   23.983791
   Cu   H 
    32     2
Direct configuration=     1
   0.00000000  0.00000000  0.00000000
   0.00000000  0.50000000  0.00000000
   0.50000000  0.00000000  0.00000000
   0.50000000  0.50000000  0.00000000
   0.25000000  0.25000000  0.05351109
   0.25000000  0.75000000  0.05351109
   0.75000000  0.25000000  0.05351109
   0.75000000  0.75000000  0.05351109
   0.00000000  0.00000000  0.10541371
   0.00000000  0.50000000  0.10541371
   0.50000000  0.00000000  0.10541371
   0.50000000  0.50000000  0.10541371
   0.25000000  0.25000000  0.15715010
   0.25000000  0.75000000  0.15715010
   0.75000000  0.25000000  0.15715010
   0.75000000  0.75000000  0.15715010
   0.00000000  0.00000000  0.20866257
   0.00000000  0.50000000  0.20866257
   0.50000000  0.00000000  0.20866257
   0.50000000  0.50000000  0.20866257
   0.25000000  0.25000000  0.25947965
   0.25000000  0.75000000  0.25947965
   0.75000000  0.25000000  0.25947965
   0.75000000  0.75000000  0.25947965
   0.00000000  0.00000000  0.31415415
   0.00000000  0.50000000  0.31415415
   0.50000000  0.00000000  0.31415415
   0.50000000  0.50000000  0.31415415
   0.25000000  0.25000000  0.36181799
   0.25000000  0.75000000  0.36181799
   0.75000000  0.25000000  0.36181799
   0.75000000  0.75000000  0.36181799
   0.75000000  0.50000000  0.42690792
   0.75000000  0.64531725  0.42690792
Direct configuration=     2
   0.00000000  0.00000000  0.00000000
   0.00000000  0.50000000  0.00000000
   0.50000000  0.00000000  0.00000000
   0.50000000  0.50000000  0.00000000
   0.25000000  0.25000000  0.05351109
   0.25000000  0.75000000  0.05351109
   0.75000000  0.25000000  0.05351109
   0.75000000  0.75000000  0.05351109
   0.00000000  0.00000000  0.10541371
   0.00000000  0.50000000  0.10541371
   0.50000000  0.00000000  0.10541371
   0.50000000  0.50000000  0.10541371
   0.25000000  0.25013859  0.15714488
   0.25000000  0.74984497  0.15715860
   0.75000000  0.24998117  0.15723520
   0.75000000  0.75001548  0.15720076
  -0.00007612  0.00006457  0.20862319
   0.00017302  0.49995008  0.20868918
   0.50007612  0.00006457  0.20862319
   0.49982698  0.49995008  0.20868918
   0.25000000  0.24981312  0.25943104
   0.25000000  0.75019421  0.25945855
   0.75000000  0.25088334  0.25959938
   0.75000000  0.74924416  0.25968437
   0.00008211  0.00010543  0.31423881
   0.00078718  0.49973187  0.31381508
   0.49991789  0.00010543  0.31423881
   0.49921282  0.49973187  0.31381508
   0.25000000  0.24997021  0.36183730
   0.25000000  0.75006644  0.36179370
   0.75000000  0.24649127  0.36144669
   0.75000000  0.75158733  0.36101302
   0.75000000  0.48520812  0.42668136
   0.75000000  0.66219023  0.42879189
Direct configuration=     3
   0.00000000  0.00000000  0.00000000
   0.00000000  0.50000000  0.00000000
   0.50000000  0.00000000  0.00000000
   0.50000000  0.50000000  0.00000000
   0.25000000  0.25000000  0.05351109
   0.25000000  0.75000000  0.05351109
   0.75000000  0.25000000  0.05351109
   0.75000000  0.75000000  0.05351109
   0.00000000  0.00000000  0.10541371
   0.00000000  0.50000000  0.10541371
   0.50000000  0.00000000  0.10541371
   0.50000000  0.50000000  0.10541371
   0.25000000  0.25007431  0.15714730
   0.25000000  0.74991687  0.15715466
   0.75000000  0.24998990  0.15719573
   0.75000000  0.75000830  0.15717726
  -0.00004082  0.00003462  0.20864146
   0.00009277  0.49997323  0.20867684
   0.50004082  0.00003462  0.20864146
   0.49990723  0.49997323  0.20867684
   0.25000000  0.24989979  0.25945359
   0.25000000  0.75010413  0.25946834
   0.75000000  0.25047365  0.25954385
   0.75000000  0.74959472  0.25958942
   0.00004403  0.00005653  0.31419955
   0.00042208  0.49985623  0.31397234
   0.49995597  0.00005653  0.31419955
   0.49957792  0.49985623  0.31397234
   0.25000000  0.24998403  0.36182835
   0.25000000  0.75003563  0.36180496
   0.75000000  0.24811862  0.36161890
   0.75000000  0.75085113  0.36138637
   0.75000000  0.49206859  0.42678644
   0.75000000  0.65436455  0.42791811
Direct configuration=     4
   0.00000000  0.00000000  0.00000000
   0.00000000  0.50000000  0.00000000
   0.50000000  0.00000000  0.00000000
   0.50000000  0.50000000  0.00000000
   0.25000000  0.25000000  0.05351109
   0.25000000  0.75000000  0.05351109
   0.75000000  0.25000000  0.05351109
   0.75000000  0.75000000  0.05351109
   0.00000000  0.00000000  0.10541371
   0.00000000  0.50000000  0.10541371
   0.50000000  0.00000000  0.10541371
   0.50000000  0.50000000  0.10541371
   0.25000000  0.25019591  0.15714220
   0.25000000  0.74977794  0.15716540
   0.75000000  0.25000337  0.15727817
   0.75000000  0.75000937  0.15723296
  -0.00015054  0.00009026  0.20862188
   0.00024740  0.49993918  0.20869329
   0.50015054  0.00009026  0.20862188
   0.49975260  0.49993918  0.20869329
   0.25000000  0.24965798  0.25941332
   0.25000000  0.75035395  0.25945244
   0.75000000  0.25127837  0.25963302
   0.75000000  0.74892359  0.25972350
   0.00028071  0.00015205  0.31424734
   0.00119384  0.49956718  0.31364278
   0.49971929  0.00015205  0.31424734
   0.49880616  0.49956718  0.31364278
   0.25000000  0.24995756  0.36184977
   0.25000000  0.75010298  0.36178210
   0.75000000  0.24543035  0.36144035
   0.75000000  0.75104082  0.36112259
   0.75000000  0.49398628  0.42637449
   0.75000000  0.65510188  0.42938959
Direct configuration=     5
   0.00000000  0.00000000  0.00000000
   0.00000000  0.50000000  0.00000000
   0.50000000  0.00000000  0.00000000
   0.50000000  0.50000000  0.00000000
   0.25000000  0.25000000  0.05351109
   0.25000000  0.75000000  0.05351109
   0.75000000  0.25000000  0.05351109
   0.75000000  0.75000000  0.05351109
   0.00000000  0.00000000  0.10541371
   0.00000000  0.50000000  0.10541371
   0.50000000  0.00000000  0.10541371
   0.50000000  0.50000000  0.10541371
   0.25000000  0.25043001  0.15713237
   0.25000000  0.74951047  0.15718608
   0.75000000  0.25002931  0.15743690
   0.75000000  0.75001143  0.15734019
  -0.00036179  0.00019738  0.20858418
   0.00054509  0.49987361  0.20872497
   0.50036179  0.00019738  0.20858418
   0.49945491  0.49987361  0.20872497
   0.25000000  0.24919242  0.25933580
   0.25000000  0.75083490  0.25942183
   0.75000000  0.25282767  0.25980469
   0.75000000  0.74763149  0.25998163
   0.00073639  0.00033594  0.31433936
   0.00267967  0.49901068  0.31300828
   0.49926361  0.00033594  0.31433936
   0.49732033  0.49901068  0.31300828
   0.25000000  0.24990661  0.36189103
   0.25000000  0.75023266  0.36173809
   0.75000000  0.24025472  0.36109661
   0.75000000  0.75140603  0.36061476
   0.75000000  0.49767834  0.42558138
   0.75000000  0.65652144  0.43222259
Direct configuration=     6
   0.00000000  0.00000000  0.00000000
   0.00000000  0.50000000  0.00000000
   0.50000000  0.00000000  0.00000000
   0.50000000  0.50000000  0.00000000
   0.25000000  0.25000000  0.05351109
   0.25000000  0.75000000  0.05351109
   0.75000000  0.25000000  0.05351109
   0.75000000  0.75000000  0.05351109
   0.00000000  0.00000000  0.10541371
   0.00000000  0.50000000  0.10541371
   0.50000000  0.00000000  0.10541371
   0.50000000  0.50000000  0.10541371
   0.25000000  0.25089822  0.15711271
   0.25000000  0.74897552  0.15722744
   0.75000000  0.25008117  0.15775435
   0.75000000  0.75001556  0.15755465
  -0.00078430  0.00041161  0.20850879
   0.00114047  0.49974247  0.20878832
   0.50078430  0.00041161  0.20850879
   0.49885953  0.49974247  0.20878832
   0.25000000  0.24826129  0.25918077
   0.25000000  0.75179681  0.25936062
   0.75000000  0.25592628  0.26014803
   0.75000000  0.74504730  0.26049790
   0.00164775  0.00070373  0.31452340
   0.00565132  0.49789768  0.31173929
   0.49835225  0.00070373  0.31452340
   0.49434868  0.49789768  0.31173929
   0.25000000  0.24980470  0.36197355
   0.25000000  0.75049202  0.36165006
   0.75000000  0.22990347  0.36040911
   0.75000000  0.75213646  0.35959909
   0.75000000  0.50506247  0.42399515
   0.75000000  0.65936056  0.43788859
Direct configuration=     7
   0.00000000  0.00000000  0.00000000
   0.00000000  0.50000000  0.00000000
   0.50000000  0.00000000  0.00000000
   0.50000000  0.50000000  0.00000000
   0.25000000  0.25000000  0.05351109
   0.25000000  0.75000000  0.05351109
   0.75000000  0.25000000  0.05351109
   0.75000000  0.75000000  0.05351109
   0.00000000  0.00000000  0.10541371
   0.00000000  0.50000000  0.10541371
   0.50000000  0.00000000  0.10541371
   0.50000000  0.50000000  0.10541371
   0.25000000  0.25055446  0.15712714
   0.25000000  0.74936828  0.15719707
   0.75000000  0.25004309  0.15752127
   0.75000000  0.75001253  0.15739719
  -0.00047409  0.00025432  0.20856414
   0.00070334  0.49983875  0.20874180
   0.50047409  0.00025432  0.20856414
   0.49929666  0.49983875  0.20874180
   0.25000000  0.24894493  0.25929460
   0.25000000  0.75109057  0.25940556
   0.75000000  0.25365127  0.25989595
   0.75000000  0.74694462  0.26011885
   0.00097863  0.00043370  0.31438828
   0.00346952  0.49871485  0.31267099
   0.49902137  0.00043370  0.31438828
   0.49653048  0.49871485  0.31267099
   0.25000000  0.24987952  0.36191296
   0.25000000  0.75030160  0.36171469
   0.75000000  0.23750340  0.36091387
   0.75000000  0.75160018  0.36034480
   0.75000000  0.49964101  0.42515976
   0.75000000  0.65727607  0.43372859
Direct configuration=     8
   0.00000000  0.00000000  0.00000000
   0.00000000  0.50000000  0.00000000
   0.50000000  0.00000000  0.00000000
   0.50000000  0.50000000  0.00000000
   0.25000000  0.25000000  0.05351109
   0.25000000  0.75000000  0.05351109
   0.75000000  0.25000000  0.05351109
   0.75000000  0.75000000  0.05351109
   0.00000000  0.00000000  0.10541371
   0.00000000  0.50000000  0.10541371
   0.50000000  0.00000000  0.10541371
   0.50000000  0.50000000  0.10541371
   0.25000000  0.25041257  0.15709173
   0.25000000  0.74949197  0.15718376
   0.75000000  0.25012734  0.15757957
   0.75000000  0.74997901  0.15747971
  -0.00071754  0.00023133  0.20859363
   0.00079239  0.49991468  0.20861301
   0.50071754  0.00023133  0.20859363
   0.49920761  0.49991468  0.20861301
   0.25000000  0.24840380  0.25917901
   0.25000000  0.75158615  0.25929658
   0.75000000  0.25359866  0.25984173
   0.75000000  0.74719237  0.26003342
   0.00154971  0.00012995  0.31430866
   0.00367974  0.49842676  0.31253882
   0.49845029  0.00012995  0.31430866
   0.49632026  0.49842676  0.31253882
   0.25000000  0.24993378  0.36196991
   0.25000000  0.75023290  0.36172384
   0.75000000  0.23626414  0.36074621
   0.75000000  0.74847700  0.36094751
   0.75000000  0.50675770  0.42473632
   0.75000000  0.65541807  0.43500231
Direct configuration=     9
   0.00000000  0.00000000  0.00000000
   0.00000000  0.50000000  0.00000000
   0.50000000  0.00000000  0.00000000
   0.50000000  0.50000000  0.00000000
   0.25000000  0.25000000  0.05351109
   0.25000000  0.75000000  0.05351109
   0.75000000  0.25000000  0.05351109
   0.75000000  0.75000000  0.05351109
   0.00000000  0.00000000  0.10541371
   0.00000000  0.50000000  0.10541371
   0.50000000  0.00000000  0.10541371
   0.50000000  0.50000000  0.10541371
   0.25000000  0.25035008  0.15707613
   0.25000000  0.74954644  0.15717790
   0.75000000  0.25016445  0.15760524
   0.75000000  0.74996425  0.15751605
  -0.00082476  0.00022120  0.20860662
   0.00083161  0.49994812  0.20855628
   0.50082476  0.00022120  0.20860662
   0.49916839  0.49994812  0.20855628
   0.25000000  0.24816548  0.25912810
   0.25000000  0.75180442  0.25924858
   0.75000000  0.25357550  0.25981786
   0.75000000  0.74730149  0.25999579
   0.00180123 -0.00000383  0.31427360
   0.00377232  0.49829988  0.31248061
   0.49819877 -0.00000383  0.31427360
   0.49622768  0.49829988  0.31248061
   0.25000000  0.24995767  0.36199499
   0.25000000  0.75020264  0.36172786
   0.75000000  0.23571833  0.36067237
   0.75000000  0.74710147  0.36121296
   0.75000000  0.50989209  0.42454982
   0.75000000  0.65459976  0.43556329
Direct configuration=    10
   0.00000000  0.00000000  0.00000000
   0.00000000  0.50000000  0.00000000
   0.50000000  0.00000000  0.00000000
   0.50000000  0.50000000  0.00000000
   0.25000000  0.25000000  0.05351109
   0.25000000  0.75000000  0.05351109
   0.75000000  0.25000000  0.05351109
   0.75000000  0.75000000  0.05351109
   0.00000000  0.00000000  0.10541371
   0.00000000  0.50000000  0.10541371
   0.50000000  0.00000000  0.10541371
   0.50000000  0.50000000  0.10541371
   0.25000000  0.25022509  0.15704493
   0.25000000  0.74965539  0.15716617
   0.75000000  0.25023866  0.15765659
   0.75000000  0.74993473  0.15758873
  -0.00103919  0.00020094  0.20863260
   0.00091004  0.50001500  0.20844283
   0.50103919  0.00020094  0.20863260
   0.49908996  0.50001500  0.20844283
   0.25000000  0.24768882  0.25902628
   0.25000000  0.75224095  0.25915258
   0.75000000  0.25352916  0.25977010
   0.75000000  0.74751972  0.25992054
   0.00230427 -0.00027138  0.31420347
   0.00395749  0.49804612  0.31236419
   0.49769573 -0.00027138  0.31420347
   0.49604251  0.49804612  0.31236419
   0.25000000  0.25000546  0.36204514
   0.25000000  0.75014212  0.36173592
   0.75000000  0.23462672  0.36052469
   0.75000000  0.74435041  0.36174387
   0.75000000  0.51616086  0.42417682
   0.75000000  0.65296314  0.43668525
Direct configuration=    11
   0.00000000  0.00000000  0.00000000
   0.00000000  0.50000000  0.00000000
   0.50000000  0.00000000  0.00000000
   0.50000000  0.50000000  0.00000000
   0.25000000  0.25000000  0.05351109
   0.25000000  0.75000000  0.05351109
   0.75000000  0.25000000  0.05351109
   0.75000000  0.75000000  0.05351109
   0.00000000  0.00000000  0.10541371
   0.00000000  0.50000000  0.10541371
   0.50000000  0.00000000  0.10541371
   0.50000000  0.50000000  0.10541371
   0.25000000  0.25031086  0.15706634
   0.25000000  0.74958062  0.15717422
   0.75000000  0.25018773  0.15762136
   0.75000000  0.74995499  0.15753885
  -0.00089203  0.00021484  0.20861477
   0.00085622  0.49996910  0.20852069
   0.50089203  0.00021484  0.20861477
   0.49914378  0.49996910  0.20852069
   0.25000000  0.24801593  0.25909615
   0.25000000  0.75194138  0.25921846
   0.75000000  0.25356096  0.25980288
   0.75000000  0.74736996  0.25997218
   0.00195906 -0.00008777  0.31425159
   0.00383042  0.49822026  0.31244408
   0.49804094 -0.00008777  0.31425159
   0.49616958  0.49822026  0.31244408
   0.25000000  0.24997267  0.36201072
   0.25000000  0.75018365  0.36173039
   0.75000000  0.23537584  0.36062604
   0.75000000  0.74623834  0.36137953
   0.75000000  0.51185889  0.42443279
   0.75000000  0.65408628  0.43591530
Direct configuration=    12
   0.00000000  0.00000000  0.00000000
   0.00000000  0.50000000  0.00000000
   0.50000000  0.00000000  0.00000000
   0.50000000  0.50000000  0.00000000
   0.25000000  0.25000000  0.05351109
   0.25000000  0.75000000  0.05351109
   0.75000000  0.25000000  0.05351109
   0.75000000  0.75000000  0.05351109
   0.00000000  0.00000000  0.10541371
   0.00000000  0.50000000  0.10541371
   0.50000000  0.00000000  0.10541371
   0.50000000  0.50000000  0.10541371
   0.25000000  0.25008308  0.15702153
   0.25000000  0.74980224  0.15714032
   0.75000000  0.25026330  0.15762559
   0.75000000  0.74994483  0.15757483
  -0.00107566  0.00018855  0.20863817
   0.00089900  0.50005059  0.20838902
   0.50107566  0.00018855  0.20863817
   0.49910100  0.50005059  0.20838902
   0.25000000  0.24769081  0.25899248
   0.25000000  0.75218225  0.25911040
   0.75000000  0.25316045  0.25971444
   0.75000000  0.74791443  0.25995531
   0.00225729 -0.00062573  0.31417151
   0.00367262  0.49802941  0.31245404
   0.49774271 -0.00062573  0.31417151
   0.49632738  0.49802941  0.31245404
   0.25000000  0.25006563  0.36205300
   0.25000000  0.75000311  0.36174725
   0.75000000  0.23480376  0.36044541
   0.75000000  0.74308383  0.36199745
   0.75000000  0.51483763  0.42388025
   0.75000000  0.65612731  0.43708850
Direct configuration=    13
   0.00000000  0.00000000  0.00000000
   0.00000000  0.50000000  0.00000000
   0.50000000  0.00000000  0.00000000
   0.50000000  0.50000000  0.00000000
   0.25000000  0.25000000  0.05351109
   0.25000000  0.75000000  0.05351109
   0.75000000  0.25000000  0.05351109
   0.75000000  0.75000000  0.05351109
   0.00000000  0.00000000  0.10541371
   0.00000000  0.50000000  0.10541371
   0.50000000  0.00000000  0.10541371
   0.50000000  0.50000000  0.10541371
   0.25000000  0.24961539  0.15692952
   0.25000000  0.75025726  0.15707072
   0.75000000  0.25041845  0.15763428
   0.75000000  0.74992399  0.15764870
  -0.00145270  0.00013458  0.20868621
   0.00098685  0.50021791  0.20811868
   0.50145270  0.00013458  0.20868621
   0.49901315  0.50021791  0.20811868
   0.25000000  0.24702326  0.25877962
   0.25000000  0.75267681  0.25888854
   0.75000000  0.25233811  0.25953287
   0.75000000  0.74903235  0.25992068
   0.00286962 -0.00173029  0.31400708
   0.00334862  0.49763755  0.31247447
   0.49713038 -0.00173029  0.31400708
   0.49665138  0.49763755  0.31247447
   0.25000000  0.25025652  0.36213982
   0.25000000  0.74963240  0.36178185
   0.75000000  0.23362915  0.36007455
   0.75000000  0.73660694  0.36326617
   0.75000000  0.52095366  0.42274575
   0.75000000  0.66031799  0.43949734
Direct configuration=    14
   0.00000000  0.00000000  0.00000000
   0.00000000  0.50000000  0.00000000
   0.50000000  0.00000000  0.00000000
   0.50000000  0.50000000  0.00000000
   0.25000000  0.25000000  0.05351109
   0.25000000  0.75000000  0.05351109
   0.75000000  0.25000000  0.05351109
   0.75000000  0.75000000  0.05351109
   0.00000000  0.00000000  0.10541371
   0.00000000  0.50000000  0.10541371
   0.50000000  0.00000000  0.10541371
   0.50000000  0.50000000  0.10541371
   0.25000000  0.24966912  0.15694009
   0.25000000  0.75020499  0.15707872
   0.75000000  0.25040062  0.15763328
   0.75000000  0.74992638  0.15764021
  -0.00140939  0.00014078  0.20868069
   0.00097676  0.50019869  0.20814973
   0.50140939  0.00014078  0.20868069
   0.49902324  0.50019869  0.20814973
   0.25000000  0.24709995  0.25880407
   0.25000000  0.75262000  0.25891403
   0.75000000  0.25243257  0.25955372
   0.75000000  0.74890393  0.25992466
   0.00279928 -0.00160341  0.31402597
   0.00338584  0.49768257  0.31247212
   0.49720072 -0.00160341  0.31402597
   0.49661416  0.49768257  0.31247212
   0.25000000  0.25023459  0.36212984
   0.25000000  0.74967499  0.36177788
   0.75000000  0.23376408  0.36011715
   0.75000000  0.73735097  0.36312043
   0.75000000  0.52025109  0.42287607
   0.75000000  0.65983658  0.43922063
Direct configuration=    15
   0.00000000  0.00000000  0.00000000
   0.00000000  0.50000000  0.00000000
   0.50000000  0.00000000  0.00000000
   0.50000000  0.50000000  0.00000000
   0.25000000  0.25000000  0.05351109
   0.25000000  0.75000000  0.05351109
   0.75000000  0.25000000  0.05351109
   0.75000000  0.75000000  0.05351109
   0.00000000  0.00000000  0.10541371
   0.00000000  0.50000000  0.10541371
   0.50000000  0.00000000  0.10541371
   0.50000000  0.50000000  0.10541371
   0.25000000  0.24964751  0.15693584
   0.25000000  0.75022601  0.15707550
   0.75000000  0.25040779  0.15763368
   0.75000000  0.74992542  0.15764362
  -0.00142680  0.00013829  0.20868291
   0.00098081  0.50020642  0.20813725
   0.50142680  0.00013829  0.20868291
   0.49901919  0.50020642  0.20813725
   0.25000000  0.24706911  0.25879424
   0.25000000  0.75264285  0.25890378
   0.75000000  0.25239458  0.25954534
   0.75000000  0.74895557  0.25992306
   0.00282757 -0.00165443  0.31401838
   0.00337088  0.49766446  0.31247307
   0.49717243 -0.00165443  0.31401838
   0.49662912  0.49766446  0.31247307
   0.25000000  0.25024341  0.36213385
   0.25000000  0.74965786  0.36177948
   0.75000000  0.23370982  0.36010002
   0.75000000  0.73705177  0.36317903
   0.75000000  0.52053361  0.42282367
   0.75000000  0.66003017  0.43933190
Direct configuration=    16
   0.00000000  0.00000000  0.00000000
   0.00000000  0.50000000  0.00000000
   0.50000000  0.00000000  0.00000000
   0.50000000  0.50000000  0.00000000
   0.25000000  0.25000000  0.05351109
   0.25000000  0.75000000  0.05351109
   0.75000000  0.25000000  0.05351109
   0.75000000  0.75000000  0.05351109
   0.00000000  0.00000000  0.10541371
   0.00000000  0.50000000  0.10541371
   0.50000000  0.00000000  0.10541371
   0.50000000  0.50000000  0.10541371
   0.25000000  0.24965839  0.15693798
   0.25000000  0.75021542  0.15707712
   0.75000000  0.25040418  0.15763348
   0.75000000  0.74992590  0.15764190
  -0.00141803  0.00013954  0.20868179
   0.00097877  0.50020252  0.20814354
   0.50141803  0.00013954  0.20868179
   0.49902123  0.50020252  0.20814354
   0.25000000  0.24708464  0.25879919
   0.25000000  0.75263134  0.25890894
   0.75000000  0.25241372  0.25954956
   0.75000000  0.74892956  0.25992386
   0.00281332 -0.00162873  0.31402220
   0.00337841  0.49767358  0.31247259
   0.49718668 -0.00162873  0.31402220
   0.49662159  0.49767358  0.31247259
   0.25000000  0.25023897  0.36213183
   0.25000000  0.74966649  0.36177867
   0.75000000  0.23373715  0.36010865
   0.75000000  0.73720248  0.36314951
   0.75000000  0.52039130  0.42285007
   0.75000000  0.65993266  0.43927585
Direct configuration=    17
   0.00000000  0.00000000  0.00000000
   0.00000000  0.50000000  0.00000000
   0.50000000  0.00000000  0.00000000
   0.50000000  0.50000000  0.00000000
   0.25000000  0.25000000  0.05351109
   0.25000000  0.75000000  0.05351109
   0.75000000  0.25000000  0.05351109
   0.75000000  0.75000000  0.05351109
   0.00000000  0.00000000  0.10541371
   0.00000000  0.50000000  0.10541371
   0.50000000  0.00000000  0.10541371
   0.50000000  0.50000000  0.10541371
   0.25000000  0.24965295  0.15693691
   0.25000000  0.75022071  0.15707631
   0.75000000  0.25040599  0.15763358
   0.75000000  0.74992566  0.15764276
  -0.00142242  0.00013891  0.20868235
   0.00097979  0.50020447  0.20814039
   0.50142242  0.00013891  0.20868235
   0.49902021  0.50020447  0.20814039
   0.25000000  0.24707688  0.25879672
   0.25000000  0.75263709  0.25890636
   0.75000000  0.25240415  0.25954745
   0.75000000  0.74894256  0.25992346
   0.00282044 -0.00164158  0.31402029
   0.00337464  0.49766902  0.31247283
   0.49717956 -0.00164158  0.31402029
   0.49662535  0.49766902  0.31247283
   0.25000000  0.25024119  0.36213284
   0.25000000  0.74966218  0.36177908
   0.75000000  0.23372349  0.36010433
   0.75000000  0.73712713  0.36316427
   0.75000000  0.52046246  0.42283687
   0.75000000  0.65998141  0.43930388
Direct configuration=    18
   0.00000000  0.00000000  0.00000000
   0.00000000  0.50000000  0.00000000
   0.50000000  0.00000000  0.00000000
   0.50000000  0.50000000  0.00000000
   0.25000000  0.25000000  0.05351109
   0.25000000  0.75000000  0.05351109
   0.75000000  0.25000000  0.05351109
   0.75000000  0.75000000  0.05351109
   0.00000000  0.00000000  0.10541371
   0.00000000  0.50000000  0.10541371
   0.50000000  0.00000000  0.10541371
   0.50000000  0.50000000  0.10541371
   0.25000000  0.24953451  0.15690081
   0.25000000  0.75033552  0.15702041
   0.75000000  0.25040716  0.15754234
   0.75000000  0.74998286  0.15757533
  -0.00134464  0.00015829  0.20863841
   0.00094555  0.50019066  0.20815291
   0.50134464  0.00015829  0.20863841
   0.49905445  0.50019066  0.20815291
   0.25000000  0.24744653  0.25880124
   0.25000000  0.75209341  0.25889445
   0.75000000  0.25215982  0.25948584
   0.75000000  0.74908925  0.26019991
   0.00240679 -0.00225753  0.31402987
   0.00302993  0.49754990  0.31256375
   0.49759321 -0.00225753  0.31402987
   0.49697007  0.49754990  0.31256375
   0.25000000  0.25024170  0.36209034
   0.25000000  0.74937973  0.36177189
   0.75000000  0.23335044  0.36001624
   0.75000000  0.73614988  0.36341210
   0.75000000  0.52275205  0.42277099
   0.75000000  0.66107365  0.43952393
Direct configuration=    19
   0.00000000  0.00000000  0.00000000
   0.00000000  0.50000000  0.00000000
   0.50000000  0.00000000  0.00000000
   0.50000000  0.50000000  0.00000000
   0.25000000  0.25000000  0.05351109
   0.25000000  0.75000000  0.05351109
   0.75000000  0.25000000  0.05351109
   0.75000000  0.75000000  0.05351109
   0.00000000  0.00000000  0.10541371
   0.00000000  0.50000000  0.10541371
   0.50000000  0.00000000  0.10541371
   0.50000000  0.50000000  0.10541371
   0.25000000  0.24931187  0.15683295
   0.25000000  0.75055131  0.15691535
   0.75000000  0.25040938  0.15737083
   0.75000000  0.75009037  0.15744858
  -0.00119845  0.00019470  0.20855582
   0.00088119  0.50016469  0.20817644
   0.50119845  0.00019470  0.20855582
   0.49911881  0.50016469  0.20817644
   0.25000000  0.24814136  0.25880975
   0.25000000  0.75107149  0.25887207
   0.75000000  0.25170055  0.25937003
   0.75000000  0.74936495  0.26071953
   0.00162928 -0.00341528  0.31404789
   0.00238198  0.49732600  0.31273464
   0.49837072 -0.00341528  0.31404789
   0.49761802  0.49732600  0.31273464
   0.25000000  0.25024267  0.36201046
   0.25000000  0.74884883  0.36175838
   0.75000000  0.23264925  0.35985065
   0.75000000  0.73431301  0.36387792
   0.75000000  0.52705567  0.42264717
   0.75000000  0.66312667  0.43993754
Direct configuration=    20
   0.00000000  0.00000000  0.00000000
   0.00000000  0.50000000  0.00000000
   0.50000000  0.00000000  0.00000000
   0.50000000  0.50000000  0.00000000
   0.25000000  0.25000000  0.05351109
   0.25000000  0.75000000  0.05351109
   0.75000000  0.25000000  0.05351109
   0.75000000  0.75000000  0.05351109
   0.00000000  0.00000000  0.10541371
   0.00000000  0.50000000  0.10541371
   0.50000000  0.00000000  0.10541371
   0.50000000  0.50000000  0.10541371
   0.25000000  0.24925290  0.15681497
   0.25000000  0.75060846  0.15688752
   0.75000000  0.25040996  0.15732541
   0.75000000  0.75011885  0.15741501
  -0.00115972  0.00020435  0.20853394
   0.00086414  0.50015781  0.20818267
   0.50115972  0.00020435  0.20853394
   0.49913586  0.50015781  0.20818267
   0.25000000  0.24832540  0.25881200
   0.25000000  0.75080080  0.25886614
   0.75000000  0.25157890  0.25933935
   0.75000000  0.74943798  0.26085716
   0.00142334 -0.00372194  0.31405266
   0.00221036  0.49726669  0.31277991
   0.49857666 -0.00372194  0.31405266
   0.49778964  0.49726669  0.31277991
   0.25000000  0.25024293  0.36198930
   0.25000000  0.74870820  0.36175480
   0.75000000  0.23246352  0.35980679
   0.75000000  0.73382646  0.36400130
   0.75000000  0.52819560  0.42261437
   0.75000000  0.66367047  0.44004710
Direct configuration=    21
   0.00000000  0.00000000  0.00000000
   0.00000000  0.50000000  0.00000000
   0.50000000  0.00000000  0.00000000
   0.50000000  0.50000000  0.00000000
   0.25000000  0.25000000  0.05351109
   0.25000000  0.75000000  0.05351109
   0.75000000  0.25000000  0.05351109
   0.75000000  0.75000000  0.05351109
   0.00000000  0.00000000  0.10541371
   0.00000000  0.50000000  0.10541371
   0.50000000  0.00000000  0.10541371
   0.50000000  0.50000000  0.10541371
   0.25000000  0.24939031  0.15681949
   0.25000000  0.75046037  0.15687747
   0.75000000  0.25043964  0.15727807
   0.75000000  0.75013187  0.15751551
  -0.00104928  0.00008056  0.20852849
   0.00063207  0.50021854  0.20825352
   0.50104928  0.00008056  0.20852849
   0.49936793  0.50021854  0.20825352
   0.25000000  0.24835816  0.25889236
   0.25000000  0.75042671  0.25891566
   0.75000000  0.25148440  0.25923178
   0.75000000  0.74920416  0.26104080
   0.00121906 -0.00420020  0.31408849
   0.00199722  0.49679433  0.31287623
   0.49878094 -0.00420020  0.31408849
   0.49800278  0.49679433  0.31287623
   0.25000000  0.24981043  0.36186794
   0.25000000  0.74852076  0.36170512
   0.75000000  0.23198926  0.35981593
   0.75000000  0.73452878  0.36406219
   0.75000000  0.52895370  0.42281182
   0.75000000  0.66610846  0.43998105
Direct configuration=    22
   0.00000000  0.00000000  0.00000000
   0.00000000  0.50000000  0.00000000
   0.50000000  0.00000000  0.00000000
   0.50000000  0.50000000  0.00000000
   0.25000000  0.25000000  0.05351109
   0.25000000  0.75000000  0.05351109
   0.75000000  0.25000000  0.05351109
   0.75000000  0.75000000  0.05351109
   0.00000000  0.00000000  0.10541371
   0.00000000  0.50000000  0.10541371
   0.50000000  0.00000000  0.10541371
   0.50000000  0.50000000  0.10541371
   0.25000000  0.24978962  0.15683261
   0.25000000  0.75003004  0.15684826
   0.75000000  0.25052587  0.15714054
   0.75000000  0.75016969  0.15780754
  -0.00072836 -0.00027913  0.20851265
  -0.00004228  0.50039501  0.20845938
   0.50072836 -0.00027913  0.20851265
   0.50004228  0.50039501  0.20845938
   0.25000000  0.24845335  0.25912587
   0.25000000  0.74933970  0.25905956
   0.75000000  0.25120979  0.25891921
   0.75000000  0.74852471  0.26157442
   0.00062548 -0.00558991  0.31419260
   0.00137788  0.49542179  0.31315611
   0.49937452 -0.00558991  0.31419260
   0.49862212  0.49542179  0.31315611
   0.25000000  0.24855370  0.36151530
   0.25000000  0.74797611  0.36156076
   0.75000000  0.23061118  0.35984248
   0.75000000  0.73656953  0.36423911
   0.75000000  0.53115653  0.42338555
   0.75000000  0.67319262  0.43978911
Direct configuration=    23
   0.00000000  0.00000000  0.00000000
   0.00000000  0.50000000  0.00000000
   0.50000000  0.00000000  0.00000000
   0.50000000  0.50000000  0.00000000
   0.25000000  0.25000000  0.05351109
   0.25000000  0.75000000  0.05351109
   0.75000000  0.25000000  0.05351109
   0.75000000  0.75000000  0.05351109
   0.00000000  0.00000000  0.10541371
   0.00000000  0.50000000  0.10541371
   0.50000000  0.00000000  0.10541371
   0.50000000  0.50000000  0.10541371
   0.25000000  0.24988263  0.15686104
   0.25000000  0.74992476  0.15686433
   0.75000000  0.25051112  0.15711537
   0.75000000  0.75019633  0.15787412
  -0.00065236 -0.00035444  0.20852575
  -0.00012657  0.50039945  0.20850055
   0.50065236 -0.00035444  0.20852575