  10  10   0   0
  0.1692928E+02  0.2566798E-09  0.2566798E-09  0.2967047E-08  0.5000000E-15
  1.000000000000000E-004
  CAR 
 unknown system                          
     18.25038317     -8.75087938  301      2.09399890      1.00000000
     -8.751  0.0000E+00  0.0000E+00  0.0000E+00  0.0000E+00
     -8.661  0.0000E+00  0.0000E+00  0.0000E+00  0.0000E+00
     -8.571  0.0000E+00  0.0000E+00  0.0000E+00  0.0000E+00
     -8.481  0.0000E+00  0.0000E+00  0.0000E+00  0.0000E+00
     -8.391 -0.2245E-31 -0.2245E-31 -0.2021E-32 -0.2021E-32
     -8.301 -0.2777E-28 -0.2777E-28 -0.2502E-29 -0.2502E-29
     -8.211 -0.2285E-25 -0.2285E-25 -0.2059E-26 -0.2059E-26
     -8.121 -0.1248E-22 -0.1248E-22 -0.1126E-23 -0.1126E-23
     -8.031 -0.4529E-20 -0.4529E-20 -0.4088E-21 -0.4088E-21
     -7.941 -0.1090E-17 -0.1090E-17 -0.9850E-19 -0.9850E-19
     -7.851 -0.1681E-15 -0.1681E-15 -0.1523E-16 -0.1523E-16
     -7.761 -0.1763E-13 -0.1763E-13 -0.1602E-14 -0.1602E-14
     -7.671 -0.1219E-11 -0.1219E-11 -0.1113E-12 -0.1113E-12
     -7.581 -0.5537E-10 -0.5537E-10 -0.5095E-11 -0.5095E-11
     -7.491 -0.1644E-08 -0.1644E-08 -0.1531E-09 -0.1531E-09
     -7.401 -0.3164E-07 -0.3164E-07 -0.3001E-08 -0.3001E-08
     -7.311 -0.3894E-06 -0.3894E-06 -0.3805E-07 -0.3805E-07
     -7.221 -0.2985E-05 -0.2985E-05 -0.3067E-06 -0.3067E-06
     -7.131 -0.1344E-04 -0.1344E-04 -0.1516E-05 -0.1516E-05
     -7.041 -0.2942E-04 -0.2942E-04 -0.4164E-05 -0.4164E-05
     -6.951  0.5426E-05  0.5426E-05 -0.3676E-05 -0.3676E-05
     -6.861  0.1892E-03  0.1892E-03  0.1336E-04  0.1336E-04
     -6.771  0.4553E-03  0.4553E-03  0.5434E-04  0.5434E-04
     -6.681  0.5435E-03  0.5435E-03  0.1033E-03  0.1033E-03
     -6.591  0.4573E-03  0.4573E-03  0.1444E-03  0.1444E-03
     -6.501  0.4667E-03  0.4667E-03  0.1864E-03  0.1864E-03
     -6.411  0.5210E-03  0.5210E-03  0.2333E-03  0.2333E-03
     -6.321  0.4602E-03  0.4602E-03  0.2747E-03  0.2747E-03
     -6.231  0.4600E-03  0.4600E-03  0.3161E-03  0.3161E-03
     -6.141  0.5449E-03  0.5449E-03  0.3652E-03  0.3652E-03
     -6.051  0.4404E-03  0.4404E-03  0.4048E-03  0.4048E-03
     -5.961  0.1642E-03  0.1642E-03  0.4196E-03  0.4196E-03
     -5.871 -0.2663E-04 -0.2663E-04  0.4172E-03  0.4172E-03
     -5.781 -0.4109E-04 -0.4109E-04  0.4135E-03  0.4135E-03
     -5.691  0.1250E-03  0.1250E-03  0.4247E-03  0.4247E-03
     -5.601  0.4186E-03  0.4186E-03  0.4624E-03  0.4624E-03
     -5.511  0.5709E-03  0.5709E-03  0.5138E-03  0.5138E-03
     -5.421  0.3984E-03  0.3984E-03  0.5497E-03  0.5497E-03
     -5.331  0.1184E-03  0.1184E-03  0.5603E-03  0.5603E-03
     -5.241 -0.1743E-04 -0.1743E-04  0.5587E-03  0.5587E-03
     -5.151 -0.2919E-04 -0.2919E-04  0.5561E-03  0.5561E-03
     -5.061 -0.2465E-04 -0.2465E-04  0.5539E-03  0.5539E-03
     -4.971 -0.3126E-04 -0.3126E-04  0.5511E-03  0.5511E-03
     -4.881  0.2302E-04  0.2302E-04  0.5532E-03  0.5532E-03
     -4.791  0.2371E-03  0.2371E-03  0.5745E-03  0.5745E-03
     -4.701  0.4973E-03  0.4973E-03  0.6193E-03  0.6193E-03
     -4.611  0.4702E-03  0.4702E-03  0.6616E-03  0.6616E-03
     -4.521  0.1230E-03  0.1230E-03  0.6727E-03  0.6727E-03
     -4.431  0.3816E-04  0.3816E-04  0.6761E-03  0.6761E-03
     -4.341  0.9666E-03  0.9666E-03  0.7631E-03  0.7631E-03
     -4.251  0.2638E-02  0.2638E-02  0.1000E-02  0.1000E-02
     -4.161  0.3330E-02  0.3330E-02  0.1300E-02  0.1300E-02
     -4.071  0.2147E-02  0.2147E-02  0.1493E-02  0.1493E-02
     -3.981  0.4725E-03  0.4725E-03  0.1536E-02  0.1536E-02
     -3.891 -0.1655E-03 -0.1655E-03  0.1521E-02  0.1521E-02
     -3.801  0.5781E-03  0.5781E-03  0.1573E-02  0.1573E-02
     -3.711  0.2285E-02  0.2285E-02  0.1779E-02  0.1779E-02
     -3.621  0.3551E-02  0.3551E-02  0.2098E-02  0.2098E-02
     -3.531  0.3320E-02  0.3320E-02  0.2397E-02  0.2397E-02
     -3.441  0.2850E-02  0.2850E-02  0.2654E-02  0.2654E-02
     -3.351  0.3156E-02  0.3156E-02  0.2938E-02  0.2938E-02
     -3.261  0.2790E-02  0.2790E-02  0.3189E-02  0.3189E-02
     -3.171  0.1355E-02  0.1355E-02  0.3311E-02  0.3311E-02
     -3.081  0.9870E-03  0.9870E-03  0.3400E-02  0.3400E-02
     -2.991  0.2555E-02  0.2555E-02  0.3630E-02  0.3630E-02
     -2.901  0.3899E-02  0.3899E-02  0.3980E-02  0.3980E-02
     -2.811  0.3254E-02  0.3254E-02  0.4273E-02  0.4273E-02
     -2.721  0.1955E-02  0.1955E-02  0.4449E-02  0.4449E-02
     -2.631  0.2105E-02  0.2105E-02  0.4639E-02  0.4639E-02
     -2.541  0.3641E-02  0.3641E-02  0.4966E-02  0.4966E-02
     -2.451  0.4322E-02  0.4322E-02  0.5355E-02  0.5355E-02
     -2.361  0.2910E-02  0.2910E-02  0.5617E-02  0.5617E-02
     -2.271  0.1487E-02  0.1487E-02  0.5751E-02  0.5751E-02
     -2.181  0.2027E-02  0.2027E-02  0.5934E-02  0.5934E-02
     -2.091  0.3022E-02  0.3022E-02  0.6206E-02  0.6206E-02
     -2.001  0.2513E-02  0.2513E-02  0.6432E-02  0.6432E-02
     -1.911  0.1673E-02  0.1673E-02  0.6582E-02  0.6582E-02
     -1.821  0.2184E-02  0.2184E-02  0.6779E-02  0.6779E-02
     -1.731  0.3721E-02  0.3721E-02  0.7114E-02  0.7114E-02
     -1.641  0.6608E-02  0.6608E-02  0.7708E-02  0.7708E-02
     -1.551  0.1179E-01  0.1179E-01  0.8770E-02  0.8770E-02
     -1.461  0.1724E-01  0.1724E-01  0.1032E-01  0.1032E-01
     -1.371  0.1883E-01  0.1883E-01  0.1202E-01  0.1202E-01
     -1.281  0.1528E-01  0.1528E-01  0.1339E-01  0.1339E-01
     -1.191  0.1035E-01  0.1035E-01  0.1432E-01  0.1432E-01
     -1.101  0.7871E-02  0.7871E-02  0.1503E-01  0.1503E-01
     -1.011  0.7300E-02  0.7300E-02  0.1569E-01  0.1569E-01
     -0.921  0.6607E-02  0.6607E-02  0.1628E-01  0.1628E-01
     -0.831  0.6065E-02  0.6065E-02  0.1683E-01  0.1683E-01
     -0.741  0.7666E-02  0.7666E-02  0.1752E-01  0.1752E-01
     -0.651  0.1153E-01  0.1153E-01  0.1856E-01  0.1856E-01
     -0.560  0.1531E-01  0.1531E-01  0.1993E-01  0.1993E-01
     -0.470  0.1835E-01  0.1835E-01  0.2159E-01  0.2159E-01
     -0.380  0.2119E-01  0.2119E-01  0.2349E-01  0.2349E-01
     -0.290  0.2172E-01  0.2172E-01  0.2545E-01  0.2545E-01
     -0.200  0.1832E-01  0.1832E-01  0.2710E-01  0.2710E-01
     -0.110  0.1374E-01  0.1374E-01  0.2834E-01  0.2834E-01
     -0.020  0.1138E-01  0.1138E-01  0.2936E-01  0.2936E-01
      0.070  0.1124E-01  0.1124E-01  0.3037E-01  0.3037E-01
      0.160  0.1215E-01  0.1215E-01  0.3146E-01  0.3146E-01
      0.250  0.1425E-01  0.1425E-01  0.3275E-01  0.3275E-01
      0.340  0.1733E-01  0.1733E-01  0.3431E-01  0.3431E-01
      0.430  0.1925E-01  0.1925E-01  0.3604E-01  0.3604E-01
      0.520  0.1927E-01  0.1927E-01  0.3777E-01  0.3777E-01
      0.610  0.2031E-01  0.2031E-01  0.3960E-01  0.3960E-01
      0.700  0.2400E-01  0.2400E-01  0.4176E-01  0.4176E-01
      0.790  0.2756E-01  0.2756E-01  0.4424E-01  0.4424E-01
      0.880  0.2760E-01  0.2760E-01  0.4673E-01  0.4673E-01
      0.970  0.2383E-01  0.2383E-01  0.4887E-01  0.4887E-01
      1.060  0.1943E-01  0.1943E-01  0.5062E-01  0.5062E-01
      1.150  0.1742E-01  0.1742E-01  0.5219E-01  0.5219E-01
      1.240  0.1618E-01  0.1618E-01  0.5364E-01  0.5364E-01
      1.330  0.1236E-01  0.1236E-01  0.5476E-01  0.5476E-01
      1.420  0.6795E-02  0.6795E-02  0.5537E-01  0.5537E-01
      1.510  0.2439E-02  0.2439E-02  0.5559E-01  0.5559E-01
      1.600  0.2241E-03  0.2241E-03  0.5561E-01  0.5561E-01
      1.690 -0.4663E-03 -0.4663E-03  0.5557E-01  0.5557E-01
      1.780 -0.3762E-03 -0.3762E-03  0.5553E-01  0.5553E-01
      1.870  0.4564E-03  0.4564E-03  0.5557E-01  0.5557E-01
      1.960  0.2183E-02  0.2183E-02  0.5577E-01  0.5577E-01
      2.050  0.3595E-02  0.3595E-02  0.5609E-01  0.5609E-01
      2.140  0.3171E-02  0.3171E-02  0.5638E-01  0.5638E-01
      2.230  0.1541E-02  0.1541E-02  0.5652E-01  0.5652E-01
      2.320  0.4381E-03  0.4381E-03  0.5656E-01  0.5656E-01
      2.410  0.3201E-03  0.3201E-03  0.5659E-01  0.5659E-01
      2.500  0.4751E-03  0.4751E-03  0.5663E-01  0.5663E-01
      2.590  0.3580E-03  0.3580E-03  0.5666E-01  0.5666E-01
      2.680  0.8245E-04  0.8245E-04  0.5667E-01  0.5667E-01
      2.770 -0.1237E-03 -0.1237E-03  0.5666E-01  0.5666E-01
      2.860 -0.2000E-03 -0.2000E-03  0.5664E-01  0.5664E-01
      2.950  0.2141E-03  0.2141E-03  0.5666E-01  0.5666E-01
      3.040  0.1609E-02  0.1609E-02  0.5680E-01  0.5680E-01
      3.130  0.3180E-02  0.3180E-02  0.5709E-01  0.5709E-01
      3.220  0.3137E-02  0.3137E-02  0.5737E-01  0.5737E-01
      3.310  0.1537E-02  0.1537E-02  0.5751E-01  0.5751E-01
      3.400  0.1877E-03  0.1877E-03  0.5753E-01  0.5753E-01
      3.490 -0.1762E-03 -0.1762E-03  0.5751E-01  0.5751E-01
      3.580 -0.1010E-03 -0.1010E-03  0.5750E-01  0.5750E-01
      3.670 -0.2539E-04 -0.2539E-04  0.5750E-01  0.5750E-01
      3.760 -0.3688E-05 -0.3688E-05  0.5750E-01  0.5750E-01
      3.850 -0.6515E-06 -0.6515E-06  0.5750E-01  0.5750E-01
      3.940 -0.3644E-05 -0.3644E-05  0.5750E-01  0.5750E-01
      4.030 -0.2511E-04 -0.2511E-04  0.5750E-01  0.5750E-01
      4.120 -0.1001E-03 -0.1001E-03  0.5749E-01  0.5749E-01
      4.210 -0.1758E-03 -0.1758E-03  0.5747E-01  0.5747E-01
      4.300  0.1824E-03  0.1824E-03  0.5749E-01  0.5749E-01
      4.390  0.1523E-02  0.1523E-02  0.5763E-01  0.5763E-01
      4.480  0.3125E-02  0.3125E-02  0.5791E-01  0.5791E-01
      4.570  0.3186E-02  0.3186E-02  0.5819E-01  0.5819E-01
      4.660  0.1627E-02  0.1627E-02  0.5834E-01  0.5834E-01
      4.750  0.2321E-03  0.2321E-03  0.5836E-01  0.5836E-01
      4.840 -0.1735E-03 -0.1735E-03  0.5835E-01  0.5835E-01
      4.930 -0.1064E-03 -0.1064E-03  0.5834E-01  0.5834E-01
      5.020 -0.2769E-04 -0.2769E-04  0.5833E-01  0.5833E-01
      5.110 -0.4164E-05 -0.4164E-05  0.5833E-01  0.5833E-01
      5.200 -0.1105E-05 -0.1105E-05  0.5833E-01  0.5833E-01
      5.290 -0.7156E-05 -0.7156E-05  0.5833E-01  0.5833E-01
      5.380 -0.4342E-04 -0.4342E-04  0.5833E-01  0.5833E-01
      5.470 -0.1533E-03 -0.1533E-03  0.5831E-01  0.5831E-01
      5.560 -0.2435E-03 -0.2435E-03  0.5829E-01  0.5829E-01
      5.650  0.2227E-03  0.2227E-03  0.5831E-01  0.5831E-01
      5.740  0.1931E-02  0.1931E-02  0.5849E-01  0.5849E-01
      5.830  0.4644E-02  0.4644E-02  0.5890E-01  0.5890E-01
      5.920  0.6960E-02  0.6960E-02  0.5953E-01  0.5953E-01
      6.010  0.7195E-02  0.7195E-02  0.6018E-01  0.6018E-01
      6.100  0.5027E-02  0.5027E-02  0.6063E-01  0.6063E-01
      6.190  0.2520E-02  0.2520E-02  0.6086E-01  0.6086E-01
      6.280  0.1500E-02  0.1500E-02  0.6099E-01  0.6099E-01
      6.370  0.1399E-02  0.1399E-02  0.6112E-01  0.6112E-01
      6.460  0.1157E-02  0.1157E-02  0.6122E-01  0.6122E-01
      6.550  0.7641E-03  0.7644E-03  0.6129E-01  0.6129E-01
      6.640  0.5218E-03  0.5218E-03  0.6134E-01  0.6134E-01
      6.730  0.4567E-03  0.4565E-03  0.6138E-01  0.6138E-01
      6.820  0.6155E-03  0.6153E-03  0.6144E-01  0.6144E-01
      6.910  0.9139E-03  0.9138E-03  0.6152E-01  0.6152E-01
      7.000  0.1405E-02  0.1405E-02  0.6164E-01  0.6164E-01
      7.090  0.2668E-02  0.2668E-02  0.6188E-01  0.6188E-01
      7.180  0.4161E-02  0.4161E-02  0.6226E-01  0.6226E-01
      7.270  0.4055E-02  0.4055E-02  0.6262E-01  0.6262E-01
      7.360  0.2301E-02  0.2302E-02  0.6283E-01  0.6283E-01
      7.450  0.7563E-03  0.7562E-03  0.6290E-01  0.6290E-01
      7.540  0.4950E-03  0.4946E-03  0.6294E-01  0.6294E-01
      7.630  0.1347E-02  0.1347E-02  0.6306E-01  0.6306E-01
      7.720  0.2459E-02  0.2459E-02  0.6329E-01  0.6329E-01
      7.810  0.2722E-02  0.2722E-02  0.6353E-01  0.6353E-01
      7.900  0.1795E-02  0.1795E-02  0.6369E-01  0.6369E-01
      7.990  0.5245E-03  0.5245E-03  0.6374E-01  0.6374E-01
      8.080  0.6094E-04  0.6094E-04  0.6375E-01  0.6375E-01
      8.170  0.9777E-03  0.9778E-03  0.6383E-01  0.6383E-01
      8.260  0.3046E-02  0.3047E-02  0.6411E-01  0.6411E-01
      8.350  0.5038E-02  0.5039E-02  0.6456E-01  0.6456E-01
      8.440  0.5335E-02  0.5335E-02  0.6504E-01  0.6504E-01
      8.530  0.3742E-02  0.3742E-02  0.6538E-01  0.6538E-01
      8.620  0.1702E-02  0.1702E-02  0.6553E-01  0.6553E-01
      8.710  0.4351E-03  0.4352E-03  0.6557E-01  0.6557E-01
      8.800  0.1389E-03  0.1391E-03  0.6558E-01  0.6558E-01
      8.890  0.6210E-03  0.6211E-03  0.6564E-01  0.6564E-01
      8.980  0.1838E-02  0.1837E-02  0.6580E-01  0.6580E-01
      9.070  0.3316E-02  0.3316E-02  0.6610E-01  0.6610E-01
      9.160  0.3789E-02  0.3789E-02  0.6644E-01  0.6644E-01
      9.250  0.2931E-02  0.2931E-02  0.6671E-01  0.6671E-01
      9.340  0.2112E-02  0.2112E-02  0.6690E-01  0.6690E-01
      9.430  0.2319E-02  0.2319E-02  0.6711E-01  0.6711E-01
      9.520  0.2912E-02  0.2912E-02  0.6737E-01  0.6737E-01
      9.610  0.3010E-02  0.3010E-02  0.6764E-01  0.6764E-01
      9.700  0.2881E-02  0.2882E-02  0.6790E-01  0.6790E-01
      9.790  0.3066E-02  0.3067E-02  0.6817E-01  0.6817E-01
      9.880  0.3063E-02  0.3063E-02  0.6845E-01  0.6845E-01
      9.970  0.2280E-02  0.2279E-02  0.6866E-01  0.6866E-01
     10.060  0.1689E-02  0.1690E-02  0.6881E-01  0.6881E-01
     10.150  0.2348E-02  0.2349E-02  0.6902E-01  0.6902E-01
     10.240  0.3039E-02  0.3039E-02  0.6929E-01  0.6929E-01
     10.330  0.2606E-02  0.2605E-02  0.6953E-01  0.6953E-01
     10.420  0.2529E-02  0.2528E-02  0.6975E-01  0.6975E-01
     10.510  0.3740E-02  0.3740E-02  0.7009E-01  0.7009E-01
     10.600  0.4477E-02  0.4476E-02  0.7049E-01  0.7049E-01
     10.690  0.3610E-02  0.3610E-02  0.7082E-01  0.7082E-01
     10.780  0.2540E-02  0.2539E-02  0.7105E-01  0.7105E-01
     10.870  0.2810E-02  0.2810E-02  0.7130E-01  0.7130E-01
     10.960  0.3758E-02  0.3758E-02  0.7164E-01  0.7164E-01
     11.050  0.3412E-02  0.3412E-02  0.7195E-01  0.7195E-01
     11.140  0.1626E-02  0.1625E-02  0.7209E-01  0.7209E-01
     11.230  0.9481E-04  0.9450E-04  0.7210E-01  0.7210E-01
     11.320 -0.3384E-03 -0.3384E-03  0.7207E-01  0.7207E-01
     11.410  0.2002E-03  0.2005E-03  0.7209E-01  0.7209E-01
     11.500  0.1569E-02  0.1570E-02  0.7223E-01  0.7223E-01
     11.590  0.3004E-02  0.3004E-02  0.7250E-01  0.7250E-01
     11.680  0.3568E-02  0.3568E-02  0.7282E-01  0.7282E-01
     11.770  0.3530E-02  0.3530E-02  0.7314E-01  0.7314E-01
     11.860  0.3438E-02  0.3438E-02  0.7345E-01  0.7345E-01
     11.950  0.3329E-02  0.3330E-02  0.7375E-01  0.7375E-01
     12.040  0.3366E-02  0.3366E-02  0.7405E-01  0.7405E-01
     12.130  0.3217E-02  0.3217E-02  0.7434E-01  0.7434E-01
     12.220  0.2190E-02  0.2190E-02  0.7454E-01  0.7454E-01
     12.310  0.7684E-03  0.7678E-03  0.7461E-01  0.7461E-01
     12.400 -0.3054E-04 -0.3074E-04  0.7460E-01  0.7460E-01
     12.490 -0.1456E-03 -0.1455E-03  0.7459E-01  0.7459E-01
     12.580 -0.6204E-04 -0.6201E-04  0.7458E-01  0.7458E-01
     12.670 -0.1357E-04 -0.1355E-04  0.7458E-01  0.7458E-01
     12.760 -0.1930E-05 -0.1928E-05  0.7458E-01  0.7458E-01
     12.850 -0.1751E-05 -0.1753E-05  0.7458E-01  0.7458E-01
     12.940 -0.9952E-05 -0.9960E-05  0.7458E-01  0.7458E-01
     13.030 -0.3521E-04 -0.3523E-04  0.7458E-01  0.7458E-01
     13.120 -0.5060E-04 -0.5059E-04  0.7457E-01  0.7457E-01
     13.210  0.9073E-04  0.9088E-04  0.7458E-01  0.7458E-01
     13.300  0.5357E-03  0.5361E-03  0.7463E-01  0.7463E-01
     13.390  0.1024E-02  0.1024E-02  0.7472E-01  0.7472E-01
     13.480  0.1019E-02  0.1019E-02  0.7481E-01  0.7481E-01
     13.570  0.5258E-03  0.5255E-03  0.7486E-01  0.7486E-01
     13.660  0.8562E-04  0.8545E-04  0.7487E-01  0.7487E-01
     13.750 -0.5106E-04 -0.5108E-04  0.7487E-01  0.7487E-01
     13.840 -0.3463E-04 -0.3461E-04  0.7486E-01  0.7486E-01
     13.930 -0.9670E-05 -0.9661E-05  0.7486E-01  0.7486E-01
     14.020 -0.1548E-05 -0.1546E-05  0.7486E-01  0.7486E-01
     14.110 -0.1538E-06 -0.1535E-06  0.7486E-01  0.7486E-01
     14.200 -0.9784E-08 -0.9765E-08  0.7486E-01  0.7486E-01
     14.290 -0.4047E-09 -0.4038E-09  0.7486E-01  0.7486E-01
     14.380 -0.1097E-10 -0.1094E-10  0.7486E-01  0.7486E-01
     14.470 -0.1960E-12 -0.1954E-12  0.7486E-01  0.7486E-01
     14.560 -0.2313E-14 -0.2306E-14  0.7486E-01  0.7486E-01
     14.650 -0.1816E-16 -0.1816E-16  0.7486E-01  0.7486E-01
     14.740 -0.5690E-27 -0.5707E-27  0.7486E-01  0.7486E-01
     14.830 -0.3906E-24 -0.3917E-24  0.7486E-01  0.7486E-01
     14.920 -0.1781E-21 -0.1785E-21  0.7486E-01  0.7486E-01
     15.010 -0.5388E-19 -0.5401E-19  0.7486E-01  0.7486E-01
     15.100 -0.1047E-16 -0.1049E-16  0.7486E-01  0.7486E-01
     15.190 -0.1386E-14 -0.1389E-14  0.7486E-01  0.7486E-01
     15.280 -0.1209E-12 -0.1212E-12  0.7486E-01  0.7486E-01
     15.370 -0.6946E-11 -0.6958E-11  0.7486E-01  0.7486E-01
     15.460 -0.2616E-09 -0.2620E-09  0.7486E-01  0.7486E-01
     15.550 -0.6420E-08 -0.6429E-08  0.7486E-01  0.7486E-01
     15.640 -0.1016E-06 -0.1017E-06  0.7486E-01  0.7486E-01
     15.730 -0.1018E-05 -0.1019E-05  0.7486E-01  0.7486E-01
     15.820 -0.6234E-05 -0.6239E-05  0.7486E-01  0.7486E-01
     15.910 -0.2122E-04 -0.2123E-04  0.7486E-01  0.7486E-01
     16.000 -0.2598E-04 -0.2597E-04  0.7486E-01  0.7486E-01
     16.090  0.6972E-04  0.6980E-04  0.7486E-01  0.7486E-01
     16.180  0.3284E-03  0.3285E-03  0.7489E-01  0.7489E-01
     16.270  0.5573E-03  0.5573E-03  0.7494E-01  0.7494E-01
     16.360  0.4820E-03  0.4818E-03  0.7499E-01  0.7499E-01
     16.450  0.1990E-03  0.1989E-03  0.7500E-01  0.7500E-01
     16.540  0.7322E-05  0.7278E-05  0.7500E-01  0.7500E-01
     16.630 -0.2920E-04 -0.2920E-04  0.7500E-01  0.7500E-01
     16.720 -0.1342E-04 -0.1342E-04  0.7500E-01  0.7500E-01
     16.810 -0.2984E-05 -0.2982E-05  0.7500E-01  0.7500E-01
     16.900 -0.3893E-06 -0.3890E-06  0.7500E-01  0.7500E-01
     16.990 -0.3164E-07 -0.3160E-07  0.7500E-01  0.7500E-01
     17.080 -0.1644E-08 -0.1642E-08  0.7500E-01  0.7500E-01
     17.170 -0.5537E-10 -0.5529E-10  0.7500E-01  0.7500E-01
     17.260 -0.1219E-11 -0.1217E-11  0.7500E-01  0.7500E-01
     17.350 -0.1763E-13 -0.1760E-13  0.7500E-01  0.7500E-01
     17.440 -0.1682E-15 -0.1679E-15  0.7500E-01  0.7500E-01
     17.530 -0.1028E-17 -0.1028E-17  0.7500E-01  0.7500E-01
     17.620  0.0000E+00  0.0000E+00  0.7500E-01  0.7500E-01
     17.710  0.0000E+00  0.0000E+00  0.7500E-01  0.7500E-01
     17.800  0.0000E+00  0.0000E+00  0.7500E-01  0.7500E-01
     17.890  0.0000E+00  0.0000E+00  0.7500E-01  0.7500E-01
     17.980  0.0000E+00  0.0000E+00  0.7500E-01  0.7500E-01
     18.070  0.0000E+00  0.0000E+00  0.7500E-01  0.7500E-01
     18.160  0.0000E+00  0.0000E+00  0.7500E-01  0.7500E-01
     18.250  0.0000E+00  0.0000E+00  0.7500E-01  0.7500E-01
