   10   10  800    2
  0.1692928E+02  0.2566798E-09  0.2566798E-09  0.2967047E-08  0.5000000E-15
  1.000000000000000E-004
  CAR 
 unknown system                          
     90      4     60
 
  0.0000000E+00  0.0000000E+00  0.0000000E+00  0.1111111E+00
      1         -6.750879       -6.750879   1.000000   1.000000
      2         -6.458778       -6.458778   1.000000   1.000000
      3         -6.165980       -6.165980   1.000000   1.000000
      4         -5.559400       -5.559400   1.000000   1.000000
      5         -4.693513       -4.693513   1.000000   1.000000
      6         -3.748244       -3.748244   1.000000   1.000000
      7         -2.943041       -2.943041   1.000000   1.000000
      8         -2.514211       -2.514211   1.000000   1.000000
      9         -2.442170       -2.442170   1.000000   1.000000
     10         -0.569621       -0.569621   1.000000   1.000000
     11         -0.544571       -0.544571   1.000000   1.000000
     12         -0.464968       -0.464968   1.000000   1.000000
     13         -0.457843       -0.457843   1.000000   1.000000
     14         -0.445159       -0.445159   1.000000   1.000000
     15         -0.444852       -0.444852   1.000000   1.000000
     16         -0.383859       -0.383859   1.000000   1.000000
     17         -0.375620       -0.375620   1.000000   1.000000
     18         -0.375049       -0.375049   1.000000   1.000000
     19         -0.357842       -0.357842   1.000000   1.000000
     20         -0.352046       -0.352046   1.000000   1.000000
     21         -0.309141       -0.309141   1.000000   1.000000
     22         -0.276387       -0.276387   1.000000   1.000000
     23         -0.275428       -0.275428   1.000000   1.000000
     24         -0.245258       -0.245258   1.000000   1.000000
     25         -0.243598       -0.243598   1.000000   1.000000
     26         -0.104904       -0.104904   1.000000   1.000000
     27          0.092034        0.092034   1.000000   1.000000
     28          0.095787        0.095787   1.000000   1.000000
     29          0.131093        0.131093   1.000000   1.000000
     30          0.216531        0.216531   1.000000   1.000000
     31          0.219678        0.219678   1.000000   1.000000
     32          0.390629        0.390629   1.000000   1.000000
     33          0.397537        0.397537   1.000000   1.000000
     34          0.415338        0.415338   1.000000   1.000000
     35          0.429544        0.429544   1.000000   1.000000
     36          0.518411        0.518411   1.000000   1.000000
     37          0.532523        0.532523   1.000000   1.000000
     38          0.641364        0.641364   1.000000   1.000000
     39          0.654472        0.654472   1.000000   1.000000
     40          0.759578        0.759578   1.000000   1.000000
     41          0.762018        0.762018   1.000000   1.000000
     42          0.844874        0.844874   1.000000   1.000000
     43          0.914673        0.914673   1.000000   1.000000
     44          0.935922        0.935922   1.000000   1.000000
     45          1.089046        1.089046   1.000000   1.000000
     46          1.127461        1.127461   1.000000   1.000000
     47          1.255555        1.255555   1.000000   1.000000
     48          1.258530        1.258530   1.000000   1.000000
     49          2.157782        2.157782   0.244726   0.244727
     50          2.450571        2.450571  -0.015099  -0.015099
     51          5.881938        5.881897  -0.000000  -0.000000
     52          6.606479        6.606406  -0.000000  -0.000000
     53          7.386097        7.385989  -0.000000  -0.000000
     54          8.361214        8.361165   0.000000   0.000000
     55          8.855090        8.855021   0.000000   0.000000
     56         10.650714       10.650671   0.000000   0.000000
     57         10.899848       10.899786   0.000000   0.000000
     58         13.359543       13.359506   0.000000   0.000000
     59         13.419163       13.419100   0.000000   0.000000
     60         16.250383       16.250344   0.000000   0.000000
 
  0.3333333E+00  0.5551115E-16  0.0000000E+00  0.4444444E+00
      1         -4.232925       -4.232925   1.000000   1.000000
      2         -3.632567       -3.632567   1.000000   1.000000
      3         -3.349405       -3.349405   1.000000   1.000000
      4         -2.942875       -2.942875   1.000000   1.000000
      5         -2.508615       -2.508615   1.000000   1.000000
      6         -2.121657       -2.121657   1.000000   1.000000
      7         -1.790335       -1.790335   1.000000   1.000000
      8         -1.606664       -1.606664   1.000000   1.000000
      9         -1.538287       -1.538287   1.000000   1.000000
     10         -1.432024       -1.432024   1.000000   1.000000
     11         -1.376253       -1.376253   1.000000   1.000000
     12         -1.160589       -1.160589   1.000000   1.000000
     13         -0.970308       -0.970308   1.000000   1.000000
     14         -0.818597       -0.818597   1.000000   1.000000
     15         -0.646561       -0.646561   1.000000   1.000000
     16         -0.632404       -0.632404   1.000000   1.000000
     17         -0.489629       -0.489629   1.000000   1.000000
     18         -0.424366       -0.424366   1.000000   1.000000
     19         -0.379203       -0.379203   1.000000   1.000000
     20         -0.295308       -0.295308   1.000000   1.000000
     21         -0.264505       -0.264505   1.000000   1.000000
     22         -0.199620       -0.199620   1.000000   1.000000
     23         -0.084800       -0.084800   1.000000   1.000000
     24         -0.034845       -0.034845   1.000000   1.000000
     25          0.095904        0.095904   1.000000   1.000000
     26          0.212030        0.212030   1.000000   1.000000
     27          0.313573        0.313573   1.000000   1.000000
     28          0.413618        0.413618   1.000000   1.000000
     29          0.458685        0.458685   1.000000   1.000000
     30          0.571886        0.571886   1.000000   1.000000
     31          0.574211        0.574211   1.000000   1.000000
     32          0.659534        0.659534   1.000000   1.000000
     33          0.679221        0.679221   1.000000   1.000000
     34          0.729195        0.729195   1.000000   1.000000
     35          0.757420        0.757420   1.000000   1.000000
     36          0.808223        0.808223   1.000000   1.000000
     37          0.829530        0.829530   1.000000   1.000000
     38          0.848794        0.848794   1.000000   1.000000
     39          0.939747        0.939747   1.000000   1.000000
     40          0.962248        0.962248   1.000000   1.000000
     41          1.076704        1.076704   1.000000   1.000000
     42          1.206477        1.206477   1.000000   1.000000
     43          1.212250        1.212250   1.000000   1.000000
     44          1.219072        1.219072   1.000000   1.000000
     45          1.386520        1.386520   1.000003   1.000003
     46          2.018887        2.018887   0.794340   0.794340
     47          3.130698        3.130698  -0.000000  -0.000000
     48          4.486937        4.486937  -0.000000  -0.000000
     49          5.982997        5.982997  -0.000000  -0.000000
     50          7.197456        7.197456  -0.000000  -0.000000
     51          8.403867        8.403860   0.000000   0.000000
     52          9.093753        9.093748   0.000000   0.000000
     53          9.512712        9.512708   0.000000   0.000000
     54          9.877875        9.877820   0.000000   0.000000
     55         10.208216       10.208134   0.000000   0.000000
     56         10.564182       10.564149   0.000000   0.000000
     57         10.975709       10.975680   0.000000   0.000000
     58         11.555871       11.555838   0.000000   0.000000
     59         11.794749       11.794720   0.000000   0.000000
     60         12.114042       12.113997   0.000000   0.000000
 
  0.0000000E+00  0.3333333E+00  0.0000000E+00  0.2222222E+00
      1         -4.188393       -4.188393   1.000000   1.000000
      2         -3.640909       -3.640909   1.000000   1.000000
      3         -3.353995       -3.353995   1.000000   1.000000
      4         -2.942489       -2.942489   1.000000   1.000000
      5         -2.506784       -2.506784   1.000000   1.000000
      6         -2.125214       -2.125214   1.000000   1.000000
      7         -1.801719       -1.801719   1.000000   1.000000
      8         -1.611703       -1.611703   1.000000   1.000000
      9         -1.546860       -1.546860   1.000000   1.000000
     10         -1.456339       -1.456339   1.000000   1.000000
     11         -1.378941       -1.378941   1.000000   1.000000
     12         -1.161659       -1.161659   1.000000   1.000000
     13         -0.972604       -0.972604   1.000000   1.000000
     14         -0.821919       -0.821919   1.000000   1.000000
     15         -0.651884       -0.651884   1.000000   1.000000
     16         -0.613877       -0.613877   1.000000   1.000000
     17         -0.500318       -0.500318   1.000000   1.000000
     18         -0.436760       -0.436760   1.000000   1.000000
     19         -0.365449       -0.365449   1.000000   1.000000
     20         -0.285331       -0.285331   1.000000   1.000000
     21         -0.269328       -0.269328   1.000000   1.000000
     22         -0.177810       -0.177810   1.000000   1.000000
     23         -0.065431       -0.065431   1.000000   1.000000
     24         -0.044896       -0.044896   1.000000   1.000000
     25          0.116402        0.116402   1.000000   1.000000
     26          0.211873        0.211873   1.000000   1.000000
     27          0.334831        0.334831   1.000000   1.000000
     28          0.417558        0.417558   1.000000   1.000000
     29          0.487424        0.487424   1.000000   1.000000
     30          0.571418        0.571418   1.000000   1.000000
     31          0.588652        0.588652   1.000000   1.000000
     32          0.664446        0.664446   1.000000   1.000000
     33          0.675284        0.675284   1.000000   1.000000
     34          0.734162        0.734162   1.000000   1.000000
     35          0.752391        0.752391   1.000000   1.000000
     36          0.808908        0.808908   1.000000   1.000000
     37          0.825863        0.825863   1.000000   1.000000
     38          0.842984        0.842984   1.000000   1.000000
     39          0.939243        0.939243   1.000000   1.000000
     40          0.964627        0.964627   1.000000   1.000000
     41          1.086551        1.086551   1.000000   1.000000
     42          1.209872        1.209872   1.000000   1.000000
     43          1.214677        1.214677   1.000000   1.000000
     44          1.222457        1.222457   1.000000   1.000000
     45          1.386693        1.386693   1.000003   1.000003
     46          2.018238        2.018238   0.796495   0.796495
     47          3.122007        3.122007  -0.000000  -0.000000
     48          4.473291        4.473291  -0.000000  -0.000000
     49          5.972639        5.972639  -0.000000  -0.000000
     50          7.175933        7.175933  -0.000000  -0.000000
     51          8.352383        8.352376   0.000000   0.000000
     52          9.034420        9.034418   0.000000   0.000000
     53          9.380541        9.380536   0.000000   0.000000
     54          9.762050        9.762019   0.000000   0.000000
     55         10.170763       10.170664   0.000000   0.000000
     56         10.473011       10.472962   0.000000   0.000000
     57         10.938143       10.938127   0.000000   0.000000
     58         11.638732       11.638699   0.000000   0.000000
     59         11.894877       11.894846   0.000000   0.000000
     60         12.013527       12.013481   0.000000   0.000000
 
 -0.3333333E+00  0.3333333E+00  0.0000000E+00  0.2222222E+00
      1         -2.726142       -2.726143   1.000000   1.000000
      2         -1.529095       -1.529095   1.000000   1.000000
      3         -1.520333       -1.520333   1.000000   1.000000
      4         -1.503415       -1.503415   1.000000   1.000000
      5         -1.452125       -1.452125   1.000000   1.000000
      6         -1.407156       -1.407156   1.000000   1.000000
      7         -1.394556       -1.394556   1.000000   1.000000
      8         -1.359578       -1.359578   1.000000   1.000000
      9         -1.355566       -1.355566   1.000000   1.000000
     10         -1.348928       -1.348928   1.000000   1.000000
     11         -1.334507       -1.334507   1.000000   1.000000
     12         -1.314889       -1.314889   1.000000   1.000000
     13         -1.206776       -1.206776   1.000000   1.000000
     14         -1.119036       -1.119036   1.000000   1.000000
     15         -1.053411       -1.053411   1.000000   1.000000
     16         -0.999995       -0.999995   1.000000   1.000000
     17         -0.693640       -0.693640   1.000000   1.000000
     18         -0.649993       -0.649993   1.000000   1.000000
     19         -0.637102       -0.637102   1.000000   1.000000
     20         -0.577695       -0.577695   1.000000   1.000000
     21         -0.427064       -0.427064   1.000000   1.000000
     22         -0.331091       -0.331091   1.000000   1.000000
     23          0.034919        0.034919   1.000000   1.000000
     24          0.077229        0.077229   1.000000   1.000000
     25          0.248873        0.248873   1.000000   1.000000
     26          0.263835        0.263835   1.000000   1.000000
     27          0.345352        0.345352   1.000000   1.000000
     28          0.351085        0.351085   1.000000   1.000000
     29          0.378037        0.378037   1.000000   1.000000
     30          0.389676        0.389676   1.000000   1.000000
     31          0.396012        0.396012   1.000000   1.000000
     32          0.647043        0.647043   1.000000   1.000000
     33          0.743963        0.743963   1.000000   1.000000
     34          0.870014        0.870014   1.000000   1.000000
     35          0.876573        0.876573   1.000000   1.000000
     36          0.897715        0.897715   1.000000   1.000000
     37          0.969646        0.969646   1.000000   1.000000
     38          1.017902        1.017902   1.000000   1.000000
     39          1.018652        1.018652   1.000000   1.000000
     40          1.086653        1.086653   1.000000   1.000000
     41          1.157520        1.157520   1.000000   1.000000
     42          5.794966        5.794966  -0.000000  -0.000000
     43          5.800802        5.800802  -0.000000  -0.000000
     44          5.822484        5.822484  -0.000000  -0.000000
     45          5.968368        5.968368  -0.000000  -0.000000
     46          5.988907        5.988907  -0.000000  -0.000000
     47          6.211253        6.211253  -0.000000  -0.000000
     48          6.367508        6.367508  -0.000000  -0.000000
     49          6.892436        6.892436  -0.000000  -0.000000
     50          7.117964        7.117964  -0.000000  -0.000000
     51          7.648495        7.648495   0.000000   0.000000
     52          7.741546        7.741546   0.000000   0.000000
     53          7.820578        7.820578   0.000000   0.000000
     54          8.213549        8.213549   0.000000   0.000000
     55          8.298420        8.298420   0.000000   0.000000
     56          8.544631        8.544631   0.000000   0.000000
     57          9.211827        9.211827   0.000000   0.000000
     58          9.664667        9.664667   0.000000   0.000000
     59         10.493587       10.493587   0.000000   0.000000
     60         10.738244       10.738244   0.000000   0.000000
