 vasp.6.3.2 27Jun22 (build Aug 17 2022 15:43:34) complex                        
  
 executed on           tv2STDVTST date 2025.02.04  14:27:01
 running   20 mpi-ranks, with    1 threads/rank
 distrk:  each k-point on   20 cores,    1 groups
 distr:  one band on NCORE=   5 cores,    4 groups


--------------------------------------------------------------------------------------------------------


 -----------------------------------------------------------------------------
|                                                                             |
|           W    W    AA    RRRRR   N    N  II  N    N   GGGG   !!!           |
|           W    W   A  A   R    R  NN   N  II  NN   N  G    G  !!!           |
|           W    W  A    A  R    R  N N  N  II  N N  N  G       !!!           |
|           W WW W  AAAAAA  RRRRR   N  N N  II  N  N N  G  GGG   !            |
|           WW  WW  A    A  R   R   N   NN  II  N   NN  G    G                |
|           W    W  A    A  R    R  N    N  II  N    N   GGGG   !!!           |
|                                                                             |
|     Found issues when parsing the INCAR file                                |
|     In line 61: Tagname --- R W I G S contains invalid characters.          |
|     Please check if the interpretation in the OUTCAR file is correct.       |
|                                                                             |
 -----------------------------------------------------------------------------

 INCAR:
    = \=\=\=\=\=\=\=\=\=\=\=\=\=\=\=\=\=\=\=\=\=\=\=\=\=\=\=\=\=\=\=\=\=\=\=\=\=\=\=\=\=\=\=\=\=\=\=\=\=\=\=\=\=\=\=\=\=\=\=\=\=\=\=\=\=\=\=\=\=\=\=\=
    = \=\=\=\=\=\=\=\=\=\=\=\=\=\=\=\=\=\=\=\=\=\=\=\=\=\=\=\=\=\=\=\=\=\=\=\=\=\=\=\=\=\=\=\=\=\=\=\=\=\=\=\=\=\=\=\=\=\=\=\=\=\=\=\=\=\=\=\=\=\=\=\=
   ISTART = 0
   ICHARG = 2
   IPIPOL = 3
   IVDW = 11
    = \=\=\=\=\=\=\=\=\=\=\=\=\=\=\=\=\=\=\=\=\=\=\=\=\=\=\=\=\=\=\=\=\=\=\=\=\=\=\=\=\=\=\=\=\=\=\=\=\=\=\=\=\=\=\=\=\=\=\=\=\=\=\=\=\=\=\=\=\=\=\=\=
    = \=\=\=\=\=\=\=\=\=\=\=\=\=\=\=\=\=\=\=\=\=\=\=\=\=\=\=\=\=\=\=\=\=\=\=\=\=\=\=\=\=\=\=\=\=\=\=\=\=\=\=\=\=\=\=\=\=\=\=\=\=\=\=\=\=\=\=\=\=\=\=\=
   ISPIN = 2
    = \=\=\=\=\=\=\=\=\=\=\=\=\=\=\=\=\=\=\=\=\=\=\=\=\=\=\=\=\=\=\=\=\=\=\=\=\=\=\=\=\=\=\=\=\=\=\=\=\=\=\=\=\=\=\=\=\=\=\=\=\=\=\=\=\=\=\=\=\=\=\=\=
    = \=\=\=\=\=\=\=\=\=\=\=\=\=\=\=\=\=\=\=\=\=\=\=\=\=\=\=\=\=\=\=\=\=\=\=\=\=\=\=\=\=\=\=\=\=\=\=\=\=\=\=\=\=\=\=\=\=\=\=\=\=\=\=\=\=\=\=\=\=\=\=\=
   ENCUT = 400
   PREC = Normal
   EDIFF = 2E-04
   GGA = PE
   ISMEAR = 1
   SIGMA = 0.2
   LREAL = .FALSE.
    = \=\=\=\=\=\=\=\=\=\=\=\=\=\=\=\=\=\=\=\=\=\=\=\=\=\=\=\=\=\=\=\=\=\=\=\=\=\=\=\=\=\=\=\=\=\=\=\=\=\=\=\=\=\=\=\=\=\=\=\=\=\=\=\=\=\=\=\=\=\=\=\=
    = \=\=\=\=\=\=\=\=\=\=\=\=\=\=\=\=\=\=\=\=\=\=\=\=\=\=\=\=\=\=\=\=\=\=\=\=\=\=\=\=\=\=\=\=\=\=\=\=\=\=\=\=\=\=\=\=\=\=\=\=\=\=\=\=\=\=\=\=\=\=\=\=
   ISYM = 1
   NSW = 800
   IBRION = 2
   POTIM = 0.5
   ISIF = 2
   EDIFFG = -.03
    = \=\=\=\=\=\=\=\=\=\=\=\=\=\=\=\=\=\=\=\=\=\=\=\=\=\=\=\=\=\=\=\=\=\=\=\=\=\=\=\=\=\=\=\=\=\=\=\=\=\=\=\=\=\=\=\=\=\=\=\=\=\=\=\=\=\=\=\=\=\=\=\=
    = \=\=\=\=\=\=\=\=\=\=\=\=\=\=\=\=\=\=\=\=\=\=\=\=\=\=\=\=\=\=\=\=\=\=\=\=\=\=\=\=\=\=\=\=\=\=\=\=\=\=\=\=\=\=\=\=\=\=\=\=\=\=\=\=\=\=\=\=\=\=\=\=
   NPAR = 4
   LWAVE = .FALSE.
   LCHARG = .FALSE.

 POTCAR:    PAW_PBE Cu 22Jun2005                  
 POTCAR:    PAW_PBE H 15Jun2001                   
 -----------------------------------------------------------------------------
|                                                                             |
|           W    W    AA    RRRRR   N    N  II  N    N   GGGG   !!!           |
|           W    W   A  A   R    R  NN   N  II  NN   N  G    G  !!!           |
|           W    W  A    A  R    R  N N  N  II  N N  N  G       !!!           |
|           W WW W  AAAAAA  RRRRR   N  N N  II  N  N N  G  GGG   !            |
|           WW  WW  A    A  R   R   N   NN  II  N   NN  G    G                |
|           W    W  A    A  R    R  N    N  II  N    N   GGGG   !!!           |
|                                                                             |
|     You use a magnetic or noncollinear calculation, but did not specify     |
|     the initial magnetic moment with the MAGMOM tag. Note that a            |
|     default of 1 will be used for all atoms. This ferromagnetic setup       |
|     may break the symmetry of the crystal, in particular it may rule        |
|     out finding an antiferromagnetic solution. Thence, we recommend         |
|     setting the initial magnetic moment manually or verifying carefully     |
|     that this magnetic setup is desired.                                    |
|                                                                             |
 -----------------------------------------------------------------------------

 POTCAR:    PAW_PBE Cu 22Jun2005                  
   SHA256 =  0e71e558f37a4e8407882b4609ceaae59938afaad9ced71dfe8490308a0ab630 Cu/POTCAR             
   COPYR  = (c) Copyright 22Jun2005 Georg Kresse                                                    
   COPYR  = This file is part of the software VASP. Any use, copying, and all other rights are regul
   COPYR  = If you do not have a valid VASP license, you may not use, copy or distribute this file. 
   VRHFIN =Cu: d10 p1                                                                               
   LEXCH  = PE                                                                                      
   EATOM  =  1390.9808 eV,  102.2342 Ry                                                             
                                                                                                    
   TITEL  = PAW_PBE Cu 22Jun2005                                                                    
   LULTRA =        F    use ultrasoft PP ?                                                          
   IUNSCR =        1    unscreen: 0-lin 1-nonlin 2-no                                               
   RPACOR =    2.000    partial core radius                                                         
   POMASS =   63.546; ZVAL   =   11.000    mass and valenz                                          
   RCORE  =    2.300    outmost cutoff radius                                                       
   RWIGS  =    2.200; RWIGS  =    1.164    wigner-seitz radius (au A)                               
   ENMAX  =  295.446; ENMIN  =  221.585 eV                                                          
   ICORE  =        3    local potential                                                             
   LCOR   =        T    correct aug charges                                                         
   LPAW   =        T    paw PP                                                                      
   EAUG   =  586.980                                                                                
   DEXC   =    0.000                                                                                
   RMAX   =    2.344    core radius for proj-oper                                                   
   RAUG   =    1.300    factor for augmentation sphere                                              
   RDEP   =    2.302    radius for radial grids                                                     
   RDEPT  =    1.771    core radius for aug-charge                                                  
                                                                                                    
   Atomic configuration                                                                             
    9 entries                                                                                       
     n  l   j            E        occ.                                                              
     1  0  0.50     -8850.2468   2.0000                                                             
     2  0  0.50     -1062.3498   2.0000                                                             
     2  1  1.50      -916.8226   6.0000                                                             
     3  0  0.50      -114.6929   2.0000                                                             
     3  1  1.50       -72.1325   6.0000                                                             
     3  2  2.50        -5.0394  10.0000                                                             
     4  0  0.50        -4.6097   1.0000                                                             
     4  1  0.50        -4.0817   0.0000                                                             
     4  3  2.50        -1.3606   0.0000                                                             
   Description                                                                                      
     l       E           TYP  RCUT    TYP  RCUT                                                     
     2     -5.0393973     23  2.200                                                                 
     2     10.8846608     23  2.200                                                                 
     0     -4.6097109     23  2.200                                                                 
     0      8.2520465     23  2.200                                                                 
     1     -2.7211652     23  2.200                                                                 
     1     21.7055443     23  2.200                                                                 
     3      2.7211652     23  2.300                                                                 
  local pseudopotential read in
  partial core-charges read in
  partial kinetic energy density read in
  atomic valenz-charges read in
  non local Contribution for L=           2  read in
    real space projection operators read in
  non local Contribution for L=           2  read in
    real space projection operators read in
  non local Contribution for L=           0  read in
    real space projection operators read in
  non local Contribution for L=           0  read in
    real space projection operators read in
  non local Contribution for L=           1  read in
    real space projection operators read in
  non local Contribution for L=           1  read in
    real space projection operators read in
    PAW grid and wavefunctions read in
 
   number of l-projection  operators is LMAX  =           6
   number of lm-projection operators is LMMAX =          18
 
 POTCAR:    PAW_PBE H 15Jun2001                   
   SHA256 =  030f79b5d3ab3cf0e668861823c8fb652ff669f3e15e46930bd03bfd63a607b6 H/POTCAR              
   COPYR  = (c) Copyright 15Jun2001 Georg Kresse                                                    
   COPYR  = This file is part of the software VASP. Any use, copying, and all other rights are regul
   COPYR  = If you do not have a valid VASP license, you may not use, copy or distribute this file. 
   VRHFIN =H: ultrasoft test                                                                        
   LEXCH  = PE                                                                                      
   EATOM  =    12.4884 eV,    0.9179 Ry                                                             
                                                                                                    
   TITEL  = PAW_PBE H 15Jun2001                                                                     
   LULTRA =        F    use ultrasoft PP ?                                                          
   IUNSCR =        0    unscreen: 0-lin 1-nonlin 2-no                                               
   RPACOR =    0.000    partial core radius                                                         
   POMASS =    1.000; ZVAL   =    1.000    mass and valenz                                          
   RCORE  =    1.100    outmost cutoff radius                                                       
   RWIGS  =    0.700; RWIGS  =    0.370    wigner-seitz radius (au A)                               
   ENMAX  =  250.000; ENMIN  =  200.000 eV                                                          
   RCLOC  =    0.701    cutoff for local pot                                                        
   LCOR   =        T    correct aug charges                                                         
   LPAW   =        T    paw PP                                                                      
   EAUG   =  400.000                                                                                
   RMAX   =    1.123    core radius for proj-oper                                                   
   RAUG   =    1.200    factor for augmentation sphere                                              
   RDEP   =    1.112    radius for radial grids                                                     
   RDEPT  =    0.926    core radius for aug-charge                                                  
                                                                                                    
   Atomic configuration                                                                             
    2 entries                                                                                       
     n  l   j            E        occ.                                                              
     1  0  0.50        -6.4927   1.0000                                                             
     2  1  0.50        -3.4015   0.0000                                                             
   Description                                                                                      
     l       E           TYP  RCUT    TYP  RCUT                                                     
     0     -6.4927494     23  1.100                                                                 
     0      6.8029130     23  1.100                                                                 
     1     -4.0817478     23  1.100                                                                 
  local pseudopotential read in
  atomic valenz-charges read in
  non local Contribution for L=           0  read in
    real space projection operators read in
  non local Contribution for L=           0  read in
    real space projection operators read in
  non local Contribution for L=           1  read in
    real space projection operators read in
    PAW grid and wavefunctions read in
 
   number of l-projection  operators is LMAX  =           3
   number of lm-projection operators is LMMAX =           5
 
  PAW_PBE Cu 22Jun2005                  :
 energy of atom  1       EATOM=-1390.9808
 kinetic energy error for atom=    0.0232 (will be added to EATOM!!)
  PAW_PBE H 15Jun2001                   :
 energy of atom  2       EATOM=  -12.4884
 kinetic energy error for atom=    0.0098 (will be added to EATOM!!)
 
 
 POSCAR: FCC Cu
  positions in cartesian coordinates
  No initial velocities read in
 exchange correlation table for  LEXCH =        8
   RHO(1)=    0.500       N(1)  =     2000
   RHO(2)=  100.500       N(2)  =     4000

 VTST: version 4.2, (08/11/21)

 CHAIN: initializing optimizer
 
 OPT: Using VASP Conjugate-Gradient optimizer
 CHAIN: Read ICHAIN            0
 
 POSCAR: FCC Cu
  positions in cartesian coordinates
  No initial velocities read in
 


--------------------------------------------------------------------------------------------------------


 ion  position               nearest neighbor table
   1  0.000  0.000  0.000-   2 2.57   2 2.57   2 2.57
   2  0.333  0.333  0.071-   3 2.51   3 2.51   3 2.51   1 2.57   1 2.57   1 2.57
   3  0.667  0.667  0.139-   2 2.51   2 2.51   2 2.51   4 2.53   4 2.53   4 2.53
   4  0.000  0.000  0.208-   5 2.51   5 2.51   5 2.51   3 2.53   3 2.53   3 2.53
   5  0.333  0.333  0.277-   4 2.51   4 2.51   4 2.51   6 2.53   6 2.53   6 2.53
   6  0.667  0.667  0.346-   7 2.51   7 2.51   7 2.51   5 2.53   5 2.53   5 2.53
   7  0.000  0.000  0.414-   8 2.49   8 2.49   8 2.49   6 2.51   6 2.51   6 2.51
   8  0.333  0.333  0.481-  10 1.73   7 2.49   7 2.49   7 2.49
   9  0.667  0.667  0.534-  10 0.75
  10  0.499  0.002  0.534-   9 0.75   8 1.73
 
  LATTYP: Found a hexagonal cell.
 ALAT       =     2.5667977333
 C/A-ratio  =    11.5593335643
  
  Lattice vectors:
  
 A1 = (  -1.2833988667,  -2.2229120434,   0.0000000000)
 A2 = (   2.5667977333,   0.0000000000,   0.0000000000)
 A3 = (   0.0000000000,   0.0000000000,  29.6704711914)


Analysis of symmetry for initial positions (statically):
=====================================================================
 Subroutine PRICEL returns:
 Original cell was already a primitive cell.
 

 Routine SETGRP: Setting up the symmetry group for a 
 hexagonal supercell.


 Subroutine GETGRP returns: Found  2 space group operations
 (whereof  2 operations were pure point group operations)
 out of a pool of 24 trial point group operations.


The static configuration has the point symmetry C_1h.


Analysis of symmetry for dynamics (positions and initial velocities):
=====================================================================
 Subroutine PRICEL returns:
 Original cell was already a primitive cell.
 

 Routine SETGRP: Setting up the symmetry group for a 
 hexagonal supercell.


 Subroutine GETGRP returns: Found  2 space group operations
 (whereof  2 operations were pure point group operations)
 out of a pool of 24 trial point group operations.


The dynamic configuration has the point symmetry C_1h.


Analysis of structural, dynamic, and magnetic symmetry:
=====================================================================
 Subroutine PRICEL returns:
 Original cell was already a primitive cell.
 

 Routine SETGRP: Setting up the symmetry group for a 
 hexagonal supercell.


 Subroutine GETGRP returns: Found  2 space group operations
 (whereof  2 operations were pure point group operations)
 out of a pool of 24 trial point group operations.


The overall configuration has the point symmetry C_1h.


 Subroutine INISYM returns: Found  2 space group operations
 (whereof  2 operations are pure point group operations),
 and found     1 'primitive' translations


----------------------------------------------------------------------------------------

                                     Primitive cell                                     

  volume of cell :     169.2928

  direct lattice vectors                    reciprocal lattice vectors
     2.566797733  0.000000000  0.000000000     0.389590495 -0.224930177  0.000000000
     1.283398867  2.222912043  0.000000000     0.000000000  0.449860355  0.000000000
     0.000000000  0.000000000 29.670471191     0.000000000  0.000000000  0.033703543

  length of vectors
     2.566797733  2.566797733 29.670471191     0.449860355  0.449860355  0.033703543

  position of ions in fractional coordinates (direct lattice)
     0.000000000  0.000000000  0.000000000
     0.333333333  0.333333333  0.070635264
     0.666666667  0.666666667  0.139085938
     0.000000000  0.000000000  0.208165116
     0.333333333  0.333333333  0.276562395
     0.666666667  0.666666667  0.345560339
     0.000000000  0.000000000  0.414005934
     0.333333333  0.333333333  0.481392695
     0.666666667  0.666666666  0.534259303
     0.498868755  0.002262491  0.534259303

  ion indices of the primitive-cell ions
   primitive index   ion index
                 1           1
                 2           2
                 3           3
                 4           4
                 5           5
                 6           6
                 7           7
                 8           8
                 9           9
                10          10

----------------------------------------------------------------------------------------

 
 
 KPOINTS: Auto-mesh                               

Automatic generation of k-mesh.
 Grid dimensions read from file:
 generate k-points for:    3    3    1

 Generating k-lattice:

  Cartesian coordinates                     Fractional coordinates (reciprocal lattice)
     0.129863498 -0.074976726  0.000000000     0.333333333  0.000000000  0.000000000
     0.000000000  0.149953452  0.000000000     0.000000000  0.333333333  0.000000000
     0.000000000  0.000000000  0.033703543     0.000000000  0.000000000  1.000000000

  Length of vectors
     0.149953452  0.149953452  0.033703543

  Shift w.r.t. Gamma in fractional coordinates (k-lattice)
     0.000000000  0.000000000  0.000000000

 
 Subroutine IBZKPT returns following result:
 ===========================================
 
 Found      4 irreducible k-points:
 
 Following reciprocal coordinates:
            Coordinates               Weight
  0.000000  0.000000  0.000000      1.000000
  0.333333  0.000000  0.000000      4.000000
  0.000000  0.333333  0.000000      2.000000
 -0.333333  0.333333  0.000000      2.000000
 
 Following cartesian coordinates:
            Coordinates               Weight
  0.000000  0.000000  0.000000      1.000000
  0.129863 -0.074977  0.000000      4.000000
  0.000000  0.149953  0.000000      2.000000
 -0.129863  0.224930  0.000000      2.000000
 


--------------------------------------------------------------------------------------------------------




 Dimension of arrays:
   k-points           NKPTS =      4   k-points in BZ     NKDIM =      4   number of bands    NBANDS=     60
   number of dos      NEDOS =    301   number of ions     NIONS =     10
   non local maximal  LDIM  =      6   non local SUM 2l+1 LMDIM =     18
   total plane-waves  NPLWV =  29400
   max r-space proj   IRMAX =      1   max aug-charges    IRDMAX=   5229
   dimension x,y,z NGX =    14 NGY =   14 NGZ =  150
   dimension x,y,z NGXF=    28 NGYF=   28 NGZF=  300
   support grid    NGXF=    28 NGYF=   28 NGZF=  300
   ions per type =               8   2
   NGX,Y,Z   is equivalent  to a cutoff of   9.07,  9.07,  8.40 a.u.
   NGXF,Y,Z  is equivalent  to a cutoff of  18.13, 18.13, 16.81 a.u.

 SYSTEM =  unknown system                          
 POSCAR =  FCC Cu                                  

 Startparameter for this run:
   NWRITE =      2    write-flag & timer
   PREC   = normal    normal or accurate (medium, high low for compatibility)
   ISTART =      0    job   : 0-new  1-cont  2-samecut
   ICHARG =      2    charge: 1-file 2-atom 10-const
   ISPIN  =      2    spin polarized calculation?
   LNONCOLLINEAR =      F non collinear calculations
   LSORBIT =      F    spin-orbit coupling
   INIWAV =      1    electr: 0-lowe 1-rand  2-diag
   LASPH  =      F    aspherical Exc in radial PAW
 Electronic Relaxation 1
   ENCUT  =  400.0 eV  29.40 Ry    5.42 a.u.   4.19  4.19 48.39*2*pi/ulx,y,z
   ENINI  =  400.0     initial cutoff
   ENAUG  =  587.0 eV  augmentation charge cutoff
   NELM   =     60;   NELMIN=  2; NELMDL= -5     # of ELM steps 
   EDIFF  = 0.2E-03   stopping-criterion for ELM
   LREAL  =      F    real-space projection
   NLSPLINE    = F    spline interpolate recip. space projectors
   LCOMPAT=      F    compatible to vasp.4.4
   GGA_COMPAT  = T    GGA compatible to vasp.4.4-vasp.4.6
   LMAXPAW     = -100 max onsite density
   LMAXMIX     =    2 max onsite mixed and CHGCAR
   VOSKOWN=      0    Vosko Wilk Nusair interpolation
   ROPT   =    0.00000   0.00000
 Ionic relaxation
   EDIFFG = -.3E-01   stopping-criterion for IOM
   NSW    =    800    number of steps for IOM
   NBLOCK =      1;   KBLOCK =    800    inner block; outer block 
   IBRION =      2    ionic relax: 0-MD 1-quasi-New 2-CG
   NFREE  =      1    steps in history (QN), initial steepest desc. (CG)
   ISIF   =      2    stress and relaxation
   IWAVPR =     11    prediction:  0-non 1-charg 2-wave 3-comb
   ISYM   =      1    0-nonsym 1-usesym 2-fastsym
   LCORR  =      T    Harris-Foulkes like correction to forces

   POTIM  = 0.5000    time-step for ionic-motion
   TEIN   =    0.0    initial temperature
   TEBEG  =    0.0;   TEEND  =   0.0 temperature during run
   SMASS  =  -3.00    Nose mass-parameter (am)
   estimated Nose-frequenzy (Omega)   =  0.10E-29 period in steps = 0.13E+47 mass=  -0.151E-27a.u.
   SCALEE = 1.0000    scale energy and forces
   NPACO  =    256;   APACO  = 10.0  distance and # of slots for P.C.
   PSTRESS=    0.0 pullay stress

  Mass of Ions in am
   POMASS =  63.55  1.00
  Ionic Valenz
   ZVAL   =  11.00  1.00
  Atomic Wigner-Seitz radii
   RWIGS  =  -1.00 -1.00
  virtual crystal weights 
   VCA    =   1.00  1.00
   NELECT =      90.0000    total number of electrons
   NUPDOWN=      -1.0000    fix difference up-down

 DOS related values:
   EMIN   =  10.00;   EMAX   =-10.00  energy-range for DOS
   EFERMI =   0.00
   ISMEAR =     1;   SIGMA  =   0.20  broadening in eV -4-tet -1-fermi 0-gaus

 Electronic relaxation 2 (details)
   IALGO  =     38    algorithm
   LDIAG  =      T    sub-space diagonalisation (order eigenvalues)
   LSUBROT=      F    optimize rotation matrix (better conditioning)
   TURBO    =      0    0=normal 1=particle mesh
   IRESTART =      0    0=no restart 2=restart with 2 vectors
   NREBOOT  =      0    no. of reboots
   NMIN     =      0    reboot dimension
   EREF     =   0.00    reference energy to select bands
   IMIX   =      4    mixing-type and parameters
     AMIX     =   0.40;   BMIX     =  1.00
     AMIX_MAG =   1.60;   BMIX_MAG =  1.00
     AMIN     =   0.10
     WC   =   100.;   INIMIX=   1;  MIXPRE=   1;  MAXMIX= -45

 Intra band minimization:
   WEIMIN = 0.0010     energy-eigenvalue tresh-hold
   EBREAK =  0.83E-06  absolut break condition
   DEPER  =   0.30     relativ break condition  

   TIME   =   0.40     timestep for ELM

  volume/ion in A,a.u.               =      16.93       114.24
  Fermi-wavevector in a.u.,A,eV,Ry     =   1.326202  2.506158 23.930072  1.758811
  Thomas-Fermi vector in A             =   2.455606
 
 Write flags
   LWAVE        =      F    write WAVECAR
   LDOWNSAMPLE  =      F    k-point downsampling of WAVECAR
   LCHARG       =      F    write CHGCAR
   LVTOT        =      F    write LOCPOT, total local potential
   LVHAR        =      F    write LOCPOT, Hartree potential only
   LELF         =      F    write electronic localiz. function (ELF)
   LORBIT       =      0    0 simple, 1 ext, 2 COOP (PROOUT), +10 PAW based schemes


 Dipole corrections
   LMONO  =      F    monopole corrections only (constant potential shift)
   LDIPOL =      F    correct potential (dipole corrections)
   IDIPOL =      0    1-x, 2-y, 3-z, 4-all directions 
   EPSILON=  1.0000000 bulk dielectric constant

 Exchange correlation treatment:
   GGA     =    PE    GGA type
   LEXCH   =     8    internal setting for exchange type
   LIBXC   =     F    Libxc                    
   VOSKOWN =     0    Vosko Wilk Nusair interpolation
   LHFCALC =     F    Hartree Fock is set to
   LHFONE  =     F    Hartree Fock one center treatment
   AEXX    =    0.0000 exact exchange contribution

 Linear response parameters
   LEPSILON=     F    determine dielectric tensor
   LRPA    =     F    only Hartree local field effects (RPA)
   LNABLA  =     F    use nabla operator in PAW spheres
   LVEL    =     F    velocity operator in full k-point grid
   CSHIFT  =0.1000    complex shift for real part using Kramers Kronig
   OMEGAMAX=  -1.0    maximum frequency
   DEG_THRESHOLD= 0.2000000E-02 threshold for treating states as degnerate
   RTIME   =   -0.100 relaxation time in fs
  (WPLASMAI=    0.000 imaginary part of plasma frequency in eV, 0.658/RTIME)
   DFIELD  = 0.0000000 0.0000000 0.0000000 field for delta impulse in time
 
  Optional k-point grid parameters
   LKPOINTS_OPT  =     F    use optional k-point grid
   KPOINTS_OPT_MODE=     1    mode for optional k-point grid
 
 Orbital magnetization related:
   ORBITALMAG=     F  switch on orbital magnetization
   LCHIMAG   =     F  perturbation theory with respect to B field
   DQ        =  0.001000  dq finite difference perturbation B field
   LLRAUG    =     F  two centre corrections for induced B field



--------------------------------------------------------------------------------------------------------


 conjugate gradient relaxation of ions
 charge density and potential will be updated during run
 spin polarized calculation
 Variant of blocked Davidson
 Davidson routine will perform the subspace rotation
 perform sub-space diagonalisation
    after iterative eigenvector-optimisation
 modified Broyden-mixing scheme, WC =      100.0
 initial mixing is a Kerker type mixing with AMIX =  0.4000 and BMIX =      1.0000
 Hartree-type preconditioning will be used
 using additional bands           15
 reciprocal scheme for non local part
 use partial core corrections
 calculate Harris-corrections to forces 
   (improved forces if not selfconsistent)
 use gradient corrections 
 use of overlap-Matrix (Vanderbilt PP)
 Methfessel and Paxton  Order N= 1 SIGMA  =   0.20


--------------------------------------------------------------------------------------------------------


  energy-cutoff  :      400.00
  volume of cell :      169.29
      direct lattice vectors                 reciprocal lattice vectors
     2.566797733  0.000000000  0.000000000     0.389590495 -0.224930177  0.000000000
     1.283398867  2.222912043  0.000000000     0.000000000  0.449860355  0.000000000
     0.000000000  0.000000000 29.670471191     0.000000000  0.000000000  0.033703543

  length of vectors
     2.566797733  2.566797733 29.670471191     0.449860355  0.449860355  0.033703543


 
 k-points in units of 2pi/SCALE and weight: Auto-mesh                               
   0.00000000  0.00000000  0.00000000       0.111
   0.12986350 -0.07497673  0.00000000       0.444
   0.00000000  0.14995345  0.00000000       0.222
  -0.12986350  0.22493018  0.00000000       0.222
 
 k-points in reciprocal lattice and weights: Auto-mesh                               
   0.00000000  0.00000000  0.00000000       0.111
   0.33333333  0.00000000  0.00000000       0.444
   0.00000000  0.33333333  0.00000000       0.222
  -0.33333333  0.33333333  0.00000000       0.222
 
 position of ions in fractional coordinates (direct lattice) 
   0.00000000  0.00000000  0.00000000
   0.33333333  0.33333333  0.07063526
   0.66666667  0.66666667  0.13908594
   0.00000000  0.00000000  0.20816512
   0.33333333  0.33333333  0.27656240
   0.66666667  0.66666667  0.34556034
   0.00000000  0.00000000  0.41400593
   0.33333333  0.33333333  0.48139269
   0.66666667  0.66666667  0.53425930
   0.49886875  0.00226249  0.53425930
 
 position of ions in cartesian coordinates  (Angst):
   0.00000000  0.00000000  0.00000000
   1.28339887  0.74097068  2.09578157
   2.56679773  1.48194136  4.12674532
   0.00000000  0.00000000  6.17635708
   1.28339887  0.74097068  8.20573658
   2.56679773  1.48194136 10.25293808
   0.00000000  0.00000000 12.28375114
   1.28339887  0.74097068 14.28314809
   2.56679773  1.48194136 15.85172525
   1.28339887  0.00502932 15.85172525
 


--------------------------------------------------------------------------------------------------------


 k-point   1 :   0.0000 0.0000 0.0000  plane waves:    3091
 k-point   2 :   0.3333 0.0000 0.0000  plane waves:    3081
 k-point   3 :   0.0000 0.3333 0.0000  plane waves:    3081
 k-point   4 :  -0.3333 0.3333 0.0000  plane waves:    3096

 maximum and minimum number of plane-waves per node :       634      594

 maximum number of plane-waves:      3096
 maximum index in each direction: 
   IXMAX=    4   IYMAX=    4   IZMAX=   48
   IXMIN=   -4   IYMIN=   -4   IZMIN=  -48


 parallel 3D FFT for wavefunctions:
    minimum data exchange during FFTs selected (reduces bandwidth)
 parallel 3D FFT for charge:
    minimum data exchange during FFTs selected (reduces bandwidth)


 total amount of memory used by VASP MPI-rank0    34706. kBytes
=======================================================================

   base      :      30000. kBytes
   nonl-proj :        813. kBytes
   fftplans  :        716. kBytes
   grid      :       1856. kBytes
   one-center:         62. kBytes
   wavefun   :       1259. kBytes
 
     INWAV:  cpu time      0.0000: real time      0.0005
 Broyden mixing: mesh for mixing (old mesh)
   NGX =  9   NGY =  9   NGZ = 97
  (NGX  = 28   NGY  = 28   NGZ  =300)
  gives a total of   7857 points

 initial charge density was supplied:
 charge density of overlapping atoms calculated
 number of electron      90.0000000 magnetization      10.0000000
 keeping initial charge density in first step


--------------------------------------------------------------------------------------------------------


 Maximum index for augmentation-charges          479 (set IRDMAX)


--------------------------------------------------------------------------------------------------------


 First call to EWALD:  gamma=   0.320
 Maximum number of real-space cells 6x 6x 1
 Maximum number of reciprocal cells 2x 2x13

    FEWALD:  cpu time      0.0019: real time      0.0019


--------------------------------------- Iteration      1(   1)  ---------------------------------------


    POTLOK:  cpu time      0.0224: real time      0.0227
    SETDIJ:  cpu time      0.0068: real time      0.0069
     EDDAV:  cpu time      0.2881: real time      0.2905
       DOS:  cpu time      0.0016: real time      0.0016
    --------------------------------------------
      LOOP:  cpu time      0.3190: real time      0.3217

 eigenvalue-minimisations  :   960
 total energy-change (2. order) : 0.7994677E+03  (-0.3351989E+04)
 number of electron      90.0000000 magnetization      10.0000000
 augmentation part       90.0000000 magnetization      10.0000000

 Free energy of the ion-electron system (eV)
  ---------------------------------------------------
  alpha Z        PSCENC =       285.34744303
  Ewald energy   TEWEN  =     52652.29191795
  -Hartree energ DENC   =    -63702.09969573
  -exchange      EXHF   =         0.00000000
  -V(xc)+E(xc)   XCENC  =       372.89863864
  PAW double counting   =      9828.36862813   -10674.97285505
  entropy T*S    EENTRO =        -0.00174427
  eigenvalues    EBANDS =       885.01702649
  atomic energy  EATOM  =     11152.61838693
  Solvation  Ediel_sol  =         0.00000000
  ---------------------------------------------------
  free energy    TOTEN  =       799.46774611 eV

  energy without entropy =      799.46949039  energy(sigma->0) =      799.46832754


--------------------------------------------------------------------------------------------------------




--------------------------------------- Iteration      1(   2)  ---------------------------------------


     EDDAV:  cpu time      0.2736: real time      0.2767
       DOS:  cpu time      0.0008: real time      0.0008
    --------------------------------------------
      LOOP:  cpu time      0.2744: real time      0.2776

 eigenvalue-minimisations  :   960
 total energy-change (2. order) :-0.7249835E+03  (-0.6937468E+03)
 number of electron      90.0000000 magnetization      10.0000000
 augmentation part       90.0000000 magnetization      10.0000000

 Free energy of the ion-electron system (eV)
  ---------------------------------------------------
  alpha Z        PSCENC =       285.34744303
  Ewald energy   TEWEN  =     52652.29191795
  -Hartree energ DENC   =    -63702.09969573
  -exchange      EXHF   =         0.00000000
  -V(xc)+E(xc)   XCENC  =       372.89863864
  PAW double counting   =      9828.36862813   -10674.97285505
  entropy T*S    EENTRO =        -0.00538160
  eigenvalues    EBANDS =       160.03719281
  atomic energy  EATOM  =     11152.61838693
  Solvation  Ediel_sol  =         0.00000000
  ---------------------------------------------------
  free energy    TOTEN  =        74.48427511 eV

  energy without entropy =       74.48965671  energy(sigma->0) =       74.48606897


--------------------------------------------------------------------------------------------------------




--------------------------------------- Iteration      1(   3)  ---------------------------------------


     EDDAV:  cpu time      0.2785: real time      0.2807
       DOS:  cpu time      0.0008: real time      0.0008
    --------------------------------------------
      LOOP:  cpu time      0.2793: real time      0.2815

 eigenvalue-minimisations  :   992
 total energy-change (2. order) :-0.1071887E+03  (-0.1005977E+03)
 number of electron      90.0000000 magnetization      10.0000000
 augmentation part       90.0000000 magnetization      10.0000000

 Free energy of the ion-electron system (eV)
  ---------------------------------------------------
  alpha Z        PSCENC =       285.34744303
  Ewald energy   TEWEN  =     52652.29191795
  -Hartree energ DENC   =    -63702.09969573
  -exchange      EXHF   =         0.00000000
  -V(xc)+E(xc)   XCENC  =       372.89863864
  PAW double counting   =      9828.36862813   -10674.97285505
  entropy T*S    EENTRO =         0.00540235
  eigenvalues    EBANDS =        52.83767474
  atomic energy  EATOM  =     11152.61838693
  Solvation  Ediel_sol  =         0.00000000
  ---------------------------------------------------
  free energy    TOTEN  =       -32.70445901 eV

  energy without entropy =      -32.70986136  energy(sigma->0) =      -32.70625979


--------------------------------------------------------------------------------------------------------




--------------------------------------- Iteration      1(   4)  ---------------------------------------


     EDDAV:  cpu time      0.2976: real time      0.3001
       DOS:  cpu time      0.0008: real time      0.0008
    --------------------------------------------
      LOOP:  cpu time      0.2984: real time      0.3010

 eigenvalue-minimisations  :  1088
 total energy-change (2. order) :-0.4720879E+01  (-0.4676518E+01)
 number of electron      90.0000000 magnetization      10.0000000
 augmentation part       90.0000000 magnetization      10.0000000

 Free energy of the ion-electron system (eV)
  ---------------------------------------------------
  alpha Z        PSCENC =       285.34744303
  Ewald energy   TEWEN  =     52652.29191795
  -Hartree energ DENC   =    -63702.09969573
  -exchange      EXHF   =         0.00000000
  -V(xc)+E(xc)   XCENC  =       372.89863864
  PAW double counting   =      9828.36862813   -10674.97285505
  entropy T*S    EENTRO =         0.01412445
  eigenvalues    EBANDS =        48.10807340
  atomic energy  EATOM  =     11152.61838693
  Solvation  Ediel_sol  =         0.00000000
  ---------------------------------------------------
  free energy    TOTEN  =       -37.42533826 eV

  energy without entropy =      -37.43946270  energy(sigma->0) =      -37.43004641


--------------------------------------------------------------------------------------------------------




--------------------------------------- Iteration      1(   5)  ---------------------------------------


     EDDAV:  cpu time      0.3242: real time      0.3268
       DOS:  cpu time      0.0008: real time      0.0008
    CHARGE:  cpu time      0.0589: real time      0.0592
    MIXING:  cpu time      0.0012: real time      0.0013
    --------------------------------------------
      LOOP:  cpu time      0.3853: real time      0.3881

 eigenvalue-minimisations  :  1136
 total energy-change (2. order) :-0.1019046E+00  (-0.1018340E+00)
 number of electron      89.9999967 magnetization       9.4037502
 augmentation part       52.0855541 magnetization       9.0038936

 Broyden mixing:
  rms(total) = 0.27787E+01    rms(broyden)= 0.27786E+01
  rms(prec ) = 0.28527E+01
  weight for this iteration     100.00

 Free energy of the ion-electron system (eV)
  ---------------------------------------------------
  alpha Z        PSCENC =       285.34744303
  Ewald energy   TEWEN  =     52652.29191795
  -Hartree energ DENC   =    -63702.09969573
  -exchange      EXHF   =         0.00000000
  -V(xc)+E(xc)   XCENC  =       372.89863864
  PAW double counting   =      9828.36862813   -10674.97285505
  entropy T*S    EENTRO =         0.01465846
  eigenvalues    EBANDS =        48.00563474
  atomic energy  EATOM  =     11152.61838693
  Solvation  Ediel_sol  =         0.00000000
  ---------------------------------------------------
  free energy    TOTEN  =       -37.52724290 eV

  energy without entropy =      -37.54190136  energy(sigma->0) =      -37.53212905


--------------------------------------------------------------------------------------------------------




--------------------------------------- Iteration      1(   6)  ---------------------------------------


    POTLOK:  cpu time      0.0208: real time      0.0211
    SETDIJ:  cpu time      0.0068: real time      0.0071
     EDDAV:  cpu time      0.3529: real time      0.3555
       DOS:  cpu time      0.0013: real time      0.0013
    CHARGE:  cpu time      0.0561: real time      0.0564
    MIXING:  cpu time      0.0006: real time      0.0006
    --------------------------------------------
      LOOP:  cpu time      0.4386: real time      0.4421

 eigenvalue-minimisations  :  1332
 total energy-change (2. order) : 0.1060209E+00  (-0.1248518E+02)
 number of electron      89.9999988 magnetization       9.2642234
 augmentation part       55.8098014 magnetization       6.5566768

 Broyden mixing:
  rms(total) = 0.29076E+01    rms(broyden)= 0.29074E+01
  rms(prec ) = 0.44971E+01
  weight for this iteration     100.00

 eigenvalues of (default mixing * dielectric matrix)
  average eigenvalue GAMMA=   0.5782
  0.5782

 Free energy of the ion-electron system (eV)
  ---------------------------------------------------
  alpha Z        PSCENC =       285.34744303
  Ewald energy   TEWEN  =     52652.29191795
  -Hartree energ DENC   =    -63509.07664505
  -exchange      EXHF   =         0.00000000
  -V(xc)+E(xc)   XCENC  =       365.36671143
  PAW double counting   =     10013.02583517   -10816.91172937
  entropy T*S    EENTRO =        -0.01870403
  eigenvalues    EBANDS =      -180.06443810
  atomic energy  EATOM  =     11152.61838693
  Solvation  Ediel_sol  =         0.00000000
  ---------------------------------------------------
  free energy    TOTEN  =       -37.42122203 eV

  energy without entropy =      -37.40251801  energy(sigma->0) =      -37.41498736


--------------------------------------------------------------------------------------------------------




--------------------------------------- Iteration      1(   7)  ---------------------------------------


    POTLOK:  cpu time      0.0192: real time      0.0195
    SETDIJ:  cpu time      0.0059: real time      0.0059
     EDDAV:  cpu time      0.3829: real time      0.3860
       DOS:  cpu time      0.0009: real time      0.0009
    CHARGE:  cpu time      0.0546: real time      0.0548
    MIXING:  cpu time      0.0007: real time      0.0007
    --------------------------------------------
      LOOP:  cpu time      0.4641: real time      0.4677

 eigenvalue-minimisations  :  1472
 total energy-change (2. order) :-0.4559511E+02  (-0.4510571E+02)
 number of electron      89.9999979 magnetization       9.0992356
 augmentation part       52.0944187 magnetization       6.2735115

 Broyden mixing:
  rms(total) = 0.55567E+01    rms(broyden)= 0.55565E+01
  rms(prec ) = 0.10187E+02
  weight for this iteration     100.00

 eigenvalues of (default mixing * dielectric matrix)
  average eigenvalue GAMMA=   0.3907
  0.6905  0.0909

 Free energy of the ion-electron system (eV)
  ---------------------------------------------------
  alpha Z        PSCENC =       285.34744303
  Ewald energy   TEWEN  =     52652.29191795
  -Hartree energ DENC   =    -63567.40881225
  -exchange      EXHF   =         0.00000000
  -V(xc)+E(xc)   XCENC  =       365.08075787
  PAW double counting   =     10065.69476466   -10879.02350223
  entropy T*S    EENTRO =        -0.00257928
  eigenvalues    EBANDS =      -157.61471203
  atomic energy  EATOM  =     11152.61838693
  Solvation  Ediel_sol  =         0.00000000
  ---------------------------------------------------
  free energy    TOTEN  =       -83.01633536 eV

  energy without entropy =      -83.01375607  energy(sigma->0) =      -83.01547560


--------------------------------------------------------------------------------------------------------




--------------------------------------- Iteration      1(   8)  ---------------------------------------


    POTLOK:  cpu time      0.0191: real time      0.0194
    SETDIJ:  cpu time      0.0059: real time      0.0060
     EDDAV:  cpu time      0.4107: real time      0.4142
       DOS:  cpu time      0.0009: real time      0.0009
    CHARGE:  cpu time      0.0552: real time      0.0554
    MIXING:  cpu time      0.0006: real time      0.0006
    --------------------------------------------
      LOOP:  cpu time      0.4924: real time      0.4964

 eigenvalue-minimisations  :  1616
 total energy-change (2. order) : 0.4009132E+02  (-0.3075860E+02)
 number of electron      89.9999967 magnetization       8.8535321
 augmentation part       56.9384973 magnetization       6.9495973

 Broyden mixing:
  rms(total) = 0.22676E+01    rms(broyden)= 0.22672E+01
  rms(prec ) = 0.26461E+01
  weight for this iteration     100.00

 eigenvalues of (default mixing * dielectric matrix)
  average eigenvalue GAMMA=   0.3971
  0.8061  0.3015  0.0837

 Free energy of the ion-electron system (eV)
  ---------------------------------------------------
  alpha Z        PSCENC =       285.34744303
  Ewald energy   TEWEN  =     52652.29191795
  -Hartree energ DENC   =    -63528.61856726
  -exchange      EXHF   =         0.00000000
  -V(xc)+E(xc)   XCENC  =       364.48790529
  PAW double counting   =     10091.43371782   -10912.08463839
  entropy T*S    EENTRO =        -0.03907531
  eigenvalues    EBANDS =      -148.36210451
  atomic energy  EATOM  =     11152.61838693
  Solvation  Ediel_sol  =         0.00000000
  ---------------------------------------------------
  free energy    TOTEN  =       -42.92501445 eV

  energy without entropy =      -42.88593914  energy(sigma->0) =      -42.91198935


--------------------------------------------------------------------------------------------------------




--------------------------------------- Iteration      1(   9)  ---------------------------------------


    POTLOK:  cpu time      0.0195: real time      0.0208
    SETDIJ:  cpu time      0.0058: real time      0.0058
     EDDAV:  cpu time      0.3842: real time      0.3873
       DOS:  cpu time      0.0009: real time      0.0009
    CHARGE:  cpu time      0.0530: real time      0.0532
    MIXING:  cpu time      0.0007: real time      0.0007
    --------------------------------------------
      LOOP:  cpu time      0.4640: real time      0.4687

 eigenvalue-minimisations  :  1492
 total energy-change (2. order) : 0.8027788E+01  (-0.3985826E+01)
 number of electron      89.9999960 magnetization       8.7023544
 augmentation part       57.6962999 magnetization       7.6428737

 Broyden mixing:
  rms(total) = 0.15892E+01    rms(broyden)= 0.15891E+01
  rms(prec ) = 0.16732E+01
  weight for this iteration     100.00

 eigenvalues of (default mixing * dielectric matrix)
  average eigenvalue GAMMA=   0.3900
  0.8747  0.3000  0.3000  0.0854

 Free energy of the ion-electron system (eV)
  ---------------------------------------------------
  alpha Z        PSCENC =       285.34744303
  Ewald energy   TEWEN  =     52652.29191795
  -Hartree energ DENC   =    -63424.44765996
  -exchange      EXHF   =         0.00000000
  -V(xc)+E(xc)   XCENC  =       364.88852760
  PAW double counting   =     10190.11196129   -11028.18296651
  entropy T*S    EENTRO =        -0.00110572
  eigenvalues    EBANDS =      -227.52373090
  atomic energy  EATOM  =     11152.61838693
  Solvation  Ediel_sol  =         0.00000000
  ---------------------------------------------------
  free energy    TOTEN  =       -34.89722630 eV

  energy without entropy =      -34.89612058  energy(sigma->0) =      -34.89685772


--------------------------------------------------------------------------------------------------------




--------------------------------------- Iteration      1(  10)  ---------------------------------------


    POTLOK:  cpu time      0.0192: real time      0.0195
    SETDIJ:  cpu time      0.0058: real time      0.0058
     EDDAV:  cpu time      0.3858: real time      0.3890
       DOS:  cpu time      0.0008: real time      0.0008
    CHARGE:  cpu time      0.0541: real time      0.0555
    MIXING:  cpu time      0.0010: real time      0.0114
    --------------------------------------------
      LOOP:  cpu time      0.4667: real time      0.4820

 eigenvalue-minimisations  :  1444
 total energy-change (2. order) : 0.2542762E+01  (-0.6539963E+00)
 number of electron      89.9999965 magnetization       8.5908185
 augmentation part       57.2883506 magnetization       7.4554727

 Broyden mixing:
  rms(total) = 0.12726E+01    rms(broyden)= 0.12726E+01
  rms(prec ) = 0.13272E+01
  weight for this iteration     100.00

 eigenvalues of (default mixing * dielectric matrix)
  average eigenvalue GAMMA=   0.4281
  0.9028  0.4345  0.4345  0.0850  0.2836

 Free energy of the ion-electron system (eV)
  ---------------------------------------------------
  alpha Z        PSCENC =       285.34744303
  Ewald energy   TEWEN  =     52652.29191795
  -Hartree energ DENC   =    -63493.41417548
  -exchange      EXHF   =         0.00000000
  -V(xc)+E(xc)   XCENC  =       365.80406497
  PAW double counting   =     10252.05013682   -11097.93071748
  entropy T*S    EENTRO =        -0.00891703
  eigenvalues    EBANDS =      -149.11260394
  atomic energy  EATOM  =     11152.61838693
  Solvation  Ediel_sol  =         0.00000000
  ---------------------------------------------------
  free energy    TOTEN  =       -32.35446423 eV

  energy without entropy =      -32.34554720  energy(sigma->0) =      -32.35149189


--------------------------------------------------------------------------------------------------------




--------------------------------------- Iteration      1(  11)  ---------------------------------------


    POTLOK:  cpu time      0.0200: real time      0.0275
    SETDIJ:  cpu time      0.0060: real time      0.0061
     EDDAV:  cpu time      0.3276: real time      0.3304
       DOS:  cpu time      0.0008: real time      0.0008
    CHARGE:  cpu time      0.0525: real time      0.0527
    MIXING:  cpu time      0.0009: real time      0.0009
    --------------------------------------------
      LOOP:  cpu time      0.4079: real time      0.4185

 eigenvalue-minimisations  :  1240
 total energy-change (2. order) : 0.5287073E+00  (-0.1560699E+00)
 number of electron      89.9999966 magnetization       8.0509565
 augmentation part       57.0581082 magnetization       6.8612738

 Broyden mixing:
  rms(total) = 0.11588E+01    rms(broyden)= 0.11588E+01
  rms(prec ) = 0.12094E+01
  weight for this iteration     100.00

 eigenvalues of (default mixing * dielectric matrix)
  average eigenvalue GAMMA=   0.5475
  1.0939  0.7094  0.7094  0.0851  0.3435  0.3435

 Free energy of the ion-electron system (eV)
  ---------------------------------------------------
  alpha Z        PSCENC =       285.34744303
  Ewald energy   TEWEN  =     52652.29191795
  -Hartree energ DENC   =    -63506.83030961
  -exchange      EXHF   =         0.00000000
  -V(xc)+E(xc)   XCENC  =       366.16515988
  PAW double counting   =     10281.97942033   -11130.49317295
  entropy T*S    EENTRO =        -0.00939169
  eigenvalues    EBANDS =      -132.89521080
  atomic energy  EATOM  =     11152.61838693
  Solvation  Ediel_sol  =         0.00000000
  ---------------------------------------------------
  free energy    TOTEN  =       -31.82575694 eV

  energy without entropy =      -31.81636524  energy(sigma->0) =      -31.82262637


--------------------------------------------------------------------------------------------------------




--------------------------------------- Iteration      1(  12)  ---------------------------------------


    POTLOK:  cpu time      0.0193: real time      0.0202
    SETDIJ:  cpu time      0.0058: real time      0.0059
     EDDAV:  cpu time      0.3589: real time      0.3620
       DOS:  cpu time      0.0008: real time      0.0008
    CHARGE:  cpu time      0.0532: real time      0.0534
    MIXING:  cpu time      0.0010: real time      0.0010
    --------------------------------------------
      LOOP:  cpu time      0.4390: real time      0.4432

 eigenvalue-minimisations  :  1380
 total energy-change (2. order) : 0.1328760E+01  (-0.1166956E+00)
 number of electron      89.9999968 magnetization       7.1187497
 augmentation part       56.6716182 magnetization       5.8220188

 Broyden mixing:
  rms(total) = 0.91119E+00    rms(broyden)= 0.91118E+00
  rms(prec ) = 0.94993E+00
  weight for this iteration     100.00

 eigenvalues of (default mixing * dielectric matrix)
  average eigenvalue GAMMA=   0.5709
  1.1012  0.0851  0.6874  0.6874  0.5619  0.5619  0.3112

 Free energy of the ion-electron system (eV)
  ---------------------------------------------------
  alpha Z        PSCENC =       285.34744303
  Ewald energy   TEWEN  =     52652.29191795
  -Hartree energ DENC   =    -63556.02784653
  -exchange      EXHF   =         0.00000000
  -V(xc)+E(xc)   XCENC  =       366.83548894
  PAW double counting   =     10376.19672641   -11232.15642666
  entropy T*S    EENTRO =        -0.01041820
  eigenvalues    EBANDS =       -75.59226889
  atomic energy  EATOM  =     11152.61838693
  Solvation  Ediel_sol  =         0.00000000
  ---------------------------------------------------
  free energy    TOTEN  =       -30.49699702 eV

  energy without entropy =      -30.48657882  energy(sigma->0) =      -30.49352429


--------------------------------------------------------------------------------------------------------




--------------------------------------- Iteration      1(  13)  ---------------------------------------


    POTLOK:  cpu time      0.0190: real time      0.0193
    SETDIJ:  cpu time      0.0058: real time      0.0058
     EDDAV:  cpu time      0.3739: real time      0.3777
       DOS:  cpu time      0.0008: real time      0.0008
    CHARGE:  cpu time      0.0540: real time      0.0542
    MIXING:  cpu time      0.0010: real time      0.0010
    --------------------------------------------
      LOOP:  cpu time      0.4545: real time      0.4588

 eigenvalue-minimisations  :  1440
 total energy-change (2. order) : 0.1555014E+00  (-0.1717752E+00)
 number of electron      89.9999971 magnetization       5.1037852
 augmentation part       56.4234646 magnetization       3.7346557

 Broyden mixing:
  rms(total) = 0.62520E+00    rms(broyden)= 0.62518E+00
  rms(prec ) = 0.64484E+00
  weight for this iteration     100.00

 eigenvalues of (default mixing * dielectric matrix)
  average eigenvalue GAMMA=   0.7666
  1.6648  1.6648  0.7392  0.7392  0.0851  0.3231  0.4584  0.4584

 Free energy of the ion-electron system (eV)
  ---------------------------------------------------
  alpha Z        PSCENC =       285.34744303
  Ewald energy   TEWEN  =     52652.29191795
  -Hartree energ DENC   =    -63593.02924774
  -exchange      EXHF   =         0.00000000
  -V(xc)+E(xc)   XCENC  =       366.83421384
  PAW double counting   =     10492.52399911   -11353.67549975
  entropy T*S    EENTRO =        -0.01573247
  eigenvalues    EBANDS =       -33.23697654
  atomic energy  EATOM  =     11152.61838693
  Solvation  Ediel_sol  =         0.00000000
  ---------------------------------------------------
  free energy    TOTEN  =       -30.34149564 eV

  energy without entropy =      -30.32576317  energy(sigma->0) =      -30.33625148


--------------------------------------------------------------------------------------------------------




--------------------------------------- Iteration      1(  14)  ---------------------------------------


    POTLOK:  cpu time      0.0189: real time      0.0192
    SETDIJ:  cpu time      0.0060: real time      0.0060
     EDDAV:  cpu time      0.4302: real time      0.4338
       DOS:  cpu time      0.0009: real time      0.0009
    CHARGE:  cpu time      0.0537: real time      0.0539
    MIXING:  cpu time      0.0010: real time      0.0010
    --------------------------------------------
      LOOP:  cpu time      0.5106: real time      0.5147

 eigenvalue-minimisations  :  1704
 total energy-change (2. order) :-0.2158490E+01  (-0.5030359E+00)
 number of electron      89.9999982 magnetization       4.6729889
 augmentation part       55.7884782 magnetization       3.6513397

 Broyden mixing:
  rms(total) = 0.93599E+00    rms(broyden)= 0.93571E+00
  rms(prec ) = 0.10873E+01
  weight for this iteration     100.00

 eigenvalues of (default mixing * dielectric matrix)
  average eigenvalue GAMMA=   0.7022
  1.8994  1.4320  0.7556  0.7556  0.0851  0.4618  0.4618  0.3231  0.1457

 Free energy of the ion-electron system (eV)
  ---------------------------------------------------
  alpha Z        PSCENC =       285.34744303
  Ewald energy   TEWEN  =     52652.29191795
  -Hartree energ DENC   =    -63622.39413664
  -exchange      EXHF   =         0.00000000
  -V(xc)+E(xc)   XCENC  =       366.38954437
  PAW double counting   =     10667.50399059   -11533.57978905
  entropy T*S    EENTRO =        -0.02762774
  eigenvalues    EBANDS =        -0.64971493
  atomic energy  EATOM  =     11152.61838693
  Solvation  Ediel_sol  =         0.00000000
  ---------------------------------------------------
  free energy    TOTEN  =       -32.49998549 eV

  energy without entropy =      -32.47235775  energy(sigma->0) =      -32.49077624


--------------------------------------------------------------------------------------------------------




--------------------------------------- Iteration      1(  15)  ---------------------------------------


    POTLOK:  cpu time      0.0190: real time      0.0192
    SETDIJ:  cpu time      0.0058: real time      0.0058
     EDDAV:  cpu time      0.3748: real time      0.3776
       DOS:  cpu time      0.0009: real time      0.0009
    CHARGE:  cpu time      0.0553: real time      0.0558
    MIXING:  cpu time      0.0012: real time      0.0012
    --------------------------------------------
      LOOP:  cpu time      0.4569: real time      0.4605

 eigenvalue-minimisations  :  1456
 total energy-change (2. order) : 0.1112164E+01  (-0.3260270E+00)
 number of electron      89.9999971 magnetization       3.5253277
 augmentation part       56.1298661 magnetization       2.4163752

 Broyden mixing:
  rms(total) = 0.47498E+00    rms(broyden)= 0.47459E+00
  rms(prec ) = 0.50348E+00
  weight for this iteration     100.00

 eigenvalues of (default mixing * dielectric matrix)
  average eigenvalue GAMMA=   0.9376
  4.3319  1.1785  0.8412  0.7184  0.7184  0.0851  0.4742  0.4742  0.3202  0.2339

 Free energy of the ion-electron system (eV)
  ---------------------------------------------------
  alpha Z        PSCENC =       285.34744303
  Ewald energy   TEWEN  =     52652.29191795
  -Hartree energ DENC   =    -63627.19862638
  -exchange      EXHF   =         0.00000000
  -V(xc)+E(xc)   XCENC  =       367.14007540
  PAW double counting   =     10683.60181164   -11550.26938421
  entropy T*S    EENTRO =        -0.01169024
  eigenvalues    EBANDS =         5.09224396
  atomic energy  EATOM  =     11152.61838693
  Solvation  Ediel_sol  =         0.00000000
  ---------------------------------------------------
  free energy    TOTEN  =       -31.38782192 eV

  energy without entropy =      -31.37613168  energy(sigma->0) =      -31.38392518


--------------------------------------------------------------------------------------------------------




--------------------------------------- Iteration      1(  16)  ---------------------------------------


    POTLOK:  cpu time      0.0189: real time      0.0192
    SETDIJ:  cpu time      0.0058: real time      0.0058
     EDDAV:  cpu time      0.3916: real time      0.3949
       DOS:  cpu time      0.0009: real time      0.0009
    CHARGE:  cpu time      0.0564: real time      0.0567
    MIXING:  cpu time      0.0014: real time      0.0014
    --------------------------------------------
      LOOP:  cpu time      0.4749: real time      0.4788

 eigenvalue-minimisations  :  1476
 total energy-change (2. order) :-0.2032856E+01  (-0.6011295E-01)
 number of electron      89.9999970 magnetization       2.6068096
 augmentation part       56.3044408 magnetization       1.8133223

 Broyden mixing:
  rms(total) = 0.41046E+00    rms(broyden)= 0.41045E+00
  rms(prec ) = 0.45198E+00
  weight for this iteration     100.00

 eigenvalues of (default mixing * dielectric matrix)
  average eigenvalue GAMMA=   1.0885
  5.6924  1.5923  0.8254  0.8254  0.7309  0.7309  0.0851  0.4593  0.4593  0.3127
  0.2595

 Free energy of the ion-electron system (eV)
  ---------------------------------------------------
  alpha Z        PSCENC =       285.34744303
  Ewald energy   TEWEN  =     52652.29191795
  -Hartree energ DENC   =    -63626.97610443
  -exchange      EXHF   =         0.00000000
  -V(xc)+E(xc)   XCENC  =       365.27054999
  PAW double counting   =     10702.22598728   -11567.36825070
  entropy T*S    EENTRO =        -0.01623478
  eigenvalues    EBANDS =         3.18562676
  atomic energy  EATOM  =     11152.61838693
  Solvation  Ediel_sol  =         0.00000000
  ---------------------------------------------------
  free energy    TOTEN  =       -33.42067797 eV

  energy without entropy =      -33.40444319  energy(sigma->0) =      -33.41526638


--------------------------------------------------------------------------------------------------------




--------------------------------------- Iteration      1(  17)  ---------------------------------------


    POTLOK:  cpu time      0.0212: real time      0.0214
    SETDIJ:  cpu time      0.0062: real time      0.0062
     EDDAV:  cpu time      0.3581: real time      0.3609
       DOS:  cpu time      0.0008: real time      0.0008
    CHARGE:  cpu time      0.0555: real time      0.0558
    MIXING:  cpu time      0.0015: real time      0.0015
    --------------------------------------------
      LOOP:  cpu time      0.4433: real time      0.4467

 eigenvalue-minimisations  :  1372
 total energy-change (2. order) :-0.9316005E+00  (-0.1289866E+00)
 number of electron      89.9999970 magnetization       1.6843021
 augmentation part       56.3789545 magnetization       1.0513988

 Broyden mixing:
  rms(total) = 0.33751E+00    rms(broyden)= 0.33750E+00
  rms(prec ) = 0.35471E+00
  weight for this iteration     100.00

 eigenvalues of (default mixing * dielectric matrix)
  average eigenvalue GAMMA=   1.3427
  8.5600  1.8860  1.0416  1.0416  0.7027  0.7027  0.0851  0.6053  0.4604  0.4604
  0.3151  0.2519

 Free energy of the ion-electron system (eV)
  ---------------------------------------------------
  alpha Z        PSCENC =       285.34744303
  Ewald energy   TEWEN  =     52652.29191795
  -Hartree energ DENC   =    -63646.21786597
  -exchange      EXHF   =         0.00000000
  -V(xc)+E(xc)   XCENC  =       364.49722809
  PAW double counting   =     10650.66402500   -11512.51476354
  entropy T*S    EENTRO =        -0.01385199
  eigenvalues    EBANDS =        18.97520203
  atomic energy  EATOM  =     11152.61838693
  Solvation  Ediel_sol  =         0.00000000
  ---------------------------------------------------
  free energy    TOTEN  =       -34.35227847 eV

  energy without entropy =      -34.33842648  energy(sigma->0) =      -34.34766114


--------------------------------------------------------------------------------------------------------




--------------------------------------- Iteration      1(  18)  ---------------------------------------


    POTLOK:  cpu time      0.0189: real time      0.0191
    SETDIJ:  cpu time      0.0058: real time      0.0059
     EDDAV:  cpu time      0.3571: real time      0.3601
       DOS:  cpu time      0.0009: real time      0.0009
    CHARGE:  cpu time      0.0536: real time      0.0538
    MIXING:  cpu time      0.0013: real time      0.0013
    --------------------------------------------
      LOOP:  cpu time      0.4376: real time      0.4411

 eigenvalue-minimisations  :  1376
 total energy-change (2. order) :-0.6051727E+00  (-0.7516773E-01)
 number of electron      89.9999971 magnetization       1.4145018
 augmentation part       56.3156139 magnetization       0.8758290

 Broyden mixing:
  rms(total) = 0.17362E+00    rms(broyden)= 0.17361E+00
  rms(prec ) = 0.18827E+00
  weight for this iteration     100.00

 eigenvalues of (default mixing * dielectric matrix)
  average eigenvalue GAMMA=   1.4222
  9.8270  2.2240  1.1397  1.1397  0.7335  0.7335  0.0851  0.5611  0.5611  0.4585
  0.4585  0.3149  0.2520

 Free energy of the ion-electron system (eV)
  ---------------------------------------------------
  alpha Z        PSCENC =       285.34744303
  Ewald energy   TEWEN  =     52652.29191795
  -Hartree energ DENC   =    -63655.67621652
  -exchange      EXHF   =         0.00000000
  -V(xc)+E(xc)   XCENC  =       364.27100598
  PAW double counting   =     10611.73461027   -11472.78924440
  entropy T*S    EENTRO =        -0.00983558
  eigenvalues    EBANDS =        27.25448122
  atomic energy  EATOM  =     11152.61838693
  Solvation  Ediel_sol  =         0.00000000
  ---------------------------------------------------
  free energy    TOTEN  =       -34.95745112 eV

  energy without entropy =      -34.94761554  energy(sigma->0) =      -34.95417260


--------------------------------------------------------------------------------------------------------




--------------------------------------- Iteration      1(  19)  ---------------------------------------


    POTLOK:  cpu time      0.0188: real time      0.0193
    SETDIJ:  cpu time      0.0058: real time      0.0058
     EDDAV:  cpu time      0.3306: real time      0.3331
       DOS:  cpu time      0.0009: real time      0.0009
    CHARGE:  cpu time      0.0544: real time      0.0546
    MIXING:  cpu time      0.0015: real time      0.0015
    --------------------------------------------
      LOOP:  cpu time      0.4120: real time      0.4153

 eigenvalue-minimisations  :  1252
 total energy-change (2. order) :-0.4971209E+00  (-0.5194388E-01)
 number of electron      89.9999971 magnetization       1.1478141
 augmentation part       56.2048003 magnetization       0.7065627

 Broyden mixing:
  rms(total) = 0.11454E+00    rms(broyden)= 0.11452E+00
  rms(prec ) = 0.13711E+00
  weight for this iteration     100.00

 eigenvalues of (default mixing * dielectric matrix)
  average eigenvalue GAMMA=   1.4957
 10.9906  2.4129  1.1844  1.1844  0.0851  0.7671  0.7671  0.7748  0.7748  0.4633
  0.4633  0.5051  0.3149  0.2521

 Free energy of the ion-electron system (eV)
  ---------------------------------------------------
  alpha Z        PSCENC =       285.34744303
  Ewald energy   TEWEN  =     52652.29191795
  -Hartree energ DENC   =    -63652.25167120
  -exchange      EXHF   =         0.00000000
  -V(xc)+E(xc)   XCENC  =       364.12766553
  PAW double counting   =     10576.05811398   -11436.74754915
  entropy T*S    EENTRO =        -0.01211886
  eigenvalues    EBANDS =        23.11323982
  atomic energy  EATOM  =     11152.61838693
  Solvation  Ediel_sol  =         0.00000000
  ---------------------------------------------------
  free energy    TOTEN  =       -35.45457197 eV

  energy without entropy =      -35.44245311  energy(sigma->0) =      -35.45053235


--------------------------------------------------------------------------------------------------------




--------------------------------------- Iteration      1(  20)  ---------------------------------------


    POTLOK:  cpu time      0.0189: real time      0.0191
    SETDIJ:  cpu time      0.0058: real time      0.0058
     EDDAV:  cpu time      0.3449: real time      0.3477
       DOS:  cpu time      0.0009: real time      0.0009
    CHARGE:  cpu time      0.0522: real time      0.0525
    MIXING:  cpu time      0.0016: real time      0.0016
    --------------------------------------------
      LOOP:  cpu time      0.4243: real time      0.4276

 eigenvalue-minimisations  :  1312
 total energy-change (2. order) :-0.1641466E+00  (-0.1502678E-01)
 number of electron      89.9999972 magnetization       0.8902476
 augmentation part       56.1165054 magnetization       0.5153531

 Broyden mixing:
  rms(total) = 0.90593E-01    rms(broyden)= 0.90587E-01
  rms(prec ) = 0.98142E-01
  weight for this iteration     100.00

 eigenvalues of (default mixing * dielectric matrix)
  average eigenvalue GAMMA=   1.5550
 11.9317  2.6404  1.5797  1.1772  1.1772  0.7516  0.7516  0.0851  0.6092  0.6092
  0.5298  0.4574  0.4574  0.3149  0.2521

 Free energy of the ion-electron system (eV)
  ---------------------------------------------------
  alpha Z        PSCENC =       285.34744303
  Ewald energy   TEWEN  =     52652.29191795
  -Hartree energ DENC   =    -63650.06648470
  -exchange      EXHF   =         0.00000000
  -V(xc)+E(xc)   XCENC  =       364.12346515
  PAW double counting   =     10575.44907439   -11436.91342400
  entropy T*S    EENTRO =        -0.01549209
  eigenvalues    EBANDS =        21.54639474
  atomic energy  EATOM  =     11152.61838693
  Solvation  Ediel_sol  =         0.00000000
  ---------------------------------------------------
  free energy    TOTEN  =       -35.61871859 eV

  energy without entropy =      -35.60322651  energy(sigma->0) =      -35.61355457


--------------------------------------------------------------------------------------------------------




--------------------------------------- Iteration      1(  21)  ---------------------------------------


    POTLOK:  cpu time      0.0190: real time      0.0193
    SETDIJ:  cpu time      0.0060: real time      0.0060
     EDDAV:  cpu time      0.3014: real time      0.3041
       DOS:  cpu time      0.0009: real time      0.0009
    CHARGE:  cpu time      0.0527: real time      0.0530
    MIXING:  cpu time      0.0016: real time      0.0016
    --------------------------------------------
      LOOP:  cpu time      0.3816: real time      0.3849

 eigenvalue-minimisations  :  1120
 total energy-change (2. order) :-0.1303410E+00  (-0.9620628E-02)
 number of electron      89.9999971 magnetization       0.7451692
 augmentation part       56.1383702 magnetization       0.4442184

 Broyden mixing:
  rms(total) = 0.72785E-01    rms(broyden)= 0.72776E-01
  rms(prec ) = 0.75634E-01
  weight for this iteration     100.00

 eigenvalues of (default mixing * dielectric matrix)
  average eigenvalue GAMMA=   1.5721
 12.4205  2.9406  1.8498  1.2198  1.2198  0.7800  0.7800  0.0851  0.6791  0.6791
  0.5064  0.5064  0.4603  0.4603  0.3149  0.2521

 Free energy of the ion-electron system (eV)
  ---------------------------------------------------
  alpha Z        PSCENC =       285.34744303
  Ewald energy   TEWEN  =     52652.29191795
  -Hartree energ DENC   =    -63640.46945351
  -exchange      EXHF   =         0.00000000
  -V(xc)+E(xc)   XCENC  =       363.94544066
  PAW double counting   =     10578.87077940   -11440.86428007
  entropy T*S    EENTRO =        -0.02038765
  eigenvalues    EBANDS =        12.53109368
  atomic energy  EATOM  =     11152.61838693
  Solvation  Ediel_sol  =         0.00000000
  ---------------------------------------------------
  free energy    TOTEN  =       -35.74905958 eV

  energy without entropy =      -35.72867194  energy(sigma->0) =      -35.74226370


--------------------------------------------------------------------------------------------------------




--------------------------------------- Iteration      1(  22)  ---------------------------------------


    POTLOK:  cpu time      0.0188: real time      0.0190
    SETDIJ:  cpu time      0.0058: real time      0.0058
     EDDAV:  cpu time      0.3296: real time      0.3324
       DOS:  cpu time      0.0009: real time      0.0009
    CHARGE:  cpu time      0.0527: real time      0.0531
    MIXING:  cpu time      0.0018: real time      0.0018
    --------------------------------------------
      LOOP:  cpu time      0.4095: real time      0.4130

 eigenvalue-minimisations  :  1252
 total energy-change (2. order) :-0.4178586E-01  (-0.3542894E-02)
 number of electron      89.9999971 magnetization       0.6014550
 augmentation part       56.1651134 magnetization       0.3469010

 Broyden mixing:
  rms(total) = 0.63313E-01    rms(broyden)= 0.63305E-01
  rms(prec ) = 0.64698E-01
  weight for this iteration     100.00

 eigenvalues of (default mixing * dielectric matrix)
  average eigenvalue GAMMA=   1.6171
 12.9422  3.5023  2.0398  1.2019  1.2019  1.1689  0.7615  0.7615  0.0851  0.6494
  0.6088  0.6088  0.3149  0.2521  0.4579  0.4579  0.4757

 Free energy of the ion-electron system (eV)
  ---------------------------------------------------
  alpha Z        PSCENC =       285.34744303
  Ewald energy   TEWEN  =     52652.29191795
  -Hartree energ DENC   =    -63633.73338328
  -exchange      EXHF   =         0.00000000
  -V(xc)+E(xc)   XCENC  =       363.85214182
  PAW double counting   =     10580.41134542   -11442.64768859
  entropy T*S    EENTRO =        -0.02260514
  eigenvalues    EBANDS =         6.09159641
  atomic energy  EATOM  =     11152.61838693
  Solvation  Ediel_sol  =         0.00000000
  ---------------------------------------------------
  free energy    TOTEN  =       -35.79084545 eV

  energy without entropy =      -35.76824031  energy(sigma->0) =      -35.78331040


--------------------------------------------------------------------------------------------------------




--------------------------------------- Iteration      1(  23)  ---------------------------------------


    POTLOK:  cpu time      0.0188: real time      0.0191
    SETDIJ:  cpu time      0.0058: real time      0.0058
     EDDAV:  cpu time      0.3612: real time      0.3643
       DOS:  cpu time      0.0009: real time      0.0009
    CHARGE:  cpu time      0.0533: real time      0.0535
    MIXING:  cpu time      0.0018: real time      0.0018
    --------------------------------------------
      LOOP:  cpu time      0.4418: real time      0.4455

 eigenvalue-minimisations  :  1388
 total energy-change (2. order) :-0.4391760E-01  (-0.4157838E-02)
 number of electron      89.9999971 magnetization       0.4373428
 augmentation part       56.1667607 magnetization       0.2054445

 Broyden mixing:
  rms(total) = 0.49370E-01    rms(broyden)= 0.49360E-01
  rms(prec ) = 0.56503E-01
  weight for this iteration     100.00

 eigenvalues of (default mixing * dielectric matrix)
  average eigenvalue GAMMA=   1.6719
 13.5264  4.1559  2.3737  1.2380  1.2380  1.2678  0.7706  0.7706  0.0851  0.8390
  0.6464  0.6464  0.2521  0.3149  0.5725  0.4591  0.4591  0.4792

 Free energy of the ion-electron system (eV)
  ---------------------------------------------------
  alpha Z        PSCENC =       285.34744303
  Ewald energy   TEWEN  =     52652.29191795
  -Hartree energ DENC   =    -63631.40552922
  -exchange      EXHF   =         0.00000000
  -V(xc)+E(xc)   XCENC  =       363.79453353
  PAW double counting   =     10581.38717378   -11443.66394620
  entropy T*S    EENTRO =        -0.02412010
  eigenvalues    EBANDS =         3.81937725
  atomic energy  EATOM  =     11152.61838693
  Solvation  Ediel_sol  =         0.00000000
  ---------------------------------------------------
  free energy    TOTEN  =       -35.83476305 eV

  energy without entropy =      -35.81064295  energy(sigma->0) =      -35.82672302


--------------------------------------------------------------------------------------------------------




--------------------------------------- Iteration      1(  24)  ---------------------------------------


    POTLOK:  cpu time      0.0188: real time      0.0191
    SETDIJ:  cpu time      0.0058: real time      0.0058
     EDDAV:  cpu time      0.3337: real time      0.3363
       DOS:  cpu time      0.0009: real time      0.0009
    CHARGE:  cpu time      0.0529: real time      0.0531
    MIXING:  cpu time      0.0019: real time      0.0019
    --------------------------------------------
      LOOP:  cpu time      0.4140: real time      0.4171

 eigenvalue-minimisations  :  1276
 total energy-change (2. order) :-0.9613635E-01  (-0.4433740E-02)
 number of electron      89.9999972 magnetization       0.3437662
 augmentation part       56.1678046 magnetization       0.1772542

 Broyden mixing:
  rms(total) = 0.42055E-01    rms(broyden)= 0.42046E-01
  rms(prec ) = 0.44929E-01
  weight for this iteration     100.00

 eigenvalues of (default mixing * dielectric matrix)
  average eigenvalue GAMMA=   1.6700
 13.8441  4.4645  2.6715  1.3636  1.2154  1.2154  0.0851  0.7723  0.7723  0.8243
  0.8243  0.2521  0.3149  0.5994  0.5994  0.4608  0.4608  0.5302  0.4600

 Free energy of the ion-electron system (eV)
  ---------------------------------------------------
  alpha Z        PSCENC =       285.34744303
  Ewald energy   TEWEN  =     52652.29191795
  -Hartree energ DENC   =    -63626.20177644
  -exchange      EXHF   =         0.00000000
  -V(xc)+E(xc)   XCENC  =       363.73223617
  PAW double counting   =     10584.79580349   -11447.27391544
  entropy T*S    EENTRO =        -0.02391452
  eigenvalues    EBANDS =        -1.21708058
  atomic energy  EATOM  =     11152.61838693
  Solvation  Ediel_sol  =         0.00000000
  ---------------------------------------------------
  free energy    TOTEN  =       -35.93089940 eV

  energy without entropy =      -35.90698488  energy(sigma->0) =      -35.92292790


--------------------------------------------------------------------------------------------------------




--------------------------------------- Iteration      1(  25)  ---------------------------------------


    POTLOK:  cpu time      0.0188: real time      0.0191
    SETDIJ:  cpu time      0.0058: real time      0.0058
     EDDAV:  cpu time      0.3256: real time      0.3283
       DOS:  cpu time      0.0009: real time      0.0009
    CHARGE:  cpu time      0.0528: real time      0.0530
    MIXING:  cpu time      0.0021: real time      0.0021
    --------------------------------------------
      LOOP:  cpu time      0.4060: real time      0.4091

 eigenvalue-minimisations  :  1236
 total energy-change (2. order) :-0.1417904E+00  (-0.1359053E-02)
 number of electron      89.9999971 magnetization       0.2436502
 augmentation part       56.1672569 magnetization       0.0971705

 Broyden mixing:
  rms(total) = 0.31176E-01    rms(broyden)= 0.31171E-01
  rms(prec ) = 0.32364E-01
  weight for this iteration     100.00

 eigenvalues of (default mixing * dielectric matrix)
  average eigenvalue GAMMA=   1.7690
 14.3801  5.7581  2.6097  2.3225  1.2106  1.2106  0.0851  0.7719  0.7719  0.8603
  0.8603  0.8299  0.2521  0.3149  0.6129  0.6129  0.4604  0.4604  0.5306  0.4649

 Free energy of the ion-electron system (eV)
  ---------------------------------------------------
  alpha Z        PSCENC =       285.34744303
  Ewald energy   TEWEN  =     52652.29191795
  -Hartree energ DENC   =    -63626.13847572
  -exchange      EXHF   =         0.00000000
  -V(xc)+E(xc)   XCENC  =       363.58918477
  PAW double counting   =     10589.81199588   -11452.27373721
  entropy T*S    EENTRO =        -0.02462260
  eigenvalues    EBANDS =        -1.29478281
  atomic energy  EATOM  =     11152.61838693
  Solvation  Ediel_sol  =         0.00000000
  ---------------------------------------------------
  free energy    TOTEN  =       -36.07268977 eV

  energy without entropy =      -36.04806717  energy(sigma->0) =      -36.06448224


--------------------------------------------------------------------------------------------------------




[...]
     14      -0.8219      1.00000
     15      -0.6519      1.00000
     16      -0.6139      1.00000
     17      -0.5003      1.00000
     18      -0.4368      1.00000
     19      -0.3654      1.00000
     20      -0.2853      1.00000
     21      -0.2693      1.00000
     22      -0.1778      1.00000
     23      -0.0654      1.00000
     24      -0.0449      1.00000
     25       0.1164      1.00000
     26       0.2119      1.00000
     27       0.3348      1.00000
     28       0.4176      1.00000
     29       0.4874      1.00000
     30       0.5714      1.00000
     31       0.5887      1.00000
     32       0.6644      1.00000
     33       0.6753      1.00000
     34       0.7342      1.00000
     35       0.7524      1.00000
     36       0.8089      1.00000
     37       0.8259      1.00000
     38       0.8430      1.00000
     39       0.9392      1.00000
     40       0.9646      1.00000
     41       1.0866      1.00000
     42       1.2099      1.00000
     43       1.2147      1.00000
     44       1.2225      1.00000
     45       1.3867      1.00000
     46       2.0182      0.79650
     47       3.1220     -0.00000
     48       4.4733     -0.00000
     49       5.9726     -0.00000
     50       7.1759     -0.00000
     51       8.3524      0.00000
     52       9.0344      0.00000
     53       9.3805      0.00000
     54       9.7620      0.00000
     55      10.1707      0.00000
     56      10.4730      0.00000
     57      10.9381      0.00000
     58      11.6387      0.00000
     59      11.8948      0.00000
     60      12.0135      0.00000

 k-point     4 :      -0.3333    0.3333    0.0000
  band No.  band energies     occupation 
      1      -2.7261      1.00000
      2      -1.5291      1.00000
      3      -1.5203      1.00000
      4      -1.5034      1.00000
      5      -1.4521      1.00000
      6      -1.4072      1.00000
      7      -1.3946      1.00000
      8      -1.3596      1.00000
      9      -1.3556      1.00000
     10      -1.3489      1.00000
     11      -1.3345      1.00000
     12      -1.3149      1.00000
     13      -1.2068      1.00000
     14      -1.1190      1.00000
     15      -1.0534      1.00000
     16      -1.0000      1.00000
     17      -0.6936      1.00000
     18      -0.6500      1.00000
     19      -0.6371      1.00000
     20      -0.5777      1.00000
     21      -0.4271      1.00000
     22      -0.3311      1.00000
     23       0.0349      1.00000
     24       0.0772      1.00000
     25       0.2489      1.00000
     26       0.2638      1.00000
     27       0.3454      1.00000
     28       0.3511      1.00000
     29       0.3780      1.00000
     30       0.3897      1.00000
     31       0.3960      1.00000
     32       0.6470      1.00000
     33       0.7440      1.00000
     34       0.8700      1.00000
     35       0.8766      1.00000
     36       0.8977      1.00000
     37       0.9696      1.00000
     38       1.0179      1.00000
     39       1.0187      1.00000
     40       1.0867      1.00000
     41       1.1575      1.00000
     42       5.7950     -0.00000
     43       5.8008     -0.00000
     44       5.8225     -0.00000
     45       5.9684     -0.00000
     46       5.9889     -0.00000
     47       6.2113     -0.00000
     48       6.3675     -0.00000
     49       6.8924     -0.00000
     50       7.1180     -0.00000
     51       7.6485      0.00000
     52       7.7415      0.00000
     53       7.8206      0.00000
     54       8.2135      0.00000
     55       8.2984      0.00000
     56       8.5446      0.00000
     57       9.2118      0.00000
     58       9.6647      0.00000
     59      10.4936      0.00000
     60      10.7382      0.00000


--------------------------------------------------------------------------------------------------------


 soft charge-density along one line, spin component           1
         0         1         2         3         4         5         6         7         8         9
 total charge-density along one line
 
 soft charge-density along one line, spin component           2
         0         1         2         3         4         5         6         7         8         9
 total charge-density along one line
 
 pseudopotential strength for first ion, spin component:           1
 -6.002   0.000   0.000  -0.004   0.000  -2.379  -0.000  -0.000
  0.000  -6.054  -0.000   0.000  -0.004  -0.000  -2.343   0.000
  0.000  -0.000  -6.080   0.000  -0.000  -0.000   0.000  -2.325
 -0.004   0.000   0.000  -6.054  -0.000   0.003  -0.000  -0.000
  0.000  -0.004  -0.000  -0.000  -6.002  -0.000   0.003   0.000
 -2.379  -0.000  -0.000   0.003  -0.000   8.654  -0.000   0.000
 -0.000  -2.343   0.000  -0.000   0.003  -0.000   8.631  -0.000
 -0.000   0.000  -2.325  -0.000   0.000   0.000  -0.000   8.619
  0.003  -0.000  -0.000  -2.343   0.000  -0.002  -0.000  -0.000
 -0.000   0.003   0.000   0.000  -2.379   0.000  -0.002  -0.000
  0.000   0.000   0.003   0.000  -0.000   0.000   0.000   0.001
  0.000   0.000   0.005   0.000  -0.000   0.000   0.000   0.003
  0.000  -0.013  -0.000  -0.000   0.000   0.000   0.012   0.000
 -0.000   0.000  -0.011   0.000   0.000  -0.000  -0.000   0.010
  0.000  -0.000  -0.000  -0.013   0.000   0.000  -0.000  -0.000
  0.000  -0.014  -0.000   0.000   0.000   0.000   0.014   0.000
  0.000   0.000  -0.012   0.000   0.000  -0.000  -0.000   0.011
  0.000   0.000  -0.000  -0.014   0.000   0.000  -0.000  -0.000
 pseudopotential strength for first ion, spin component:           2
 -6.002   0.000   0.000  -0.004   0.000  -2.379  -0.000  -0.000
  0.000  -6.054  -0.000   0.000  -0.004  -0.000  -2.343   0.000
  0.000  -0.000  -6.080   0.000  -0.000  -0.000   0.000  -2.325
 -0.004   0.000   0.000  -6.054  -0.000   0.003  -0.000  -0.000
  0.000  -0.004  -0.000  -0.000  -6.002  -0.000   0.003   0.000
 -2.379  -0.000  -0.000   0.003  -0.000   8.654  -0.000   0.000
 -0.000  -2.343   0.000  -0.000   0.003  -0.000   8.631  -0.000
 -0.000   0.000  -2.325  -0.000   0.000   0.000  -0.000   8.619
  0.003  -0.000  -0.000  -2.343   0.000  -0.002  -0.000  -0.000
 -0.000   0.003   0.000   0.000  -2.379   0.000  -0.002  -0.000
  0.000   0.000   0.003   0.000  -0.000   0.000   0.000   0.001
  0.000   0.000   0.005   0.000  -0.000   0.000   0.000   0.003
  0.000  -0.013  -0.000  -0.000   0.000   0.000   0.012   0.000
 -0.000   0.000  -0.011   0.000   0.000  -0.000  -0.000   0.010
  0.000  -0.000  -0.000  -0.013   0.000   0.000  -0.000  -0.000
  0.000  -0.014  -0.000   0.000   0.000   0.000   0.014   0.000
  0.000   0.000  -0.012   0.000   0.000  -0.000  -0.000   0.011
  0.000   0.000  -0.000  -0.014   0.000   0.000  -0.000  -0.000
 total augmentation occupancy for first ion, spin component:           1
  1.932   0.000  -0.000  -0.004   0.000  -0.016  -0.000   0.000   0.005  -0.000   0.000  -0.000  -0.000  -0.000   0.007   0.000
  0.000   1.928  -0.000   0.000  -0.004  -0.000  -0.024   0.000  -0.000   0.005   0.000   0.000   0.007   0.001   0.000  -0.013
 -0.000  -0.000   1.915   0.000  -0.000   0.000   0.000  -0.018  -0.000   0.000  -0.066   0.028  -0.000   0.076  -0.000   0.000
 -0.004   0.000   0.000   1.928  -0.000   0.005  -0.000  -0.000  -0.024   0.000   0.000   0.000   0.000   0.000   0.007  -0.000
  0.000  -0.004  -0.000  -0.000   1.932  -0.000   0.005   0.000   0.000  -0.016   0.000  -0.000   0.006   0.000   0.000  -0.001
 -0.016  -0.000   0.000   0.005  -0.000   0.013  -0.000  -0.000   0.000  -0.000   0.000  -0.000  -0.000  -0.000   0.004   0.000
 -0.000  -0.024   0.000  -0.000   0.005  -0.000   0.010   0.000   0.000   0.000   0.000  -0.000   0.019   0.000   0.000  -0.001
  0.000   0.000  -0.018  -0.000   0.000  -0.000   0.000   0.012  -0.000  -0.000  -0.022   0.001   0.000   0.021  -0.000  -0.000
  0.005  -0.000  -0.000  -0.024   0.000   0.000   0.000  -0.000   0.010   0.000   0.000  -0.000   0.000   0.000   0.019  -0.000
 -0.000   0.005   0.000   0.000  -0.016  -0.000   0.000  -0.000   0.000   0.013   0.000  -0.000   0.004   0.000   0.000  -0.000
  0.000   0.000  -0.066   0.000   0.000   0.000   0.000  -0.022   0.000   0.000   1.754  -0.149   0.000   0.176   0.000   0.000
 -0.000   0.000   0.028   0.000  -0.000  -0.000  -0.000   0.001  -0.000  -0.000  -0.149   0.018  -0.000  -0.025  -0.000   0.000
 -0.000   0.007  -0.000   0.000   0.006  -0.000   0.019   0.000   0.000   0.004   0.000  -0.000   0.234   0.000   0.000  -0.015
 -0.000   0.001   0.076   0.000   0.000  -0.000   0.000   0.021   0.000   0.000   0.176  -0.025   0.000   0.113   0.000   0.000
  0.007   0.000  -0.000   0.007   0.000   0.004   0.000  -0.000   0.019   0.000   0.000  -0.000   0.000   0.000   0.234  -0.000
  0.000  -0.013   0.000  -0.000  -0.001   0.000  -0.001  -0.000  -0.000  -0.000   0.000   0.000  -0.015   0.000  -0.000   0.001
  0.000  -0.000  -0.019  -0.000   0.000   0.000   0.000  -0.001   0.000  -0.000  -0.023   0.003  -0.000  -0.009  -0.000   0.000
 -0.001  -0.000   0.000  -0.013  -0.000  -0.000  -0.000   0.000  -0.001  -0.000   0.000   0.000  -0.000   0.000  -0.015   0.000
 total augmentation occupancy for first ion, spin component:           2
  0.000   0.000   0.000   0.000  -0.000  -0.000   0.000   0.000  -0.000  -0.000   0.000   0.000  -0.000  -0.000   0.000   0.000
  0.000   0.000  -0.000   0.000  -0.000  -0.000  -0.000   0.000  -0.000  -0.000  -0.000  -0.000   0.000   0.000   0.000   0.000
  0.000  -0.000  -0.000  -0.000   0.000  -0.000  -0.000  -0.000  -0.000   0.000  -0.000  -0.000   0.000   0.000  -0.000  -0.000
  0.000   0.000  -0.000   0.000  -0.000  -0.000  -0.000   0.000  -0.000  -0.000  -0.000  -0.000   0.000   0.000  -0.000   0.000
 -0.000  -0.000   0.000  -0.000  -0.000   0.000  -0.000  -0.000  -0.000  -0.000   0.000   0.000   0.000  -0.000   0.000   0.000
 -0.000  -0.000  -0.000  -0.000   0.000  -0.000  -0.000   0.000  -0.000   0.000  -0.000  -0.000   0.000   0.000   0.000  -0.000
  0.000  -0.000  -0.000  -0.000  -0.000  -0.000   0.000   0.000   0.000  -0.000  -0.000  -0.000   0.000   0.000   0.000  -0.000
  0.000   0.000  -0.000   0.000  -0.000   0.000   0.000  -0.000   0.000  -0.000   0.000   0.000   0.000  -0.000  -0.000  -0.000
 -0.000  -0.000  -0.000  -0.000  -0.000  -0.000   0.000   0.000   0.000  -0.000  -0.000  -0.000   0.000   0.000   0.000  -0.000
 -0.000  -0.000   0.000  -0.000  -0.000   0.000  -0.000  -0.000  -0.000  -0.000   0.000   0.000  -0.000  -0.000   0.000   0.000
  0.000  -0.000  -0.000  -0.000   0.000  -0.000  -0.000   0.000  -0.000   0.000  -0.000   0.000   0.000   0.000   0.000  -0.000
  0.000  -0.000  -0.000  -0.000   0.000  -0.000  -0.000   0.000  -0.000   0.000   0.000  -0.000  -0.000  -0.000  -0.000   0.000
 -0.000   0.000   0.000   0.000   0.000   0.000   0.000   0.000   0.000  -0.000   0.000  -0.000  -0.000   0.000  -0.000   0.000
 -0.000   0.000   0.000   0.000  -0.000   0.000   0.000  -0.000   0.000  -0.000   0.000  -0.000   0.000  -0.000   0.000   0.000
  0.000   0.000  -0.000  -0.000   0.000   0.000   0.000  -0.000   0.000   0.000   0.000  -0.000  -0.000   0.000  -0.000   0.000
  0.000   0.000  -0.000   0.000   0.000  -0.000  -0.000  -0.000  -0.000   0.000  -0.000   0.000   0.000   0.000   0.000  -0.000
  0.000  -0.000  -0.000  -0.000   0.000  -0.000  -0.000   0.000  -0.000   0.000  -0.000  -0.000  -0.000   0.000  -0.000   0.000
  0.000   0.000  -0.000   0.000   0.000   0.000  -0.000  -0.000  -0.000   0.000  -0.000   0.000   0.000   0.000   0.000  -0.000


------------------------ aborting loop because EDIFF is reached ----------------------------------------


    CHARGE:  cpu time      0.0536: real time      0.0538
    FORLOC:  cpu time      0.0010: real time      0.0011
    FORNL :  cpu time      0.1239: real time      0.1246
    STRESS:  cpu time      0.1363: real time      0.1369
    FORCOR:  cpu time      0.0185: real time      0.0186
    FORHAR:  cpu time      0.0029: real time      0.0029
    MIXING:  cpu time      0.0004: real time      0.0004
    OFIELD:  cpu time      0.0000: real time      0.0000

 ---------------------------------------------------------------------------------------------

         DFTD3 V3.0 Rev 1        
 Edisp (eV)   -3.67740

 E6    (eV) :    -1.5362
 E8    (eV) :    -2.1412
 % E8        : 58.23
    FORVDW:  cpu time      0.0722: real time      0.0725

  FORCE on cell =-STRESS in cart. coord.  units (eV):
  Direction    XX          YY          ZZ          XY          YZ          ZX
  --------------------------------------------------------------------------------------
  Alpha Z   285.34744   285.34744   285.34744
  Ewald   59064.24446 59053.46687-64940.62735    -0.00000     9.77302    -0.00000
  Hartree 62301.00086 62293.82915-60477.49503     0.00000     2.52452    -0.00000
  E(xc)    -521.00267  -520.96900  -521.09150    -0.00013     0.05914     0.00000
  Local  ************************124348.65210     0.00402    -9.64967    -0.00000
  n-local  -174.62643  -175.00978  -179.98765     3.97324    -0.13556     1.25581
  augment   759.70410   759.90207   753.58389    -0.00381    -0.07543    -0.00000
  Kinetic   742.58534   741.51713   734.86359   -15.34632    -2.13158     2.54112
  Fock        0.00000     0.00000     0.00000     0.00000     0.00000     0.00000
  vdW        -4.40677    -4.32315    -3.79822     0.00000     0.02366     0.00000
  -------------------------------------------------------------------------------------
  Total      -4.35885    -4.66272    -0.55274    -0.00000     0.38810     0.00000
  in kB     -41.25187   -44.12770    -5.23110    -0.00000     3.67296     0.00000
  external pressure =      -30.20 kB  Pullay stress =        0.00 kB


 VOLUME and BASIS-vectors are now :
 -----------------------------------------------------------------------------
  energy-cutoff  :      400.00
  volume of cell :      169.29
      direct lattice vectors                 reciprocal lattice vectors
     2.566797733  0.000000000  0.000000000     0.389590495 -0.224930177  0.000000000
     1.283398867  2.222912043  0.000000000     0.000000000  0.449860355  0.000000000
     0.000000000  0.000000000 29.670471191     0.000000000  0.000000000  0.033703543

  length of vectors
     2.566797733  2.566797733 29.670471191     0.449860355  0.449860355  0.033703543


 FORCES acting on ions
    electron-ion (+dipol)            ewald-force                    non-local-force                 convergence-correction
 -----------------------------------------------------------------------------------------------
   -.141E-05 0.714E-01 0.607E+04   0.105E-07 -.789E-01 -.607E+04   0.443E-12 0.197E-01 -.361E+01   -.941E-06 -.109E-01 0.569E-01
   0.334E-05 0.121E+00 0.436E+04   -.268E-07 -.132E+00 -.436E+04   0.830E-12 0.369E-01 0.329E+00   -.270E-05 -.230E-01 0.122E+00
   -.156E-04 0.220E+00 0.267E+04   0.262E-07 -.234E+00 -.267E+04   0.124E-11 0.550E-01 0.615E-01   -.145E-05 -.379E-01 0.185E+00
   0.216E-04 0.130E+00 0.977E+03   0.607E-09 -.145E+00 -.977E+03   0.150E-11 0.666E-01 -.764E+00   -.311E-05 -.474E-01 0.169E+00
   -.733E-05 0.145E+00 -.729E+03   -.272E-07 -.161E+00 0.728E+03   0.133E-11 0.589E-01 0.772E+00   -.228E-05 -.401E-01 0.132E+00
   0.187E-04 -.186E-01 -.241E+04   0.271E-07 0.137E-01 0.241E+04   0.582E-12 0.259E-01 -.800E-01   -.623E-06 -.198E-01 0.767E-01
   -.162E-04 0.162E+00 -.411E+04   0.859E-09 -.181E+00 0.411E+04   0.699E-12 0.311E-01 0.886E-01   -.955E-06 -.107E-01 -.904E-02
   0.146E-04 -.259E+01 -.582E+04   -.111E-07 0.258E+01 0.582E+04   0.185E-12 0.821E-02 0.464E+01   -.382E-06 -.346E-02 -.774E-01
   0.333E-07 0.793E+01 -.510E+03   0.124E-09 -.980E+01 0.506E+03   0.433E-10 0.192E+01 0.433E+01   -.200E-06 -.372E-02 -.151E-01
   -.898E-07 -.629E+01 -.493E+03   -.307E-09 0.813E+01 0.497E+03   -.416E-10 -.185E+01 -.444E+01   -.128E-06 -.252E-02 -.116E-01
 -----------------------------------------------------------------------------------------------
   0.177E-04 -.122E+00 -.193E+01   0.219E-12 -.551E-13 -.568E-12   0.842E-11 0.374E+00 0.133E+01   -.128E-04 -.200E+00 0.628E+00
 
 
 POSITION                                       TOTAL-FORCE (eV/Angst)
 -----------------------------------------------------------------------------------
     -0.00000     -0.00038     -0.04349        -0.000000     -0.004036     -0.007566
      1.28340      0.73775      1.95149        -0.000000     -0.002225      0.016419
      2.56680      1.47055      3.97266        -0.000000     -0.002722     -0.009272
     -0.00000     -0.02944      6.00465        -0.000000     -0.001293      0.004253
      1.28340      0.68864      8.01808        -0.000000     -0.002390     -0.001629
      2.56680      1.39844     10.05194        -0.000000     -0.003910     -0.002569
     -0.00000     -0.11293     12.07315        -0.000000     -0.004071     -0.001143
      1.28340      0.59315     14.06999        -0.000000     -0.001991     -0.004479
      2.56680      1.92952     16.16258         0.000000      0.008390      0.009797
      1.28340     -0.00154     16.86685         0.000000      0.014247     -0.003810
 -----------------------------------------------------------------------------------
    total drift:                                0.000005      0.052236      0.031187


--------------------------------------------------------------------------------------------------------



  FREE ENERGIE OF THE ION-ELECTRON SYSTEM (eV)
  ---------------------------------------------------
  free  energy   TOTEN  =       -40.89336847 eV

  energy  without entropy=      -40.86688168  energy(sigma->0) =      -40.88453954
 
 d Force = 0.8151732E-04[ 0.385E-04, 0.125E-03]  d Energy = 0.1318359E-03-0.503E-04
 d Force = 0.5062838E+01[ 0.506E+01, 0.506E+01]  d Ewald  = 0.5062838E+01-0.618E-09


--------------------------------------------------------------------------------------------------------


    POTLOK:  cpu time      0.0261: real time      0.0262


--------------------------------------------------------------------------------------------------------


 stress matrix after NEB project (eV)
     -4.35885     -0.00000      0.00000
     -0.00000     -4.66272      0.38810
      0.00000      0.38810     -0.55274
  FORCES: max atom, RMS     0.016569    0.009577
  FORCE total and by dimension    0.030286    0.016419
  Stress total and by dimension    6.430181    4.662718
 Conjugate gradient step on ions:
 trial-energy change:   -0.000132  1 .order   -0.000082   -0.000125   -0.000039
  (g-gl).g = 0.205E-03      g.g   = 0.171E-03  gl.gl    = 0.225E-03
 g(Force)  = 0.171E-03   g(Stress)= 0.000E+00 ortho     =-0.954E-05
 gamma     =   0.91087
 trial     =   0.76613
 opt step  =   1.10903  (harmonic =   1.10903) maximal distance =0.00284538
 next E    =   -40.893327   (d E  =  -0.00009)


--------------------------------------------------------------------------------------------------------


  
 reached required accuracy - stopping structural energy minimisation
     LOOP+:  cpu time      1.0456: real time      1.0625
    4ORBIT:  cpu time      0.0000: real time      0.0000

 total amount of memory used by VASP MPI-rank0    34706. kBytes
=======================================================================

   base      :      30000. kBytes
   nonl-proj :        813. kBytes
   fftplans  :        716. kBytes
   grid      :       1856. kBytes
   one-center:         62. kBytes
   wavefun   :       1259. kBytes
 
  
  
 General timing and accounting informations for this job:
 ========================================================
  
                  Total CPU time used (sec):      152.711
                            User time (sec):      151.849
                          System time (sec):        0.861
                         Elapsed time (sec):      156.782
  
                   Maximum memory used (kb):      233664.
                   Average memory used (kb):          N/A
  
                          Minor page faults:       270930
                          Major page faults:         6543
                 Voluntary context switches:         4446
