<?xml version="1.0" encoding="ISO-8859-1"?>
<modeling>
 <generator>
  <i name="program" type="string">vasp </i>
  <i name="version" type="string">6.3.2  </i>
  <i name="subversion" type="string">27Jun22 (build Aug 17 2022 15:43:34) complex                          parallel </i>
  <i name="platform" type="string">tv2STDVTST </i>
  <i name="date" type="string">2025 02 04 </i>
  <i name="time" type="string">14:27:01 </i>
 </generator>
 <incar>
  <i type="int" name="ISTART">     0</i>
  <i type="string" name="PREC">Normal</i>
  <i type="int" name="ISPIN">     2</i>
  <i type="int" name="ICHARG">     2</i>
  <i type="int" name="IBRION">     2</i>
  <i name="EDIFF">      0.00020000</i>
  <i name="EDIFFG">     -0.03000000</i>
  <i type="int" name="NSW">   800</i>
  <i type="int" name="ISIF">     2</i>
  <i type="int" name="ISYM">     1</i>
  <i name="ENCUT">    400.00000000</i>
  <i name="POTIM">      0.50000000</i>
  <i type="logical" name="LREAL"> F  </i>
  <i type="int" name="ISMEAR">     1</i>
  <i name="SIGMA">      0.20000000</i>
  <i type="logical" name="LWAVE"> F  </i>
  <i type="logical" name="LCHARG"> F  </i>
  <i type="string" name="GGA">PE</i>
  <i type="int" name="IVDW">    11</i>
 </incar>
 <primitive_cell>
  <structure name="primitive_cell" >
   <crystal>
    <varray name="basis" >
     <v>       2.56679773       0.00000000       0.00000000 </v>
     <v>       1.28339887       2.22291204       0.00000000 </v>
     <v>       0.00000000       0.00000000      29.67047119 </v>
    </varray>
    <i name="volume">    169.29275369 </i>
    <varray name="rec_basis" >
     <v>       0.38959050      -0.22493018       0.00000000 </v>
     <v>       0.00000000       0.44986035       0.00000000 </v>
     <v>       0.00000000       0.00000000       0.03370354 </v>
    </varray>
   </crystal>
   <varray name="positions" >
    <v>       0.00000000       0.00000000       0.00000000 </v>
    <v>       0.33333333       0.33333333       0.07063526 </v>
    <v>       0.66666667       0.66666667       0.13908594 </v>
    <v>       0.00000000       0.00000000       0.20816512 </v>
    <v>       0.33333333       0.33333333       0.27656240 </v>
    <v>       0.66666667       0.66666667       0.34556034 </v>
    <v>       0.00000000       0.00000000       0.41400593 </v>
    <v>       0.33333333       0.33333333       0.48139269 </v>
    <v>       0.66666667       0.66666667       0.53425930 </v>
    <v>       0.49886875       0.00226249       0.53425930 </v>
   </varray>
  </structure>
  <varray name="primitive_index" >
   <v type="int" >        1 </v>
   <v type="int" >        2 </v>
   <v type="int" >        3 </v>
   <v type="int" >        4 </v>
   <v type="int" >        5 </v>
   <v type="int" >        6 </v>
   <v type="int" >        7 </v>
   <v type="int" >        8 </v>
   <v type="int" >        9 </v>
   <v type="int" >       10 </v>
  </varray>
 </primitive_cell>
 <kpoints>
  <generation param="Monkhorst-Pack">
   <v type="int" name="divisions">       3        3        1 </v>
   <v name="usershift">      0.00000000       0.00000000       0.00000000 </v>
   <v name="genvec1">      0.33333333       0.00000000       0.00000000 </v>
   <v name="genvec2">      0.00000000       0.33333333       0.00000000 </v>
   <v name="genvec3">      0.00000000       0.00000000       1.00000000 </v>
   <v name="shift">      0.00000000       0.00000000       0.00000000 </v>
  </generation>
  <varray name="kpointlist" >
   <v>       0.00000000       0.00000000       0.00000000 </v>
   <v>       0.33333333       0.00000000       0.00000000 </v>
   <v>       0.00000000       0.33333333       0.00000000 </v>
   <v>      -0.33333333       0.33333333       0.00000000 </v>
  </varray>
  <varray name="weights" >
   <v>       0.11111111 </v>
   <v>       0.44444444 </v>
   <v>       0.22222222 </v>
   <v>       0.22222222 </v>
  </varray>
 </kpoints>
 <parameters>
  <separator name="general" >
   <i type="string" name="SYSTEM">unknown system</i>
   <i type="logical" name="LCOMPAT"> F  </i>
  </separator>
  <separator name="electronic" >
   <i type="string" name="PREC">normal</i>
   <i name="ENMAX">    400.00000000</i>
   <i name="ENAUG">    586.98000000</i>
   <i name="EDIFF">      0.00020000</i>
   <i type="int" name="IALGO">    38</i>
   <i type="int" name="IWAVPR">    11</i>
   <i type="int" name="NBANDS">    60</i>
   <i type="int" name="NBANDSLOW">    -1</i>
   <i type="int" name="NBANDSHIGH">    -1</i>
   <i name="NELECT">     90.00000000</i>
   <i type="int" name="TURBO">     0</i>
   <i type="int" name="IRESTART">     0</i>
   <i type="int" name="NREBOOT">     0</i>
   <i type="int" name="NMIN">     0</i>
   <i name="EREF">      0.00000000</i>
   <separator name="electronic smearing" >
    <i type="int" name="ISMEAR">     1</i>
    <i name="SIGMA">      0.20000000</i>
    <i name="KSPACING">      0.50000000</i>
    <i type="logical" name="KGAMMA"> T  </i>
    <i type="logical" name="KBLOWUP"> T  </i>
   </separator>
   <separator name="electronic projectors" >
    <i type="logical" name="LREAL"> F  </i>
    <v name="ROPT">      0.00000000      0.00000000</v>
    <i type="int" name="LMAXPAW">  -100</i>
    <i type="int" name="LMAXMIX">     2</i>
    <i type="logical" name="NLSPLINE"> F  </i>
   </separator>
   <separator name="electronic startup" >
    <i type="int" name="ISTART">     0</i>
    <i type="int" name="ICHARG">     2</i>
    <i type="int" name="INIWAV">     1</i>
   </separator>
   <separator name="electronic spin" >
    <i type="int" name="ISPIN">     2</i>
    <i type="logical" name="LNONCOLLINEAR"> F  </i>
    <v name="MAGMOM">      1.00000000      1.00000000      1.00000000      1.00000000      1.00000000      1.00000000      1.00000000      1.00000000      1.00000000      1.00000000</v>
    <i name="NUPDOWN">     -1.00000000</i>
    <i type="logical" name="LSORBIT"> F  </i>
    <v name="SAXIS">      0.00000000      0.00000000      1.00000000</v>
    <i type="logical" name="LSPIRAL"> F  </i>
    <v name="QSPIRAL">      0.00000000      0.00000000      0.00000000</v>
    <i type="logical" name="LZEROZ"> F  </i>
   </separator>
   <separator name="electronic exchange-correlation" >
    <i type="logical" name="LASPH"> F  </i>
    <i type="logical" name="LMETAGGA"> F  </i>
   </separator>
   <separator name="electronic convergence" >
    <i type="int" name="NELM">    60</i>
    <i type="int" name="NELMDL">    -5</i>
    <i type="int" name="NELMIN">     2</i>
    <i name="ENINI">    400.00000000</i>
    <separator name="electronic convergence detail" >
     <i type="logical" name="LDIAG"> T  </i>
     <i type="logical" name="LSUBROT"> F  </i>
     <i name="WEIMIN">      0.00100000</i>
     <i name="EBREAK">      0.00000083</i>
     <i name="DEPER">      0.30000000</i>
     <i type="int" name="NRMM">     4</i>
     <i name="TIME">      0.40000000</i>
    </separator>
   </separator>
   <separator name="electronic mixer" >
    <i name="AMIX">      0.40000000</i>
    <i name="BMIX">      1.00000000</i>
    <i name="AMIN">      0.10000000</i>
    <i name="AMIX_MAG">      1.60000000</i>
    <i name="BMIX_MAG">      1.00000000</i>
    <separator name="electronic mixer details" >
     <i type="int" name="IMIX">     4</i>
     <i type="logical" name="MIXFIRST"> F  </i>
     <i type="int" name="MAXMIX">   -45</i>
     <i name="WC">    100.00000000</i>
     <i type="int" name="INIMIX">     1</i>
     <i type="int" name="MIXPRE">     1</i>
     <i type="int" name="MREMOVE">     5</i>
    </separator>
   </separator>
   <separator name="electronic dipolcorrection" >
    <i type="logical" name="LDIPOL"> F  </i>
    <i type="logical" name="LMONO"> F  </i>
    <i type="int" name="IDIPOL">     0</i>
    <i name="EPSILON">      1.00000000</i>
    <v name="DIPOL">   -100.00000000   -100.00000000   -100.00000000</v>
    <i name="EFIELD">      0.00000000</i>
   </separator>
  </separator>
  <separator name="grids" >
   <i type="int" name="NGX">    14</i>
   <i type="int" name="NGY">    14</i>
   <i type="int" name="NGZ">   150</i>
   <i type="int" name="NGXF">    28</i>
   <i type="int" name="NGYF">    28</i>
   <i type="int" name="NGZF">   300</i>
   <i type="logical" name="ADDGRID"> F  </i>
  </separator>
  <separator name="ionic" >
   <i type="int" name="NSW">   800</i>
   <i type="int" name="IBRION">     2</i>
   <i type="int" name="MDALGO">     0</i>
   <i type="int" name="ISIF">     2</i>
   <i name="PSTRESS">      0.00000000</i>
   <i name="EDIFFG">     -0.03000000</i>
   <i type="int" name="NFREE">     1</i>
   <i name="POTIM">      0.50000000</i>
   <i name="SMASS">     -3.00000000</i>
   <i name="SCALEE">      1.00000000</i>
  </separator>
  <separator name="ionic md" >
   <i name="TEBEG">      0.00010000</i>
   <i name="TEEND">      0.00010000</i>
   <i type="int" name="NBLOCK">     1</i>
   <i type="int" name="KBLOCK">   800</i>
   <i type="int" name="NPACO">   256</i>
   <i name="APACO">     10.00000000</i>
  </separator>
  <separator name="symmetry" >
   <i type="int" name="ISYM">     1</i>
   <i name="SYMPREC">      0.00001000</i>
  </separator>
  <separator name="dos" >
   <i type="int" name="LORBIT">     0</i>
   <v name="RWIGS">     -1.00000000     -1.00000000</v>
   <i type="int" name="NEDOS">   301</i>
   <i name="EMIN">     10.00000000</i>
   <i name="EMAX">    -10.00000000</i>
   <i name="EFERMI">      0.00000000</i>
  </separator>
  <separator name="writing" >
   <i type="int" name="NWRITE">     2</i>
   <i type="logical" name="LWAVE"> F  </i>
   <i type="logical" name="LDOWNSAMPLE"> F  </i>
   <i type="logical" name="LCHARG"> F  </i>
   <i type="logical" name="LPARD"> F  </i>
   <i type="logical" name="LVTOT"> F  </i>
   <i type="logical" name="LVHAR"> F  </i>
   <i type="logical" name="LELF"> F  </i>
   <i type="logical" name="LOPTICS"> F  </i>
   <v name="STM">      0.00000000      0.00000000      0.00000000      0.00000000      0.00000000      0.00000000      0.00000000</v>
  </separator>
  <separator name="performance" >
   <i type="int" name="NPAR">     4</i>
   <i type="int" name="NSIM">     4</i>
   <i type="int" name="NBLK">    -1</i>
   <i type="logical" name="LPLANE"> T  </i>
   <i type="logical" name="LSCALAPACK"> T  </i>
   <i type="logical" name="LSCAAWARE"> F  </i>
   <i type="logical" name="LSCALU"> F  </i>
   <i type="logical" name="LASYNC"> F  </i>
   <i type="logical" name="LORBITALREAL"> F  </i>
  </separator>
  <separator name="miscellaneous" >
   <i type="int" name="IDIOT">     3</i>
   <i type="int" name="PHON_NSTRUCT">    -1</i>
   <i type="logical" name="LMUSIC"> F  </i>
   <v name="POMASS">     63.54600000      1.00000000</v>
   <v name="DARWINR">      0.00000000      0.00000000</v>
   <v name="DARWINV">      1.00000000      1.00000000</v>
   <i type="logical" name="LCORR"> T  </i>
  </separator>
  <i type="logical" name="GGA_COMPAT"> T  </i>
  <i type="logical" name="LBERRY"> F  </i>
  <i type="int" name="ICORELEVEL">     0</i>
  <i type="logical" name="LDAU"> F  </i>
  <i type="int" name="I_CONSTRAINED_M">     0</i>
  <separator name="electronic exchange-correlation" >
   <i type="string" name="GGA">PE</i>
   <i type="int" name="VOSKOWN">     0</i>
   <i type="logical" name="LHFCALC"> F  </i>
   <i type="string" name="PRECFOCK"></i>
   <i type="logical" name="LSYMGRAD"> F  </i>
   <i type="logical" name="LHFONE"> F  </i>
   <i type="logical" name="LRHFCALC"> F  </i>
   <i type="logical" name="LTHOMAS"> F  </i>
   <i type="logical" name="LMODELHF"> F  </i>
   <i type="logical" name="LFOCKACE"> F  </i>
   <i name="ENCUT4O">     -1.00000000</i>
   <i type="int" name="EXXOEP">     0</i>
   <i type="int" name="FOURORBIT">     0</i>
   <i name="AEXX">      0.00000000</i>
   <i name="HFALPHA">      0.00000000</i>
   <i name="MCALPHA">      0.00000000</i>
   <i name="ALDAX">      1.00000000</i>
   <i name="AGGAX">      1.00000000</i>
   <i name="ALDAC">      1.00000000</i>
   <i name="AGGAC">      1.00000000</i>
   <i type="int" name="NKREDX">     1</i>
   <i type="int" name="NKREDY">     1</i>
   <i type="int" name="NKREDZ">     1</i>
   <i type="logical" name="SHIFTRED"> F  </i>
   <i type="logical" name="ODDONLY"> F  </i>
   <i type="logical" name="EVENONLY"> F  </i>
   <i type="int" name="LMAXFOCK">     0</i>
   <i type="int" name="NMAXFOCKAE">     0</i>
   <i type="logical" name="LFOCKAEDFT"> F  </i>
   <i name="HFSCREEN">      0.00000000</i>
   <i name="HFSCREENC">      0.00000000</i>
   <i type="int" name="NBANDSGWLOW">     0</i>
  </separator>
  <separator name="vdW DFT" >
   <i type="logical" name="LUSE_VDW"> F  </i>
   <i name="Zab_VDW">     -0.84910000</i>
   <i name="PARAM1">      0.12340000</i>
   <i name="PARAM2">      1.00000000</i>
   <i name="PARAM3">      0.00000000</i>
  </separator>
  <separator name="model GW" >
   <i type="int" name="MODEL_GW">     0</i>
   <i name="MODEL_EPS0">     10.15756522</i>
   <i name="MODEL_ALPHA">      1.00000000</i>
  </separator>
  <separator name="linear response parameters" >
   <i type="logical" name="LEPSILON"> F  </i>
   <i type="logical" name="LRPA"> F  </i>
   <i type="logical" name="LNABLA"> F  </i>
   <i type="logical" name="LVEL"> F  </i>
   <i name="CSHIFT">      0.10000000</i>
   <i name="OMEGAMAX">     -1.00000000</i>
   <i name="DEG_THRESHOLD">      0.00200000</i>
   <i name="RTIME">     -0.10000000</i>
   <i name="WPLASMAI">      0.00000000</i>
   <v name="DFIELD">      0.00000000      0.00000000      0.00000000</v>
   <v name="WPLASMA">      0.00000000      0.00000000      0.00000000      0.00000000      0.00000000      0.00000000      0.00000000      0.00000000      0.00000000</v>
  </separator>
  <separator name="orbital magnetization" >
   <i type="logical" name="NUCIND"> F  </i>
   <v name="MAGPOS">      0.00000000      0.00000000      0.00000000</v>
   <i type="logical" name="LNICSALL"> T  </i>
   <i type="logical" name="ORBITALMAG"> F  </i>
   <i type="logical" name="LMAGBLOCH"> F  </i>
   <i type="logical" name="LCHIMAG"> F  </i>
   <i type="logical" name="LGAUGE"> T  </i>
   <i type="int" name="MAGATOM">     0</i>
   <v name="MAGDIPOL">      0.00000000      0.00000000      0.00000000</v>
   <v name="AVECCONST">      0.00000000      0.00000000      0.00000000</v>
  </separator>
  <separator name="response functions" >
   <i type="logical" name="LFINITE_TEMPERATURE"> F  </i>
   <i type="logical" name="LADDER"> F  </i>
   <i type="logical" name="LRPAFORCE"> F  </i>
   <i type="logical" name="LFXC"> F  </i>
   <i type="logical" name="LHARTREE"> T  </i>
   <i type="int" name="IBSE">     0</i>
   <v type="int" name="KPOINT">    -1     0     0     0</v>
   <i type="logical" name="LTCTC"> F  </i>
   <i type="logical" name="LTCTE"> F  </i>
   <i type="logical" name="LTETE"> F  </i>
   <i type="logical" name="LTRIPLET"> F  </i>
   <i type="logical" name="LFXCEPS"> F  </i>
   <i type="logical" name="LFXHEG"> F  </i>
   <i type="int" name="NATURALO">     2</i>
   <i type="logical" name="LHOLEGF"> F  </i>
   <i type="logical" name="L2ORDER"> F  </i>
   <i type="logical" name="LDMP1"> F  </i>
   <i type="logical" name="LMP2LT"> F  </i>
   <i type="logical" name="LSMP2LT"> F  </i>
   <i type="logical" name="LGWLF"> F  </i>
   <i name="ENCUTGW">     -2.00000000</i>
   <i name="ENCUTGWSOFT">     -2.00000000</i>
   <i name="ENCUTLF">     -1.00000000</i>
   <i type="logical" name="LESF_SPLINES"> F  </i>
   <i type="int" name="LMAXMP2">    -1</i>
   <i name="SCISSOR">      0.00000000</i>
   <i type="int" name="NOMEGA">     0</i>
   <i type="int" name="NOMEGAR">     0</i>
   <i type="int" name="NBANDSGW">    -1</i>
   <i type="int" name="NBANDSO">    -1</i>
   <i type="int" name="NBANDSV">    -1</i>
   <i type="int" name="NELMGW">     1</i>
   <i type="int" name="NELMHF">     1</i>
   <i type="int" name="DIM">     3</i>
   <i type="int" name="IESPILON">     4</i>
   <i type="int" name="ANTIRES">     0</i>
   <i name="OMEGAMAX">    -30.00000000</i>
   <i name="OMEGAMIN">    -30.00000000</i>
   <i name="OMEGATL">   -200.00000000</i>
   <i type="int" name="OMEGAGRID">     0</i>
   <i name="CSHIFT">     -0.10000000</i>
   <i type="logical" name="LSELFENERGY"> F  </i>
   <i type="logical" name="LSPECTRAL"> F  </i>
   <i type="logical" name="LSPECTRALGW"> F  </i>
   <i type="logical" name="LSINGLES"> F  </i>
   <i type="logical" name="LFERMIGW"> F  </i>
   <i type="logical" name="ODDONLYGW"> F  </i>
   <i type="logical" name="EVENONLYGW"> F  </i>
   <i type="int" name="NKREDLFX">     1</i>
   <i type="int" name="NKREDLFY">     1</i>
   <i type="int" name="NKREDLFZ">     1</i>
   <i type="int" name="MAXMEM">  2800</i>
   <i type="int" name="TELESCOPE">     0</i>
   <i type="int" name="NTAUPAR">    -1</i>
   <i type="int" name="NOMEGAPAR">    -1</i>
   <i name="DAMP_NEWTON">      0.80000001</i>
   <i name="LAMBDA">      1.00000000</i>
  </separator>
  <separator name="External order field" >
   <i name="OFIELD_KAPPA">      0.00000000</i>
   <v name="OFIELD_K">      0.00000000      0.00000000      0.00000000</v>
   <i name="OFIELD_Q6_NEAR">      0.00000000</i>
   <i name="OFIELD_Q6_FAR">      0.00000000</i>
   <i name="OFIELD_A">      0.00000000</i>
  </separator>
  <separator name="optional k-points parameters" >
   <i type="int" name="KPOINTS_OPT_MODE">     1</i>
   <i type="logical" name="LKPOINTS_OPT"> F  </i>
  </separator>
 </parameters>
 <atominfo>
  <atoms>      10 </atoms>
  <types>       2 </types>
  <array name="atoms" >
   <dimension dim="1">ion</dimension>
   <field type="string">element</field>
   <field type="int">atomtype</field>
   <set>
    <rc><c>Cu</c><c>   1</c></rc>
    <rc><c>Cu</c><c>   1</c></rc>
    <rc><c>Cu</c><c>   1</c></rc>
    <rc><c>Cu</c><c>   1</c></rc>
    <rc><c>Cu</c><c>   1</c></rc>
    <rc><c>Cu</c><c>   1</c></rc>
    <rc><c>Cu</c><c>   1</c></rc>
    <rc><c>Cu</c><c>   1</c></rc>
    <rc><c>H </c><c>   2</c></rc>
    <rc><c>H </c><c>   2</c></rc>
   </set>
  </array>
  <array name="atomtypes" >
   <dimension dim="1">type</dimension>
   <field type="int">atomspertype</field>
   <field type="string">element</field>
   <field>mass</field>
   <field>valence</field>
   <field type="string">pseudopotential</field>
   <set>
    <rc><c>   8</c><c>Cu</c><c>     63.54600000</c><c>     11.00000000</c><c>  PAW_PBE Cu 22Jun2005                  </c></rc>
    <rc><c>   2</c><c>H </c><c>      1.00000000</c><c>      1.00000000</c><c>  PAW_PBE H 15Jun2001                   </c></rc>
   </set>
  </array>
 </atominfo>
 <structure name="initialpos" >
  <crystal>
   <varray name="basis" >
    <v>       2.56679773       0.00000000       0.00000000 </v>
    <v>       1.28339887       2.22291204       0.00000000 </v>
    <v>       0.00000000       0.00000000      29.67047119 </v>
   </varray>
   <i name="volume">    169.29275369 </i>
   <varray name="rec_basis" >
    <v>       0.38959050      -0.22493018       0.00000000 </v>
    <v>       0.00000000       0.44986035       0.00000000 </v>
    <v>       0.00000000       0.00000000       0.03370354 </v>
   </varray>
  </crystal>
  <varray name="positions" >
   <v>       0.00000000       0.00000000       0.00000000 </v>
   <v>       0.33333333       0.33333333       0.07063526 </v>
   <v>       0.66666667       0.66666667       0.13908594 </v>
   <v>       0.00000000       0.00000000       0.20816512 </v>
   <v>       0.33333333       0.33333333       0.27656240 </v>
   <v>       0.66666667       0.66666667       0.34556034 </v>
   <v>       0.00000000       0.00000000       0.41400593 </v>
   <v>       0.33333333       0.33333333       0.48139269 </v>
   <v>       0.66666667       0.66666667       0.53425930 </v>
   <v>       0.49886875       0.00226249       0.53425930 </v>
  </varray>
 </structure>
 <calculation>
  <scstep>
   <time name="dav">    0.29    0.29</time>
   <time name="total">    0.32    0.32</time>
   <energy>
    <i name="alphaZ">    285.34744303 </i>
    <i name="ewald">  52652.29191795 </i>
    <i name="hartreedc"> -63702.09969573 </i>
    <i name="XCdc">    372.89863864 </i>
    <i name="pawpsdc">   9828.36862813 </i>
    <i name="pawaedc"> -10674.97285505 </i>
    <i name="eentropy">     -0.00174427 </i>
    <i name="bandstr">    885.01702649 </i>
    <i name="atom">  11152.61838693 </i>
    <i name="e_fr_energy">    799.46774611 </i>
    <i name="e_wo_entrp">    799.46949039 </i>
    <i name="e_0_energy">    799.46832754 </i>
   </energy>
  </scstep>
  <scstep>
   <time name="dav">    0.27    0.28</time>
   <time name="total">    0.27    0.28</time>
   <energy>
    <i name="e_fr_energy">     74.48427511 </i>
    <i name="e_wo_entrp">     74.48965671 </i>
    <i name="e_0_energy">     74.48606897 </i>
   </energy>
  </scstep>
  <scstep>
   <time name="dav">    0.28    0.28</time>
   <time name="total">    0.28    0.28</time>
   <energy>
    <i name="e_fr_energy">    -32.70445901 </i>
    <i name="e_wo_entrp">    -32.70986136 </i>
    <i name="e_0_energy">    -32.70625979 </i>
   </energy>
  </scstep>
  <scstep>
   <time name="dav">    0.30    0.30</time>
   <time name="total">    0.30    0.30</time>
   <energy>
    <i name="e_fr_energy">    -37.42533826 </i>
    <i name="e_wo_entrp">    -37.43946270 </i>
    <i name="e_0_energy">    -37.43004641 </i>
   </energy>
  </scstep>
  <scstep>
   <time name="dav">    0.32    0.33</time>
   <time name="total">    0.39    0.39</time>
   <energy>
    <i name="e_fr_energy">    -37.52724290 </i>
    <i name="e_wo_entrp">    -37.54190136 </i>
    <i name="e_0_energy">    -37.53212905 </i>
   </energy>
  </scstep>
  <scstep>
   <time name="dav">    0.35    0.36</time>
   <time name="total">    0.44    0.44</time>
   <energy>
    <i name="e_fr_energy">    -37.42122203 </i>
    <i name="e_wo_entrp">    -37.40251801 </i>
    <i name="e_0_energy">    -37.41498736 </i>
   </energy>
  </scstep>
  <scstep>
   <time name="dav">    0.38    0.39</time>
   <time name="total">    0.46    0.47</time>
   <energy>
    <i name="e_fr_energy">    -83.01633536 </i>
    <i name="e_wo_entrp">    -83.01375607 </i>
    <i name="e_0_energy">    -83.01547560 </i>
   </energy>
  </scstep>
  <scstep>
   <time name="dav">    0.41    0.41</time>
   <time name="total">    0.49    0.50</time>
   <energy>
    <i name="e_fr_energy">    -42.92501445 </i>
    <i name="e_wo_entrp">    -42.88593914 </i>
    <i name="e_0_energy">    -42.91198935 </i>
   </energy>
  </scstep>
  <scstep>
   <time name="dav">    0.38    0.39</time>
   <time name="total">    0.46    0.47</time>
   <energy>
    <i name="e_fr_energy">    -34.89722630 </i>
    <i name="e_wo_entrp">    -34.89612058 </i>
    <i name="e_0_energy">    -34.89685772 </i>
   </energy>
  </scstep>
  <scstep>
   <time name="dav">    0.39    0.39</time>
   <time name="total">    0.47    0.48</time>
   <energy>
    <i name="e_fr_energy">    -32.35446423 </i>
    <i name="e_wo_entrp">    -32.34554720 </i>
    <i name="e_0_energy">    -32.35149189 </i>
   </energy>
  </scstep>
  <scstep>
   <time name="dav">    0.33    0.33</time>
   <time name="total">    0.41    0.42</time>
   <energy>
    <i name="e_fr_energy">    -31.82575694 </i>
    <i name="e_wo_entrp">    -31.81636524 </i>
    <i name="e_0_energy">    -31.82262637 </i>
   </energy>
  </scstep>
  <scstep>
   <time name="dav">    0.36    0.36</time>
   <time name="total">    0.44    0.44</time>
   <energy>
    <i name="e_fr_energy">    -30.49699702 </i>
    <i name="e_wo_entrp">    -30.48657882 </i>
    <i name="e_0_energy">    -30.49352429 </i>
   </energy>
  </scstep>
  <scstep>
   <time name="dav">    0.37    0.38</time>
   <time name="total">    0.45    0.46</time>
   <energy>
    <i name="e_fr_energy">    -30.34149564 </i>
    <i name="e_wo_entrp">    -30.32576317 </i>
    <i name="e_0_energy">    -30.33625148 </i>
   </energy>
  </scstep>
  <scstep>
   <time name="dav">    0.43    0.43</time>
   <time name="total">    0.51    0.51</time>
   <energy>
    <i name="e_fr_energy">    -32.49998549 </i>
    <i name="e_wo_entrp">    -32.47235775 </i>
    <i name="e_0_energy">    -32.49077624 </i>
   </energy>
  </scstep>
  <scstep>
   <time name="dav">    0.37    0.38</time>
   <time name="total">    0.46    0.46</time>
   <energy>
    <i name="e_fr_energy">    -31.38782192 </i>
    <i name="e_wo_entrp">    -31.37613168 </i>
    <i name="e_0_energy">    -31.38392518 </i>
   </energy>
  </scstep>
  <scstep>
   <time name="dav">    0.39    0.39</time>
   <time name="total">    0.47    0.48</time>
   <energy>
    <i name="e_fr_energy">    -33.42067797 </i>
    <i name="e_wo_entrp">    -33.40444319 </i>
    <i name="e_0_energy">    -33.41526638 </i>
   </energy>
  </scstep>
  <scstep>
   <time name="dav">    0.36    0.36</time>
   <time name="total">    0.44    0.45</time>
   <energy>
    <i name="e_fr_energy">    -34.35227847 </i>
    <i name="e_wo_entrp">    -34.33842648 </i>
    <i name="e_0_energy">    -34.34766114 </i>
   </energy>
  </scstep>
  <scstep>
   <time name="dav">    0.36    0.36</time>
   <time name="total">    0.44    0.44</time>
   <energy>
    <i name="e_fr_energy">    -34.95745112 </i>
    <i name="e_wo_entrp">    -34.94761554 </i>
    <i name="e_0_energy">    -34.95417260 </i>
   </energy>
  </scstep>
  <scstep>
   <time name="dav">    0.33    0.33</time>
   <time name="total">    0.41    0.42</time>
   <energy>
    <i name="e_fr_energy">    -35.45457197 </i>
    <i name="e_wo_entrp">    -35.44245311 </i>
    <i name="e_0_energy">    -35.45053235 </i>
   </energy>
  </scstep>
  <scstep>
   <time name="dav">    0.34    0.35</time>
   <time name="total">    0.42    0.43</time>
   <energy>
    <i name="e_fr_energy">    -35.61871859 </i>
    <i name="e_wo_entrp">    -35.60322651 </i>
    <i name="e_0_energy">    -35.61355457 </i>
   </energy>
  </scstep>
  <scstep>
   <time name="dav">    0.30    0.30</time>
   <time name="total">    0.38    0.38</time>
   <energy>
    <i name="e_fr_energy">    -35.74905958 </i>
    <i name="e_wo_entrp">    -35.72867194 </i>
    <i name="e_0_energy">    -35.74226370 </i>
   </energy>
  </scstep>
  <scstep>
   <time name="dav">    0.33    0.33</time>
   <time name="total">    0.41    0.41</time>
   <energy>
    <i name="e_fr_energy">    -35.79084545 </i>
    <i name="e_wo_entrp">    -35.76824031 </i>
    <i name="e_0_energy">    -35.78331040 </i>
   </energy>
  </scstep>
  <scstep>
   <time name="dav">    0.36    0.36</time>
   <time name="total">    0.44    0.45</time>
   <energy>
    <i name="e_fr_energy">    -35.83476305 </i>
    <i name="e_wo_entrp">    -35.81064295 </i>
    <i name="e_0_energy">    -35.82672302 </i>
   </energy>
  </scstep>
  <scstep>
   <time name="dav">    0.33    0.34</time>
   <time name="total">    0.41    0.42</time>
   <energy>
    <i name="e_fr_energy">    -35.93089940 </i>
    <i name="e_wo_entrp">    -35.90698488 </i>
    <i name="e_0_energy">    -35.92292790 </i>
   </energy>
  </scstep>
  <scstep>
   <time name="dav">    0.33    0.33</time>
   <time name="total">    0.41    0.41</time>
   <energy>
    <i name="e_fr_energy">    -36.07268977 </i>
    <i name="e_wo_entrp">    -36.04806717 </i>
    <i name="e_0_energy">    -36.06448224 </i>
   </energy>
  </scstep>
  <scstep>
   <time name="dav">    0.32    0.33</time>
   <time name="total">    0.41    0.42</time>
   <energy>
    <i name="e_fr_energy">    -36.35683718 </i>
    <i name="e_wo_entrp">    -36.33350820 </i>
    <i name="e_0_energy">    -36.34906086 </i>
   </energy>
  </scstep>
  <scstep>
   <time name="dav">    0.32    0.32</time>
   <time name="total">    0.40    0.41</time>
   <energy>
    <i name="e_fr_energy">    -36.42476553 </i>
    <i name="e_wo_entrp">    -36.40244345 </i>
    <i name="e_0_energy">    -36.41732484 </i>
   </energy>
  </scstep>
  <scstep>
   <time name="dav">    0.32    0.32</time>
   <time name="total">    0.40    0.40</time>
   <energy>
    <i name="e_fr_energy">    -36.44322025 </i>
    <i name="e_wo_entrp">    -36.42191737 </i>
    <i name="e_0_energy">    -36.43611929 </i>
   </energy>
  </scstep>
  <scstep>
   <time name="dav">    0.29    0.29</time>
   <time name="total">    0.37    0.38</time>
   <energy>
    <i name="e_fr_energy">    -36.44909285 </i>
    <i name="e_wo_entrp">    -36.42672081 </i>
    <i name="e_0_energy">    -36.44163550 </i>
   </energy>
  </scstep>
  <scstep>
   <time name="dav">    0.26    0.27</time>
   <time name="total">    0.35    0.35</time>
   <energy>
    <i name="e_fr_energy">    -36.45077237 </i>
    <i name="e_wo_entrp">    -36.42768405 </i>
    <i name="e_0_energy">    -36.44307627 </i>
   </energy>
  </scstep>
  <scstep>
   <time name="dav">    0.26    0.26</time>
   <time name="total">    0.34    0.34</time>
   <energy>
    <i name="e_fr_energy">    -36.45183411 </i>
    <i name="e_wo_entrp">    -36.42875331 </i>
    <i name="e_0_energy">    -36.44414051 </i>
   </energy>
  </scstep>
  <scstep>
   <time name="dav">    0.22    0.22</time>
   <time name="total">    0.30    0.31</time>
   <energy>
    <i name="e_fr_energy">    -36.45354496 </i>
    <i name="e_wo_entrp">    -36.43003898 </i>
    <i name="e_0_energy">    -36.44570963 </i>
   </energy>
  </scstep>
  <scstep>
   <time name="dav">    0.23    0.23</time>
   <time name="total">    0.31    0.32</time>
   <energy>
    <i name="e_fr_energy">    -36.45513964 </i>
    <i name="e_wo_entrp">    -36.43137095 </i>
    <i name="e_0_energy">    -36.44721674 </i>
   </energy>
  </scstep>
  <scstep>
   <time name="dav">    0.23    0.23</time>
   <time name="total">    0.31    0.31</time>
   <energy>
    <i name="e_fr_energy">    -36.45621959 </i>
    <i name="e_wo_entrp">    -36.43242454 </i>
    <i name="e_0_energy">    -36.44828791 </i>
   </energy>
  </scstep>
  <scstep>
   <time name="dav">    0.21    0.21</time>
   <time name="total">    0.29    0.30</time>
   <energy>
    <i name="e_fr_energy">    -36.45710131 </i>
    <i name="e_wo_entrp">    -36.43327836 </i>
    <i name="e_0_energy">    -36.44916033 </i>
   </energy>
  </scstep>
  <scstep>
   <time name="dav">    0.21    0.21</time>
   <time name="total">    0.29    0.29</time>
   <energy>
    <i name="e_fr_energy">    -36.45757371 </i>
    <i name="e_wo_entrp">    -36.43369211 </i>
    <i name="e_0_energy">    -36.44961318 </i>
   </energy>
  </scstep>
  <scstep>
   <time name="dav">    0.21    0.21</time>
   <time name="total">    0.23    0.23</time>
   <energy>
    <i name="alphaZ">    285.34744303 </i>
    <i name="ewald">  52652.29191795 </i>
    <i name="hartreedc"> -63622.59293338 </i>
    <i name="XCdc">    363.26450455 </i>
    <i name="pawpsdc">  10590.18191395 </i>
    <i name="pawaedc"> -11452.64206567 </i>
    <i name="eentropy">     -0.02387861 </i>
    <i name="bandstr">     -4.90294988 </i>
    <i name="atom">  11152.61838693 </i>
    <i name="e_fr_energy">    -36.45766112 </i>
    <i name="e_wo_entrp">    -36.43378252 </i>
    <i name="e_0_energy">    -36.44970159 </i>
   </energy>
  </scstep>
  <structure>
   <crystal>
    <varray name="basis" >
     <v>       2.56679773       0.00000000       0.00000000 </v>
     <v>       1.28339887       2.22291204       0.00000000 </v>
     <v>       0.00000000       0.00000000      29.67047119 </v>
    </varray>
    <i name="volume">    169.29275369 </i>
    <varray name="rec_basis" >
     <v>       0.38959050      -0.22493018       0.00000000 </v>
     <v>       0.00000000       0.44986035       0.00000000 </v>
     <v>       0.00000000       0.00000000       0.03370354 </v>
    </varray>
   </crystal>
   <varray name="positions" >
    <v>       0.00000000       0.00000000       0.00000000 </v>
    <v>       0.33333333       0.33333333       0.07063526 </v>
    <v>       0.66666667       0.66666667       0.13908594 </v>
    <v>       0.00000000       0.00000000       0.20816512 </v>
    <v>       0.33333333       0.33333333       0.27656240 </v>
    <v>       0.66666667       0.66666667       0.34556034 </v>
    <v>       0.00000000       0.00000000       0.41400593 </v>
    <v>       0.33333333       0.33333333       0.48139269 </v>
    <v>       0.66666667       0.66666667       0.53425930 </v>
    <v>       0.49886875       0.00226249       0.53425930 </v>
   </varray>
  </structure>
  <varray name="forces" >
   <v>       0.00000000       0.00132866       0.46881373 </v>
   <v>      -0.00000000      -0.00306332      -0.39035644 </v>
   <v>       0.00000000       0.00332349       0.00074429 </v>
   <v>      -0.00000000      -0.00430576      -0.00319753 </v>
   <v>       0.00000000       0.00430039      -0.02967535 </v>
   <v>      -0.00000000      -0.00328655      -0.05564858 </v>
   <v>       0.00000000       0.00272156      -0.18373520 </v>
   <v>      -0.00000000      -0.24632151      -1.39741029 </v>
   <v>      -0.00000000      -0.99998874       0.45697604 </v>
   <v>       0.00000000       1.24529180       1.13348934 </v>
  </varray>
  <varray name="stress" >
   <v>     -38.01016239      -0.00000000       0.00000000 </v>
   <v>      -0.00000000     -31.78913289       3.61589489 </v>
   <v>       0.00000000       3.61590082       7.48446265 </v>
  </varray>
  <energy>
   <i name="e_fr_energy">    -40.14205638 </i>
   <i name="e_wo_entrp">    -40.11817777 </i>
   <i name="e_0_energy">    -40.13409685 </i>
  </energy>
  <time name="totalsc">   14.89   15.05</time>
 </calculation>
 <calculation>
  <scstep>
   <time name="dav">    0.28    0.28</time>
   <time name="total">    0.36    0.36</time>
   <energy>
    <i name="alphaZ">    285.34744303 </i>
    <i name="ewald">  53092.50318425 </i>
    <i name="hartreedc"> -64064.77668433 </i>
    <i name="XCdc">    363.21702624 </i>
    <i name="pawpsdc">  10590.23134577 </i>
    <i name="pawaedc"> -11452.69499891 </i>
    <i name="eentropy">     -0.02286720 </i>
    <i name="bandstr">     -2.92227443 </i>
    <i name="atom">  11152.61838693 </i>
    <i name="e_fr_energy">    -36.49943866 </i>
    <i name="e_wo_entrp">    -36.47657145 </i>
    <i name="e_0_energy">    -36.49181626 </i>
   </energy>
  </scstep>
  <scstep>
   <time name="dav">    0.38    0.38</time>
   <time name="total">    0.46    0.47</time>
   <energy>
    <i name="e_fr_energy">    -36.56404163 </i>
    <i name="e_wo_entrp">    -36.53779568 </i>
    <i name="e_0_energy">    -36.55529298 </i>
   </energy>
  </scstep>
  <scstep>
   <time name="dav">    0.35    0.35</time>
   <time name="total">    0.43    0.44</time>
   <energy>
    <i name="e_fr_energy">    -36.56222873 </i>
    <i name="e_wo_entrp">    -36.54527694 </i>
    <i name="e_0_energy">    -36.55657813 </i>
   </energy>
  </scstep>
  <scstep>
   <time name="dav">    0.40    0.41</time>
   <time name="total">    0.48    0.49</time>
   <energy>
    <i name="e_fr_energy">    -36.56882259 </i>
    <i name="e_wo_entrp">    -36.53527663 </i>
    <i name="e_0_energy">    -36.55764060 </i>
   </energy>
  </scstep>
  <scstep>
   <time name="dav">    0.38    0.38</time>
   <time name="total">    0.46    0.46</time>
   <energy>
    <i name="e_fr_energy">    -36.55944727 </i>
    <i name="e_wo_entrp">    -36.54049446 </i>
    <i name="e_0_energy">    -36.55312967 </i>
   </energy>
  </scstep>
  <scstep>
   <time name="dav">    0.45    0.46</time>
   <time name="total">    0.53    0.54</time>
   <energy>
    <i name="e_fr_energy">    -36.55491544 </i>
    <i name="e_wo_entrp">    -36.53255073 </i>
    <i name="e_0_energy">    -36.54746054 </i>
   </energy>
  </scstep>
  <scstep>
   <time name="dav">    0.38    0.38</time>
   <time name="total">    0.46    0.46</time>
   <energy>
    <i name="e_fr_energy">    -36.55454521 </i>
    <i name="e_wo_entrp">    -36.53081892 </i>
    <i name="e_0_energy">    -36.54663645 </i>
   </energy>
  </scstep>
  <scstep>
   <time name="dav">    0.27    0.28</time>
   <time name="total">    0.30    0.30</time>
   <energy>
    <i name="alphaZ">    285.34744303 </i>
    <i name="ewald">  53092.50318425 </i>
    <i name="hartreedc"> -64059.68928324 </i>
    <i name="XCdc">    363.08722629 </i>
    <i name="pawpsdc">  10594.65027104 </i>
    <i name="pawaedc"> -11457.30744932 </i>
    <i name="eentropy">     -0.02343849 </i>
    <i name="bandstr">     -7.74099411 </i>
    <i name="atom">  11152.61838693 </i>
    <i name="e_fr_energy">    -36.55465361 </i>
    <i name="e_wo_entrp">    -36.53121512 </i>
    <i name="e_0_energy">    -36.54684078 </i>
   </energy>
  </scstep>
  <structure>
   <crystal>
    <varray name="basis" >
     <v>       2.56679773       0.00000000       0.00000000 </v>
     <v>       1.28339887       2.22291204       0.00000000 </v>
     <v>       0.00000000       0.00000000      29.67047119 </v>
    </varray>
    <i name="volume">    169.29275369 </i>
    <varray name="rec_basis" >
     <v>       0.38959050      -0.22493018       0.00000000 </v>
     <v>       0.00000000       0.44986035       0.00000000 </v>
     <v>       0.00000000       0.00000000       0.03370354 </v>
    </varray>
   </crystal>
   <varray name="positions" >
    <v>      -0.00001442       0.00002884       0.00076227 </v>
    <v>       0.33336657       0.33326685       0.07000056 </v>
    <v>       0.66663060       0.66673879       0.13908715 </v>
    <v>       0.00004672      -0.00009345       0.20815992 </v>
    <v>       0.33328667       0.33342666       0.27651414 </v>
    <v>       0.66670233       0.66659534       0.34546986 </v>
    <v>      -0.00002953       0.00005906       0.41370719 </v>
    <v>       0.33600622       0.32798755       0.47912058 </v>
    <v>       0.67751777       0.64496445       0.53500232 </v>
    <v>       0.48535581       0.02928838       0.53610230 </v>
   </varray>
  </structure>
  <varray name="forces" >
   <v>       0.00000000       0.00105515       0.29739126 </v>
   <v>      -0.00000000      -0.00253152      -0.14256054 </v>
   <v>       0.00000000       0.00228374      -0.07880362 </v>
   <v>      -0.00000000      -0.00322125      -0.01169207 </v>
   <v>       0.00000000       0.00336593      -0.03297849 </v>
   <v>      -0.00000000      -0.00334305      -0.09188524 </v>
   <v>      -0.00000000      -0.01186419      -0.48813093 </v>
   <v>      -0.00000000      -0.26338877      -0.57219269 </v>
   <v>       0.00000000       1.16018029       0.34840771 </v>
   <v>      -0.00000000      -0.88253633       0.77244460 </v>
  </varray>
  <varray name="stress" >
   <v>     -37.72303213      -0.00000000       0.00000000 </v>
   <v>      -0.00000000     -49.27836243       4.38863308 </v>
   <v>       0.00000000       4.38863736      10.21959499 </v>
  </varray>
  <energy>
   <i name="e_fr_energy">    -40.26685451 </i>
   <i name="e_wo_entrp">    -40.24341602 </i>
   <i name="e_0_energy">    -40.25904168 </i>
  </energy>
  <time name="totalsc">    3.96    4.05</time>
 </calculation>
 <calculation>
  <scstep>
   <time name="dav">    0.29    0.30</time>
   <time name="total">    0.37    0.38</time>
   <energy>
    <i name="alphaZ">    285.34744303 </i>
    <i name="ewald">  53082.12281164 </i>
    <i name="hartreedc"> -64049.11752170 </i>
    <i name="XCdc">    363.08738305 </i>
    <i name="pawpsdc">  10594.90962588 </i>
    <i name="pawaedc"> -11457.56410120 </i>
    <i name="eentropy">     -0.02359449 </i>
    <i name="bandstr">     -7.93666425 </i>
    <i name="atom">  11152.61838693 </i>
    <i name="e_fr_energy">    -36.55623111 </i>
    <i name="e_wo_entrp">    -36.53263662 </i>
    <i name="e_0_energy">    -36.54836628 </i>
   </energy>
  </scstep>
  <scstep>
   <time name="dav">    0.24    0.24</time>
   <time name="total">    0.26    0.26</time>
   <energy>
    <i name="alphaZ">    285.34744303 </i>
    <i name="ewald">  53082.12281164 </i>
    <i name="hartreedc"> -64049.11341512 </i>
    <i name="XCdc">    363.08778494 </i>
    <i name="pawpsdc">  10594.89148795 </i>
    <i name="pawaedc"> -11457.53842265 </i>
    <i name="eentropy">     -0.02374637 </i>
    <i name="bandstr">     -7.94860576 </i>
    <i name="atom">  11152.61838693 </i>
    <i name="e_fr_energy">    -36.55627541 </i>
    <i name="e_wo_entrp">    -36.53252903 </i>
    <i name="e_0_energy">    -36.54835995 </i>
   </energy>
  </scstep>
  <structure>
   <crystal>
    <varray name="basis" >
     <v>       2.56679773       0.00000000       0.00000000 </v>
     <v>       1.28339887       2.22291204       0.00000000 </v>
     <v>       0.00000000       0.00000000      29.67047119 </v>
    </varray>
    <i name="volume">    169.29275369 </i>
    <varray name="rec_basis" >
     <v>       0.38959050      -0.22493018       0.00000000 </v>
     <v>       0.00000000       0.44986035       0.00000000 </v>
     <v>       0.00000000       0.00000000       0.03370354 </v>
    </varray>
   </crystal>
   <varray name="positions" >
    <v>      -0.00001408       0.00002816       0.00074440 </v>
    <v>       0.33336580       0.33326841       0.07001544 </v>
    <v>       0.66663145       0.66673710       0.13908712 </v>
    <v>       0.00004563      -0.00009126       0.20816004 </v>
    <v>       0.33328776       0.33342448       0.27651528 </v>
    <v>       0.66670149       0.66659701       0.34547198 </v>
    <v>      -0.00002884       0.00005768       0.41371419 </v>
    <v>       0.33594358       0.32811283       0.47917383 </v>
    <v>       0.67726348       0.64547305       0.53498491 </v>
    <v>       0.48567249       0.02865503       0.53605911 </v>
   </varray>
  </structure>
  <varray name="forces" >
   <v>       0.00000000       0.00193477       0.31317176 </v>
   <v>      -0.00000000      -0.00183837      -0.15360725 </v>
   <v>       0.00000000       0.00319548      -0.07133591 </v>
   <v>      -0.00000000      -0.00331986      -0.00702340 </v>
   <v>       0.00000000       0.00459291      -0.03086258 </v>
   <v>      -0.00000000      -0.00307633      -0.09308271 </v>
   <v>      -0.00000000      -0.01097887      -0.48316999 </v>
   <v>      -0.00000000      -0.27121860      -0.60768944 </v>
   <v>       0.00000000       1.14532637       0.35217929 </v>
   <v>      -0.00000000      -0.86461749       0.78142024 </v>
  </varray>
  <varray name="stress" >
   <v>     -37.53904771      -0.00000000       0.00000000 </v>
   <v>      -0.00000000     -48.94062398       4.40067772 </v>
   <v>       0.00000000       4.40068229      10.08617419 </v>
  </varray>
  <energy>
   <i name="e_fr_energy">    -40.26693900 </i>
   <i name="e_wo_entrp">    -40.24319262 </i>
   <i name="e_0_energy">    -40.25902354 </i>
  </energy>
  <time name="totalsc">    1.11    1.19</time>
 </calculation>
 <calculation>
  <scstep>
   <time name="dav">    0.28    0.28</time>
   <time name="total">    0.36    0.36</time>
   <energy>
    <i name="alphaZ">    285.34744303 </i>
    <i name="ewald">  53621.57403218 </i>
    <i name="hartreedc"> -64588.38685764 </i>
    <i name="XCdc">    363.14826483 </i>
    <i name="pawpsdc">  10594.88146216 </i>
    <i name="pawaedc"> -11457.52843090 </i>
    <i name="eentropy">     -0.01921018 </i>
    <i name="bandstr">     -8.25517592 </i>
    <i name="atom">  11152.61838693 </i>
    <i name="e_fr_energy">    -36.62008550 </i>
    <i name="e_wo_entrp">    -36.60087533 </i>
    <i name="e_0_energy">    -36.61368211 </i>
   </energy>
  </scstep>
  <scstep>
   <time name="dav">    0.41    0.41</time>
   <time name="total">    0.50    0.50</time>
   <energy>
    <i name="e_fr_energy">    -36.73699781 </i>
    <i name="e_wo_entrp">    -36.70187153 </i>
    <i name="e_0_energy">    -36.72528905 </i>
   </energy>
  </scstep>
  <scstep>
   <time name="dav">    0.43    0.44</time>
   <time name="total">    0.51    0.52</time>
   <energy>
    <i name="e_fr_energy">    -36.70128286 </i>
    <i name="e_wo_entrp">    -36.68430159 </i>
    <i name="e_0_energy">    -36.69562244 </i>
   </energy>
  </scstep>
  <scstep>
   <time name="dav">    0.36    0.36</time>
   <time name="total">    0.44    0.44</time>
   <energy>
    <i name="e_fr_energy">    -36.69680884 </i>
    <i name="e_wo_entrp">    -36.67499824 </i>
    <i name="e_0_energy">    -36.68953864 </i>
   </energy>
  </scstep>
  <scstep>
   <time name="dav">    0.37    0.37</time>
   <time name="total">    0.45    0.45</time>
   <energy>
    <i name="e_fr_energy">    -36.69618607 </i>
    <i name="e_wo_entrp">    -36.67180351 </i>
    <i name="e_0_energy">    -36.68805855 </i>
   </energy>
  </scstep>
  <scstep>
   <time name="dav">    0.42    0.42</time>
   <time name="total">    0.50    0.51</time>
   <energy>
    <i name="e_fr_energy">    -36.69561568 </i>
    <i name="e_wo_entrp">    -36.66968819 </i>
    <i name="e_0_energy">    -36.68697318 </i>
   </energy>
  </scstep>
  <scstep>
   <time name="dav">    0.34    0.34</time>
   <time name="total">    0.42    0.42</time>
   <energy>
    <i name="e_fr_energy">    -36.69511910 </i>
    <i name="e_wo_entrp">    -36.67157904 </i>
    <i name="e_0_energy">    -36.68727241 </i>
   </energy>
  </scstep>
  <scstep>
   <time name="dav">    0.25    0.26</time>
   <time name="total">    0.28    0.28</time>
   <energy>
    <i name="alphaZ">    285.34744303 </i>
    <i name="ewald">  53621.57403218 </i>
    <i name="hartreedc"> -64586.72641297 </i>
    <i name="XCdc">    363.18893562 </i>
    <i name="pawpsdc">  10612.23035656 </i>
    <i name="pawaedc"> -11475.12175480 </i>
    <i name="eentropy">     -0.02338404 </i>
    <i name="bandstr">     -9.78273253 </i>
    <i name="atom">  11152.61838693 </i>
    <i name="e_fr_energy">    -36.69513003 </i>
    <i name="e_wo_entrp">    -36.67174598 </i>
    <i name="e_0_energy">    -36.68733535 </i>
   </energy>
  </scstep>
  <structure>
   <crystal>
    <varray name="basis" >
     <v>       2.56679773       0.00000000       0.00000000 </v>
     <v>       1.28339887       2.22291204       0.00000000 </v>
     <v>       0.00000000       0.00000000      29.67047119 </v>
    </varray>
    <i name="volume">    169.29275369 </i>
    <varray name="rec_basis" >
     <v>       0.38959050      -0.22493018       0.00000000 </v>
     <v>       0.00000000       0.44986035       0.00000000 </v>
     <v>       0.00000000       0.00000000       0.03370354 </v>
    </varray>
   </crystal>
   <varray name="positions" >
    <v>      -0.00004288       0.00008577       0.00166936 </v>
    <v>       0.33340388       0.33319223       0.06941869 </v>
    <v>       0.66657715       0.66684569       0.13897234 </v>
    <v>       0.00010711      -0.00021423       0.20814582 </v>
    <v>       0.33321256       0.33357488       0.27643886 </v>
    <v>       0.66675428       0.66649144       0.34527171 </v>
    <v>       0.00007354      -0.00014707       0.41276839 </v>
    <v>       0.34033905       0.31932190       0.47694402 </v>
    <v>       0.67084587       0.65830827       0.53596243 </v>
    <v>       0.48759819       0.02480361       0.53833467 </v>
   </varray>
  </structure>
  <varray name="forces" >
   <v>       0.00000000       0.00005572       0.09534130 </v>
   <v>      -0.00000000      -0.00108871       0.11787691 </v>
   <v>      -0.00000000      -0.00023584      -0.11560982 </v>
   <v>      -0.00000000      -0.00073371      -0.03484769 </v>
   <v>      -0.00000000      -0.00040278      -0.05426037 </v>
   <v>      -0.00000000      -0.00050543      -0.19089118 </v>
   <v>      -0.00000000      -0.04906128      -0.58411345 </v>
   <v>      -0.00000000      -0.20784428      -0.15902495 </v>
   <v>       0.00000000       0.95292366       0.33375407 </v>
   <v>      -0.00000000      -0.69310736       0.59177518 </v>
  </varray>
  <varray name="stress" >
   <v>     -37.86491832      -0.00000000       0.00000000 </v>
   <v>      -0.00000000     -48.02659286       4.74755290 </v>
   <v>       0.00000000       4.74755715      15.11879236 </v>
  </varray>
  <energy>
   <i name="e_fr_energy">    -40.41113787 </i>
   <i name="e_wo_entrp">    -40.38775382 </i>
   <i name="e_0_energy">    -40.40334319 </i>
  </energy>
  <time name="totalsc">    3.93    4.02</time>
 </calculation>
 <calculation>
  <scstep>
   <time name="dav">    0.32    0.32</time>
   <time name="total">    0.40    0.40</time>
   <energy>
    <i name="alphaZ">    285.34744303 </i>
    <i name="ewald">  55275.35489698 </i>
    <i name="hartreedc"> -66239.18274662 </i>
    <i name="XCdc">    363.58525662 </i>
    <i name="pawpsdc">  10611.95502970 </i>
    <i name="pawaedc"> -11474.83297523 </i>
    <i name="eentropy">     -0.01684009 </i>
    <i name="bandstr">    -10.67626651 </i>
    <i name="atom">  11152.61838693 </i>
    <i name="e_fr_energy">    -35.84781518 </i>
    <i name="e_wo_entrp">    -35.83097509 </i>
    <i name="e_0_energy">    -35.84220181 </i>
   </energy>
  </scstep>
  <scstep>
   <time name="dav">    0.35    0.35</time>
   <time name="total">    0.43    0.43</time>
   <energy>
    <i name="e_fr_energy">    -36.85231173 </i>
    <i name="e_wo_entrp">    -36.82009191 </i>
    <i name="e_0_energy">    -36.84157179 </i>
   </energy>
  </scstep>
  <scstep>
   <time name="dav">    0.36    0.36</time>
   <time name="total">    0.44    0.44</time>
   <energy>
    <i name="e_fr_energy">    -36.79514436 </i>
    <i name="e_wo_entrp">    -36.77809088 </i>
    <i name="e_0_energy">    -36.78945987 </i>
   </energy>
  </scstep>
  <scstep>
   <time name="dav">    0.37    0.37</time>
   <time name="total">    0.46    0.46</time>
   <energy>
    <i name="e_fr_energy">    -36.73879540 </i>
    <i name="e_wo_entrp">    -36.71608233 </i>
    <i name="e_0_energy">    -36.73122438 </i>
   </energy>
  </scstep>
  <scstep>
   <time name="dav">    0.36    0.37</time>
   <time name="total">    0.45    0.45</time>
   <energy>
    <i name="e_fr_energy">    -36.73085518 </i>
    <i name="e_wo_entrp">    -36.70429687 </i>
    <i name="e_0_energy">    -36.72200241 </i>
   </energy>
  </scstep>
  <scstep>
   <time name="dav">    0.33    0.34</time>
   <time name="total">    0.42    0.42</time>
   <energy>
    <i name="e_fr_energy">    -36.72821297 </i>
    <i name="e_wo_entrp">    -36.71081055 </i>
    <i name="e_0_energy">    -36.72241216 </i>
   </energy>
  </scstep>
  <scstep>
   <time name="dav">    0.39    0.39</time>
   <time name="total">    0.47    0.48</time>
   <energy>
    <i name="e_fr_energy">    -36.72420232 </i>
    <i name="e_wo_entrp">    -36.70260305 </i>
    <i name="e_0_energy">    -36.71700256 </i>
   </energy>
  </scstep>
  <scstep>
   <time name="dav">    0.38    0.38</time>
   <time name="total">    0.46    0.46</time>
   <energy>
    <i name="e_fr_energy">    -36.72468602 </i>
    <i name="e_wo_entrp">    -36.70353353 </i>
    <i name="e_0_energy">    -36.71763519 </i>
   </energy>
  </scstep>
  <scstep>
   <time name="dav">    0.28    0.28</time>
   <time name="total">    0.36    0.37</time>
   <energy>
    <i name="e_fr_energy">    -36.72490886 </i>
    <i name="e_wo_entrp">    -36.70361759 </i>
    <i name="e_0_energy">    -36.71781177 </i>
   </energy>
  </scstep>
  <scstep>
   <time name="dav">    0.24    0.25</time>
   <time name="total">    0.27    0.27</time>
   <energy>
    <i name="alphaZ">    285.34744303 </i>
    <i name="ewald">  55275.35489698 </i>
    <i name="hartreedc"> -66230.07883305 </i>
    <i name="XCdc">    363.57695003 </i>
    <i name="pawpsdc">  10683.11389671 </i>
    <i name="pawaedc"> -11547.12205209 </i>
    <i name="eentropy">     -0.02136327 </i>
    <i name="bandstr">    -19.51426831 </i>
    <i name="atom">  11152.61838693 </i>
    <i name="e_fr_energy">    -36.72494304 </i>
    <i name="e_wo_entrp">    -36.70357977 </i>
    <i name="e_0_energy">    -36.71782195 </i>
   </energy>
  </scstep>
  <structure>
   <crystal>
    <varray name="basis" >
     <v>       2.56679773       0.00000000       0.00000000 </v>
     <v>       1.28339887       2.22291204       0.00000000 </v>
     <v>       0.00000000       0.00000000      29.67047119 </v>
    </varray>
    <i name="volume">    169.29275369 </i>
    <varray name="rec_basis" >
     <v>       0.38959050      -0.22493018       0.00000000 </v>
     <v>       0.00000000       0.44986035       0.00000000 </v>
     <v>       0.00000000       0.00000000       0.03370354 </v>
    </varray>
   </crystal>
   <varray name="positions" >
    <v>      -0.00012930       0.00025860       0.00444422 </v>
    <v>       0.33351815       0.33296370       0.06762844 </v>
    <v>       0.66641427       0.66717146       0.13862800 </v>
    <v>       0.00029157      -0.00058314       0.20810317 </v>
    <v>       0.33298695       0.33402610       0.27620962 </v>
    <v>       0.66691265       0.66617470       0.34467089 </v>
    <v>       0.00038066      -0.00076133       0.40993098 </v>
    <v>       0.35352545       0.29294910       0.47025462 </v>
    <v>       0.65159304       0.69681393       0.53889500 </v>
    <v>       0.49337532       0.01324937       0.54516136 </v>
   </varray>
  </structure>
  <varray name="forces" >
   <v>      -0.00000000      -0.00078131      -0.77829618 </v>
   <v>       0.00000000       0.00282411       1.13526176 </v>
   <v>      -0.00000000      -0.00291537      -0.21480903 </v>
   <v>       0.00000000       0.00258846      -0.09955836 </v>
   <v>      -0.00000000      -0.00349050      -0.09401482 </v>
   <v>      -0.00000000      -0.00149496      -0.54887453 </v>
   <v>      -0.00000000      -0.18277325      -1.12354485 </v>
   <v>       0.00000000       0.06661605       1.22248572 </v>
   <v>      -0.00000000      -0.95036522      -0.14947969 </v>
   <v>       0.00000000       1.06979198       0.65082998 </v>
  </varray>
  <varray name="stress" >
   <v>     -21.85904770      -0.00000000       0.00000000 </v>
   <v>      -0.00000000     -22.12155761       7.40784994 </v>
   <v>       0.00000000       7.40785125      50.39727934 </v>
  </varray>
  <energy>
   <i name="e_fr_energy">    -40.47052888 </i>
   <i name="e_wo_entrp">    -40.44916560 </i>
   <i name="e_0_energy">    -40.46340778 </i>
  </energy>
  <time name="totalsc">    4.62    4.71</time>
 </calculation>
 <calculation>
  <scstep>
   <time name="dav">    0.29    0.29</time>
   <time name="total">    0.38    0.38</time>
   <energy>
    <i name="alphaZ">    285.34744303 </i>
    <i name="ewald">  54571.99268347 </i>
    <i name="hartreedc"> -65529.30699530 </i>
    <i name="XCdc">    363.44554845 </i>
    <i name="pawpsdc">  10682.75618372 </i>
    <i name="pawaedc"> -11546.78733361 </i>
    <i name="eentropy">     -0.02699010 </i>
    <i name="bandstr">    -16.72672818 </i>
    <i name="atom">  11152.61838693 </i>
    <i name="e_fr_energy">    -36.68780158 </i>
    <i name="e_wo_entrp">    -36.66081148 </i>
    <i name="e_0_energy">    -36.67880488 </i>
   </energy>
  </scstep>
  <scstep>
   <time name="dav">    0.40    0.40</time>
   <time name="total">    0.48    0.49</time>
   <energy>
    <i name="e_fr_energy">    -36.81748280 </i>
    <i name="e_wo_entrp">    -36.80110364 </i>
    <i name="e_0_energy">    -36.81202308 </i>
   </energy>
  </scstep>
  <scstep>
   <time name="dav">    0.41    0.41</time>
   <time name="total">    0.49    0.50</time>
   <energy>
    <i name="e_fr_energy">    -36.79900249 </i>
    <i name="e_wo_entrp">    -36.76960375 </i>
    <i name="e_0_energy">    -36.78920291 </i>
   </energy>
  </scstep>
  <scstep>
   <time name="dav">    0.42    0.42</time>
   <time name="total">    0.50    0.51</time>
   <energy>
    <i name="e_fr_energy">    -36.79052290 </i>
    <i name="e_wo_entrp">    -36.77154153 </i>
    <i name="e_0_energy">    -36.78419577 </i>
   </energy>
  </scstep>
  <scstep>
   <time name="dav">    0.42    0.43</time>
   <time name="total">    0.51    0.51</time>
   <energy>
    <i name="e_fr_energy">    -36.79087422 </i>
    <i name="e_wo_entrp">    -36.76390507 </i>
    <i name="e_0_energy">    -36.78188451 </i>
   </energy>
  </scstep>
  <scstep>
   <time name="dav">    0.39    0.40</time>
   <time name="total">    0.48    0.48</time>
   <energy>
    <i name="e_fr_energy">    -36.78861569 </i>
    <i name="e_wo_entrp">    -36.76689169 </i>
    <i name="e_0_energy">    -36.78137436 </i>
   </energy>
  </scstep>
  <scstep>
   <time name="dav">    0.35    0.35</time>
   <time name="total">    0.43    0.44</time>
   <energy>
    <i name="e_fr_energy">    -36.78836029 </i>
    <i name="e_wo_entrp">    -36.76618644 </i>
    <i name="e_0_energy">    -36.78096900 </i>
   </energy>
  </scstep>
  <scstep>
   <time name="dav">    0.27    0.27</time>
   <time name="total">    0.29    0.30</time>
   <energy>
    <i name="alphaZ">    285.34744303 </i>
    <i name="ewald">  54571.99268347 </i>
    <i name="hartreedc"> -65533.02743412 </i>
    <i name="XCdc">    363.39285908 </i>
    <i name="pawpsdc">  10649.77599135 </i>
    <i name="pawaedc"> -11513.27907026 </i>
    <i name="eentropy">     -0.02239660 </i>
    <i name="bandstr">    -13.58690371 </i>
    <i name="atom">  11152.61838693 </i>
    <i name="e_fr_energy">    -36.78844084 </i>
    <i name="e_wo_entrp">    -36.76604423 </i>
    <i name="e_0_energy">    -36.78097530 </i>
   </energy>
  </scstep>
  <structure>
   <crystal>
    <varray name="basis" >
     <v>       2.56679773       0.00000000       0.00000000 </v>
     <v>       1.28339887       2.22291204       0.00000000 </v>
     <v>       0.00000000       0.00000000      29.67047119 </v>
    </varray>
    <i name="volume">    169.29275369 </i>
    <varray name="rec_basis" >
     <v>       0.38959050      -0.22493018       0.00000000 </v>
     <v>       0.00000000       0.44986035       0.00000000 </v>
     <v>       0.00000000       0.00000000       0.03370354 </v>
    </varray>
   </crystal>
   <varray name="positions" >
    <v>      -0.00009288       0.00018577       0.00327486 </v>
    <v>       0.33347000       0.33306000       0.06838287 </v>
    <v>       0.66648291       0.66703418       0.13877311 </v>
    <v>       0.00021384      -0.00042768       0.20812114 </v>
    <v>       0.33308203       0.33383595       0.27630623 </v>
    <v>       0.66684591       0.66630818       0.34492408 </v>
    <v>       0.00025124      -0.00050247       0.41112669 </v>
    <v>       0.34796857       0.30406286       0.47307360 </v>
    <v>       0.65970637       0.68058726       0.53765919 </v>
    <v>       0.49094078       0.01811844       0.54228452 </v>
   </varray>
  </structure>
  <varray name="forces" >
   <v>      -0.00000000      -0.00051087      -0.36890942 </v>
   <v>       0.00000000       0.00154554       0.66480459 </v>
   <v>      -0.00000000      -0.00223600      -0.18247862 </v>
   <v>       0.00000000       0.00156730      -0.07067797 </v>
   <v>      -0.00000000      -0.00256401      -0.07189410 </v>
   <v>       0.00000000       0.00002161      -0.37609813 </v>
   <v>      -0.00000000      -0.12099112      -0.86431194 </v>
   <v>      -0.00000000      -0.05955565       0.60656259 </v>
   <v>       0.00000000       0.08243245       0.18098102 </v>
   <v>       0.00000000       0.10029076       0.48202197 </v>
  </varray>
  <varray name="stress" >
   <v>     -30.25075395      -0.00000000       0.00000000 </v>
   <v>      -0.00000000     -35.49747649       5.54603728 </v>
   <v>       0.00000000       5.54603813      33.22072508 </v>
  </varray>
  <energy>
   <i name="e_fr_energy">    -40.51977724 </i>
   <i name="e_wo_entrp">    -40.49738064 </i>
   <i name="e_0_energy">    -40.51231171 </i>
  </energy>
  <time name="totalsc">    4.05    4.19</time>
 </calculation>
 <calculation>
  <scstep>
   <time name="dav">    0.29    0.29</time>
   <time name="total">    0.37    0.38</time>
   <energy>
    <i name="alphaZ">    285.34744303 </i>
    <i name="ewald">  54989.26026819 </i>
    <i name="hartreedc"> -65951.11744309 </i>
    <i name="XCdc">    363.35241981 </i>
    <i name="pawpsdc">  10649.53324066 </i>
    <i name="pawaedc"> -11513.02068670 </i>
    <i name="eentropy">     -0.02339089 </i>
    <i name="bandstr">    -12.75652767 </i>
    <i name="atom">  11152.61838693 </i>
    <i name="e_fr_energy">    -36.80628972 </i>
    <i name="e_wo_entrp">    -36.78289883 </i>
    <i name="e_0_energy">    -36.79849275 </i>
   </energy>
  </scstep>
  <scstep>
   <time name="dav">    0.36    0.36</time>
   <time name="total">    0.45    0.45</time>
   <energy>
    <i name="e_fr_energy">    -36.88737907 </i>
    <i name="e_wo_entrp">    -36.86857945 </i>
    <i name="e_0_energy">    -36.88111253 </i>
   </energy>
  </scstep>
  <scstep>
   <time name="dav">    0.31    0.31</time>
   <time name="total">    0.40    0.40</time>
   <energy>
    <i name="e_fr_energy">    -36.88681089 </i>
    <i name="e_wo_entrp">    -36.86126857 </i>
    <i name="e_0_energy">    -36.87829679 </i>
   </energy>
  </scstep>
  <scstep>
   <time name="dav">    0.32    0.32</time>
   <time name="total">    0.40    0.41</time>
   <energy>
    <i name="e_fr_energy">    -36.88778593 </i>
    <i name="e_wo_entrp">    -36.87041742 </i>
    <i name="e_0_energy">    -36.88199642 </i>
   </energy>
  </scstep>
  <scstep>
   <time name="dav">    0.34    0.34</time>
   <time name="total">    0.43    0.43</time>
   <energy>
    <i name="e_fr_energy">    -36.88637372 </i>
    <i name="e_wo_entrp">    -36.86044381 </i>
    <i name="e_0_energy">    -36.87773042 </i>
   </energy>
  </scstep>
  <scstep>
   <time name="dav">    0.46    0.47</time>
   <time name="total">    0.55    0.55</time>
   <energy>
    <i name="e_fr_energy">    -36.88341580 </i>
    <i name="e_wo_entrp">    -36.86181244 </i>
    <i name="e_0_energy">    -36.87621468 </i>
   </energy>
  </scstep>
  <scstep>
   <time name="dav">    0.44    0.45</time>
   <time name="total">    0.53    0.53</time>
   <energy>
    <i name="e_fr_energy">    -36.88303999 </i>
    <i name="e_wo_entrp">    -36.86114990 </i>
    <i name="e_0_energy">    -36.87574329 </i>
   </energy>
  </scstep>
  <scstep>
   <time name="dav">    0.28    0.28</time>
   <time name="total">    0.31    0.31</time>
   <energy>
    <i name="alphaZ">    285.34744303 </i>
    <i name="ewald">  54989.26026819 </i>
    <i name="hartreedc"> -65946.81190494 </i>
    <i name="XCdc">    363.37107815 </i>
    <i name="pawpsdc">  10643.47436282 </i>
    <i name="pawaedc"> -11506.83018030 </i>
    <i name="eentropy">     -0.02214181 </i>
    <i name="bandstr">    -17.29037540 </i>
    <i name="atom">  11152.61838693 </i>
    <i name="e_fr_energy">    -36.88306332 </i>
    <i name="e_wo_entrp">    -36.86092151 </i>
    <i name="e_0_energy">    -36.87568272 </i>
   </energy>
  </scstep>
  <structure>
   <crystal>
    <varray name="basis" >
     <v>       2.56679773       0.00000000       0.00000000 </v>
     <v>       1.28339887       2.22291204       0.00000000 </v>
     <v>       0.00000000       0.00000000      29.67047119 </v>
    </varray>
    <i name="volume">    169.29275369 </i>
    <varray name="rec_basis" >
     <v>       0.38959050      -0.22493018       0.00000000 </v>
     <v>       0.00000000       0.44986035       0.00000000 </v>
     <v>       0.00000000       0.00000000       0.03370354 </v>
    </varray>
   </crystal>
   <varray name="positions" >
    <v>      -0.00010514       0.00021029       0.00310294 </v>
    <v>       0.33347355       0.33305290       0.06942426 </v>
    <v>       0.66647832       0.66704335       0.13829681 </v>
    <v>       0.00023307      -0.00046614       0.20795733 </v>
    <v>       0.33306792       0.33386416       0.27609725 </v>
    <v>       0.66688169       0.66623663       0.34396722 </v>
    <v>       0.00208162      -0.00416324       0.40859577 </v>
    <v>       0.35184008       0.29631984       0.47287157 </v>
    <v>       0.65411956       0.69176089       0.53872204 </v>
    <v>       0.49079810       0.01840381       0.54489110 </v>
   </varray>
  </structure>
  <varray name="forces" >
   <v>      -0.00000000      -0.00123618      -0.14979956 </v>
   <v>       0.00000000       0.00200709       0.25478619 </v>
   <v>      -0.00000000      -0.00335521       0.04282238 </v>
   <v>       0.00000000       0.00221329      -0.11867600 </v>
   <v>      -0.00000000      -0.00464521      -0.18667895 </v>
   <v>      -0.00000000      -0.01278691      -0.55126370 </v>
   <v>      -0.00000000      -0.09303051       0.02849286 </v>
   <v>      -0.00000000      -0.04815727       0.13521789 </v>
   <v>      -0.00000000      -0.29151224       0.02392285 </v>
   <v>       0.00000000       0.45050315       0.52117604 </v>
  </varray>
  <varray name="stress" >
   <v>     -32.97092632      -0.00000000       0.00000000 </v>
   <v>      -0.00000000     -35.25046977       5.96100871 </v>
   <v>       0.00000000       5.96101189      28.83729923 </v>
  </varray>
  <energy>
   <i name="e_fr_energy">    -40.62170126 </i>
   <i name="e_wo_entrp">    -40.59955945 </i>
   <i name="e_0_energy">    -40.61432066 </i>
  </energy>
  <time name="totalsc">    3.90    3.96</time>
 </calculation>
 <calculation>
  <scstep>
   <time name="dav">    0.28    0.28</time>
   <time name="total">    0.37    0.37</time>
   <energy>
    <i name="alphaZ">    285.34744303 </i>
    <i name="ewald">  55273.03104600 </i>
    <i name="hartreedc"> -66230.86678350 </i>
    <i name="XCdc">    363.35170020 </i>
    <i name="pawpsdc">  10643.47871284 </i>
    <i name="pawaedc"> -11506.82627528 </i>
    <i name="eentropy">     -0.02236847 </i>
    <i name="bandstr">    -16.97188230 </i>
    <i name="atom">  11152.61838693 </i>
    <i name="e_fr_energy">    -36.86002055 </i>
    <i name="e_wo_entrp">    -36.83765209 </i>
    <i name="e_0_energy">    -36.85256440 </i>
   </energy>
  </scstep>
  <scstep>
   <time name="dav">    0.37    0.37</time>
   <time name="total">    0.45    0.45</time>
   <energy>
    <i name="e_fr_energy">    -36.90292283 </i>
    <i name="e_wo_entrp">    -36.88262024 </i>
    <i name="e_0_energy">    -36.89615530 </i>
   </energy>
  </scstep>
  <scstep>
   <time name="dav">    0.32    0.32</time>
   <time name="total">    0.40    0.40</time>
   <energy>
    <i name="e_fr_energy">    -36.90233889 </i>
    <i name="e_wo_entrp">    -36.88003791 </i>
    <i name="e_0_energy">    -36.89490523 </i>
   </energy>
  </scstep>
  <scstep>
   <time name="dav">    0.30    0.30</time>
   <time name="total">    0.38    0.39</time>
   <energy>
    <i name="e_fr_energy">    -36.90172234 </i>
    <i name="e_wo_entrp">    -36.88076669 </i>
    <i name="e_0_energy">    -36.89473712 </i>
   </energy>
  </scstep>
  <scstep>
   <time name="dav">    0.41    0.41</time>
   <time name="total">    0.49    0.49</time>
   <energy>
    <i name="e_fr_energy">    -36.90150574 </i>
    <i name="e_wo_entrp">    -36.87795674 </i>
    <i name="e_0_energy">    -36.89365607 </i>
   </energy>
  </scstep>
  <scstep>
   <time name="dav">    0.33    0.34</time>
   <time name="total">    0.42    0.42</time>
   <energy>
    <i name="e_fr_energy">    -36.90172242 </i>
    <i name="e_wo_entrp">    -36.88249747 </i>
    <i name="e_0_energy">    -36.89531410 </i>
   </energy>
  </scstep>
  <scstep>
   <time name="dav">    0.26    0.27</time>
   <time name="total">    0.34    0.35</time>
   <energy>
    <i name="e_fr_energy">    -36.90097415 </i>
    <i name="e_wo_entrp">    -36.87871332 </i>
    <i name="e_0_energy">    -36.89355387 </i>
   </energy>
  </scstep>
  <scstep>
   <time name="dav">    0.23    0.23</time>
   <time name="total">    0.25    0.25</time>
   <energy>
    <i name="alphaZ">    285.34744303 </i>
    <i name="ewald">  55273.03104600 </i>
    <i name="hartreedc"> -66228.52613229 </i>
    <i name="XCdc">    363.36336321 </i>
    <i name="pawpsdc">  10642.85286073 </i>
    <i name="pawaedc"> -11506.17091795 </i>
    <i name="eentropy">     -0.02178530 </i>
    <i name="bandstr">    -19.39518786 </i>
    <i name="atom">  11152.61838693 </i>
    <i name="e_fr_energy">    -36.90092351 </i>
    <i name="e_wo_entrp">    -36.87913821 </i>
    <i name="e_0_energy">    -36.89366174 </i>
   </energy>
  </scstep>
  <structure>
   <crystal>
    <varray name="basis" >
     <v>       2.56679773       0.00000000       0.00000000 </v>
     <v>       1.28339887       2.22291204       0.00000000 </v>
     <v>       0.00000000       0.00000000      29.67047119 </v>
    </varray>
    <i name="volume">    169.29275369 </i>
    <varray name="rec_basis" >
     <v>       0.38959050      -0.22493018       0.00000000 </v>
     <v>       0.00000000       0.44986035       0.00000000 </v>
     <v>       0.00000000       0.00000000       0.03370354 </v>
    </varray>
   </crystal>
   <varray name="positions" >
    <v>      -0.00011337       0.00022674       0.00298759 </v>
    <v>       0.33347593       0.33304813       0.07012298 </v>
    <v>       0.66647525       0.66704951       0.13797724 </v>
    <v>       0.00024597      -0.00049194       0.20784743 </v>
    <v>       0.33305845       0.33388309       0.27595703 </v>
    <v>       0.66690569       0.66618862       0.34332521 </v>
    <v>       0.00330971      -0.00661941       0.40689766 </v>
    <v>       0.35443765       0.29112469       0.47273602 </v>
    <v>       0.65037111       0.69925779       0.53943516 </v>
    <v>       0.49070236       0.01859527       0.54663997 </v>
   </varray>
  </structure>
  <varray name="forces" >
   <v>      -0.00000000      -0.00056555      -0.00559328 </v>
   <v>       0.00000000       0.00215745      -0.03130904 </v>
   <v>      -0.00000000      -0.00359944       0.21245211 </v>
   <v>       0.00000000       0.00286513      -0.14875225 </v>
   <v>      -0.00000000      -0.00485544      -0.26660684 </v>
   <v>      -0.00000000      -0.02251450      -0.68779107 </v>
   <v>      -0.00000000      -0.07311547       0.56431923 </v>
   <v>      -0.00000000      -0.04933512      -0.12650897 </v>
   <v>      -0.00000000      -0.49959833      -0.08688565 </v>
   <v>       0.00000000       0.64856127       0.57667574 </v>
  </varray>
  <varray name="stress" >
   <v>     -32.95226608      -0.00000000       0.00000000 </v>
   <v>      -0.00000000     -33.74094077       6.33605503 </v>
   <v>       0.00000000       6.33605918      28.39868189 </v>
  </varray>
  <energy>
   <i name="e_fr_energy">    -40.64519591 </i>
   <i name="e_wo_entrp">    -40.62341061 </i>
   <i name="e_0_energy">    -40.63793414 </i>
  </energy>
  <time name="totalsc">    3.57    3.67</time>
 </calculation>
 <calculation>
  <scstep>
   <time name="dav">    0.28    0.29</time>
   <time name="total">    0.37    0.37</time>
   <energy>
    <i name="alphaZ">    285.34744303 </i>
    <i name="ewald">  55593.00212157 </i>
    <i name="hartreedc"> -66550.03035424 </i>
    <i name="XCdc">    363.28254931 </i>
    <i name="pawpsdc">  10642.85302705 </i>
    <i name="pawaedc"> -11506.16593437 </i>
    <i name="eentropy">     -0.02371276 </i>
    <i name="bandstr">    -17.76379177 </i>
    <i name="atom">  11152.61838693 </i>
    <i name="e_fr_energy">    -36.88026526 </i>
    <i name="e_wo_entrp">    -36.85655250 </i>
    <i name="e_0_energy">    -36.87236101 </i>
   </energy>
  </scstep>
  <scstep>
   <time name="dav">    0.36    0.36</time>
   <time name="total">    0.44    0.44</time>
   <energy>
    <i name="e_fr_energy">    -36.93902407 </i>
    <i name="e_wo_entrp">    -36.92197963 </i>
    <i name="e_0_energy">    -36.93334259 </i>
   </energy>
  </scstep>
  <scstep>
   <time name="dav">    0.33    0.33</time>
   <time name="total">    0.41    0.42</time>
   <energy>
    <i name="e_fr_energy">    -36.94565377 </i>
    <i name="e_wo_entrp">    -36.91419487 </i>
    <i name="e_0_energy">    -36.93516747 </i>
   </energy>
  </scstep>
  <scstep>
   <time name="dav">    0.38    0.38</time>
   <time name="total">    0.46    0.46</time>
   <energy>
    <i name="e_fr_energy">    -36.93435659 </i>
    <i name="e_wo_entrp">    -36.91622251 </i>
    <i name="e_0_energy">    -36.92831190 </i>
   </energy>
  </scstep>
  <scstep>
   <time name="dav">    0.44    0.45</time>
   <time name="total">    0.52    0.53</time>
   <energy>
    <i name="e_fr_energy">    -36.93135143 </i>
    <i name="e_wo_entrp">    -36.90926817 </i>
    <i name="e_0_energy">    -36.92399034 </i>
   </energy>
  </scstep>
  <scstep>
   <time name="dav">    0.39    0.39</time>
   <time name="total">    0.47    0.48</time>
   <energy>
    <i name="e_fr_energy">    -36.93139916 </i>
    <i name="e_wo_entrp">    -36.90861384 </i>
    <i name="e_0_energy">    -36.92380405 </i>
   </energy>
  </scstep>
  <scstep>
   <time name="dav">    0.29    0.29</time>
   <time name="total">    0.37    0.37</time>
   <energy>
    <i name="e_fr_energy">    -36.93137871 </i>
    <i name="e_wo_entrp">    -36.90959662 </i>
    <i name="e_0_energy">    -36.92411802 </i>
   </energy>
  </scstep>
  <scstep>
   <time name="dav">    0.23    0.24</time>
   <time name="total">    0.26    0.26</time>
   <energy>
    <i name="alphaZ">    285.34744303 </i>
    <i name="ewald">  55593.00212157 </i>
    <i name="hartreedc"> -66546.18041160 </i>
    <i name="XCdc">    363.21310149 </i>
    <i name="pawpsdc">  10636.65758959 </i>
    <i name="pawaedc"> -11499.93245348 </i>
    <i name="eentropy">     -0.02175067 </i>
    <i name="bandstr">    -21.63542999 </i>
    <i name="atom">  11152.61838693 </i>
    <i name="e_fr_energy">    -36.93140311 </i>
    <i name="e_wo_entrp">    -36.90965244 </i>
    <i name="e_0_energy">    -36.92415289 </i>
   </energy>
  </scstep>
  <structure>
   <crystal>
    <varray name="basis" >
     <v>       2.56679773       0.00000000       0.00000000 </v>
     <v>       1.28339887       2.22291204       0.00000000 </v>
     <v>       0.00000000       0.00000000      29.67047119 </v>
    </varray>
    <i name="volume">    169.29275369 </i>
    <varray name="rec_basis" >
     <v>       0.38959050      -0.22493018       0.00000000 </v>
     <v>       0.00000000       0.44986035       0.00000000 </v>
     <v>       0.00000000       0.00000000       0.03370354 </v>
    </varray>
   </crystal>
   <varray name="positions" >
    <v>      -0.00011578       0.00023156       0.00285232 </v>
    <v>       0.33345358       0.33309285       0.07082935 </v>
    <v>       0.66651353       0.66697294       0.13799754 </v>
    <v>       0.00022688      -0.00045376       0.20746999 </v>
    <v>       0.33310431       0.33379139       0.27534235 </v>
    <v>       0.66719222       0.66561556       0.34143435 </v>
    <v>       0.00549227      -0.01098453       0.40602708 </v>
    <v>       0.35783600       0.28432800       0.47236921 </v>
    <v>       0.65206888       0.69586225       0.54006088 </v>
    <v>       0.48309688       0.03380624       0.54954322 </v>
   </varray>
  </structure>
  <varray name="forces" >
   <v>      -0.00000000      -0.00029234       0.11073980 </v>
   <v>       0.00000000       0.00169939      -0.25177899 </v>
   <v>      -0.00000000      -0.00250805       0.24581295 </v>
   <v>       0.00000000       0.00217287      -0.14328360 </v>
   <v>      -0.00000000      -0.00611374      -0.42692930 </v>
   <v>      -0.00000000      -0.03108200      -0.23489980 </v>
   <v>      -0.00000000      -0.06040416       0.44222204 </v>
   <v>      -0.00000000      -0.03912598      -0.10239184 </v>
   <v>       0.00000000       0.88042770       0.30925128 </v>
   <v>      -0.00000000      -0.74477368       0.05125747 </v>
  </varray>
  <varray name="stress" >
   <v>     -32.08777147      -0.00000000       0.00000000 </v>
   <v>      -0.00000000     -43.07661544       3.07231889 </v>
   <v>       0.00000000       3.07232160      25.72399031 </v>
  </varray>
  <energy>
   <i name="e_fr_energy">    -40.68753963 </i>
   <i name="e_wo_entrp">    -40.66578896 </i>
   <i name="e_0_energy">    -40.68028940 </i>
  </energy>
  <time name="totalsc">    3.77    3.83</time>
 </calculation>
 <calculation>
  <scstep>
   <time name="dav">    0.28    0.28</time>
   <time name="total">    0.36    0.37</time>
   <energy>
    <i name="alphaZ">    285.34744303 </i>
    <i name="ewald">  55548.33958301 </i>
    <i name="hartreedc"> -66501.55132977 </i>
    <i name="XCdc">    363.22733493 </i>
    <i name="pawpsdc">  10636.83804216 </i>
    <i name="pawaedc"> -11500.11646591 </i>
    <i name="eentropy">     -0.02164421 </i>
    <i name="bandstr">    -21.61578157 </i>
    <i name="atom">  11152.61838693 </i>
    <i name="e_fr_energy">    -36.93443141 </i>
    <i name="e_wo_entrp">    -36.91278719 </i>
    <i name="e_0_energy">    -36.92721667 </i>
   </energy>
  </scstep>
  <scstep>
   <time name="dav">    0.36    0.36</time>
   <time name="total">    0.44    0.44</time>
   <energy>
    <i name="e_fr_energy">    -36.93550059 </i>
    <i name="e_wo_entrp">    -36.91288398 </i>
    <i name="e_0_energy">    -36.92796172 </i>
   </energy>
  </scstep>
  <scstep>
   <time name="dav">    0.24    0.24</time>
   <time name="total">    0.32    0.33</time>
   <energy>
    <i name="e_fr_energy">    -36.93558967 </i>
    <i name="e_wo_entrp">    -36.91489970 </i>
    <i name="e_0_energy">    -36.92869301 </i>
   </energy>
  </scstep>
  <scstep>
   <time name="dav">    0.22    0.22</time>
   <time name="total">    0.30    0.30</time>
   <energy>
    <i name="e_fr_energy">    -36.93536840 </i>
    <i name="e_wo_entrp">    -36.91327848 </i>
    <i name="e_0_energy">    -36.92800509 </i>
   </energy>
  </scstep>
  <scstep>
   <time name="dav">    0.21    0.21</time>
   <time name="total">    0.23    0.24</time>
   <energy>
    <i name="alphaZ">    285.34744303 </i>
    <i name="ewald">  55548.33958301 </i>
    <i name="hartreedc"> -66502.22404410 </i>
    <i name="XCdc">    363.23486134 </i>
    <i name="pawpsdc">  10637.60547303 </i>
    <i name="pawaedc"> -11500.87519075 </i>
    <i name="eentropy">     -0.02198671 </i>
    <i name="bandstr">    -20.95987981 </i>
    <i name="atom">  11152.61838693 </i>
    <i name="e_fr_energy">    -36.93535403 </i>
    <i name="e_wo_entrp">    -36.91336732 </i>
    <i name="e_0_energy">    -36.92802513 </i>
   </energy>
  </scstep>
  <structure>
   <crystal>
    <varray name="basis" >
     <v>       2.56679773       0.00000000       0.00000000 </v>
     <v>       1.28339887       2.22291204       0.00000000 </v>
     <v>       0.00000000       0.00000000      29.67047119 </v>
    </varray>
    <i name="volume">    169.29275369 </i>
    <varray name="rec_basis" >
     <v>       0.38959050      -0.22493018       0.00000000 </v>
     <v>       0.00000000       0.44986035       0.00000000 </v>
     <v>       0.00000000       0.00000000       0.03370354 </v>
    </varray>
   </crystal>
   <varray name="positions" >
    <v>      -0.00011545       0.00023089       0.00287109 </v>
    <v>       0.33345668       0.33308664       0.07073136 </v>
    <v>       0.66650822       0.66698357       0.13799472 </v>
    <v>       0.00022953      -0.00045906       0.20752235 </v>
    <v>       0.33309795       0.33380411       0.27542763 </v>
    <v>       0.66715247       0.66569506       0.34169667 </v>
    <v>       0.00518948      -0.01037896       0.40614785 </v>
    <v>       0.35736455       0.28527090       0.47242010 </v>
    <v>       0.65183335       0.69633331       0.53997408 </v>
    <v>       0.48415198       0.03169604       0.54914045 </v>
   </varray>
  </structure>
  <varray name="forces" >
   <v>       0.00000000       0.00104077       0.09622792 </v>
   <v>       0.00000000       0.00344830      -0.19512567 </v>
   <v>      -0.00000000      -0.00138345       0.24471986 </v>
   <v>       0.00000000       0.00392245      -0.15069269 </v>
   <v>      -0.00000000      -0.00463970      -0.40765438 </v>
   <v>      -0.00000000      -0.02934320      -0.32339506 </v>
   <v>      -0.00000000      -0.06618037       0.44925044 </v>
   <v>      -0.00000000      -0.05031482      -0.10584881 </v>
   <v>       0.00000000       0.76857533       0.27725599 </v>
   <v>      -0.00000000      -0.62512530       0.11526241 </v>
  </varray>
  <varray name="stress" >
   <v>     -33.97989504      -0.00000000       0.00000000 </v>
   <v>      -0.00000000     -44.00593392       3.44585542 </v>
   <v>       0.00000000       3.44585875      24.09237193 </v>
  </varray>
  <energy>
   <i name="e_fr_energy">    -40.68848402 </i>
   <i name="e_wo_entrp">    -40.66649731 </i>
   <i name="e_0_energy">    -40.68115512 </i>
  </energy>
  <time name="totalsc">    2.13    2.26</time>
 </calculation>
[...]
       <r>    11.2301     0.0759    57.6801 </r>
       <r>    11.3201    -0.2707    57.6558 </r>
       <r>    11.4101     0.1601    57.6702 </r>
       <r>    11.5001     1.2554    57.7832 </r>
       <r>    11.5901     2.4030    57.9995 </r>
       <r>    11.6801     2.8548    58.2564 </r>
       <r>    11.7701     2.8239    58.5106 </r>
       <r>    11.8601     2.7507    58.7581 </r>
       <r>    11.9501     2.6635    58.9979 </r>
       <r>    12.0401     2.6928    59.2402 </r>
       <r>    12.1301     2.5739    59.4719 </r>
       <r>    12.2201     1.7522    59.6296 </r>
       <r>    12.3101     0.6147    59.6849 </r>
       <r>    12.4001    -0.0244    59.6827 </r>
       <r>    12.4901    -0.1165    59.6722 </r>
       <r>    12.5801    -0.0496    59.6678 </r>
       <r>    12.6701    -0.0109    59.6668 </r>
       <r>    12.7601    -0.0015    59.6667 </r>
       <r>    12.8501    -0.0014    59.6665 </r>
       <r>    12.9401    -0.0080    59.6658 </r>
       <r>    13.0301    -0.0282    59.6633 </r>
       <r>    13.1201    -0.0405    59.6596 </r>
       <r>    13.2101     0.0726    59.6662 </r>
       <r>    13.3002     0.4286    59.7048 </r>
       <r>    13.3902     0.8194    59.7785 </r>
       <r>    13.4802     0.8149    59.8519 </r>
       <r>    13.5702     0.4207    59.8897 </r>
       <r>    13.6602     0.0685    59.8959 </r>
       <r>    13.7502    -0.0408    59.8922 </r>
       <r>    13.8402    -0.0277    59.8897 </r>
       <r>    13.9302    -0.0077    59.8890 </r>
       <r>    14.0202    -0.0012    59.8889 </r>
       <r>    14.1102    -0.0001    59.8889 </r>
       <r>    14.2002    -0.0000    59.8889 </r>
       <r>    14.2902    -0.0000    59.8889 </r>
       <r>    14.3802    -0.0000    59.8889 </r>
       <r>    14.4702    -0.0000    59.8889 </r>
       <r>    14.5602    -0.0000    59.8889 </r>
       <r>    14.6502    -0.0000    59.8889 </r>
       <r>    14.7402    -0.0000    59.8889 </r>
       <r>    14.8302    -0.0000    59.8889 </r>
       <r>    14.9202    -0.0000    59.8889 </r>
       <r>    15.0102    -0.0000    59.8889 </r>
       <r>    15.1002    -0.0000    59.8889 </r>
       <r>    15.1902    -0.0000    59.8889 </r>
       <r>    15.2802    -0.0000    59.8889 </r>
       <r>    15.3702    -0.0000    59.8889 </r>
       <r>    15.4603    -0.0000    59.8889 </r>
       <r>    15.5503    -0.0000    59.8889 </r>
       <r>    15.6403    -0.0001    59.8889 </r>
       <r>    15.7303    -0.0008    59.8888 </r>
       <r>    15.8203    -0.0050    59.8884 </r>
       <r>    15.9103    -0.0170    59.8868 </r>
       <r>    16.0003    -0.0208    59.8850 </r>
       <r>    16.0903     0.0558    59.8900 </r>
       <r>    16.1803     0.2627    59.9136 </r>
       <r>    16.2703     0.4458    59.9538 </r>
       <r>    16.3603     0.3856    59.9885 </r>
       <r>    16.4503     0.1592    60.0028 </r>
       <r>    16.5403     0.0059    60.0033 </r>
       <r>    16.6303    -0.0234    60.0012 </r>
       <r>    16.7203    -0.0107    60.0002 </r>
       <r>    16.8103    -0.0024    60.0000 </r>
       <r>    16.9003    -0.0003    60.0000 </r>
       <r>    16.9903    -0.0000    60.0000 </r>
       <r>    17.0803    -0.0000    60.0000 </r>
       <r>    17.1703    -0.0000    60.0000 </r>
       <r>    17.2603    -0.0000    60.0000 </r>
       <r>    17.3503    -0.0000    60.0000 </r>
       <r>    17.4403    -0.0000    60.0000 </r>
       <r>    17.5303    -0.0000    60.0000 </r>
       <r>    17.6204     0.0000    60.0000 </r>
       <r>    17.7104     0.0000    60.0000 </r>
       <r>    17.8004     0.0000    60.0000 </r>
       <r>    17.8904     0.0000    60.0000 </r>
       <r>    17.9804     0.0000    60.0000 </r>
       <r>    18.0704     0.0000    60.0000 </r>
       <r>    18.1604     0.0000    60.0000 </r>
       <r>    18.2504     0.0000    60.0000 </r>
      </set>
      <set comment="spin 2">
       <r>    -8.7509     0.0000     0.0000 </r>
       <r>    -8.6609     0.0000     0.0000 </r>
       <r>    -8.5709     0.0000     0.0000 </r>
       <r>    -8.4809     0.0000     0.0000 </r>
       <r>    -8.3909    -0.0000    -0.0000 </r>
       <r>    -8.3009    -0.0000    -0.0000 </r>
       <r>    -8.2109    -0.0000    -0.0000 </r>
       <r>    -8.1208    -0.0000    -0.0000 </r>
       <r>    -8.0308    -0.0000    -0.0000 </r>
       <r>    -7.9408    -0.0000    -0.0000 </r>
       <r>    -7.8508    -0.0000    -0.0000 </r>
       <r>    -7.7608    -0.0000    -0.0000 </r>
       <r>    -7.6708    -0.0000    -0.0000 </r>
       <r>    -7.5808    -0.0000    -0.0000 </r>
       <r>    -7.4908    -0.0000    -0.0000 </r>
       <r>    -7.4008    -0.0000    -0.0000 </r>
       <r>    -7.3108    -0.0003    -0.0000 </r>
       <r>    -7.2208    -0.0024    -0.0002 </r>
       <r>    -7.1308    -0.0108    -0.0012 </r>
       <r>    -7.0408    -0.0235    -0.0033 </r>
       <r>    -6.9508     0.0043    -0.0029 </r>
       <r>    -6.8608     0.1514     0.0107 </r>
       <r>    -6.7708     0.3643     0.0435 </r>
       <r>    -6.6808     0.4348     0.0826 </r>
       <r>    -6.5908     0.3659     0.1155 </r>
       <r>    -6.5008     0.3734     0.1491 </r>
       <r>    -6.4108     0.4168     0.1867 </r>
       <r>    -6.3208     0.3681     0.2198 </r>
       <r>    -6.2308     0.3680     0.2529 </r>
       <r>    -6.1408     0.4359     0.2921 </r>
       <r>    -6.0508     0.3523     0.3238 </r>
       <r>    -5.9607     0.1313     0.3357 </r>
       <r>    -5.8707    -0.0213     0.3338 </r>
       <r>    -5.7807    -0.0329     0.3308 </r>
       <r>    -5.6907     0.1000     0.3398 </r>
       <r>    -5.6007     0.3349     0.3699 </r>
       <r>    -5.5107     0.4567     0.4110 </r>
       <r>    -5.4207     0.3187     0.4397 </r>
       <r>    -5.3307     0.0947     0.4483 </r>
       <r>    -5.2407    -0.0139     0.4470 </r>
       <r>    -5.1507    -0.0234     0.4449 </r>
       <r>    -5.0607    -0.0197     0.4431 </r>
       <r>    -4.9707    -0.0250     0.4409 </r>
       <r>    -4.8807     0.0184     0.4425 </r>
       <r>    -4.7907     0.1897     0.4596 </r>
       <r>    -4.7007     0.3978     0.4954 </r>
       <r>    -4.6107     0.3761     0.5293 </r>
       <r>    -4.5207     0.0984     0.5381 </r>
       <r>    -4.4307     0.0305     0.5409 </r>
       <r>    -4.3407     0.7733     0.6105 </r>
       <r>    -4.2507     2.1102     0.8004 </r>
       <r>    -4.1607     2.6639     1.0402 </r>
       <r>    -4.0707     1.7177     1.1947 </r>
       <r>    -3.9807     0.3780     1.2288 </r>
       <r>    -3.8907    -0.1324     1.2168 </r>
       <r>    -3.8006     0.4625     1.2585 </r>
       <r>    -3.7106     1.8279     1.4230 </r>
       <r>    -3.6206     2.8411     1.6787 </r>
       <r>    -3.5306     2.6564     1.9178 </r>
       <r>    -3.4406     2.2801     2.1230 </r>
       <r>    -3.3506     2.5246     2.3502 </r>
       <r>    -3.2606     2.2319     2.5511 </r>
       <r>    -3.1706     1.0839     2.6487 </r>
       <r>    -3.0806     0.7896     2.7197 </r>
       <r>    -2.9906     2.0437     2.9037 </r>
       <r>    -2.9006     3.1189     3.1844 </r>
       <r>    -2.8106     2.6034     3.4187 </r>
       <r>    -2.7206     1.5642     3.5595 </r>
       <r>    -2.6306     1.6838     3.7110 </r>
       <r>    -2.5406     2.9126     3.9732 </r>
       <r>    -2.4506     3.4573     4.2844 </r>
       <r>    -2.3606     2.3277     4.4939 </r>
       <r>    -2.2706     1.1899     4.6010 </r>
       <r>    -2.1806     1.6218     4.7469 </r>
       <r>    -2.0906     2.4173     4.9645 </r>
       <r>    -2.0006     2.0100     5.1454 </r>
       <r>    -1.9106     1.3383     5.2659 </r>
       <r>    -1.8206     1.7469     5.4231 </r>
       <r>    -1.7306     2.9767     5.6910 </r>
       <r>    -1.6405     5.2862     6.1668 </r>
       <r>    -1.5505     9.4354     7.0160 </r>
       <r>    -1.4605    13.7940     8.2575 </r>
       <r>    -1.3705    15.0615     9.6131 </r>
       <r>    -1.2805    12.2241    10.7133 </r>
       <r>    -1.1905     8.2784    11.4584 </r>
       <r>    -1.1005     6.2964    12.0251 </r>
       <r>    -1.0105     5.8404    12.5508 </r>
       <r>    -0.9205     5.2855    13.0265 </r>
       <r>    -0.8305     4.8523    13.4633 </r>
       <r>    -0.7405     6.1327    14.0152 </r>
       <r>    -0.6505     9.2224    14.8453 </r>
       <r>    -0.5605    12.2499    15.9478 </r>
       <r>    -0.4705    14.6820    17.2693 </r>
       <r>    -0.3805    16.9528    18.7951 </r>
       <r>    -0.2905    17.3789    20.3593 </r>
       <r>    -0.2005    14.6581    21.6785 </r>
       <r>    -0.1105    10.9955    22.6682 </r>
       <r>    -0.0205     9.1057    23.4877 </r>
       <r>     0.0695     8.9905    24.2969 </r>
       <r>     0.1595     9.7167    25.1715 </r>
       <r>     0.2495    11.3962    26.1972 </r>
       <r>     0.3395    13.8615    27.4448 </r>
       <r>     0.4295    15.4018    28.8310 </r>
       <r>     0.5196    15.4176    30.2186 </r>
       <r>     0.6096    16.2519    31.6814 </r>
       <r>     0.6996    19.1995    33.4094 </r>
       <r>     0.7896    22.0510    35.3941 </r>
       <r>     0.8796    22.0839    37.3818 </r>
       <r>     0.9696    19.0656    39.0977 </r>
       <r>     1.0596    15.5436    40.4967 </r>
       <r>     1.1496    13.9321    41.7507 </r>
       <r>     1.2396    12.9457    42.9158 </r>
       <r>     1.3296     9.8890    43.8059 </r>
       <r>     1.4196     5.4359    44.2951 </r>
       <r>     1.5096     1.9514    44.4708 </r>
       <r>     1.5996     0.1793    44.4869 </r>
       <r>     1.6896    -0.3730    44.4533 </r>
       <r>     1.7796    -0.3010    44.4263 </r>
       <r>     1.8696     0.3651    44.4591 </r>
       <r>     1.9596     1.7461    44.6163 </r>
       <r>     2.0496     2.8759    44.8751 </r>
       <r>     2.1396     2.5372    45.1035 </r>
       <r>     2.2296     1.2329    45.2144 </r>
       <r>     2.3196     0.3505    45.2460 </r>
       <r>     2.4096     0.2561    45.2690 </r>
       <r>     2.4996     0.3801    45.3033 </r>
       <r>     2.5897     0.2864    45.3290 </r>
       <r>     2.6797     0.0660    45.3350 </r>
       <r>     2.7697    -0.0990    45.3261 </r>
       <r>     2.8597    -0.1600    45.3117 </r>
       <r>     2.9497     0.1713    45.3271 </r>
       <r>     3.0397     1.2875    45.4430 </r>
       <r>     3.1297     2.5442    45.6720 </r>
       <r>     3.2197     2.5100    45.8979 </r>
       <r>     3.3097     1.2300    46.0086 </r>
       <r>     3.3997     0.1502    46.0221 </r>
       <r>     3.4897    -0.1410    46.0094 </r>
       <r>     3.5797    -0.0808    46.0021 </r>
       <r>     3.6697    -0.0203    46.0003 </r>
       <r>     3.7597    -0.0030    46.0000 </r>
       <r>     3.8497    -0.0005    46.0000 </r>
       <r>     3.9397    -0.0029    45.9997 </r>
       <r>     4.0297    -0.0201    45.9979 </r>
       <r>     4.1197    -0.0801    45.9907 </r>
       <r>     4.2097    -0.1406    45.9780 </r>
       <r>     4.2997     0.1459    45.9912 </r>
       <r>     4.3897     1.2183    46.1008 </r>
       <r>     4.4797     2.5004    46.3259 </r>
       <r>     4.5697     2.5490    46.5553 </r>
       <r>     4.6597     1.3015    46.6724 </r>
       <r>     4.7498     0.1857    46.6891 </r>
       <r>     4.8398    -0.1388    46.6766 </r>
       <r>     4.9298    -0.0851    46.6690 </r>
       <r>     5.0198    -0.0222    46.6670 </r>
       <r>     5.1098    -0.0033    46.6667 </r>
       <r>     5.1998    -0.0009    46.6666 </r>
       <r>     5.2898    -0.0057    46.6661 </r>
       <r>     5.3798    -0.0347    46.6630 </r>
       <r>     5.4698    -0.1226    46.6519 </r>
       <r>     5.5598    -0.1948    46.6344 </r>
       <r>     5.6498     0.1782    46.6504 </r>
       <r>     5.7398     1.5446    46.7895 </r>
       <r>     5.8298     3.7152    47.1238 </r>
       <r>     5.9198     5.5679    47.6250 </r>
       <r>     6.0098     5.7556    48.1430 </r>
       <r>     6.0998     4.0212    48.5049 </r>
       <r>     6.1898     2.0162    48.6864 </r>
       <r>     6.2798     1.1996    48.7944 </r>
       <r>     6.3698     1.1190    48.8951 </r>
       <r>     6.4598     0.9257    48.9784 </r>
       <r>     6.5498     0.6115    49.0334 </r>
       <r>     6.6398     0.4175    49.0710 </r>
       <r>     6.7298     0.3652    49.1039 </r>
       <r>     6.8198     0.4922    49.1482 </r>
       <r>     6.9099     0.7310    49.2140 </r>
       <r>     6.9999     1.1238    49.3151 </r>
       <r>     7.0899     2.1342    49.5072 </r>
       <r>     7.1799     3.3292    49.8068 </r>
       <r>     7.2699     3.2440    50.0988 </r>
       <r>     7.3599     1.8413    50.2645 </r>
       <r>     7.4499     0.6050    50.3190 </r>
       <r>     7.5399     0.3957    50.3546 </r>
       <r>     7.6299     1.0778    50.4516 </r>
       <r>     7.7199     1.9673    50.6287 </r>
       <r>     7.8099     2.1776    50.8247 </r>
       <r>     7.8999     1.4357    50.9539 </r>
       <r>     7.9899     0.4196    50.9917 </r>
       <r>     8.0799     0.0487    50.9960 </r>
       <r>     8.1699     0.7822    51.0664 </r>
       <r>     8.2599     2.4374    51.2858 </r>
       <r>     8.3499     4.0308    51.6486 </r>
       <r>     8.4399     4.2682    52.0328 </r>
       <r>     8.5299     2.9935    52.3022 </r>
       <r>     8.6199     1.3614    52.4247 </r>
       <r>     8.7099     0.3482    52.4561 </r>
       <r>     8.7999     0.1113    52.4661 </r>
       <r>     8.8899     0.4968    52.5108 </r>
       <r>     8.9799     1.4700    52.6431 </r>
       <r>     9.0700     2.6526    52.8818 </r>
       <r>     9.1600     3.0313    53.1547 </r>
       <r>     9.2500     2.3449    53.3657 </r>
       <r>     9.3400     1.6898    53.5178 </r>
       <r>     9.4300     1.8552    53.6848 </r>
       <r>     9.5200     2.3296    53.8944 </r>
       <r>     9.6100     2.4079    54.1112 </r>
       <r>     9.7000     2.3055    54.3187 </r>
       <r>     9.7900     2.4537    54.5395 </r>
       <r>     9.8800     2.4502    54.7601 </r>
       <r>     9.9700     1.8235    54.9242 </r>
       <r>    10.0600     1.3519    55.0459 </r>
       <r>    10.1500     1.8792    55.2150 </r>
       <r>    10.2400     2.4309    55.4338 </r>
       <r>    10.3300     2.0841    55.6214 </r>
       <r>    10.4200     2.0224    55.8034 </r>
       <r>    10.5100     2.9923    56.0727 </r>
       <r>    10.6000     3.5812    56.3950 </r>
       <r>    10.6900     2.8877    56.6549 </r>
       <r>    10.7800     2.0315    56.8378 </r>
       <r>    10.8700     2.2481    57.0401 </r>
       <r>    10.9600     3.0063    57.3107 </r>
       <r>    11.0500     2.7292    57.5563 </r>
       <r>    11.1401     1.3000    57.6733 </r>
       <r>    11.2301     0.0756    57.6801 </r>
       <r>    11.3201    -0.2707    57.6558 </r>
       <r>    11.4101     0.1604    57.6702 </r>
       <r>    11.5001     1.2558    57.7832 </r>
       <r>    11.5901     2.4033    57.9996 </r>
       <r>    11.6801     2.8548    58.2565 </r>
       <r>    11.7701     2.8238    58.5107 </r>
       <r>    11.8601     2.7507    58.7582 </r>
       <r>    11.9501     2.6637    58.9980 </r>
       <r>    12.0401     2.6930    59.2404 </r>
       <r>    12.1301     2.5738    59.4720 </r>
       <r>    12.2201     1.7516    59.6297 </r>
       <r>    12.3101     0.6142    59.6849 </r>
       <r>    12.4001    -0.0246    59.6827 </r>
       <r>    12.4901    -0.1164    59.6722 </r>
       <r>    12.5801    -0.0496    59.6678 </r>
       <r>    12.6701    -0.0108    59.6668 </r>
       <r>    12.7601    -0.0015    59.6667 </r>
       <r>    12.8501    -0.0014    59.6665 </r>
       <r>    12.9401    -0.0080    59.6658 </r>
       <r>    13.0301    -0.0282    59.6633 </r>
       <r>    13.1201    -0.0405    59.6596 </r>
       <r>    13.2101     0.0727    59.6662 </r>
       <r>    13.3002     0.4288    59.7048 </r>
       <r>    13.3902     0.8196    59.7786 </r>
       <r>    13.4802     0.8148    59.8519 </r>
       <r>    13.5702     0.4204    59.8897 </r>
       <r>    13.6602     0.0684    59.8959 </r>
       <r>    13.7502    -0.0409    59.8922 </r>
       <r>    13.8402    -0.0277    59.8897 </r>
       <r>    13.9302    -0.0077    59.8890 </r>
       <r>    14.0202    -0.0012    59.8889 </r>
       <r>    14.1102    -0.0001    59.8889 </r>
       <r>    14.2002    -0.0000    59.8889 </r>
       <r>    14.2902    -0.0000    59.8889 </r>
       <r>    14.3802    -0.0000    59.8889 </r>
       <r>    14.4702    -0.0000    59.8889 </r>
       <r>    14.5602    -0.0000    59.8889 </r>
       <r>    14.6502    -0.0000    59.8889 </r>
       <r>    14.7402    -0.0000    59.8889 </r>
       <r>    14.8302    -0.0000    59.8889 </r>
       <r>    14.9202    -0.0000    59.8889 </r>
       <r>    15.0102    -0.0000    59.8889 </r>
       <r>    15.1002    -0.0000    59.8889 </r>
       <r>    15.1902    -0.0000    59.8889 </r>
       <r>    15.2802    -0.0000    59.8889 </r>
       <r>    15.3702    -0.0000    59.8889 </r>
       <r>    15.4603    -0.0000    59.8889 </r>
       <r>    15.5503    -0.0000    59.8889 </r>
       <r>    15.6403    -0.0001    59.8889 </r>
       <r>    15.7303    -0.0008    59.8888 </r>
       <r>    15.8203    -0.0050    59.8884 </r>
       <r>    15.9103    -0.0170    59.8868 </r>
       <r>    16.0003    -0.0208    59.8850 </r>
       <r>    16.0903     0.0558    59.8900 </r>
       <r>    16.1803     0.2628    59.9136 </r>
       <r>    16.2703     0.4459    59.9538 </r>
       <r>    16.3603     0.3855    59.9885 </r>
       <r>    16.4503     0.1591    60.0028 </r>
       <r>    16.5403     0.0058    60.0033 </r>
       <r>    16.6303    -0.0234    60.0012 </r>
       <r>    16.7203    -0.0107    60.0002 </r>
       <r>    16.8103    -0.0024    60.0000 </r>
       <r>    16.9003    -0.0003    60.0000 </r>
       <r>    16.9903    -0.0000    60.0000 </r>
       <r>    17.0803    -0.0000    60.0000 </r>
       <r>    17.1703    -0.0000    60.0000 </r>
       <r>    17.2603    -0.0000    60.0000 </r>
       <r>    17.3503    -0.0000    60.0000 </r>
       <r>    17.4403    -0.0000    60.0000 </r>
       <r>    17.5303    -0.0000    60.0000 </r>
       <r>    17.6204     0.0000    60.0000 </r>
       <r>    17.7104     0.0000    60.0000 </r>
       <r>    17.8004     0.0000    60.0000 </r>
       <r>    17.8904     0.0000    60.0000 </r>
       <r>    17.9804     0.0000    60.0000 </r>
       <r>    18.0704     0.0000    60.0000 </r>
       <r>    18.1604     0.0000    60.0000 </r>
       <r>    18.2504     0.0000    60.0000 </r>
      </set>
     </set>
    </array>
   </total>
  </dos>
 </calculation>
 <structure name="finalpos" >
  <crystal>
   <varray name="basis" >
    <v>       2.56679773       0.00000000       0.00000000 </v>
    <v>       1.28339887       2.22291204       0.00000000 </v>
    <v>       0.00000000       0.00000000      29.67047119 </v>
   </varray>
   <i name="volume">    169.29275369 </i>
   <varray name="rec_basis" >
    <v>       0.38959050      -0.22493018       0.00000000 </v>
    <v>       0.00000000       0.44986035       0.00000000 </v>
    <v>       0.00000000       0.00000000       0.03370354 </v>
   </varray>
  </crystal>
  <varray name="positions" >
   <v>       0.00008547      -0.00017095      -0.00146574 </v>
   <v>       0.33405689       0.33188621       0.06577209 </v>
   <v>       0.66922974       0.66154052       0.13389278 </v>
   <v>       0.00662280      -0.01324560       0.20237802 </v>
   <v>       0.34510342       0.30979316       0.27023757 </v>
   <v>       0.68544942       0.62910115       0.33878603 </v>
   <v>       0.02540157      -0.05080314       0.40690808 </v>
   <v>       0.36658169       0.26683661       0.47420851 </v>
   <v>       0.56599214       0.86801571       0.54473632 </v>
   <v>       0.50034559      -0.00069118       0.56847263 </v>
  </varray>
 </structure>
</modeling>
