unknown system                          
           1
     2.566798    0.000000    0.000000
     1.283399    2.222912    0.000000
     0.000000    0.000000   29.670471
   Cu   H 
     8     2
Direct configuration=     1
   0.00000000  0.00000000  0.00000000
   0.33333333  0.33333333  0.07063526
   0.66666667  0.66666667  0.13908594
   0.00000000  0.00000000  0.20816512
   0.33333333  0.33333333  0.27656240
   0.66666667  0.66666667  0.34556034
   0.00000000  0.00000000  0.41400593
   0.33333333  0.33333333  0.48139269
   0.66666667  0.66666667  0.53425930
   0.49886875  0.00226249  0.53425930
Direct configuration=     2
  -0.00001442  0.00002884  0.00076227
   0.33336657  0.33326685  0.07000056
   0.66663060  0.66673879  0.13908715
   0.00004672 -0.00009345  0.20815992
   0.33328667  0.33342666  0.27651414
   0.66670233  0.66659534  0.34546986
  -0.00002953  0.00005906  0.41370719
   0.33600622  0.32798755  0.47912058
   0.67751777  0.64496445  0.53500232
   0.48535581  0.02928838  0.53610230
Direct configuration=     3
  -0.00001408  0.00002816  0.00074440
   0.33336580  0.33326841  0.07001544
   0.66663145  0.66673710  0.13908712
   0.00004563 -0.00009126  0.20816004
   0.33328776  0.33342448  0.27651528
   0.66670149  0.66659701  0.34547198
  -0.00002884  0.00005768  0.41371419
   0.33594358  0.32811283  0.47917383
   0.67726348  0.64547305  0.53498491
   0.48567249  0.02865503  0.53605911
Direct configuration=     4
  -0.00004288  0.00008577  0.00166936
   0.33340388  0.33319223  0.06941869
   0.66657715  0.66684569  0.13897234
   0.00010711 -0.00021423  0.20814582
   0.33321256  0.33357488  0.27643886
   0.66675428  0.66649144  0.34527171
   0.00007354 -0.00014707  0.41276839
   0.34033905  0.31932190  0.47694402
   0.67084587  0.65830827  0.53596243
   0.48759819  0.02480361  0.53833467
Direct configuration=     5
  -0.00012930  0.00025860  0.00444422
   0.33351815  0.33296370  0.06762844
   0.66641427  0.66717146  0.13862800
   0.00029157 -0.00058314  0.20810317
   0.33298695  0.33402610  0.27620962
   0.66691265  0.66617470  0.34467089
   0.00038066 -0.00076133  0.40993098
   0.35352545  0.29294910  0.47025462
   0.65159304  0.69681393  0.53889500
   0.49337532  0.01324937  0.54516136
Direct configuration=     6
  -0.00009288  0.00018577  0.00327486
   0.33347000  0.33306000  0.06838287
   0.66648291  0.66703418  0.13877311
   0.00021384 -0.00042768  0.20812114
   0.33308203  0.33383595  0.27630623
   0.66684591  0.66630818  0.34492408
   0.00025124 -0.00050247  0.41112669
   0.34796857  0.30406286  0.47307360
   0.65970637  0.68058726  0.53765919
   0.49094078  0.01811844  0.54228452
Direct configuration=     7
  -0.00010514  0.00021029  0.00310294
   0.33347355  0.33305290  0.06942426
   0.66647832  0.66704335  0.13829681
   0.00023307 -0.00046614  0.20795733
   0.33306792  0.33386416  0.27609725
   0.66688169  0.66623663  0.34396722
   0.00208162 -0.00416324  0.40859577
   0.35184008  0.29631984  0.47287157
   0.65411956  0.69176089  0.53872204
   0.49079810  0.01840381  0.54489110
Direct configuration=     8
  -0.00011337  0.00022674  0.00298759
   0.33347593  0.33304813  0.07012298
   0.66647525  0.66704951  0.13797724
   0.00024597 -0.00049194  0.20784743
   0.33305845  0.33388309  0.27595703
   0.66690569  0.66618862  0.34332521
   0.00330971 -0.00661941  0.40689766
   0.35443765  0.29112469  0.47273602
   0.65037111  0.69925779  0.53943516
   0.49070236  0.01859527  0.54663997
Direct configuration=     9
  -0.00011578  0.00023156  0.00285232
   0.33345358  0.33309285  0.07082935
   0.66651353  0.66697294  0.13799754
   0.00022688 -0.00045376  0.20746999
   0.33310431  0.33379139  0.27534235
   0.66719222  0.66561556  0.34143435
   0.00549227 -0.01098453  0.40602708
   0.35783600  0.28432800  0.47236921
   0.65206888  0.69586225  0.54006088
   0.48309688  0.03380624  0.54954322
Direct configuration=    10
  -0.00011545  0.00023089  0.00287109
   0.33345668  0.33308664  0.07073136
   0.66650822  0.66698357  0.13799472
   0.00022953 -0.00045906  0.20752235
   0.33309795  0.33380411  0.27542763
   0.66715247  0.66569506  0.34169667
   0.00518948 -0.01037896  0.40614785
   0.35736455  0.28527090  0.47242010
   0.65183335  0.69633331  0.53997408
   0.48415198  0.03169604  0.54914045
Direct configuration=    11
  -0.00012769  0.00025539  0.00291083
   0.33340504  0.33318992  0.07098357
   0.66655151  0.66689698  0.13837636
   0.00017567 -0.00035135  0.20700627
   0.33317957  0.33364085  0.27434451
   0.66766604  0.66466792  0.33975666
   0.00753104 -0.01506209  0.40614923
   0.36048415  0.27903170  0.47197928
   0.64546957  0.70906085  0.54087067
   0.48453385  0.03093231  0.55154890
Direct configuration=    12
  -0.00013926  0.00027852  0.00294835
   0.33335628  0.33328745  0.07122174
   0.66659239  0.66681522  0.13873675
   0.00012482 -0.00024963  0.20651893
   0.33325666  0.33348669  0.27332170
   0.66815102  0.66369797  0.33792467
   0.00974224 -0.01948448  0.40615054
   0.36343006  0.27313987  0.47156300
   0.63946010  0.72107980  0.54171735
   0.48489445  0.03021110  0.55382326
Direct configuration=    13
  -0.00015366  0.00030733  0.00324822
   0.33331695  0.33336611  0.07093228
   0.66661999  0.66676002  0.13886765
   0.00007991 -0.00015983  0.20605340
   0.33343138  0.33313724  0.27179391
   0.66877977  0.66244045  0.33802772
   0.01190062 -0.02380125  0.40553497
   0.36526165  0.26947671  0.47153146
   0.63057268  0.73885464  0.54253071
   0.48905947  0.02188106  0.55540596
Direct configuration=    14
  -0.00015221  0.00030442  0.00321794
   0.33332092  0.33335816  0.07096152
   0.66661720  0.66676560  0.13885443
   0.00008445 -0.00016890  0.20610041
   0.33341373  0.33317254  0.27194821
   0.66871627  0.66256746  0.33801732
   0.01168263 -0.02336526  0.40559714
   0.36507666  0.26984668  0.47153465
   0.63147029  0.73705942  0.54244856
   0.48863881  0.02272238  0.55524611
Direct configuration=    15
  -0.00017684  0.00035369  0.00353917
   0.33327385  0.33345231  0.07059016
   0.66662659  0.66674681  0.13868807
   0.00004081 -0.00008161  0.20553363
   0.33362798  0.33274404  0.27078680
   0.66950310  0.66099379  0.33857080
   0.01372941 -0.02745883  0.40492524
   0.36634179  0.26731642  0.47157302
   0.62950334  0.74099332  0.54254126
   0.48639872  0.02720256  0.55717812
Direct configuration=    16
  -0.00017326  0.00034652  0.00349244
   0.33328069  0.33343861  0.07064418
   0.66662523  0.66674955  0.13871227
   0.00004716 -0.00009431  0.20561608
   0.33359681  0.33280637  0.27095575
   0.66938864  0.66122272  0.33849028
   0.01343167 -0.02686333  0.40502298
   0.36615775  0.26768450  0.47156744
   0.62978948  0.74042105  0.54252778
   0.48672459  0.02655082  0.55689707
Direct configuration=    17
  -0.00018448  0.00036897  0.00356516
   0.33326192  0.33347616  0.07052451
   0.66662291  0.66675419  0.13828879
   0.00004389 -0.00008778  0.20516126
   0.33376152  0.33247695  0.27098900
   0.67003900  0.65992201  0.33856690
   0.01436375 -0.02872751  0.40495731
   0.36652040  0.26695920  0.47156649
   0.62722542  0.74554916  0.54262800
   0.48721442  0.02557115  0.55767887
Direct configuration=    18
  -0.00021815  0.00043631  0.00378331
   0.33320560  0.33358880  0.07016550
   0.66661595  0.66676811  0.13701833
   0.00003409 -0.00006819  0.20379677
   0.33425565  0.33148870  0.27108873
   0.67199006  0.65601988  0.33879677
   0.01716002 -0.03432005  0.40476027
   0.36760835  0.26478329  0.47156366
   0.61953326  0.76093348  0.54292867
   0.48868393  0.02263215  0.56002426
Direct configuration=    19
  -0.00021998  0.00043996  0.00358499
   0.33320208  0.33359585  0.06994017
   0.66661805  0.66676389  0.13646182
   0.00009499 -0.00018999  0.20363422
   0.33462257  0.33075485  0.27106306
   0.67309036  0.65381927  0.33849169
   0.01819590 -0.03639180  0.40513431
   0.36788473  0.26423054  0.47158073
   0.61355758  0.77288483  0.54330130
   0.49182246  0.01635508  0.56073399
Direct configuration=    20
  -0.00021977  0.00043955  0.00360748
   0.33320248  0.33359505  0.06996572
   0.66661781  0.66676437  0.13652493
   0.00008809 -0.00017617  0.20365266
   0.33458096  0.33083808  0.27106597
   0.67296558  0.65406885  0.33852629
   0.01807842 -0.03615684  0.40509189
   0.36785339  0.26429323  0.47157879
   0.61423530  0.77152940  0.54325904
   0.49146651  0.01706697  0.56065350
Direct configuration=    21
  -0.00023982  0.00047964  0.00323383
   0.33318697  0.33362606  0.06965851
   0.66660017  0.66679967  0.13614905
   0.00016999 -0.00033997  0.20372133
   0.33503085  0.32993829  0.27092882
   0.67408881  0.65182238  0.33818698
   0.01899797 -0.03799594  0.40552711
   0.36792355  0.26415291  0.47168293
   0.61117003  0.77765993  0.54323812
   0.49194024  0.01611951  0.56159961
Direct configuration=    22
  -0.00024868  0.00049737  0.00306864
   0.33318011  0.33363978  0.06952268
   0.66659236  0.66681527  0.13598286
   0.00020619 -0.00041239  0.20375169
   0.33522976  0.32954048  0.27086819
   0.67458541  0.65082918  0.33803697
   0.01940451 -0.03880903  0.40571953
   0.36795457  0.26409087  0.47172896
   0.60981483  0.78037034  0.54322887
   0.49214969  0.01570062  0.56201790
Direct configuration=    23
  -0.00023481  0.00046962  0.00260236
   0.33320413  0.33359174  0.06913480
   0.66661892  0.66676216  0.13596804
   0.00036820 -0.00073640  0.20377125
   0.33576489  0.32847021  0.27065649
   0.67549464  0.64901071  0.33803476
   0.02020336 -0.04040672  0.40574291
   0.36787083  0.26425834  0.47201867
   0.60637405  0.78725191  0.54328457
   0.49320454  0.01359092  0.56271243
Direct configuration=    24
  -0.00019319  0.00038637  0.00120354
   0.33327619  0.33344762  0.06797115
   0.66669858  0.66660284  0.13592356
   0.00085421 -0.00170842  0.20382992
   0.33737030  0.32525940  0.27002141
   0.67822234  0.64355531  0.33802815
   0.02259990 -0.04519980  0.40581306
   0.36761963  0.26476075  0.47288779
   0.59605170  0.80789660  0.54345169
   0.49636909  0.00726182  0.56479601
Direct configuration=    25
  -0.00017325  0.00034650  0.00066252
   0.33330371  0.33339257  0.06766089
   0.66675694  0.66648612  0.13582482
   0.00112786 -0.00225572  0.20362540
   0.33802715  0.32394570  0.27004215
   0.67920479  0.64159042  0.33806719
   0.02337088 -0.04674176  0.40584573
   0.36753873  0.26492255  0.47317234
   0.59107469  0.81785062  0.54375263
   0.49863725  0.00272549  0.56527261
Direct configuration=    26
  -0.00016703  0.00033406  0.00049367
   0.33331231  0.33337539  0.06756405
   0.66677515  0.66644969  0.13579400
   0.00121327 -0.00242654  0.20356157
   0.33823216  0.32353568  0.27004863
   0.67951143  0.64097715  0.33807938
   0.02361151 -0.04722303  0.40585593
   0.36751348  0.26497305  0.47326115
   0.58952131  0.82095738  0.54384655
   0.49934517  0.00130966  0.56542137
Direct configuration=    27
  -0.00014305  0.00028610  0.00007767
   0.33333748  0.33332504  0.06741046
   0.66686305  0.66627390  0.13557227
   0.00153201 -0.00306401  0.20328254
   0.33883619  0.32232763  0.27024722
   0.68030104  0.63939793  0.33814187
   0.02410303 -0.04820605  0.40594825
   0.36747007  0.26505985  0.47337734
   0.58642865  0.82714271  0.54387650
   0.50014030 -0.00028060  0.56599216
Direct configuration=    28
  -0.00010276  0.00020552 -0.00062120
   0.33337977  0.33324046  0.06715244
   0.66701072  0.66597857  0.13519977
   0.00206748 -0.00413495  0.20281378
   0.33985093  0.32029813  0.27058085
   0.68162756  0.63674488  0.33824686
   0.02492875 -0.04985750  0.40610336
   0.36739716  0.26520568  0.47357255
   0.58123306  0.83753388  0.54392680
   0.50147609 -0.00295217  0.56695109
Direct configuration=    29
  -0.00011344  0.00022687 -0.00043601
   0.33336856  0.33326287  0.06722082
   0.66697159  0.66605683  0.13529848
   0.00192558 -0.00385116  0.20293800
   0.33958203  0.32083594  0.27049244
   0.68127604  0.63744792  0.33821904
   0.02470994 -0.04941988  0.40606225
   0.36741648  0.26516704  0.47352082
   0.58260986  0.83478028  0.54391347
   0.50112211 -0.00224422  0.56669698
Direct configuration=    30
  -0.00010591  0.00021181 -0.00081028
   0.33337982  0.33324037  0.06692810
   0.66711181  0.66577637  0.13485088
   0.00240828 -0.00481657  0.20272482
   0.34044209  0.31911582  0.27063690
   0.68224089  0.63551822  0.33842404
   0.02516238 -0.05032477  0.40628482
   0.36736015  0.26527971  0.47360194
   0.57839344  0.84321313  0.54411441
   0.50247580 -0.00495160  0.56717065
Direct configuration=    31
  -0.00010088  0.00020175 -0.00106036
   0.33338734  0.33322533  0.06673252
   0.66720551  0.66558898  0.13455181
   0.00273081 -0.00546163  0.20258239
   0.34101676  0.31796649  0.27073342
   0.68288558  0.63422885  0.33856102
   0.02546469 -0.05092938  0.40643352
   0.36732251  0.26535499  0.47365614
   0.57557615  0.84884770  0.54424868
   0.50338029 -0.00676059  0.56748714
Direct configuration=    32
  -0.00007843  0.00015686 -0.00109807
   0.33342836  0.33314328  0.06637892
   0.66737142  0.66525716  0.13428759
   0.00314249 -0.00628498  0.20266851
   0.34165517  0.31668965  0.27055216
   0.68345878  0.63308245  0.33875536
   0.02560927 -0.05121854  0.40656445
   0.36728608  0.26542784  0.47367658
   0.57328647  0.85342707  0.54431799
   0.50370914 -0.00741829  0.56782280
Direct configuration=    33
  -0.00005625  0.00011249 -0.00113535
   0.33346891  0.33306218  0.06602942
   0.66753541  0.66492919  0.13402643
   0.00354940 -0.00709880  0.20275364
   0.34228619  0.31542762  0.27037300
   0.68402533  0.63194934  0.33894746
   0.02575218 -0.05150435  0.40669386
   0.36725008  0.26549984  0.47369678
   0.57102333  0.85795335  0.54438649
   0.50403418 -0.00806836  0.56815456
Direct configuration=    34
  -0.00006690  0.00013379 -0.00111746
   0.33344945  0.33310111  0.06619718
   0.66745669  0.66508662  0.13415179
   0.00335408 -0.00670816  0.20271278
   0.34198330  0.31603341  0.27045900
   0.68375338  0.63249324  0.33885525
   0.02568358 -0.05136716  0.40663174
   0.36726736  0.26546528  0.47368709
   0.57210966  0.85578068  0.54435361
   0.50387816 -0.00775632  0.56799531
Direct configuration=    35
  -0.00006586  0.00013172 -0.00111919
   0.33345134  0.33309733  0.06618090
   0.66746433  0.66507134  0.13413962
   0.00337304 -0.00674608  0.20271674
   0.34201270  0.31597460  0.27045065
   0.68377978  0.63244044  0.33886420
   0.02569024 -0.05138048  0.40663777
   0.36726568  0.26546863  0.47368803
   0.57200420  0.85599161  0.54435680
   0.50389331 -0.00778661  0.56801077
Direct configuration=    36
  -0.00005049  0.00010097 -0.00111454
   0.33349150  0.33301700  0.06601311
   0.66761343  0.66477315  0.13411246
   0.00368497 -0.00736994  0.20269078
   0.34236775  0.31526449  0.27039443
   0.68403556  0.63192888  0.33886326
   0.02567168 -0.05134337  0.40669633
   0.36720973  0.26558054  0.47375826
   0.57075764  0.85848472  0.54449642
   0.50408698 -0.00817396  0.56801578
Direct configuration=    37
  -0.00005741  0.00011481 -0.00111663
   0.33347342  0.33305316  0.06608864
   0.66754631  0.66490738  0.13412469
   0.00354455 -0.00708910  0.20270247
   0.34220792  0.31558415  0.27041974
   0.68392042  0.63215916  0.33886369
   0.02568004 -0.05136007  0.40666997
   0.36723492  0.26553016  0.47372664
   0.57131879  0.85736242  0.54443357
   0.50399979 -0.00799959  0.56801352
Direct configuration=    38
  -0.00005440  0.00010880 -0.00111572
   0.33348127  0.33303745  0.06605584
   0.66757545  0.66484909  0.13411938
   0.00360553 -0.00721106  0.20269739
   0.34227733  0.31544534  0.27040875
   0.68397042  0.63205916  0.33886350
   0.02567641 -0.05135282  0.40668141
   0.36722398  0.26555204  0.47374037
   0.57107511  0.85784978  0.54446086
   0.50403765 -0.00807531  0.56801450
Direct configuration=    39
  -0.00005595  0.00011190 -0.00111619
   0.33347722  0.33304555  0.06607276
   0.66756042  0.66487915  0.13412211
   0.00357408 -0.00714816  0.20270001
   0.34224154  0.31551693  0.27041442
   0.68394463  0.63211073  0.33886360
   0.02567828 -0.05135656  0.40667551
   0.36722962  0.26554076  0.47373329
   0.57120078  0.85759845  0.54444679
   0.50401813 -0.00803626  0.56801400
Direct configuration=    40
  -0.00005548  0.00011096 -0.00111605
   0.33347845  0.33304309  0.06606762
   0.66756499  0.66487003  0.13412128
   0.00358363 -0.00716726  0.20269922
   0.34225240  0.31549520  0.27041269
   0.68395246  0.63209508  0.33886357
   0.02567771 -0.05135542  0.40667730
   0.36722791  0.26554418  0.47373544
   0.57116263  0.85767475  0.54445106
   0.50402406 -0.00804811  0.56801415
Direct configuration=    41
  -0.00005590  0.00011180 -0.00111618
   0.33347736  0.33304528  0.06607218
   0.66756094  0.66487812  0.13412202
   0.00357516 -0.00715032  0.20269992
   0.34224276  0.31551448  0.27041422
   0.68394552  0.63210897  0.33886359
   0.02567822 -0.05135643  0.40667571
   0.36722943  0.26554115  0.47373353
   0.57119647  0.85760705  0.54444727
   0.50401880 -0.00803760  0.56801402
Direct configuration=    42
  -0.00005569  0.00011138 -0.00111611
   0.33347791  0.33304418  0.06606990
   0.66756296  0.66487407  0.13412165
   0.00357939 -0.00715879  0.20269957
   0.34224758  0.31550484  0.27041346
   0.68394899  0.63210202  0.33886358
   0.02567796 -0.05135593  0.40667651
   0.36722867  0.26554266  0.47373449
   0.57117955  0.85764090  0.54444916
   0.50402143 -0.00804285  0.56801408
Direct configuration=    43
  -0.00005582  0.00011163 -0.00111615
   0.33347758  0.33304484  0.06607127
   0.66756174  0.66487652  0.13412187
   0.00357684 -0.00715368  0.20269978
   0.34224467  0.31551065  0.27041392
   0.68394689  0.63210621  0.33886359
   0.02567812 -0.05135623  0.40667603
   0.36722913  0.26554175  0.47373391
   0.57118976  0.85762049  0.54444802
   0.50401984 -0.00803968  0.56801404
Direct configuration=    44
  -0.00005137  0.00010275 -0.00113343
   0.33352191  0.33295619  0.06594375
   0.66775103  0.66449795  0.13413038
   0.00396434 -0.00792868  0.20263209
   0.34263059  0.31473881  0.27039458
   0.68418380  0.63163240  0.33881703
   0.02560850 -0.05121701  0.40673242
   0.36713004  0.26573992  0.47383271
   0.57043348  0.85913304  0.54447740
   0.50369644 -0.00739288  0.56809937
Direct configuration=    45
  -0.00005060  0.00010119 -0.00113645
   0.33352965  0.33294070  0.06592146
   0.66778410  0.66443180  0.13413187
   0.00403205 -0.00806410  0.20262027
   0.34269803  0.31460394  0.27039120
   0.68422520  0.63154961  0.33880889
   0.02559634 -0.05119268  0.40674227
   0.36711273  0.26577454  0.47384997
   0.57030133  0.85939734  0.54448253
   0.50363993 -0.00727986  0.56811427
Direct configuration=    46
  -0.00004904  0.00009809 -0.00114248
   0.33354514  0.33290972  0.06587690
   0.66785025  0.66429950  0.13413484
   0.00416747 -0.00833494  0.20259661
   0.34283290  0.31433421  0.27038444
   0.68430799  0.63138402  0.33879262
   0.02557201 -0.05114402  0.40676197
   0.36707810  0.26584380  0.47388450
   0.57003703  0.85992593  0.54449280
   0.50352691 -0.00705382  0.56814409
Direct configuration=    47
  -0.00004594  0.00009188 -0.00115456
   0.33357612  0.33284775  0.06578776
   0.66798255  0.66403490  0.13414079
   0.00443831 -0.00887662  0.20254930
   0.34310263  0.31379474  0.27037092
   0.68447357  0.63105286  0.33876008
   0.02552336 -0.05104671  0.40680139
   0.36700885  0.26598230  0.47395355
   0.56950844  0.86098312  0.54451333
   0.50330087 -0.00660174  0.56820373
Direct configuration=    48
  -0.00004755  0.00009511 -0.00114828
   0.33356001  0.33287998  0.06583412
   0.66791374  0.66417251  0.13413770
   0.00429745 -0.00859491  0.20257391
   0.34296235  0.31407530  0.27037795
   0.68438746  0.63122509  0.33877700
   0.02554866 -0.05109732  0.40678089
   0.36704487  0.26591027  0.47391764
   0.56978335  0.86043331  0.54450265
   0.50341843 -0.00683685  0.56817271
Direct configuration=    49
  -0.00004668  0.00009335 -0.00115168
   0.33356875  0.33286250  0.06580897
   0.66795106  0.66409787  0.13413937
   0.00437386 -0.00874772  0.20256056
   0.34303844  0.31392312  0.27037413
   0.68443417  0.63113167  0.33876782
   0.02553494 -0.05106987  0.40679201
   0.36702533  0.26594934  0.47393712
   0.56963423  0.86073155  0.54450845
   0.50335466 -0.00670932  0.56818954
Direct configuration=    50
  -0.00004724  0.00009449 -0.00114948
   0.33356311  0.33287379  0.06582521
   0.66792696  0.66414608  0.13413829
   0.00432451 -0.00864903  0.20256918
   0.34298930  0.31402140  0.27037660
   0.68440400  0.63119200  0.33877375
   0.02554380 -0.05108760  0.40678483
   0.36703795  0.26592411  0.47392453
   0.56973053  0.86053894  0.54450471
   0.50339584 -0.00679168  0.56817867
Direct configuration=    51
  -0.00004078  0.00008157 -0.00123376
   0.33363110  0.33273779  0.06581193
   0.66817612  0.66364775  0.13407564
   0.00481155 -0.00962310  0.20250937
   0.34345545  0.31308910  0.27033901
   0.68465770  0.63068461  0.33875055
   0.02546673 -0.05093346  0.40682321
   0.36690439  0.26619123  0.47404520
   0.56894745  0.86210510  0.54453250
   0.50285905 -0.00571810  0.56827264
Direct configuration=    52
  -0.00003847  0.00007694 -0.00126396
   0.33365547  0.33268906  0.06580717
   0.66826542  0.66346917  0.13405319
   0.00498608 -0.00997217  0.20248793
   0.34362250  0.31275500  0.27032554
   0.68474861  0.63050277  0.33874224
   0.02543911 -0.05087822  0.40683696
   0.36685652  0.26628695  0.47408844
   0.56866682  0.86266636  0.54454246
   0.50266668 -0.00533337  0.56830632
Direct configuration=    53
  -0.00003384  0.00006768 -0.00132436
   0.33370421  0.33259158  0.06579764
   0.66844400  0.66311200  0.13400828
   0.00533516 -0.01067032  0.20244506
   0.34395661  0.31208679  0.27029861
   0.68493045  0.63013911  0.33872561
   0.02538387 -0.05076774  0.40686447
   0.36676080  0.26647841  0.47417493
   0.56810556  0.86378888  0.54456239
   0.50228195 -0.00456390  0.56837367
Direct configuration=    54
  -0.00001842  0.00003683 -0.00143017
   0.33379562  0.33240877  0.06585114
   0.66873150  0.66253700  0.13392454
   0.00587506 -0.01175012  0.20240954
   0.34445619  0.31108762  0.27024423
   0.68515815  0.62968370  0.33873699
   0.02532944 -0.05065888  0.40687935
   0.36663970  0.26672061  0.47425225
   0.56703842  0.86592316  0.54469292
   0.50186310 -0.00372621  0.56836549
Direct configuration=    55
  -0.00002388  0.00004776 -0.00139268
   0.33376323  0.33247354  0.06583219
   0.66862963  0.66274074  0.13395421
   0.00568376 -0.01136752  0.20242213
   0.34427918  0.31144165  0.27026350
   0.68507747  0.62984506  0.33873296
   0.02534873 -0.05069745  0.40687408
   0.36668260  0.26663479  0.47422485
   0.56741653  0.86516694  0.54464667
   0.50201151 -0.00402302  0.56836839
Direct configuration=    56
  -0.00002180  0.00004359 -0.00140697
   0.33377558  0.33244885  0.06583941
   0.66866847  0.66266305  0.13394290
   0.00575670 -0.01151341  0.20241733
   0.34434667  0.31130666  0.27025615
   0.68510823  0.62978353  0.33873450
   0.02534137 -0.05068274  0.40687609
   0.36666624  0.26666751  0.47423530
   0.56727236  0.86545529  0.54466430
   0.50195492 -0.00390985  0.56836728
Direct configuration=    57
  -0.00002227  0.00004454 -0.00140371
   0.33377276  0.33245448  0.06583777
   0.66865962  0.66268077  0.13394548
   0.00574007 -0.01148014  0.20241842
   0.34433128  0.31133744  0.27025783
   0.68510122  0.62979756  0.33873414
   0.02534305 -0.05068610  0.40687563
   0.36666997  0.26666005  0.47423291
   0.56730523  0.86538954  0.54466028
   0.50196783 -0.00393565  0.56836753
Direct configuration=    58
  -0.00002182  0.00004365 -0.00140678
   0.33377541  0.33244918  0.06583932
   0.66866795  0.66266409  0.13394305
   0.00575573 -0.01151145  0.20241739
   0.34434577  0.31130846  0.27025625
   0.68510782  0.62978436  0.33873447
   0.02534147 -0.05068294  0.40687606
   0.36666646  0.26666708  0.47423516
   0.56727429  0.86545143  0.54466407
   0.50195568 -0.00391136  0.56836729
Direct configuration=    59
  -0.00002205  0.00004410 -0.00140525
   0.33377409  0.33245183  0.06583854
   0.66866378  0.66267243  0.13394426
   0.00574790 -0.01149580  0.20241791
   0.34433853  0.31132295  0.27025704
   0.68510452  0.62979096  0.33873431
   0.02534226 -0.05068452  0.40687585
   0.36666822  0.26666356  0.47423404
   0.56728976  0.86542048  0.54466218
   0.50196175 -0.00392351  0.56836741
Direct configuration=    60
  -0.00002191  0.00004383 -0.00140617
   0.33377488  0.33245024  0.06583901
   0.66866629  0.66266743  0.13394354
   0.00575260 -0.01150519  0.20241760
   0.34434287  0.31131426  0.27025657
   0.68510650  0.62978700  0.33873441
   0.02534179 -0.05068357  0.40687597
   0.36666716  0.26666567  0.47423471
   0.56728048  0.86543905  0.54466331
   0.50195811 -0.00391622  0.56836734
Direct configuration=    61
  -0.00000276  0.00000551 -0.00147166
   0.33387550  0.33224900  0.06586385
   0.66891656  0.66216688  0.13388373
   0.00615914 -0.01231827  0.20240115
   0.34471329  0.31057342  0.27022173
   0.68528357  0.62943287  0.33876646
   0.02532106 -0.05064213  0.40689545
   0.36657579  0.26684843  0.47424950
   0.56668427  0.86663146  0.54469562
   0.50134234 -0.00268468  0.56842046
Direct configuration=    62
  -0.00000121  0.00000242 -0.00147695
   0.33388363  0.33223273  0.06586586
   0.66893679  0.66212641  0.13387889
   0.00619201 -0.01238401  0.20239982
   0.34474324  0.31051352  0.27021891
   0.68529788  0.62940424  0.33876905
   0.02531939 -0.05063878  0.40689703
   0.36656840  0.26686321  0.47425070
   0.56663606  0.86672787  0.54469823
   0.50129255 -0.00258511  0.56842476
Direct configuration=    63
  -0.00000273  0.00000546 -0.00147174
   0.33387563  0.33224874  0.06586388
   0.66891688  0.66216623  0.13388365
   0.00615967 -0.01231933  0.20240113
   0.34471377  0.31057245  0.27022168
   0.68528380  0.62943241  0.33876650
   0.02532104 -0.05064207  0.40689548
   0.36657567  0.26684867  0.47424952
   0.56668349  0.86663302  0.54469566
   0.50134154 -0.00268308  0.56842053
Direct configuration=    64
  -0.00000197  0.00000394 -0.00147435
   0.33387963  0.33224074  0.06586487
   0.66892684  0.66214632  0.13388127
   0.00617584 -0.01235167  0.20240048
   0.34472851  0.31054298  0.27022030
   0.68529084  0.62941832  0.33876777
   0.02532021 -0.05064043  0.40689625
   0.36657203  0.26685594  0.47425011
   0.56665978  0.86668044  0.54469694
   0.50131705 -0.00263409  0.56842264
Direct configuration=    65
  -0.00000224  0.00000449 -0.00147341
   0.33387819  0.33224363  0.06586451
   0.66892324  0.66215351  0.13388213
   0.00617000 -0.01233999  0.20240071
   0.34472319  0.31055363  0.27022080
   0.68528829  0.62942341  0.33876731
   0.02532051 -0.05064102  0.40689598
   0.36657334  0.26685331  0.47424989
   0.56666835  0.86666331  0.54469648
   0.50132590 -0.00265179  0.56842188
Direct configuration=    66
   0.00002513 -0.00005026 -0.00147280
   0.33395336  0.33209329  0.06581913
   0.66907677  0.66184645  0.13389158
   0.00643248 -0.01286496  0.20238838
   0.34494537  0.31010926  0.27022940
   0.68536967  0.62926066  0.33877950
   0.02535269 -0.05070538  0.40690802
   0.36656414  0.26687171  0.47421629
   0.56637988  0.86724025  0.54469169
   0.50076927 -0.00153853  0.56847512
Direct configuration=    67
   0.00002189 -0.00004378 -0.00147287
   0.33394447  0.33211107  0.06582449
   0.66905862  0.66188276  0.13389047
   0.00640144 -0.01280288  0.20238984
   0.34491910  0.31016181  0.27022838
   0.68536005  0.62927991  0.33877805
   0.02534888 -0.05069777  0.40690659
   0.36656523  0.26686954  0.47422026
   0.56641399  0.86717202  0.54469225
   0.50083509 -0.00167019  0.56846883
Direct configuration=    68
   0.00002495 -0.00004989 -0.00147281
   0.33395286  0.33209429  0.06581943
   0.66907575  0.66184849  0.13389152
   0.00643074 -0.01286147  0.20238846
   0.34494390  0.31011221  0.27022934
   0.68536913  0.62926174  0.33877941
   0.02535247 -0.05070495  0.40690794
   0.36656421  0.26687159  0.47421651
   0.56638179  0.86723642  0.54469172
   0.50077296 -0.00154593  0.56847477
Direct configuration=    69
   0.00002342 -0.00004684 -0.00147284
   0.33394866  0.33210268  0.06582196
   0.66906719  0.66186563  0.13389099
   0.00641609 -0.01283218  0.20238915
   0.34493150  0.31013701  0.27022886
   0.68536459  0.62927083  0.33877873
   0.02535068 -0.05070136  0.40690727
   0.36656472  0.26687056  0.47421838
   0.56639789  0.86720422  0.54469199
   0.50080403 -0.00160806  0.56847180
Direct configuration=    70
   0.00002422 -0.00004844 -0.00147282
   0.33395086  0.33209827  0.06582063
   0.66907168  0.66185663  0.13389127
   0.00642378 -0.01284755  0.20238879
   0.34493801  0.31012399  0.27022911
   0.68536697  0.62926606  0.33877909
   0.02535162 -0.05070324  0.40690762
   0.36656445  0.26687110  0.47421740
   0.56638944  0.86722112  0.54469185
   0.50078772 -0.00157544  0.56847336
Direct configuration=    71
   0.00008547 -0.00017095 -0.00146574
   0.33405689  0.33188621  0.06577209
   0.66922974  0.66154052  0.13389278
   0.00662280 -0.01324560  0.20237802
   0.34510342  0.30979316  0.27023757
   0.68544942  0.62910115  0.33878603
   0.02540157 -0.05080314  0.40690808
   0.36658169  0.26683661  0.47420851
   0.56599214  0.86801571  0.54473632
   0.50034559 -0.00069118  0.56847263
