  34  34   0   0
  0.2629040E+02  0.7260000E-09  0.5133596E-09  0.2398379E-08  0.5000000E-15
  1.000000000000000E-004
  CAR 
 unknown system                          
     11.84084337    -10.27020639  301      0.76039296      1.00000000
    -10.270  0.0000E+00  0.0000E+00  0.0000E+00  0.0000E+00
    -10.197  0.0000E+00  0.0000E+00  0.0000E+00  0.0000E+00
    -10.123  0.0000E+00  0.0000E+00  0.0000E+00  0.0000E+00
    -10.049  0.0000E+00  0.0000E+00  0.0000E+00  0.0000E+00
     -9.975  0.0000E+00  0.0000E+00  0.0000E+00  0.0000E+00
     -9.902 -0.5466E-31 -0.5466E-31 -0.4029E-32 -0.4029E-32
     -9.828 -0.1856E-28 -0.1856E-28 -0.1372E-29 -0.1372E-29
     -9.754 -0.4799E-26 -0.4799E-26 -0.3551E-27 -0.3551E-27
     -9.681 -0.9435E-24 -0.9435E-24 -0.6990E-25 -0.6990E-25
     -9.607 -0.1409E-21 -0.1409E-21 -0.1046E-22 -0.1046E-22
     -9.533 -0.1599E-19 -0.1599E-19 -0.1189E-20 -0.1189E-20
     -9.459 -0.1376E-17 -0.1376E-17 -0.1026E-18 -0.1026E-18
     -9.386 -0.8696E-16 -0.8696E-16 -0.6512E-17 -0.6512E-17
     -9.312 -0.4288E-14 -0.4288E-14 -0.3225E-15 -0.3225E-15
     -9.238 -0.1597E-12 -0.1597E-12 -0.1210E-13 -0.1210E-13
     -9.165 -0.4493E-11 -0.4493E-11 -0.3432E-12 -0.3432E-12
     -9.091 -0.9515E-10 -0.9515E-10 -0.7356E-11 -0.7356E-11
     -9.017 -0.1513E-08 -0.1513E-08 -0.1189E-09 -0.1189E-09
     -8.944 -0.1797E-07 -0.1797E-07 -0.1443E-08 -0.1443E-08
     -8.870 -0.1582E-06 -0.1582E-06 -0.1311E-07 -0.1311E-07
     -8.796 -0.1021E-05 -0.1021E-05 -0.8839E-07 -0.8839E-07
     -8.722 -0.4732E-05 -0.4732E-05 -0.4372E-06 -0.4372E-06
     -8.649 -0.1506E-04 -0.1506E-04 -0.1547E-05 -0.1547E-05
     -8.575 -0.2920E-04 -0.2920E-04 -0.3699E-05 -0.3699E-05
     -8.501 -0.1613E-04 -0.1613E-04 -0.4888E-05 -0.4888E-05
     -8.428  0.8557E-04  0.8557E-04  0.1419E-05  0.1419E-05
     -8.354  0.2915E-03  0.2915E-03  0.2290E-04  0.2290E-04
     -8.280  0.4810E-03  0.4810E-03  0.5835E-04  0.5835E-04
     -8.207  0.5020E-03  0.5020E-03  0.9536E-04  0.9536E-04
     -8.133  0.4272E-03  0.4272E-03  0.1268E-03  0.1268E-03
     -8.059  0.5252E-03  0.5252E-03  0.1655E-03  0.1655E-03
     -7.985  0.8465E-03  0.8465E-03  0.2279E-03  0.2279E-03
     -7.912  0.1060E-02  0.1060E-02  0.3061E-03  0.3061E-03
     -7.838  0.9254E-03  0.9254E-03  0.3743E-03  0.3743E-03
     -7.764  0.6969E-03  0.6969E-03  0.4256E-03  0.4256E-03
     -7.691  0.7299E-03  0.7299E-03  0.4794E-03  0.4794E-03
     -7.617  0.9102E-03  0.9102E-03  0.5465E-03  0.5465E-03
     -7.543  0.9221E-03  0.9221E-03  0.6145E-03  0.6145E-03
     -7.469  0.9467E-03  0.9467E-03  0.6842E-03  0.6842E-03
     -7.396  0.1476E-02  0.1476E-02  0.7930E-03  0.7930E-03
     -7.322  0.2343E-02  0.2343E-02  0.9657E-03  0.9657E-03
     -7.248  0.2679E-02  0.2679E-02  0.1163E-02  0.1163E-02
     -7.175  0.2176E-02  0.2176E-02  0.1324E-02  0.1324E-02
     -7.101  0.1644E-02  0.1644E-02  0.1445E-02  0.1445E-02
     -7.027  0.1763E-02  0.1763E-02  0.1575E-02  0.1575E-02
     -6.954  0.2073E-02  0.2073E-02  0.1727E-02  0.1727E-02
     -6.880  0.1818E-02  0.1818E-02  0.1861E-02  0.1861E-02
     -6.806  0.1140E-02  0.1140E-02  0.1945E-02  0.1945E-02
     -6.732  0.7149E-03  0.7149E-03  0.1998E-02  0.1998E-02
     -6.659  0.7437E-03  0.7437E-03  0.2053E-02  0.2053E-02
     -6.585  0.1070E-02  0.1070E-02  0.2132E-02  0.2132E-02
     -6.511  0.1875E-02  0.1875E-02  0.2270E-02  0.2270E-02
     -6.438  0.3256E-02  0.3256E-02  0.2510E-02  0.2510E-02
     -6.364  0.4349E-02  0.4349E-02  0.2830E-02  0.2830E-02
     -6.290  0.4075E-02  0.4075E-02  0.3131E-02  0.3131E-02
     -6.217  0.2691E-02  0.2691E-02  0.3329E-02  0.3329E-02
     -6.143  0.1451E-02  0.1451E-02  0.3436E-02  0.3436E-02
     -6.069  0.9813E-03  0.9813E-03  0.3508E-02  0.3508E-02
     -5.995  0.9969E-03  0.9969E-03  0.3582E-02  0.3582E-02
     -5.922  0.1157E-02  0.1157E-02  0.3667E-02  0.3667E-02
     -5.848  0.1415E-02  0.1415E-02  0.3771E-02  0.3771E-02
     -5.774  0.2028E-02  0.2028E-02  0.3921E-02  0.3921E-02
     -5.701  0.3540E-02  0.3540E-02  0.4182E-02  0.4182E-02
     -5.627  0.6018E-02  0.6018E-02  0.4625E-02  0.4625E-02
     -5.553  0.8324E-02  0.8324E-02  0.5239E-02  0.5239E-02
     -5.479  0.8940E-02  0.8940E-02  0.5898E-02  0.5898E-02
     -5.406  0.7445E-02  0.7445E-02  0.6447E-02  0.6447E-02
     -5.332  0.4863E-02  0.4863E-02  0.6805E-02  0.6805E-02
     -5.258  0.2919E-02  0.2919E-02  0.7020E-02  0.7020E-02
     -5.185  0.2995E-02  0.2995E-02  0.7241E-02  0.7241E-02
     -5.111  0.5158E-02  0.5158E-02  0.7621E-02  0.7621E-02
     -5.037  0.7892E-02  0.7892E-02  0.8203E-02  0.8203E-02
     -4.964  0.9208E-02  0.9208E-02  0.8881E-02  0.8881E-02
     -4.890  0.8331E-02  0.8331E-02  0.9495E-02  0.9495E-02
     -4.816  0.5975E-02  0.5975E-02  0.9936E-02  0.9936E-02
     -4.742  0.3237E-02  0.3237E-02  0.1017E-01  0.1017E-01
     -4.669  0.1024E-02  0.1024E-02  0.1025E-01  0.1025E-01
     -4.595  0.2019E-03  0.2019E-03  0.1026E-01  0.1026E-01
     -4.521  0.1398E-02  0.1398E-02  0.1037E-01  0.1037E-01
     -4.448  0.4490E-02  0.4490E-02  0.1070E-01  0.1070E-01
     -4.374  0.8360E-02  0.8360E-02  0.1131E-01  0.1131E-01
     -4.300  0.1128E-01  0.1128E-01  0.1215E-01  0.1215E-01
     -4.227  0.1214E-01  0.1214E-01  0.1304E-01  0.1304E-01
     -4.153  0.1170E-01  0.1170E-01  0.1390E-01  0.1390E-01
     -4.079  0.1214E-01  0.1214E-01  0.1480E-01  0.1480E-01
     -4.005  0.1470E-01  0.1470E-01  0.1588E-01  0.1588E-01
     -3.932  0.1817E-01  0.1817E-01  0.1722E-01  0.1722E-01
     -3.858  0.2045E-01  0.2045E-01  0.1873E-01  0.1873E-01
     -3.784  0.2146E-01  0.2146E-01  0.2031E-01  0.2031E-01
     -3.711  0.2278E-01  0.2278E-01  0.2199E-01  0.2199E-01
     -3.637  0.2467E-01  0.2467E-01  0.2381E-01  0.2381E-01
     -3.563  0.2601E-01  0.2601E-01  0.2572E-01  0.2572E-01
     -3.489  0.2742E-01  0.2742E-01  0.2774E-01  0.2774E-01
     -3.416  0.3123E-01  0.3123E-01  0.3005E-01  0.3005E-01
     -3.342  0.3750E-01  0.3750E-01  0.3281E-01  0.3281E-01
     -3.268  0.4247E-01  0.4247E-01  0.3594E-01  0.3594E-01
     -3.195  0.4295E-01  0.4295E-01  0.3911E-01  0.3911E-01
     -3.121  0.4025E-01  0.4025E-01  0.4207E-01  0.4207E-01
     -3.047  0.3759E-01  0.3759E-01  0.4484E-01  0.4484E-01
     -2.974  0.3586E-01  0.3586E-01  0.4749E-01  0.4749E-01
     -2.900  0.3461E-01  0.3461E-01  0.5004E-01  0.5004E-01
     -2.826  0.3530E-01  0.3530E-01  0.5264E-01  0.5264E-01
     -2.752  0.3999E-01  0.3999E-01  0.5559E-01  0.5559E-01
     -2.679  0.4760E-01  0.4760E-01  0.5909E-01  0.5909E-01
     -2.605  0.5421E-01  0.5421E-01  0.6309E-01  0.6309E-01
     -2.531  0.5712E-01  0.5712E-01  0.6730E-01  0.6730E-01
     -2.458  0.5730E-01  0.5730E-01  0.7152E-01  0.7152E-01
     -2.384  0.5797E-01  0.5797E-01  0.7580E-01  0.7580E-01
     -2.310  0.6168E-01  0.6168E-01  0.8034E-01  0.8034E-01
     -2.237  0.6840E-01  0.6840E-01  0.8538E-01  0.8538E-01
     -2.163  0.7568E-01  0.7568E-01  0.9096E-01  0.9096E-01
     -2.089  0.8010E-01  0.8010E-01  0.9686E-01  0.9686E-01
     -2.015  0.7926E-01  0.7926E-01  0.1027E+00  0.1027E+00
     -1.942  0.7377E-01  0.7377E-01  0.1081E+00  0.1081E+00
     -1.868  0.6672E-01  0.6672E-01  0.1131E+00  0.1131E+00
     -1.794  0.6101E-01  0.6101E-01  0.1176E+00  0.1176E+00
     -1.721  0.5790E-01  0.5790E-01  0.1218E+00  0.1218E+00
     -1.647  0.5774E-01  0.5774E-01  0.1261E+00  0.1261E+00
     -1.573  0.6087E-01  0.6087E-01  0.1306E+00  0.1306E+00
     -1.499  0.6650E-01  0.6650E-01  0.1355E+00  0.1355E+00
     -1.426  0.7163E-01  0.7163E-01  0.1407E+00  0.1407E+00
     -1.352  0.7394E-01  0.7394E-01  0.1462E+00  0.1462E+00
     -1.278  0.7498E-01  0.7498E-01  0.1517E+00  0.1517E+00
     -1.205  0.7723E-01  0.7723E-01  0.1574E+00  0.1574E+00
     -1.131  0.7992E-01  0.7992E-01  0.1633E+00  0.1633E+00
     -1.057  0.8199E-01  0.8199E-01  0.1693E+00  0.1693E+00
     -0.984  0.8626E-01  0.8626E-01  0.1757E+00  0.1757E+00
     -0.910  0.9532E-01  0.9532E-01  0.1827E+00  0.1827E+00
     -0.836  0.1045E+00  0.1045E+00  0.1904E+00  0.1904E+00
     -0.762  0.1037E+00  0.1037E+00  0.1981E+00  0.1981E+00
     -0.689  0.8718E-01  0.8718E-01  0.2045E+00  0.2045E+00
     -0.615  0.5987E-01  0.5987E-01  0.2089E+00  0.2089E+00
     -0.541  0.3333E-01  0.3333E-01  0.2114E+00  0.2114E+00
     -0.468  0.1618E-01  0.1618E-01  0.2126E+00  0.2126E+00
     -0.394  0.9253E-02  0.9253E-02  0.2132E+00  0.2132E+00
     -0.320  0.8192E-02  0.8192E-02  0.2138E+00  0.2138E+00
     -0.247  0.8290E-02  0.8290E-02  0.2145E+00  0.2145E+00
     -0.173  0.6998E-02  0.6998E-02  0.2150E+00  0.2150E+00
     -0.099  0.4270E-02  0.4270E-02  0.2153E+00  0.2153E+00
     -0.025  0.1592E-02  0.1592E-02  0.2154E+00  0.2154E+00
      0.048  0.4833E-03  0.4833E-03  0.2154E+00  0.2154E+00
      0.122  0.1457E-02  0.1457E-02  0.2156E+00  0.2156E+00
      0.196  0.3848E-02  0.3848E-02  0.2158E+00  0.2158E+00
      0.269  0.6386E-02  0.6386E-02  0.2163E+00  0.2163E+00
      0.343  0.8186E-02  0.8186E-02  0.2169E+00  0.2169E+00
      0.417  0.9428E-02  0.9428E-02  0.2176E+00  0.2176E+00
      0.491  0.1079E-01  0.1079E-01  0.2184E+00  0.2184E+00
      0.564  0.1202E-01  0.1202E-01  0.2193E+00  0.2193E+00
      0.638  0.1185E-01  0.1185E-01  0.2202E+00  0.2202E+00
      0.712  0.9809E-02  0.9809E-02  0.2209E+00  0.2209E+00
      0.785  0.7219E-02  0.7219E-02  0.2214E+00  0.2214E+00
      0.859  0.5650E-02  0.5650E-02  0.2218E+00  0.2218E+00
      0.933  0.5437E-02  0.5437E-02  0.2222E+00  0.2222E+00
      1.006  0.6068E-02  0.6068E-02  0.2227E+00  0.2227E+00
      1.080  0.6906E-02  0.6906E-02  0.2232E+00  0.2232E+00
      1.154  0.7163E-02  0.7163E-02  0.2237E+00  0.2237E+00
      1.228  0.6133E-02  0.6133E-02  0.2242E+00  0.2242E+00
      1.301  0.4102E-02  0.4102E-02  0.2245E+00  0.2245E+00
      1.375  0.2548E-02  0.2548E-02  0.2247E+00  0.2247E+00
      1.449  0.2895E-02  0.2895E-02  0.2249E+00  0.2249E+00
      1.522  0.4913E-02  0.4913E-02  0.2252E+00  0.2252E+00
      1.596  0.6666E-02  0.6666E-02  0.2257E+00  0.2257E+00
      1.670  0.6699E-02  0.6699E-02  0.2262E+00  0.2262E+00
      1.743  0.5856E-02  0.5856E-02  0.2266E+00  0.2266E+00
      1.817  0.5883E-02  0.5883E-02  0.2271E+00  0.2271E+00
      1.891  0.6873E-02  0.6873E-02  0.2276E+00  0.2276E+00
      1.965  0.7579E-02  0.7579E-02  0.2281E+00  0.2281E+00
      2.038  0.7574E-02  0.7574E-02  0.2287E+00  0.2287E+00
      2.112  0.7470E-02  0.7470E-02  0.2293E+00  0.2293E+00
      2.186  0.7491E-02  0.7491E-02  0.2298E+00  0.2298E+00
      2.259  0.7239E-02  0.7239E-02  0.2303E+00  0.2303E+00
      2.333  0.6662E-02  0.6662E-02  0.2308E+00  0.2308E+00
      2.407  0.6332E-02  0.6332E-02  0.2313E+00  0.2313E+00
      2.480  0.6570E-02  0.6570E-02  0.2318E+00  0.2318E+00
      2.554  0.6787E-02  0.6787E-02  0.2323E+00  0.2323E+00
      2.628  0.6191E-02  0.6191E-02  0.2327E+00  0.2327E+00
      2.702  0.4907E-02  0.4907E-02  0.2331E+00  0.2331E+00
      2.775  0.3890E-02  0.3890E-02  0.2334E+00  0.2334E+00
      2.849  0.4046E-02  0.4046E-02  0.2337E+00  0.2337E+00
      2.923  0.5653E-02  0.5653E-02  0.2341E+00  0.2341E+00
      2.996  0.7808E-02  0.7808E-02  0.2347E+00  0.2347E+00
      3.070  0.8530E-02  0.8530E-02  0.2353E+00  0.2353E+00
      3.144  0.6741E-02  0.6741E-02  0.2358E+00  0.2358E+00
      3.218  0.3911E-02  0.3911E-02  0.2361E+00  0.2361E+00
      3.291  0.2501E-02  0.2501E-02  0.2363E+00  0.2363E+00
      3.365  0.3290E-02  0.3290E-02  0.2365E+00  0.2365E+00
      3.439  0.5078E-02  0.5078E-02  0.2369E+00  0.2369E+00
      3.512  0.6318E-02  0.6318E-02  0.2374E+00  0.2374E+00
      3.586  0.6368E-02  0.6368E-02  0.2378E+00  0.2378E+00
      3.660  0.5730E-02  0.5730E-02  0.2382E+00  0.2382E+00
      3.733  0.5392E-02  0.5392E-02  0.2386E+00  0.2386E+00
      3.807  0.5723E-02  0.5723E-02  0.2391E+00  0.2391E+00
      3.881  0.6265E-02  0.6265E-02  0.2395E+00  0.2395E+00
      3.955  0.6517E-02  0.6517E-02  0.2400E+00  0.2400E+00
      4.028  0.6348E-02  0.6348E-02  0.2405E+00  0.2405E+00
      4.102  0.5792E-02  0.5792E-02  0.2409E+00  0.2409E+00
      4.176  0.4970E-02  0.4970E-02  0.2413E+00  0.2413E+00
      4.249  0.4234E-02  0.4234E-02  0.2416E+00  0.2416E+00
      4.323  0.4087E-02  0.4087E-02  0.2419E+00  0.2419E+00
      4.397  0.4541E-02  0.4541E-02  0.2422E+00  0.2422E+00
      4.470  0.4853E-02  0.4853E-02  0.2426E+00  0.2426E+00
      4.544  0.4646E-02  0.4646E-02  0.2429E+00  0.2429E+00
      4.618  0.4824E-02  0.4824E-02  0.2433E+00  0.2433E+00
      4.692  0.6366E-02  0.6366E-02  0.2437E+00  0.2437E+00
      4.765  0.8553E-02  0.8553E-02  0.2444E+00  0.2444E+00
      4.839  0.9416E-02  0.9416E-02  0.2451E+00  0.2451E+00
      4.913  0.8013E-02  0.8013E-02  0.2457E+00  0.2457E+00
      4.986  0.5453E-02  0.5453E-02  0.2461E+00  0.2461E+00
      5.060  0.3489E-02  0.3489E-02  0.2463E+00  0.2463E+00
      5.134  0.2973E-02  0.2973E-02  0.2465E+00  0.2465E+00
      5.208  0.3938E-02  0.3937E-02  0.2468E+00  0.2468E+00
      5.281  0.6002E-02  0.6002E-02  0.2473E+00  0.2473E+00
      5.355  0.8104E-02  0.8104E-02  0.2479E+00  0.2479E+00
      5.429  0.9125E-02  0.9125E-02  0.2485E+00  0.2485E+00
      5.502  0.9264E-02  0.9264E-02  0.2492E+00  0.2492E+00
      5.576  0.9379E-02  0.9379E-02  0.2499E+00  0.2499E+00
      5.650  0.9345E-02  0.9345E-02  0.2506E+00  0.2506E+00
      5.723  0.8708E-02  0.8708E-02  0.2512E+00  0.2512E+00
      5.797  0.8075E-02  0.8074E-02  0.2518E+00  0.2518E+00
      5.871  0.8400E-02  0.8400E-02  0.2525E+00  0.2525E+00
      5.945  0.9585E-02  0.9585E-02  0.2532E+00  0.2532E+00
      6.018  0.1059E-01  0.1059E-01  0.2539E+00  0.2539E+00
      6.092  0.1051E-01  0.1051E-01  0.2547E+00  0.2547E+00
      6.166  0.9320E-02  0.9320E-02  0.2554E+00  0.2554E+00
      6.239  0.7895E-02  0.7895E-02  0.2560E+00  0.2560E+00
      6.313  0.7380E-02  0.7380E-02  0.2565E+00  0.2565E+00
      6.387  0.8047E-02  0.8047E-02  0.2571E+00  0.2571E+00
      6.460  0.9164E-02  0.9164E-02  0.2578E+00  0.2578E+00
      6.534  0.1004E-01  0.1004E-01  0.2585E+00  0.2585E+00
      6.608  0.1039E-01  0.1039E-01  0.2593E+00  0.2593E+00
      6.682  0.1018E-01  0.1018E-01  0.2601E+00  0.2601E+00
      6.755  0.9634E-02  0.9634E-02  0.2608E+00  0.2608E+00
      6.829  0.9188E-02  0.9188E-02  0.2614E+00  0.2614E+00
      6.903  0.8817E-02  0.8817E-02  0.2621E+00  0.2621E+00
      6.976  0.8218E-02  0.8218E-02  0.2627E+00  0.2627E+00
      7.050  0.7572E-02  0.7572E-02  0.2633E+00  0.2633E+00
      7.124  0.7531E-02  0.7531E-02  0.2638E+00  0.2638E+00
      7.198  0.8425E-02  0.8425E-02  0.2644E+00  0.2644E+00
      7.271  0.9814E-02  0.9814E-02  0.2652E+00  0.2652E+00
      7.345  0.1081E-01  0.1081E-01  0.2660E+00  0.2660E+00
      7.419  0.1076E-01  0.1076E-01  0.2667E+00  0.2667E+00
      7.492  0.9693E-02  0.9693E-02  0.2675E+00  0.2675E+00
      7.566  0.8290E-02  0.8290E-02  0.2681E+00  0.2681E+00
      7.640  0.7588E-02  0.7588E-02  0.2686E+00  0.2686E+00
      7.713  0.8342E-02  0.8342E-02  0.2692E+00  0.2692E+00
      7.787  0.1039E-01  0.1039E-01  0.2700E+00  0.2700E+00
      7.861  0.1280E-01  0.1280E-01  0.2710E+00  0.2710E+00
      7.935  0.1431E-01  0.1431E-01  0.2720E+00  0.2720E+00
      8.008  0.1389E-01  0.1389E-01  0.2730E+00  0.2730E+00
      8.082  0.1173E-01  0.1173E-01  0.2739E+00  0.2739E+00
      8.156  0.9644E-02  0.9644E-02  0.2746E+00  0.2746E+00
      8.229  0.9176E-02  0.9176E-02  0.2753E+00  0.2753E+00
      8.303  0.1002E-01  0.1002E-01  0.2760E+00  0.2760E+00
      8.377  0.1085E-01  0.1085E-01  0.2768E+00  0.2768E+00
      8.450  0.1071E-01  0.1071E-01  0.2776E+00  0.2776E+00
      8.524  0.9551E-02  0.9551E-02  0.2783E+00  0.2783E+00
      8.598  0.8275E-02  0.8275E-02  0.2789E+00  0.2789E+00
      8.672  0.8273E-02  0.8273E-02  0.2795E+00  0.2795E+00
      8.745  0.9943E-02  0.9943E-02  0.2803E+00  0.2803E+00
      8.819  0.1210E-01  0.1210E-01  0.2812E+00  0.2812E+00
      8.893  0.1324E-01  0.1324E-01  0.2821E+00  0.2821E+00
      8.966  0.1304E-01  0.1304E-01  0.2831E+00  0.2831E+00
      9.040  0.1214E-01  0.1214E-01  0.2840E+00  0.2840E+00
      9.114  0.1090E-01  0.1090E-01  0.2848E+00  0.2848E+00
      9.188  0.9129E-02  0.9130E-02  0.2855E+00  0.2855E+00
      9.261  0.7318E-02  0.7318E-02  0.2860E+00  0.2860E+00
      9.335  0.6550E-02  0.6550E-02  0.2865E+00  0.2865E+00
      9.409  0.6994E-02  0.6992E-02  0.2870E+00  0.2870E+00
      9.482  0.7643E-02  0.7638E-02  0.2876E+00  0.2876E+00
      9.556  0.7691E-02  0.7686E-02  0.2881E+00  0.2881E+00
      9.630  0.7134E-02  0.7133E-02  0.2887E+00  0.2887E+00
      9.703  0.6218E-02  0.6222E-02  0.2891E+00  0.2891E+00
      9.777  0.5077E-02  0.5082E-02  0.2895E+00  0.2895E+00
      9.851  0.3755E-02  0.3758E-02  0.2898E+00  0.2898E+00
      9.925  0.2315E-02  0.2315E-02  0.2899E+00  0.2899E+00
      9.998  0.1002E-02  0.1001E-02  0.2900E+00  0.2900E+00
     10.072  0.1519E-03  0.1517E-03  0.2900E+00  0.2900E+00
     10.146 -0.1543E-03 -0.1544E-03  0.2900E+00  0.2900E+00
     10.219 -0.1437E-03 -0.1438E-03  0.2900E+00  0.2900E+00
     10.293 -0.6591E-04 -0.6592E-04  0.2900E+00  0.2900E+00
     10.367 -0.1979E-04 -0.1979E-04  0.2900E+00  0.2900E+00
     10.440 -0.4182E-05 -0.4183E-05  0.2900E+00  0.2900E+00
     10.514 -0.6410E-06 -0.6410E-06  0.2900E+00  0.2900E+00
     10.588 -0.7236E-07 -0.7237E-07  0.2900E+00  0.2900E+00
     10.662 -0.6074E-08 -0.6075E-08  0.2900E+00  0.2900E+00
     10.735 -0.3814E-09 -0.3815E-09  0.2900E+00  0.2900E+00
     10.809 -0.1799E-10 -0.1799E-10  0.2900E+00  0.2900E+00
     10.883 -0.6393E-12 -0.6394E-12  0.2900E+00  0.2900E+00
     10.956 -0.1715E-13 -0.1716E-13  0.2900E+00  0.2900E+00
     11.030 -0.3481E-15 -0.3481E-15  0.2900E+00  0.2900E+00
     11.104 -0.5021E-17 -0.5021E-17  0.2900E+00  0.2900E+00
     11.178  0.0000E+00  0.0000E+00  0.2900E+00  0.2900E+00
     11.251  0.0000E+00  0.0000E+00  0.2900E+00  0.2900E+00
     11.325  0.0000E+00  0.0000E+00  0.2900E+00  0.2900E+00
     11.399  0.0000E+00  0.0000E+00  0.2900E+00  0.2900E+00
     11.472  0.0000E+00  0.0000E+00  0.2900E+00  0.2900E+00
     11.546  0.0000E+00  0.0000E+00  0.2900E+00  0.2900E+00
     11.620  0.0000E+00  0.0000E+00  0.2900E+00  0.2900E+00
     11.693  0.0000E+00  0.0000E+00  0.2900E+00  0.2900E+00
     11.767  0.0000E+00  0.0000E+00  0.2900E+00  0.2900E+00
     11.841  0.0000E+00  0.0000E+00  0.2900E+00  0.2900E+00
