       N       E                     dE             d eps       ncg     rms          rms(c)
DAV:   1     0.327018874197E+04    0.32702E+04   -0.12734E+05  3712   0.172E+03
DAV:   2     0.383522018171E+03   -0.28867E+04   -0.27594E+04  3712   0.406E+02
DAV:   3    -0.100061479510E+03   -0.48358E+03   -0.43607E+03  3744   0.209E+02
DAV:   4    -0.133147193285E+03   -0.33086E+02   -0.32132E+02  4184   0.769E+01
DAV:   5    -0.133916270339E+03   -0.76908E+00   -0.76705E+00  4152   0.110E+01    0.521E+01
DAV:   6    -0.108383218048E+03    0.25533E+02   -0.32064E+02  4064   0.119E+02    0.263E+01
DAV:   7    -0.953988842259E+02    0.12984E+02   -0.81997E+01  4128   0.749E+01    0.135E+01
DAV:   8    -0.940651094832E+02    0.13338E+01   -0.20929E+01  4280   0.714E+01    0.134E+01
DAV:   9    -0.922390394459E+02    0.18261E+01   -0.72104E+00  5096   0.447E+01    0.103E+01
DAV:  10    -0.933602213743E+02   -0.11212E+01   -0.60335E+00  5640   0.495E+01    0.101E+01
DAV:  11    -0.932907866764E+02    0.69435E-01   -0.56964E+00  5896   0.404E+01    0.760E+00
DAV:  12    -0.956307604216E+02   -0.23400E+01   -0.31994E+00  4984   0.308E+01    0.635E+00
DAV:  13    -0.100522324888E+03   -0.48916E+01   -0.32953E+00  4696   0.205E+01    0.404E+00
DAV:  14    -0.106198395662E+03   -0.56761E+01   -0.36025E+00  4752   0.175E+01    0.291E+00
DAV:  15    -0.110219135186E+03   -0.40207E+01   -0.30447E+00  5136   0.147E+01    0.234E+00
DAV:  16    -0.113182973546E+03   -0.29638E+01   -0.30710E+00  4264   0.104E+01    0.131E+00
DAV:  17    -0.114725499142E+03   -0.15425E+01   -0.10886E+00  4144   0.514E+00    0.112E+00
DAV:  18    -0.115989853480E+03   -0.12644E+01   -0.75345E-01  4304   0.526E+00    0.862E-01
DAV:  19    -0.116619648463E+03   -0.62979E+00   -0.41341E-01  4592   0.335E+00    0.586E-01
DAV:  20    -0.117067063555E+03   -0.44742E+00   -0.15853E-01  4376   0.276E+00    0.513E-01
DAV:  21    -0.117194526002E+03   -0.12746E+00   -0.36583E-02  4424   0.173E+00    0.376E-01
DAV:  22    -0.117392421807E+03   -0.19790E+00   -0.37268E-02  4512   0.152E+00    0.310E-01
DAV:  23    -0.117623127186E+03   -0.23071E+00   -0.19795E-02  4584   0.106E+00    0.232E-01
DAV:  24    -0.117775164627E+03   -0.15204E+00   -0.10855E-02  5024   0.101E+00    0.196E-01
DAV:  25    -0.117903207235E+03   -0.12804E+00   -0.36930E-03  4544   0.745E-01    0.146E-01
DAV:  26    -0.118070114270E+03   -0.16691E+00   -0.41543E-03  4744   0.567E-01    0.100E-01
DAV:  27    -0.118152122331E+03   -0.82008E-01   -0.32862E-03  4856   0.397E-01    0.836E-02
DAV:  28    -0.118183223649E+03   -0.31101E-01   -0.79254E-04  3232   0.323E-01    0.453E-02
DAV:  29    -0.118190815735E+03   -0.75921E-02   -0.39953E-04  2800   0.224E-01    0.299E-02
DAV:  30    -0.118194431707E+03   -0.36160E-02   -0.31330E-04  2736   0.129E-01    0.237E-02
DAV:  31    -0.118195769265E+03   -0.13376E-02   -0.11662E-04  2560   0.783E-02    0.109E-02
DAV:  32    -0.118195973267E+03   -0.20400E-03   -0.44996E-05  2472   0.646E-02    0.115E-02
DAV:  33    -0.118196091099E+03   -0.11783E-03   -0.24277E-05  2480   0.498E-02
   1 F= -.13060538E+03 E0= -.13061753E+03  d E =-.130605E+03  mag=    -0.0003
       N       E                     dE             d eps       ncg     rms          rms(c)
DAV:   1    -0.118182474971E+03    0.13498E-01   -0.20371E+00  3832   0.261E+00    0.446E-01
DAV:   2    -0.118183986993E+03   -0.15120E-02   -0.49332E-02  5240   0.967E-01    0.305E-01
DAV:   3    -0.118184968413E+03   -0.98142E-03   -0.11120E-02  4416   0.234E+00    0.320E-01
DAV:   4    -0.118183973766E+03    0.99465E-03   -0.96094E-03  4456   0.269E+00    0.198E-01
DAV:   5    -0.118182902514E+03    0.10713E-02   -0.34598E-03  5104   0.154E+00    0.546E-02
DAV:   6    -0.118182891124E+03    0.11390E-04   -0.71081E-04  3392   0.407E-01
   2 F= -.13060112E+03 E0= -.13061347E+03  d E =0.426425E-02  mag=    -0.0002
       N       E                     dE             d eps       ncg     rms          rms(c)
DAV:   1    -0.118202064271E+03   -0.19162E-01   -0.66424E-01  3832   0.152E+00    0.244E-01
DAV:   2    -0.118202747220E+03   -0.68295E-03   -0.17716E-02  5168   0.454E-01    0.170E-01
DAV:   3    -0.118202690020E+03    0.57201E-04   -0.27698E-03  4376   0.100E+00    0.142E-01
DAV:   4    -0.118202683804E+03    0.62152E-05   -0.26108E-03  4112   0.135E+00    0.110E-01
DAV:   5    -0.118202351273E+03    0.33253E-03   -0.10545E-03  2712   0.914E-01    0.366E-02
DAV:   6    -0.118202324566E+03    0.26707E-04   -0.14849E-04  2352   0.241E-01
   3 F= -.13061375E+03 E0= -.13062596E+03  d E =-.836355E-02  mag=    -0.0001
       N       E                     dE             d eps       ncg     rms          rms(c)
DAV:   1    -0.118203833806E+03   -0.14825E-02   -0.11730E+00  4048   0.223E+00    0.852E-02
DAV:   2    -0.118205923013E+03   -0.20892E-02   -0.21925E-02  5184   0.613E-01    0.871E-02
DAV:   3    -0.118205887145E+03    0.35868E-04   -0.58863E-04  3528   0.302E-01
   4 F= -.13061865E+03 E0= -.13063106E+03  d E =-.490299E-02  mag=    -0.0000
       N       E                     dE             d eps       ncg     rms          rms(c)
DAV:   1    -0.118205421681E+03    0.50133E-03   -0.15274E+00  4040   0.255E+00    0.126E-01
DAV:   2    -0.118208099716E+03   -0.26780E-02   -0.29158E-02  5216   0.710E-01    0.130E-01
DAV:   3    -0.118208063950E+03    0.35766E-04   -0.13034E-03  3864   0.600E-01
   5 F= -.13062232E+03 E0= -.13063493E+03  d E =-.856967E-02  mag=    -0.0000
       N       E                     dE             d eps       ncg     rms          rms(c)
DAV:   1    -0.118195906183E+03    0.12194E-01   -0.60997E+00  4032   0.510E+00    0.247E-01
DAV:   2    -0.118206599251E+03   -0.10693E-01   -0.11237E-01  5304   0.193E+00    0.288E-01
DAV:   3    -0.118206689761E+03   -0.90510E-04   -0.13016E-02  3944   0.195E+00    0.232E-01
DAV:   4    -0.118206262519E+03    0.42724E-03   -0.27310E-03  3944   0.994E-01    0.155E-01
DAV:   5    -0.118206180878E+03    0.81642E-04   -0.17079E-03  4120   0.809E-01
   6 F= -.13062332E+03 E0= -.13063612E+03  d E =-.957613E-02  mag=    -0.0000
       N       E                     dE             d eps       ncg     rms          rms(c)
DAV:   1    -0.118204537740E+03    0.17248E-02   -0.22261E+00  3984   0.312E+00    0.123E-01
DAV:   2    -0.118208408656E+03   -0.38709E-02   -0.41292E-02  5160   0.931E-01    0.156E-01
DAV:   3    -0.118208304671E+03    0.10399E-03   -0.19152E-03  4096   0.570E-01
   7 F= -.13062371E+03 E0= -.13063641E+03  d E =-.996104E-02  mag=    -0.0000
       N       E                     dE             d eps       ncg     rms          rms(c)
DAV:   1    -0.118206412316E+03    0.19963E-02   -0.54979E-01  4016   0.160E+00    0.851E-02
DAV:   2    -0.118207865798E+03   -0.14535E-02   -0.10759E-02  6592   0.115E+00    0.120E-01
DAV:   3    -0.118207440014E+03    0.42578E-03   -0.27250E-03  3712   0.125E+00    0.655E-02
DAV:   4    -0.118207422115E+03    0.17898E-04   -0.81276E-04  3496   0.381E-01
   8 F= -.13062370E+03 E0= -.13063655E+03  d E =-.995309E-02  mag=     0.0000
       N       E                     dE             d eps       ncg     rms          rms(c)
DAV:   1    -0.118209233294E+03   -0.17933E-02   -0.66477E-01  3712   0.164E+00    0.159E-01
DAV:   2    -0.118210652790E+03   -0.14195E-02   -0.18204E-02  5064   0.452E-01    0.125E-01
DAV:   3    -0.118210554245E+03    0.98545E-04   -0.92850E-04  3672   0.516E-01
   9 F= -.13062720E+03 E0= -.13064012E+03  d E =-.349988E-02  mag=     0.0000
       N       E                     dE             d eps       ncg     rms          rms(c)
DAV:   1    -0.118210601091E+03    0.51699E-04   -0.89301E-03  6720   0.900E-01    0.910E-02
DAV:   2    -0.118213579530E+03   -0.29784E-02   -0.78605E-03  4000   0.260E+00    0.302E-01
DAV:   3    -0.118210389199E+03    0.31903E-02   -0.49862E-03  3360   0.204E+00    0.247E-02
DAV:   4    -0.118210422472E+03   -0.33273E-04   -0.17624E-04  2544   0.188E-01
  10 F= -.13062714E+03 E0= -.13063997E+03  d E =-.343376E-02  mag=     0.0000
       N       E                     dE             d eps       ncg     rms          rms(c)
DAV:   1    -0.118211923657E+03   -0.15345E-02   -0.85097E-02  3760   0.619E-01    0.523E-02
DAV:   2    -0.118212104771E+03   -0.18111E-03   -0.21219E-03  4400   0.169E-01    0.401E-02
DAV:   3    -0.118212104502E+03    0.26824E-06   -0.13166E-04  2424   0.195E-01
  11 F= -.13062917E+03 E0= -.13064205E+03  d E =-.203935E-02  mag=     0.0000
       N       E                     dE             d eps       ncg     rms          rms(c)
DAV:   1    -0.118215056054E+03   -0.29513E-02   -0.75269E-01  3712   0.175E+00    0.156E-01
DAV:   2    -0.118216496081E+03   -0.14400E-02   -0.16789E-02  5232   0.567E-01    0.128E-01
DAV:   3    -0.118216790075E+03   -0.29399E-03   -0.24631E-03  3920   0.112E+00    0.148E-01
DAV:   4    -0.118216363235E+03    0.42684E-03   -0.10237E-03  2456   0.855E-01    0.459E-02
DAV:   5    -0.118216373044E+03   -0.98086E-05   -0.23850E-04  2440   0.296E-01
  12 F= -.13063452E+03 E0= -.13064732E+03  d E =-.738555E-02  mag=     0.0000
       N       E                     dE             d eps       ncg     rms          rms(c)
DAV:   1    -0.118216315433E+03    0.47802E-04   -0.29903E+00  3712   0.350E+00    0.292E-01
DAV:   2    -0.118222422151E+03   -0.61067E-02   -0.70731E-02  5152   0.983E-01    0.230E-01
DAV:   3    -0.118222580716E+03   -0.15856E-03   -0.37995E-03  4184   0.128E+00    0.204E-01
DAV:   4    -0.118222457268E+03    0.12345E-03   -0.40160E-03  4072   0.175E+00    0.149E-01
DAV:   5    -0.118222032715E+03    0.42455E-03   -0.18233E-03  2464   0.120E+00    0.811E-02
DAV:   6    -0.118221874208E+03    0.15851E-03   -0.40215E-04  2640   0.551E-01
  13 F= -.13064221E+03 E0= -.13065500E+03  d E =-.150778E-01  mag=     0.0000
       N       E                     dE             d eps       ncg     rms          rms(c)
DAV:   1    -0.118197940428E+03    0.24092E-01   -0.11880E+01  3712   0.696E+00    0.575E-01
DAV:   2    -0.118222896726E+03   -0.24956E-01   -0.28804E-01  5168   0.213E+00    0.486E-01
DAV:   3    -0.118223524116E+03   -0.62739E-03   -0.19728E-02  4168   0.286E+00    0.435E-01
DAV:   4    -0.118222401956E+03    0.11222E-02   -0.16327E-02  4320   0.331E+00    0.298E-01
DAV:   5    -0.118221102503E+03    0.12995E-02   -0.89784E-03  5472   0.244E+00    0.172E-01
DAV:   6    -0.118220488095E+03    0.61441E-03   -0.29569E-03  5448   0.117E+00    0.422E-02
DAV:   7    -0.118220549191E+03   -0.61096E-04   -0.10365E-03  3728   0.299E-01
  14 F= -.13064551E+03 E0= -.13065801E+03  d E =-.183721E-01  mag=     0.0000
       N       E                     dE             d eps       ncg     rms          rms(c)
DAV:   1    -0.118218800973E+03    0.16871E-02   -0.25119E+00  3712   0.320E+00    0.261E-01
DAV:   2    -0.118223830091E+03   -0.50291E-02   -0.58978E-02  5136   0.985E-01    0.226E-01
DAV:   3    -0.118224019952E+03   -0.18986E-03   -0.45908E-03  4040   0.145E+00    0.209E-01
DAV:   4    -0.118223537333E+03    0.48262E-03   -0.31997E-03  3864   0.150E+00    0.125E-01
DAV:   5    -0.118223337502E+03    0.19983E-03   -0.14461E-03  2608   0.105E+00
  15 F= -.13064612E+03 E0= -.13065895E+03  d E =-.189832E-01  mag=     0.0000
       N       E                     dE             d eps       ncg     rms          rms(c)
DAV:   1    -0.118221160009E+03    0.23773E-02   -0.65253E-01  3712   0.172E+00    0.139E-01
DAV:   2    -0.118222492399E+03   -0.13324E-02   -0.16131E-02  5104   0.480E-01    0.121E-01
DAV:   3    -0.118222401123E+03    0.91276E-04   -0.96300E-04  4048   0.508E-01
  16 F= -.13064628E+03 E0= -.13065890E+03  d E =-.191497E-01  mag=     0.0000
       N       E                     dE             d eps       ncg     rms          rms(c)
DAV:   1    -0.118224838642E+03   -0.23462E-02   -0.27999E-01  3712   0.108E+00    0.136E-01
DAV:   2    -0.118225502512E+03   -0.66387E-03   -0.78730E-03  5184   0.683E-01    0.119E-01
DAV:   3    -0.118225523031E+03   -0.20520E-04   -0.16862E-03  3184   0.100E+00
  17 F= -.13064945E+03 E0= -.13066197E+03  d E =-.316353E-02  mag=     0.0000
       N       E                     dE             d eps       ncg     rms          rms(c)
DAV:   1    -0.118227824478E+03   -0.23220E-02   -0.25245E+00  3712   0.303E+00    0.364E-01
DAV:   2    -0.118233318979E+03   -0.54945E-02   -0.71191E-02  5056   0.935E-01    0.287E-01
DAV:   3    -0.118233215293E+03    0.10369E-03   -0.54212E-03  4184   0.141E+00    0.229E-01
DAV:   4    -0.118233615734E+03   -0.40044E-03   -0.72498E-03  4336   0.209E+00    0.195E-01
DAV:   5    -0.118232869053E+03    0.74668E-03   -0.52689E-03  4112   0.185E+00    0.108E-01
DAV:   6    -0.118232524993E+03    0.34406E-03   -0.76182E-04  2520   0.735E-01    0.235E-02
DAV:   7    -0.118232558839E+03   -0.33846E-04   -0.40847E-04  2688   0.159E-01
  18 F= -.13065672E+03 E0= -.13066917E+03  d E =-.104328E-01  mag=     0.0000
       N       E                     dE             d eps       ncg     rms          rms(c)
DAV:   1    -0.118218973892E+03    0.13551E-01   -0.10020E+01  3712   0.588E+00    0.693E-01
DAV:   2    -0.118242975571E+03   -0.24002E-01   -0.29823E-01  5088   0.201E+00    0.576E-01
DAV:   3    -0.118245429748E+03   -0.24542E-02   -0.31191E-02  4128   0.387E+00    0.560E-01
DAV:   4    -0.118240795565E+03    0.46342E-02   -0.28820E-02  4400   0.413E+00    0.274E-01
DAV:   5    -0.118239585261E+03    0.12103E-02   -0.88411E-03  6512   0.207E+00    0.136E-01
DAV:   6    -0.118239304677E+03    0.28058E-03   -0.25061E-03  5104   0.925E-01    0.482E-02
DAV:   7    -0.118239376376E+03   -0.71699E-04   -0.11562E-03  3712   0.273E-01
  19 F= -.13066433E+03 E0= -.13067659E+03  d E =-.180424E-01  mag=     0.0000
       N       E                     dE             d eps       ncg     rms          rms(c)
DAV:   1    -0.118245287368E+03   -0.59827E-02   -0.13596E+00  3728   0.216E+00    0.277E-01
DAV:   2    -0.118248171320E+03   -0.28840E-02   -0.38102E-02  5136   0.614E-01    0.206E-01
DAV:   3    -0.118248203230E+03   -0.31911E-04   -0.26420E-03  4176   0.100E+00    0.156E-01
DAV:   4    -0.118248443073E+03   -0.23984E-03   -0.47445E-03  4048   0.172E+00    0.148E-01
DAV:   5    -0.118247878998E+03    0.56408E-03   -0.21646E-03  2560   0.119E+00    0.644E-02
DAV:   6    -0.118247781534E+03    0.97464E-04   -0.21995E-04  2432   0.424E-01
  20 F= -.13067251E+03 E0= -.13068479E+03  d E =-.817777E-02  mag=     0.0000
       N       E                     dE             d eps       ncg     rms          rms(c)
DAV:   1    -0.118248660876E+03   -0.78188E-03   -0.21659E+00  3728   0.271E+00    0.341E-01
DAV:   2    -0.118253159935E+03   -0.44991E-02   -0.59823E-02  5168   0.802E-01    0.258E-01
DAV:   3    -0.118253786083E+03   -0.62615E-03   -0.62268E-03  4224   0.169E+00    0.243E-01
DAV:   4    -0.118253064173E+03    0.72191E-03   -0.76729E-03  4224   0.218E+00    0.137E-01
DAV:   5    -0.118252570766E+03    0.49341E-03   -0.19329E-03  2592   0.109E+00    0.591E-02
DAV:   6    -0.118252513502E+03    0.57264E-04   -0.33474E-04  2640   0.390E-01
  21 F= -.13067720E+03 E0= -.13068946E+03  d E =-.128743E-01  mag=     0.0000
       N       E                     dE             d eps       ncg     rms          rms(c)
DAV:   1    -0.118258409124E+03   -0.58384E-02   -0.11091E+00  3712   0.202E+00    0.212E-01
DAV:   2    -0.118261090565E+03   -0.26814E-02   -0.32732E-02  5040   0.592E-01    0.172E-01
DAV:   3    -0.118260972865E+03    0.11770E-03   -0.16308E-03  4192   0.684E-01
  22 F= -.13068342E+03 E0= -.13069565E+03  d E =-.621760E-02  mag=     0.0000
       N       E                     dE             d eps       ncg     rms          rms(c)
DAV:   1    -0.118254525649E+03    0.65649E-02   -0.87858E+00  3712   0.583E+00    0.644E-01
DAV:   2    -0.118279185433E+03   -0.24660E-01   -0.25997E-01  6400   0.412E+00    0.652E-01
DAV:   3    -0.118274970709E+03    0.42147E-02   -0.52367E-02  4288   0.492E+00    0.534E-01
DAV:   4    -0.118271227597E+03    0.37431E-02   -0.16044E-02  4160   0.222E+00    0.208E-01
DAV:   5    -0.118271921186E+03   -0.69359E-03   -0.99472E-03  4432   0.126E+00    0.165E-01
DAV:   6    -0.118271892055E+03    0.29131E-04   -0.54686E-03  4160   0.112E+00    0.580E-02
DAV:   7    -0.118271901203E+03   -0.91488E-05   -0.10757E-03  3776   0.398E-01
  23 F= -.13068824E+03 E0= -.13070060E+03  d E =-.110396E-01  mag=     0.0000
       N       E                     dE             d eps       ncg     rms          rms(c)
DAV:   1    -0.118269887050E+03    0.20050E-02   -0.56164E-01  3728   0.144E+00    0.161E-01
DAV:   2    -0.118271024882E+03   -0.11378E-02   -0.15700E-02  5088   0.454E-01    0.132E-01
DAV:   3    -0.118271086022E+03   -0.61140E-04   -0.15903E-03  3856   0.849E-01
  24 F= -.13068895E+03 E0= -.13070126E+03  d E =-.117471E-01  mag=     0.0000
       N       E                     dE             d eps       ncg     rms          rms(c)
DAV:   1    -0.118274117197E+03   -0.30923E-02   -0.11657E+00  3888   0.241E+00    0.197E-01
DAV:   2    -0.118278576992E+03   -0.44598E-02   -0.36319E-02  6448   0.216E+00    0.271E-01
DAV:   3    -0.118276473531E+03    0.21035E-02   -0.83101E-03  4800   0.207E+00    0.162E-01
DAV:   4    -0.118276356978E+03    0.11655E-03   -0.25662E-03  4128   0.489E-01    0.878E-02
DAV:   5    -0.118276354554E+03    0.24245E-05   -0.91161E-04  3456   0.310E-01
  25 F= -.13069176E+03 E0= -.13070403E+03  d E =-.281494E-02  mag=     0.0000
       N       E                     dE             d eps       ncg     rms          rms(c)
DAV:   1    -0.118277371019E+03   -0.10140E-02   -0.33502E-01  3728   0.122E+00    0.109E-01
DAV:   2    -0.118278266644E+03   -0.89562E-03   -0.10075E-02  5416   0.495E-01    0.101E-01
DAV:   3    -0.118278279996E+03   -0.13353E-04   -0.93979E-04  3216   0.594E-01
  26 F= -.13069241E+03 E0= -.13070469E+03  d E =-.346226E-02  mag=     0.0000
       N       E                     dE             d eps       ncg     rms          rms(c)
DAV:   1    -0.118283274285E+03   -0.50076E-02   -0.12791E+00  3712   0.237E+00    0.228E-01
DAV:   2    -0.118286778494E+03   -0.35042E-02   -0.35237E-02  6112   0.160E+00    0.246E-01
DAV:   3    -0.118285983837E+03    0.79466E-03   -0.70308E-03  4368   0.177E+00    0.189E-01
DAV:   4    -0.118285655137E+03    0.32870E-03   -0.24336E-03  4032   0.730E-01    0.904E-02
DAV:   5    -0.118285736467E+03   -0.81331E-04   -0.14885E-03  4160   0.573E-01
  27 F= -.13069596E+03 E0= -.13070820E+03  d E =-.355189E-02  mag=     0.0000
       N       E                     dE             d eps       ncg     rms          rms(c)
DAV:   1    -0.118286527085E+03   -0.87195E-03   -0.44496E+00  3728   0.430E+00    0.352E-01
DAV:   2    -0.118297477015E+03   -0.10950E-01   -0.12551E-01  5088   0.115E+00    0.312E-01
DAV:   3    -0.118296781930E+03    0.69508E-03   -0.36826E-03  4288   0.710E-01    0.222E-01
DAV:   4    -0.118296954982E+03   -0.17305E-03   -0.39467E-03  4304   0.152E+00    0.205E-01
DAV:   5    -0.118296763505E+03    0.19148E-03   -0.42666E-03  4352   0.160E+00    0.134E-01
DAV:   6    -0.118296270857E+03    0.49265E-03   -0.17738E-03  2544   0.105E+00    0.443E-02
DAV:   7    -0.118296240899E+03    0.29958E-04   -0.27755E-04  2352   0.279E-01
  28 F= -.13069918E+03 E0= -.13071120E+03  d E =-.676650E-02  mag=     0.0000
       N       E                     dE             d eps       ncg     rms          rms(c)
DAV:   1    -0.118301328771E+03   -0.50579E-02   -0.73151E-01  3728   0.180E+00    0.105E-01
DAV:   2    -0.118302896197E+03   -0.15674E-02   -0.16782E-02  5216   0.571E-01    0.108E-01
DAV:   3    -0.118302894909E+03    0.12878E-05   -0.11529E-03  3792   0.586E-01
  29 F= -.13070199E+03 E0= -.13071382E+03  d E =-.281712E-02  mag=     0.0000
       N       E                     dE             d eps       ncg     rms          rms(c)
DAV:   1    -0.118307082033E+03   -0.41858E-02   -0.53736E+00  3728   0.488E+00    0.329E-01
DAV:   2    -0.118317755215E+03   -0.10673E-01   -0.12141E-01  5184   0.146E+00    0.316E-01
DAV:   3    -0.118317594016E+03    0.16120E-03   -0.78763E-03  4128   0.148E+00    0.263E-01
DAV:   4    -0.118317396919E+03    0.19710E-03   -0.51516E-03  4128   0.167E+00    0.199E-01
DAV:   5    -0.118317196963E+03    0.19996E-03   -0.48989E-03  4304   0.171E+00    0.148E-01
DAV:   6    -0.118316638587E+03    0.55838E-03   -0.18388E-03  4064   0.980E-01    0.401E-02
DAV:   7    -0.118316662939E+03   -0.24351E-04   -0.52261E-04  2912   0.240E-01
  30 F= -.13070540E+03 E0= -.13071669E+03  d E =-.622385E-02  mag=     0.0000
       N       E                     dE             d eps       ncg     rms          rms(c)
DAV:   1    -0.118323715984E+03   -0.70774E-02   -0.14688E+00  3760   0.253E+00    0.158E-01
DAV:   2    -0.118326560247E+03   -0.28443E-02   -0.31408E-02  5248   0.807E-01    0.154E-01
DAV:   3    -0.118326580407E+03   -0.20160E-04   -0.28921E-03  4160   0.964E-01    0.135E-01
DAV:   4    -0.118326414964E+03    0.16544E-03   -0.12260E-03  3360   0.764E-01
  31 F= -.13070686E+03 E0= -.13071772E+03  d E =-.145943E-02  mag=     0.0000
       N       E                     dE             d eps       ncg     rms          rms(c)
DAV:   1    -0.118325111163E+03    0.14692E-02   -0.38517E-02  5296   0.795E-01    0.755E-02
DAV:   2    -0.118325526992E+03   -0.41583E-03   -0.23196E-03  4272   0.127E+00    0.137E-01
DAV:   3    -0.118325139620E+03    0.38737E-03   -0.15467E-03  3152   0.100E+00    0.565E-02
DAV:   4    -0.118325067304E+03    0.72316E-04   -0.27737E-04  2296   0.379E-01
  32 F= -.13070683E+03 E0= -.13071783E+03  d E =-.143193E-02  mag=     0.0000
       N       E                     dE             d eps       ncg     rms          rms(c)
DAV:   1    -0.118329903682E+03   -0.47641E-02   -0.49664E-01  3776   0.148E+00    0.686E-02
DAV:   2    -0.118330838587E+03   -0.93490E-03   -0.99028E-03  5184   0.434E-01    0.735E-02
DAV:   3    -0.118330836750E+03    0.18373E-05   -0.63969E-04  3552   0.380E-01
  33 F= -.13070820E+03 E0= -.13071900E+03  d E =-.136893E-02  mag=     0.0000
       N       E                     dE             d eps       ncg     rms          rms(c)
DAV:   1    -0.118339163292E+03   -0.83247E-02   -0.44965E+00  3824   0.445E+00    0.242E-01
DAV:   2    -0.118347277307E+03   -0.81140E-02   -0.89458E-02  5200   0.128E+00    0.254E-01
DAV:   3    -0.118347064812E+03    0.21250E-03   -0.49384E-03  4080   0.104E+00    0.201E-01
DAV:   4    -0.118346946545E+03    0.11827E-03   -0.22420E-03  3880   0.105E+00    0.167E-01
DAV:   5    -0.118347035020E+03   -0.88475E-04   -0.32772E-03  3936   0.141E+00    0.149E-01
DAV:   6    -0.118346465539E+03    0.56948E-03   -0.14615E-03  3576   0.872E-01    0.413E-02
DAV:   7    -0.118346486097E+03   -0.20559E-04   -0.45445E-04  2928   0.214E-01
  34 F= -.13071070E+03 E0= -.13072094E+03  d E =-.386925E-02  mag=     0.0000
       N       E                     dE             d eps       ncg     rms          rms(c)
DAV:   1    -0.118338899787E+03    0.75658E-02   -0.17916E+01  3776   0.893E+00    0.430E-01
DAV:   2    -0.118373969014E+03   -0.35069E-01   -0.37550E-01  5104   0.230E+00    0.443E-01
DAV:   3    -0.118373022806E+03    0.94621E-03   -0.15040E-02  4128   0.150E+00    0.352E-01
DAV:   4    -0.118372752306E+03    0.27050E-03   -0.62335E-03  4256   0.177E+00    0.302E-01
DAV:   5    -0.118373258146E+03   -0.50584E-03   -0.10843E-02  6008   0.236E+00    0.297E-01
DAV:   6    -0.118371340823E+03    0.19173E-02   -0.67257E-03  5880   0.191E+00    0.104E-01
DAV:   7    -0.118371240049E+03    0.10077E-03   -0.11635E-03  4232   0.645E-01
  35 F= -.13070942E+03 E0= -.13071853E+03  d E =-.258864E-02  mag=     0.0000
       N       E                     dE             d eps       ncg     rms          rms(c)
DAV:   1    -0.118337435183E+03    0.33906E-01   -0.99672E+00  3792   0.662E+00    0.345E-01
DAV:   2    -0.118355612163E+03   -0.18177E-01   -0.19724E-01  5360   0.262E+00    0.409E-01
DAV:   3    -0.118354680454E+03    0.93171E-03   -0.14608E-02  4136   0.211E+00    0.276E-01
DAV:   4    -0.118354462333E+03    0.21812E-03   -0.61777E-03  4256   0.153E+00    0.241E-01
DAV:   5    -0.118354021273E+03    0.44106E-03   -0.44345E-03  4624   0.149E+00    0.181E-01
DAV:   6    -0.118353607971E+03    0.41330E-03   -0.26600E-03  5016   0.913E-01    0.494E-02
DAV:   7    -0.118353643535E+03   -0.35565E-04   -0.85627E-04  3520   0.404E-01
  36 F= -.13071121E+03 E0= -.13072110E+03  d E =-.438095E-02  mag=    -0.0000
       N       E                     dE             d eps       ncg     rms          rms(c)
DAV:   1    -0.118359087743E+03   -0.54798E-02   -0.24901E+00  3760   0.331E+00    0.158E-01
DAV:   2    -0.118363518818E+03   -0.44311E-02   -0.48244E-02  5152   0.930E-01    0.173E-01
DAV:   3    -0.118363371810E+03    0.14701E-03   -0.22251E-03  4112   0.618E-01    0.131E-01
DAV:   4    -0.118363273773E+03    0.98037E-04   -0.68714E-04  3352   0.544E-01
  37 F= -.13071112E+03 E0= -.13072067E+03  d E =-.428968E-02  mag=    -0.0000
       N       E                     dE             d eps       ncg     rms          rms(c)
DAV:   1    -0.118356826669E+03    0.65451E-02   -0.77149E-01  3968   0.208E+00    0.128E-01
DAV:   2    -0.118362333065E+03   -0.55064E-02   -0.27256E-02  6448   0.319E+00    0.360E-01
DAV:   3    -0.118357925061E+03    0.44080E-02   -0.13472E-02  5552   0.268E+00    0.872E-02
DAV:   4    -0.118357976872E+03   -0.51812E-04   -0.18495E-03  5088   0.422E-01
  38 F= -.13071124E+03 E0= -.13072098E+03  d E =-.440944E-02  mag=     0.0000
       N       E                     dE             d eps       ncg     rms          rms(c)
DAV:   1    -0.118356650985E+03    0.12741E-02   -0.48789E-02  4104   0.516E-01    0.600E-02
DAV:   2    -0.118356672141E+03   -0.21156E-04   -0.67892E-04  3008   0.334E-01
  39 F= -.13071129E+03 E0= -.13072113E+03  d E =-.445671E-02  mag=     0.0000
       N       E                     dE             d eps       ncg     rms          rms(c)
DAV:   1    -0.118360320197E+03   -0.36692E-02   -0.46661E-01  3872   0.152E+00    0.579E-02
DAV:   2    -0.118361641397E+03   -0.13212E-02   -0.10220E-02  6176   0.111E+00    0.119E-01
DAV:   3    -0.118361204627E+03    0.43677E-03   -0.23945E-03  4040   0.993E-01    0.517E-02
DAV:   4    -0.118361247495E+03   -0.42868E-04   -0.77548E-04  3544   0.231E-01
  40 F= -.13071227E+03 E0= -.13072184E+03  d E =-.975598E-03  mag=     0.0000
       N       E                     dE             d eps       ncg     rms          rms(c)
DAV:   1    -0.118366441590E+03   -0.52370E-02   -0.42229E+00  3792   0.435E+00    0.188E-01
DAV:   2    -0.118374084899E+03   -0.76433E-02   -0.81474E-02  5232   0.118E+00    0.211E-01
DAV:   3    -0.118373971515E+03    0.11338E-03   -0.43856E-03  4064   0.958E-01    0.181E-01
DAV:   4    -0.118373807127E+03    0.16439E-03   -0.12913E-03  3664   0.746E-01
  41 F= -.13071407E+03 E0= -.13072306E+03  d E =-.277854E-02  mag=     0.0000
       N       E                     dE             d eps       ncg     rms          rms(c)
DAV:   1    -0.118377064854E+03   -0.30933E-02   -0.41603E-01  4576   0.160E+00    0.165E-01
DAV:   2    -0.118378823964E+03   -0.17591E-02   -0.11175E-02  5152   0.220E+00    0.263E-01
DAV:   3    -0.118377226673E+03    0.15973E-02   -0.64880E-03  4048   0.195E+00    0.115E-01
DAV:   4    -0.118377111506E+03    0.11517E-03   -0.16218E-03  3760   0.850E-01
  42 F= -.13071392E+03 E0= -.13072286E+03  d E =0.148334E-03  mag=     0.0000
       N       E                     dE             d eps       ncg     rms          rms(c)
DAV:   1    -0.118375970585E+03    0.12561E-02   -0.57868E-02  5264   0.680E-01    0.492E-02
DAV:   2    -0.118376111893E+03   -0.14131E-03   -0.11332E-03  3168   0.670E-01
  43 F= -.13071419E+03 E0= -.13072320E+03  d E =-.118208E-03  mag=     0.0000
       N       E                     dE             d eps       ncg     rms          rms(c)
DAV:   1    -0.118378138854E+03   -0.21683E-02   -0.39281E-01  4032   0.149E+00    0.518E-02
DAV:   2    -0.118379246574E+03   -0.11077E-02   -0.85162E-03  6104   0.102E+00    0.109E-01
DAV:   3    -0.118378867633E+03    0.37894E-03   -0.20228E-03  3560   0.910E-01    0.531E-02
DAV:   4    -0.118378917611E+03   -0.49979E-04   -0.80089E-04  3616   0.214E-01
  44 F= -.13071449E+03 E0= -.13072329E+03  d E =-.306621E-03  mag=     0.0000
       N       E                     dE             d eps       ncg     rms          rms(c)
DAV:   1    -0.118380967415E+03   -0.20998E-02   -0.39325E-01  3776   0.135E+00    0.670E-02
DAV:   2    -0.118381654571E+03   -0.68716E-03   -0.75204E-03  5400   0.413E-01    0.786E-02
DAV:   3    -0.118381631685E+03    0.22886E-04   -0.52076E-04  2880   0.345E-01
  45 F= -.13071472E+03 E0= -.13072342E+03  d E =-.534360E-03  mag=     0.0000
       N       E                     dE             d eps       ncg     rms          rms(c)
DAV:   1    -0.118382165268E+03   -0.51070E-03   -0.82397E-02  3872   0.633E-01    0.785E-02
DAV:   2    -0.118382242184E+03   -0.76917E-04   -0.10372E-03  3016   0.494E-01
  46 F= -.13071476E+03 E0= -.13072344E+03  d E =-.348785E-04  mag=     0.0000
       N       E                     dE             d eps       ncg     rms          rms(c)
DAV:   1    -0.118382043592E+03    0.12168E-03   -0.18743E-02  5352   0.730E-01    0.479E-02
DAV:   2    -0.118382684053E+03   -0.64046E-03   -0.23413E-03  2472   0.119E+00    0.139E-01
DAV:   3    -0.118382010315E+03    0.67374E-03   -0.15345E-03  2360   0.955E-01    0.167E-02
DAV:   4    -0.118382037958E+03   -0.27643E-04   -0.27920E-04  2416   0.925E-02
  47 F= -.13071481E+03 E0= -.13072349E+03  d E =-.925034E-04  mag=    -0.0000
       N       E                     dE             d eps       ncg     rms          rms(c)
DAV:   1    -0.118382075603E+03   -0.65288E-04   -0.47305E-04  2400   0.136E-01    0.185E-02
DAV:   2    -0.118382097571E+03   -0.21969E-04   -0.23564E-04  2304   0.210E-01
  48 F= -.13071482E+03 E0= -.13072350E+03  d E =-.100878E-03  mag=    -0.0000
       N       E                     dE             d eps       ncg     rms          rms(c)
DAV:   1    -0.118382063730E+03    0.11873E-04   -0.15433E-04  2336   0.175E-01    0.111E-02
DAV:   2    -0.118382091972E+03   -0.28243E-04   -0.11138E-04  2304   0.262E-01
  49 F= -.13071486E+03 E0= -.13072354E+03  d E =-.137320E-03  mag=    -0.0000
       N       E                     dE             d eps       ncg     rms          rms(c)
DAV:   1    -0.118382084933E+03   -0.21203E-04   -0.86975E-05  2352   0.207E-01    0.310E-03
DAV:   2    -0.118382087992E+03   -0.30587E-05   -0.11891E-05  2288   0.635E-02
  50 F= -.13071483E+03 E0= -.13072350E+03  d E =-.112275E-03  mag=    -0.0000
       N       E                     dE             d eps       ncg     rms          rms(c)
DAV:   1    -0.118382079339E+03    0.55936E-05   -0.13855E-05  2128   0.541E-02    0.189E-03
DAV:   2    -0.118382080421E+03   -0.10817E-05   -0.80639E-06  2192   0.216E-02
  51 F= -.13071484E+03 E0= -.13072351E+03  d E =-.113853E-03  mag=    -0.0000
       N       E                     dE             d eps       ncg     rms          rms(c)
DAV:   1    -0.118382777428E+03   -0.69809E-03   -0.93107E-02  3840   0.650E-01    0.218E-02
DAV:   2    -0.118382944192E+03   -0.16676E-03   -0.17245E-03  4720   0.171E-01
  52 F= -.13071509E+03 E0= -.13072374E+03  d E =-.251498E-03  mag=    -0.0000
       N       E                     dE             d eps       ncg     rms          rms(c)
DAV:   1    -0.118382940620E+03   -0.16319E-03   -0.41850E-05  2080   0.865E-02    0.190E-02
DAV:   2    -0.118382949200E+03   -0.85793E-05   -0.58104E-05  2352   0.180E-01
  53 F= -.13071509E+03 E0= -.13072374E+03  d E =-.258585E-03  mag=    -0.0000
       N       E                     dE             d eps       ncg     rms          rms(c)
DAV:   1    -0.118382939731E+03    0.88898E-06   -0.54552E-05  2272   0.182E-01    0.111E-02
DAV:   2    -0.118382965134E+03   -0.25403E-04   -0.90386E-05  2264   0.236E-01
  54 F= -.13071511E+03 E0= -.13072376E+03  d E =-.272470E-03  mag=    -0.0000
       N       E                     dE             d eps       ncg     rms          rms(c)
DAV:   1    -0.118382967386E+03   -0.27655E-04   -0.66540E-03  5264   0.261E-01    0.197E-02
DAV:   2    -0.118382971959E+03   -0.45724E-05   -0.10506E-04  2544   0.380E-02
  55 F= -.13071511E+03 E0= -.13072376E+03  d E =-.444928E-05  mag=    -0.0000
       N       E                     dE             d eps       ncg     rms          rms(c)
DAV:   1    -0.118382960727E+03    0.66594E-05   -0.33600E-04  2336   0.964E-02    0.184E-02
DAV:   2    -0.118382984878E+03   -0.24151E-04   -0.22355E-04  2384   0.257E-01
  56 F= -.13071512E+03 E0= -.13072376E+03  d E =-.170769E-04  mag=    -0.0000
       N       E                     dE             d eps       ncg     rms          rms(c)
DAV:   1    -0.118382979197E+03   -0.18470E-04   -0.14706E-04  2336   0.216E-01    0.111E-02
DAV:   2    -0.118383027162E+03   -0.47966E-04   -0.17390E-04  2280   0.323E-01
  57 F= -.13071517E+03 E0= -.13072382E+03  d E =-.594968E-04  mag=    -0.0000
       N       E                     dE             d eps       ncg     rms          rms(c)
DAV:   1    -0.118382976542E+03    0.26547E-05   -0.13537E-04  2312   0.268E-01    0.418E-03
DAV:   2    -0.118382977687E+03   -0.11453E-05   -0.40613E-06  2304   0.518E-02
  58 F= -.13071512E+03 E0= -.13072376E+03  d E =-.991042E-05  mag=    -0.0000
       N       E                     dE             d eps       ncg     rms          rms(c)
DAV:   1    -0.118382978289E+03   -0.17470E-05   -0.82152E-06  2128   0.480E-02    0.313E-03
DAV:   2    -0.118382981734E+03   -0.34455E-05   -0.14781E-05  2160   0.871E-02
  59 F= -.13071512E+03 E0= -.13072377E+03  d E =-.139825E-04  mag=    -0.0000
       N       E                     dE             d eps       ncg     rms          rms(c)
DAV:   1    -0.118382910933E+03    0.67356E-04   -0.27354E-03  4248   0.129E-01    0.497E-03
DAV:   2    -0.118382913548E+03   -0.26153E-05   -0.25868E-05  2088   0.368E-02
  60 F= -.13071515E+03 E0= -.13072379E+03  d E =-.279740E-04  mag=    -0.0000
       N       E                     dE             d eps       ncg     rms          rms(c)
DAV:   1    -0.118382844333E+03    0.66599E-04   -0.29316E-03  3840   0.128E-01    0.642E-03
DAV:   2    -0.118382847391E+03   -0.30577E-05   -0.21064E-05  2224   0.669E-02
  61 F= -.13071518E+03 E0= -.13072382E+03  d E =-.569399E-04  mag=    -0.0000
       N       E                     dE             d eps       ncg     rms          rms(c)
DAV:   1    -0.118382683990E+03    0.16034E-03   -0.11477E-02  3760   0.243E-01    0.112E-02
DAV:   2    -0.118382695766E+03   -0.11777E-04   -0.12107E-04  2376   0.834E-02
  62 F= -.13071522E+03 E0= -.13072385E+03  d E =-.962442E-04  mag=    -0.0000
       N       E                     dE             d eps       ncg     rms          rms(c)
DAV:   1    -0.118382628585E+03    0.55404E-04   -0.34505E-03  5128   0.152E-01    0.174E-02
DAV:   2    -0.118382634970E+03   -0.63847E-05   -0.52742E-05  2344   0.140E-01
  63 F= -.13071533E+03 E0= -.13072397E+03  d E =-.111352E-03  mag=     0.0000
