<?xml version="1.0" encoding="ISO-8859-1"?>
<modeling>
 <generator>
  <i name="program" type="string">vasp </i>
  <i name="version" type="string">6.3.2  </i>
  <i name="subversion" type="string">27Jun22 (build Aug 17 2022 15:43:34) complex                          parallel </i>
  <i name="platform" type="string">tv2STDVTST </i>
  <i name="date" type="string">2025 02 17 </i>
  <i name="time" type="string">17:12:02 </i>
 </generator>
 <incar>
  <i type="int" name="ISTART">     0</i>
  <i type="string" name="PREC">Normal</i>
  <i type="int" name="ISPIN">     2</i>
  <i type="int" name="ICHARG">     2</i>
  <i type="int" name="IBRION">     2</i>
  <i name="EDIFF">      0.00020000</i>
  <i name="EDIFFG">     -0.03000000</i>
  <i type="int" name="NSW">   800</i>
  <i type="int" name="ISIF">     2</i>
  <i type="int" name="ISYM">     1</i>
  <i name="ENCUT">    400.00000000</i>
  <i name="POTIM">      0.50000000</i>
  <i type="logical" name="LREAL"> F  </i>
  <i type="int" name="ISMEAR">     1</i>
  <i name="SIGMA">      0.20000000</i>
  <i type="logical" name="LWAVE"> F  </i>
  <i type="logical" name="LCHARG"> F  </i>
  <i type="string" name="GGA">PE</i>
  <i type="int" name="IVDW">    11</i>
 </incar>
 <primitive_cell>
  <structure name="primitive_cell" >
   <crystal>
    <varray name="basis" >
     <v>       7.26000023       0.00000000       0.00000000 </v>
     <v>       0.00000000       5.13359547       0.00000000 </v>
     <v>       0.00000000       0.00000000      23.98379135 </v>
    </varray>
    <i name="volume">    893.87360752 </i>
    <varray name="rec_basis" >
     <v>       0.13774104       0.00000000       0.00000000 </v>
     <v>       0.00000000       0.19479525       0.00000000 </v>
     <v>       0.00000000       0.00000000       0.04169483 </v>
    </varray>
   </crystal>
   <varray name="positions" >
    <v>       0.00000000       0.00000000       0.00000000 </v>
    <v>       0.00000000       0.50000000       0.00000000 </v>
    <v>       0.50000000       0.00000000       0.00000000 </v>
    <v>       0.50000000       0.50000000       0.00000000 </v>
    <v>       0.25000000       0.25000000       0.05351109 </v>
    <v>       0.25000000       0.75000000       0.05351109 </v>
    <v>       0.75000000       0.25000000       0.05351109 </v>
    <v>       0.75000000       0.75000000       0.05351109 </v>
    <v>       0.00000000       0.00000000       0.10541371 </v>
    <v>       0.00000000       0.50000000       0.10541371 </v>
    <v>       0.50000000       0.00000000       0.10541371 </v>
    <v>       0.50000000       0.50000000       0.10541371 </v>
    <v>       0.25000000       0.25000000       0.15715010 </v>
    <v>       0.25000000       0.75000000       0.15715010 </v>
    <v>       0.75000000       0.25000000       0.15715010 </v>
    <v>       0.75000000       0.75000000       0.15715010 </v>
    <v>       0.00000000       0.00000000       0.20866257 </v>
    <v>       0.00000000       0.50000000       0.20866257 </v>
    <v>       0.50000000       0.00000000       0.20866257 </v>
    <v>       0.50000000       0.50000000       0.20866257 </v>
    <v>       0.25000000       0.25000000       0.25947965 </v>
    <v>       0.25000000       0.75000000       0.25947965 </v>
    <v>       0.75000000       0.25000000       0.25947965 </v>
    <v>       0.75000000       0.75000000       0.25947965 </v>
    <v>       0.00000000       0.00000000       0.31415415 </v>
    <v>       0.00000000       0.50000000       0.31415415 </v>
    <v>       0.50000000       0.00000000       0.31415415 </v>
    <v>       0.50000000       0.50000000       0.31415415 </v>
    <v>       0.25000000       0.25000000       0.36181799 </v>
    <v>       0.25000000       0.75000000       0.36181799 </v>
    <v>       0.75000000       0.25000000       0.36181799 </v>
    <v>       0.75000000       0.75000000       0.36181799 </v>
    <v>       0.50000000       0.75000000       0.42690792 </v>
    <v>       0.50000000       0.85275482       0.44890201 </v>
   </varray>
  </structure>
  <varray name="primitive_index" >
   <v type="int" >        1 </v>
   <v type="int" >        2 </v>
   <v type="int" >        3 </v>
   <v type="int" >        4 </v>
   <v type="int" >        5 </v>
   <v type="int" >        6 </v>
   <v type="int" >        7 </v>
   <v type="int" >        8 </v>
   <v type="int" >        9 </v>
   <v type="int" >       10 </v>
   <v type="int" >       11 </v>
   <v type="int" >       12 </v>
   <v type="int" >       13 </v>
   <v type="int" >       14 </v>
   <v type="int" >       15 </v>
   <v type="int" >       16 </v>
   <v type="int" >       17 </v>
   <v type="int" >       18 </v>
   <v type="int" >       19 </v>
   <v type="int" >       20 </v>
   <v type="int" >       21 </v>
   <v type="int" >       22 </v>
   <v type="int" >       23 </v>
   <v type="int" >       24 </v>
   <v type="int" >       25 </v>
   <v type="int" >       26 </v>
   <v type="int" >       27 </v>
   <v type="int" >       28 </v>
   <v type="int" >       29 </v>
   <v type="int" >       30 </v>
   <v type="int" >       31 </v>
   <v type="int" >       32 </v>
   <v type="int" >       33 </v>
   <v type="int" >       34 </v>
  </varray>
 </primitive_cell>
 <kpoints>
  <generation param="Monkhorst-Pack">
   <v type="int" name="divisions">       3        3        1 </v>
   <v name="usershift">      0.00000000       0.00000000       0.00000000 </v>
   <v name="genvec1">      0.33333333       0.00000000       0.00000000 </v>
   <v name="genvec2">      0.00000000       0.33333333       0.00000000 </v>
   <v name="genvec3">      0.00000000       0.00000000       1.00000000 </v>
   <v name="shift">      0.00000000       0.00000000       0.00000000 </v>
  </generation>
  <varray name="kpointlist" >
   <v>       0.00000000       0.00000000       0.00000000 </v>
   <v>       0.33333333       0.00000000       0.00000000 </v>
   <v>       0.00000000       0.33333333       0.00000000 </v>
   <v>       0.33333333       0.33333333       0.00000000 </v>
  </varray>
  <varray name="weights" >
   <v>       0.11111111 </v>
   <v>       0.22222222 </v>
   <v>       0.22222222 </v>
   <v>       0.44444444 </v>
  </varray>
 </kpoints>
 <parameters>
  <separator name="general" >
   <i type="string" name="SYSTEM">unknown system</i>
   <i type="logical" name="LCOMPAT"> F  </i>
  </separator>
  <separator name="electronic" >
   <i type="string" name="PREC">normal</i>
   <i name="ENMAX">    400.00000000</i>
   <i name="ENAUG">    586.98000000</i>
   <i name="EDIFF">      0.00020000</i>
   <i type="int" name="IALGO">    38</i>
   <i type="int" name="IWAVPR">    11</i>
   <i type="int" name="NBANDS">   232</i>
   <i type="int" name="NBANDSLOW">    -1</i>
   <i type="int" name="NBANDSHIGH">    -1</i>
   <i name="NELECT">    354.00000000</i>
   <i type="int" name="TURBO">     0</i>
   <i type="int" name="IRESTART">     0</i>
   <i type="int" name="NREBOOT">     0</i>
   <i type="int" name="NMIN">     0</i>
   <i name="EREF">      0.00000000</i>
   <separator name="electronic smearing" >
    <i type="int" name="ISMEAR">     1</i>
    <i name="SIGMA">      0.20000000</i>
    <i name="KSPACING">      0.50000000</i>
    <i type="logical" name="KGAMMA"> T  </i>
    <i type="logical" name="KBLOWUP"> T  </i>
   </separator>
   <separator name="electronic projectors" >
    <i type="logical" name="LREAL"> F  </i>
    <v name="ROPT">      0.00000000      0.00000000</v>
    <i type="int" name="LMAXPAW">  -100</i>
    <i type="int" name="LMAXMIX">     2</i>
    <i type="logical" name="NLSPLINE"> F  </i>
   </separator>
   <separator name="electronic startup" >
    <i type="int" name="ISTART">     0</i>
    <i type="int" name="ICHARG">     2</i>
    <i type="int" name="INIWAV">     1</i>
   </separator>
   <separator name="electronic spin" >
    <i type="int" name="ISPIN">     2</i>
    <i type="logical" name="LNONCOLLINEAR"> F  </i>
    <v name="MAGMOM">      1.00000000      1.00000000      1.00000000      1.00000000      1.00000000      1.00000000      1.00000000      1.00000000      1.00000000      1.00000000      1.00000000      1.00000000      1.00000000      1.00000000      1.00000000      1.00000000      1.00000000      1.00000000      1.00000000      1.00000000
      1.00000000      1.00000000      1.00000000      1.00000000      1.00000000      1.00000000      1.00000000      1.00000000      1.00000000      1.00000000      1.00000000      1.00000000      1.00000000      1.00000000</v>
    <i name="NUPDOWN">     -1.00000000</i>
    <i type="logical" name="LSORBIT"> F  </i>
    <v name="SAXIS">      0.00000000      0.00000000      1.00000000</v>
    <i type="logical" name="LSPIRAL"> F  </i>
    <v name="QSPIRAL">      0.00000000      0.00000000      0.00000000</v>
    <i type="logical" name="LZEROZ"> F  </i>
   </separator>
   <separator name="electronic exchange-correlation" >
    <i type="logical" name="LASPH"> F  </i>
    <i type="logical" name="LMETAGGA"> F  </i>
   </separator>
   <separator name="electronic convergence" >
    <i type="int" name="NELM">    60</i>
    <i type="int" name="NELMDL">    -5</i>
    <i type="int" name="NELMIN">     2</i>
    <i name="ENINI">    400.00000000</i>
    <separator name="electronic convergence detail" >
     <i type="logical" name="LDIAG"> T  </i>
     <i type="logical" name="LSUBROT"> F  </i>
     <i name="WEIMIN">      0.00100000</i>
     <i name="EBREAK">      0.00000022</i>
     <i name="DEPER">      0.30000000</i>
     <i type="int" name="NRMM">     4</i>
     <i name="TIME">      0.40000000</i>
    </separator>
   </separator>
   <separator name="electronic mixer" >
    <i name="AMIX">      0.40000000</i>
    <i name="BMIX">      1.00000000</i>
    <i name="AMIN">      0.10000000</i>
    <i name="AMIX_MAG">      1.60000000</i>
    <i name="BMIX_MAG">      1.00000000</i>
    <separator name="electronic mixer details" >
     <i type="int" name="IMIX">     4</i>
     <i type="logical" name="MIXFIRST"> F  </i>
     <i type="int" name="MAXMIX">   -45</i>
     <i name="WC">    100.00000000</i>
     <i type="int" name="INIMIX">     1</i>
     <i type="int" name="MIXPRE">     1</i>
     <i type="int" name="MREMOVE">     5</i>
    </separator>
   </separator>
   <separator name="electronic dipolcorrection" >
    <i type="logical" name="LDIPOL"> F  </i>
    <i type="logical" name="LMONO"> F  </i>
    <i type="int" name="IDIPOL">     0</i>
    <i name="EPSILON">      1.00000000</i>
    <v name="DIPOL">   -100.00000000   -100.00000000   -100.00000000</v>
    <i name="EFIELD">      0.00000000</i>
   </separator>
  </separator>
  <separator name="grids" >
   <i type="int" name="NGX">    36</i>
   <i type="int" name="NGY">    28</i>
   <i type="int" name="NGZ">   120</i>
   <i type="int" name="NGXF">    72</i>
   <i type="int" name="NGYF">    56</i>
   <i type="int" name="NGZF">   240</i>
   <i type="logical" name="ADDGRID"> F  </i>
  </separator>
  <separator name="ionic" >
   <i type="int" name="NSW">   800</i>
   <i type="int" name="IBRION">     2</i>
   <i type="int" name="MDALGO">     0</i>
   <i type="int" name="ISIF">     2</i>
   <i name="PSTRESS">      0.00000000</i>
   <i name="EDIFFG">     -0.03000000</i>
   <i type="int" name="NFREE">     1</i>
   <i name="POTIM">      0.50000000</i>
   <i name="SMASS">     -3.00000000</i>
   <i name="SCALEE">      1.00000000</i>
  </separator>
  <separator name="ionic md" >
   <i name="TEBEG">      0.00010000</i>
   <i name="TEEND">      0.00010000</i>
   <i type="int" name="NBLOCK">     1</i>
   <i type="int" name="KBLOCK">   800</i>
   <i type="int" name="NPACO">   256</i>
   <i name="APACO">     10.00000000</i>
  </separator>
  <separator name="symmetry" >
   <i type="int" name="ISYM">     1</i>
   <i name="SYMPREC">      0.00001000</i>
  </separator>
  <separator name="dos" >
   <i type="int" name="LORBIT">     0</i>
   <v name="RWIGS">     -1.00000000     -1.00000000</v>
   <i type="int" name="NEDOS">   301</i>
   <i name="EMIN">     10.00000000</i>
   <i name="EMAX">    -10.00000000</i>
   <i name="EFERMI">      0.00000000</i>
  </separator>
  <separator name="writing" >
   <i type="int" name="NWRITE">     2</i>
   <i type="logical" name="LWAVE"> F  </i>
   <i type="logical" name="LDOWNSAMPLE"> F  </i>
   <i type="logical" name="LCHARG"> F  </i>
   <i type="logical" name="LPARD"> F  </i>
   <i type="logical" name="LVTOT"> F  </i>
   <i type="logical" name="LVHAR"> F  </i>
   <i type="logical" name="LELF"> F  </i>
   <i type="logical" name="LOPTICS"> F  </i>
   <v name="STM">      0.00000000      0.00000000      0.00000000      0.00000000      0.00000000      0.00000000      0.00000000</v>
  </separator>
  <separator name="performance" >
   <i type="int" name="NPAR">     4</i>
   <i type="int" name="NSIM">     4</i>
   <i type="int" name="NBLK">    -1</i>
   <i type="logical" name="LPLANE"> T  </i>
   <i type="logical" name="LSCALAPACK"> T  </i>
   <i type="logical" name="LSCAAWARE"> F  </i>
   <i type="logical" name="LSCALU"> F  </i>
   <i type="logical" name="LASYNC"> F  </i>
   <i type="logical" name="LORBITALREAL"> F  </i>
  </separator>
  <separator name="miscellaneous" >
   <i type="int" name="IDIOT">     3</i>
   <i type="int" name="PHON_NSTRUCT">    -1</i>
   <i type="logical" name="LMUSIC"> F  </i>
   <v name="POMASS">     63.54600000      1.00000000</v>
   <v name="DARWINR">      0.00000000      0.00000000</v>
   <v name="DARWINV">      1.00000000      1.00000000</v>
   <i type="logical" name="LCORR"> T  </i>
  </separator>
  <i type="logical" name="GGA_COMPAT"> T  </i>
  <i type="logical" name="LBERRY"> F  </i>
  <i type="int" name="ICORELEVEL">     0</i>
  <i type="logical" name="LDAU"> F  </i>
  <i type="int" name="I_CONSTRAINED_M">     0</i>
  <separator name="electronic exchange-correlation" >
   <i type="string" name="GGA">PE</i>
   <i type="int" name="VOSKOWN">     0</i>
   <i type="logical" name="LHFCALC"> F  </i>
   <i type="string" name="PRECFOCK"></i>
   <i type="logical" name="LSYMGRAD"> F  </i>
   <i type="logical" name="LHFONE"> F  </i>
   <i type="logical" name="LRHFCALC"> F  </i>
   <i type="logical" name="LTHOMAS"> F  </i>
   <i type="logical" name="LMODELHF"> F  </i>
   <i type="logical" name="LFOCKACE"> F  </i>
   <i name="ENCUT4O">     -1.00000000</i>
   <i type="int" name="EXXOEP">     0</i>
   <i type="int" name="FOURORBIT">     0</i>
   <i name="AEXX">      0.00000000</i>
   <i name="HFALPHA">      0.00000000</i>
   <i name="MCALPHA">      0.00000000</i>
   <i name="ALDAX">      1.00000000</i>
   <i name="AGGAX">      1.00000000</i>
   <i name="ALDAC">      1.00000000</i>
   <i name="AGGAC">      1.00000000</i>
   <i type="int" name="NKREDX">     1</i>
   <i type="int" name="NKREDY">     1</i>
   <i type="int" name="NKREDZ">     1</i>
   <i type="logical" name="SHIFTRED"> F  </i>
   <i type="logical" name="ODDONLY"> F  </i>
   <i type="logical" name="EVENONLY"> F  </i>
   <i type="int" name="LMAXFOCK">     0</i>
   <i type="int" name="NMAXFOCKAE">     0</i>
   <i type="logical" name="LFOCKAEDFT"> F  </i>
   <i name="HFSCREEN">      0.00000000</i>
   <i name="HFSCREENC">      0.00000000</i>
   <i type="int" name="NBANDSGWLOW">     0</i>
  </separator>
  <separator name="vdW DFT" >
   <i type="logical" name="LUSE_VDW"> F  </i>
   <i name="Zab_VDW">     -0.84910000</i>
   <i name="PARAM1">      0.12340000</i>
   <i name="PARAM2">      1.00000000</i>
   <i name="PARAM3">      0.00000000</i>
  </separator>
  <separator name="model GW" >
   <i type="int" name="MODEL_GW">     0</i>
   <i name="MODEL_EPS0">     15.77424013</i>
   <i name="MODEL_ALPHA">      1.00000000</i>
  </separator>
  <separator name="linear response parameters" >
   <i type="logical" name="LEPSILON"> F  </i>
   <i type="logical" name="LRPA"> F  </i>
   <i type="logical" name="LNABLA"> F  </i>
   <i type="logical" name="LVEL"> F  </i>
   <i name="CSHIFT">      0.10000000</i>
   <i name="OMEGAMAX">     -1.00000000</i>
   <i name="DEG_THRESHOLD">      0.00200000</i>
   <i name="RTIME">     -0.10000000</i>
   <i name="WPLASMAI">      0.00000000</i>
   <v name="DFIELD">      0.00000000      0.00000000      0.00000000</v>
   <v name="WPLASMA">      0.00000000      0.00000000      0.00000000      0.00000000      0.00000000      0.00000000      0.00000000      0.00000000      0.00000000</v>
  </separator>
  <separator name="orbital magnetization" >
   <i type="logical" name="NUCIND"> F  </i>
   <v name="MAGPOS">      0.00000000      0.00000000      0.00000000</v>
   <i type="logical" name="LNICSALL"> T  </i>
   <i type="logical" name="ORBITALMAG"> F  </i>
   <i type="logical" name="LMAGBLOCH"> F  </i>
   <i type="logical" name="LCHIMAG"> F  </i>
   <i type="logical" name="LGAUGE"> T  </i>
   <i type="int" name="MAGATOM">     0</i>
   <v name="MAGDIPOL">      0.00000000      0.00000000      0.00000000</v>
   <v name="AVECCONST">      0.00000000      0.00000000      0.00000000</v>
  </separator>
  <separator name="response functions" >
   <i type="logical" name="LFINITE_TEMPERATURE"> F  </i>
   <i type="logical" name="LADDER"> F  </i>
   <i type="logical" name="LRPAFORCE"> F  </i>
   <i type="logical" name="LFXC"> F  </i>
   <i type="logical" name="LHARTREE"> T  </i>
   <i type="int" name="IBSE">     0</i>
   <v type="int" name="KPOINT">    -1     0     0     0</v>
   <i type="logical" name="LTCTC"> F  </i>
   <i type="logical" name="LTCTE"> F  </i>
   <i type="logical" name="LTETE"> F  </i>
   <i type="logical" name="LTRIPLET"> F  </i>
   <i type="logical" name="LFXCEPS"> F  </i>
   <i type="logical" name="LFXHEG"> F  </i>
   <i type="int" name="NATURALO">     2</i>
   <i type="logical" name="LHOLEGF"> F  </i>
   <i type="logical" name="L2ORDER"> F  </i>
   <i type="logical" name="LDMP1"> F  </i>
   <i type="logical" name="LMP2LT"> F  </i>
   <i type="logical" name="LSMP2LT"> F  </i>
   <i type="logical" name="LGWLF"> F  </i>
   <i name="ENCUTGW">     -2.00000000</i>
   <i name="ENCUTGWSOFT">     -2.00000000</i>
   <i name="ENCUTLF">     -1.00000000</i>
   <i type="logical" name="LESF_SPLINES"> F  </i>
   <i type="int" name="LMAXMP2">    -1</i>
   <i name="SCISSOR">      0.00000000</i>
   <i type="int" name="NOMEGA">     0</i>
   <i type="int" name="NOMEGAR">     0</i>
   <i type="int" name="NBANDSGW">    -1</i>
   <i type="int" name="NBANDSO">    -1</i>
   <i type="int" name="NBANDSV">    -1</i>
   <i type="int" name="NELMGW">     1</i>
   <i type="int" name="NELMHF">     1</i>
   <i type="int" name="DIM">     3</i>
   <i type="int" name="IESPILON">     4</i>
   <i type="int" name="ANTIRES">     0</i>
   <i name="OMEGAMAX">    -30.00000000</i>
   <i name="OMEGAMIN">    -30.00000000</i>
   <i name="OMEGATL">   -200.00000000</i>
   <i type="int" name="OMEGAGRID">     0</i>
   <i name="CSHIFT">     -0.10000000</i>
   <i type="logical" name="LSELFENERGY"> F  </i>
   <i type="logical" name="LSPECTRAL"> F  </i>
   <i type="logical" name="LSPECTRALGW"> F  </i>
   <i type="logical" name="LSINGLES"> F  </i>
   <i type="logical" name="LFERMIGW"> F  </i>
   <i type="logical" name="ODDONLYGW"> F  </i>
   <i type="logical" name="EVENONLYGW"> F  </i>
   <i type="int" name="NKREDLFX">     1</i>
   <i type="int" name="NKREDLFY">     1</i>
   <i type="int" name="NKREDLFZ">     1</i>
   <i type="int" name="MAXMEM">  2800</i>
   <i type="int" name="TELESCOPE">     0</i>
   <i type="int" name="NTAUPAR">    -1</i>
   <i type="int" name="NOMEGAPAR">    -1</i>
   <i name="DAMP_NEWTON">      0.80000001</i>
   <i name="LAMBDA">      1.00000000</i>
  </separator>
  <separator name="External order field" >
   <i name="OFIELD_KAPPA">      0.00000000</i>
   <v name="OFIELD_K">      0.00000000      0.00000000      0.00000000</v>
   <i name="OFIELD_Q6_NEAR">      0.00000000</i>
   <i name="OFIELD_Q6_FAR">      0.00000000</i>
   <i name="OFIELD_A">      0.00000000</i>
  </separator>
  <separator name="optional k-points parameters" >
   <i type="int" name="KPOINTS_OPT_MODE">     1</i>
   <i type="logical" name="LKPOINTS_OPT"> F  </i>
  </separator>
 </parameters>
 <atominfo>
  <atoms>      34 </atoms>
  <types>       2 </types>
  <array name="atoms" >
   <dimension dim="1">ion</dimension>
   <field type="string">element</field>
   <field type="int">atomtype</field>
   <set>
    <rc><c>Cu</c><c>   1</c></rc>
    <rc><c>Cu</c><c>   1</c></rc>
    <rc><c>Cu</c><c>   1</c></rc>
    <rc><c>Cu</c><c>   1</c></rc>
    <rc><c>Cu</c><c>   1</c></rc>
    <rc><c>Cu</c><c>   1</c></rc>
    <rc><c>Cu</c><c>   1</c></rc>
    <rc><c>Cu</c><c>   1</c></rc>
    <rc><c>Cu</c><c>   1</c></rc>
    <rc><c>Cu</c><c>   1</c></rc>
    <rc><c>Cu</c><c>   1</c></rc>
    <rc><c>Cu</c><c>   1</c></rc>
    <rc><c>Cu</c><c>   1</c></rc>
    <rc><c>Cu</c><c>   1</c></rc>
    <rc><c>Cu</c><c>   1</c></rc>
    <rc><c>Cu</c><c>   1</c></rc>
    <rc><c>Cu</c><c>   1</c></rc>
    <rc><c>Cu</c><c>   1</c></rc>
    <rc><c>Cu</c><c>   1</c></rc>
    <rc><c>Cu</c><c>   1</c></rc>
    <rc><c>Cu</c><c>   1</c></rc>
    <rc><c>Cu</c><c>   1</c></rc>
    <rc><c>Cu</c><c>   1</c></rc>
    <rc><c>Cu</c><c>   1</c></rc>
    <rc><c>Cu</c><c>   1</c></rc>
    <rc><c>Cu</c><c>   1</c></rc>
    <rc><c>Cu</c><c>   1</c></rc>
    <rc><c>Cu</c><c>   1</c></rc>
    <rc><c>Cu</c><c>   1</c></rc>
    <rc><c>Cu</c><c>   1</c></rc>
    <rc><c>Cu</c><c>   1</c></rc>
    <rc><c>Cu</c><c>   1</c></rc>
    <rc><c>H </c><c>   2</c></rc>
    <rc><c>H </c><c>   2</c></rc>
   </set>
  </array>
  <array name="atomtypes" >
   <dimension dim="1">type</dimension>
   <field type="int">atomspertype</field>
   <field type="string">element</field>
   <field>mass</field>
   <field>valence</field>
   <field type="string">pseudopotential</field>
   <set>
    <rc><c>  32</c><c>Cu</c><c>     63.54600000</c><c>     11.00000000</c><c>  PAW_PBE Cu 22Jun2005                  </c></rc>
    <rc><c>   2</c><c>H </c><c>      1.00000000</c><c>      1.00000000</c><c>  PAW_PBE H 15Jun2001                   </c></rc>
   </set>
  </array>
 </atominfo>
 <structure name="initialpos" >
  <crystal>
   <varray name="basis" >
    <v>       7.26000023       0.00000000       0.00000000 </v>
    <v>       0.00000000       5.13359547       0.00000000 </v>
    <v>       0.00000000       0.00000000      23.98379135 </v>
   </varray>
   <i name="volume">    893.87360752 </i>
   <varray name="rec_basis" >
    <v>       0.13774104       0.00000000       0.00000000 </v>
    <v>       0.00000000       0.19479525       0.00000000 </v>
    <v>       0.00000000       0.00000000       0.04169483 </v>
   </varray>
  </crystal>
  <varray name="positions" >
   <v>       0.00000000       0.00000000       0.00000000 </v>
   <v>       0.00000000       0.50000000       0.00000000 </v>
   <v>       0.50000000       0.00000000       0.00000000 </v>
   <v>       0.50000000       0.50000000       0.00000000 </v>
   <v>       0.25000000       0.25000000       0.05351109 </v>
   <v>       0.25000000       0.75000000       0.05351109 </v>
   <v>       0.75000000       0.25000000       0.05351109 </v>
   <v>       0.75000000       0.75000000       0.05351109 </v>
   <v>       0.00000000       0.00000000       0.10541371 </v>
   <v>       0.00000000       0.50000000       0.10541371 </v>
   <v>       0.50000000       0.00000000       0.10541371 </v>
   <v>       0.50000000       0.50000000       0.10541371 </v>
   <v>       0.25000000       0.25000000       0.15715010 </v>
   <v>       0.25000000       0.75000000       0.15715010 </v>
   <v>       0.75000000       0.25000000       0.15715010 </v>
   <v>       0.75000000       0.75000000       0.15715010 </v>
   <v>       0.00000000       0.00000000       0.20866257 </v>
   <v>       0.00000000       0.50000000       0.20866257 </v>
   <v>       0.50000000       0.00000000       0.20866257 </v>
   <v>       0.50000000       0.50000000       0.20866257 </v>
   <v>       0.25000000       0.25000000       0.25947965 </v>
   <v>       0.25000000       0.75000000       0.25947965 </v>
   <v>       0.75000000       0.25000000       0.25947965 </v>
   <v>       0.75000000       0.75000000       0.25947965 </v>
   <v>       0.00000000       0.00000000       0.31415415 </v>
   <v>       0.00000000       0.50000000       0.31415415 </v>
   <v>       0.50000000       0.00000000       0.31415415 </v>
   <v>       0.50000000       0.50000000       0.31415415 </v>
   <v>       0.25000000       0.25000000       0.36181799 </v>
   <v>       0.25000000       0.75000000       0.36181799 </v>
   <v>       0.75000000       0.25000000       0.36181799 </v>
   <v>       0.75000000       0.75000000       0.36181799 </v>
   <v>       0.50000000       0.75000000       0.42690792 </v>
   <v>       0.50000000       0.85275482       0.44890201 </v>
  </varray>
  <varray name="selective"  type="logical" >
   <v type="logical" >  F  F  F </v>
   <v type="logical" >  F  F  F </v>
   <v type="logical" >  F  F  F </v>
   <v type="logical" >  F  F  F </v>
   <v type="logical" >  F  F  F </v>
   <v type="logical" >  F  F  F </v>
   <v type="logical" >  F  F  F </v>
   <v type="logical" >  F  F  F </v>
   <v type="logical" >  F  F  F </v>
   <v type="logical" >  F  F  F </v>
   <v type="logical" >  F  F  F </v>
   <v type="logical" >  F  F  F </v>
   <v type="logical" >  T  T  T </v>
   <v type="logical" >  T  T  T </v>
   <v type="logical" >  T  T  T </v>
   <v type="logical" >  T  T  T </v>
   <v type="logical" >  T  T  T </v>
   <v type="logical" >  T  T  T </v>
   <v type="logical" >  T  T  T </v>
   <v type="logical" >  T  T  T </v>
   <v type="logical" >  T  T  T </v>
   <v type="logical" >  T  T  T </v>
   <v type="logical" >  T  T  T </v>
   <v type="logical" >  T  T  T </v>
   <v type="logical" >  T  T  T </v>
   <v type="logical" >  T  T  T </v>
   <v type="logical" >  T  T  T </v>
   <v type="logical" >  T  T  T </v>
   <v type="logical" >  T  T  T </v>
   <v type="logical" >  T  T  T </v>
   <v type="logical" >  T  T  T </v>
   <v type="logical" >  T  T  T </v>
   <v type="logical" >  T  T  T </v>
   <v type="logical" >  T  T  T </v>
  </varray>
  <nose>
   <v>      -3.00000000       0.00000000       0.00010000       0.00010000 </v>
  </nose>
 </structure>
 <calculation>
  <scstep>
   <time name="dav">    7.58    7.65</time>
   <time name="total">    7.68    7.74</time>
   <energy>
    <i name="alphaZ">    844.48149002 </i>
    <i name="ewald"> 173054.98652357 </i>
    <i name="hartreedc">-216194.68541016 </i>
    <i name="XCdc">   1468.31315555 </i>
    <i name="pawpsdc">  39302.70853331 </i>
    <i name="pawaedc"> -42689.07521165 </i>
    <i name="eentropy">     -0.00473587 </i>
    <i name="bandstr">   2947.86264547 </i>
    <i name="atom">  44535.60175172 </i>
    <i name="e_fr_energy">   3270.18874197 </i>
    <i name="e_wo_entrp">   3270.19347784 </i>
    <i name="e_0_energy">   3270.19032059 </i>
   </energy>
  </scstep>
  <scstep>
   <time name="dav">    7.49    7.55</time>
   <time name="total">    7.49    7.55</time>
   <energy>
    <i name="e_fr_energy">    383.52201817 </i>
    <i name="e_wo_entrp">    383.53572024 </i>
    <i name="e_0_energy">    383.52658553 </i>
   </energy>
  </scstep>
  <scstep>
   <time name="dav">    7.47    7.53</time>
   <time name="total">    7.47    7.54</time>
   <energy>
    <i name="e_fr_energy">   -100.06147951 </i>
    <i name="e_wo_entrp">   -100.09365281 </i>
    <i name="e_0_energy">   -100.07220394 </i>
   </energy>
  </scstep>
  <scstep>
   <time name="dav">    8.20    8.26</time>
   <time name="total">    8.20    8.27</time>
   <energy>
    <i name="e_fr_energy">   -133.14719329 </i>
    <i name="e_wo_entrp">   -133.17544610 </i>
    <i name="e_0_energy">   -133.15661089 </i>
   </energy>
  </scstep>
  <scstep>
   <time name="dav">    8.08    8.15</time>
   <time name="total">    8.45    8.52</time>
   <energy>
    <i name="e_fr_energy">   -133.91627034 </i>
    <i name="e_wo_entrp">   -133.94543533 </i>
    <i name="e_0_energy">   -133.92599200 </i>
   </energy>
  </scstep>
  <scstep>
   <time name="dav">    7.95    8.01</time>
   <time name="total">    8.39    8.46</time>
   <energy>
    <i name="e_fr_energy">   -108.38321805 </i>
    <i name="e_wo_entrp">   -108.37878754 </i>
    <i name="e_0_energy">   -108.38174121 </i>
   </energy>
  </scstep>
  <scstep>
   <time name="dav">    8.03    8.10</time>
   <time name="total">    8.47    8.54</time>
   <energy>
    <i name="e_fr_energy">    -95.39888423 </i>
    <i name="e_wo_entrp">    -95.39073592 </i>
    <i name="e_0_energy">    -95.39616812 </i>
   </energy>
  </scstep>
  <scstep>
   <time name="dav">    8.28    8.35</time>
   <time name="total">    8.72    8.79</time>
   <energy>
    <i name="e_fr_energy">    -94.06510948 </i>
    <i name="e_wo_entrp">    -94.06635199 </i>
    <i name="e_0_energy">    -94.06552365 </i>
   </energy>
  </scstep>
  <scstep>
   <time name="dav">    9.49    9.57</time>
   <time name="total">    9.92   10.00</time>
   <energy>
    <i name="e_fr_energy">    -92.23903945 </i>
    <i name="e_wo_entrp">    -92.23935700 </i>
    <i name="e_0_energy">    -92.23914530 </i>
   </energy>
  </scstep>
  <scstep>
   <time name="dav">   10.36   10.45</time>
   <time name="total">   10.80   10.89</time>
   <energy>
    <i name="e_fr_energy">    -93.36022137 </i>
    <i name="e_wo_entrp">    -93.36273205 </i>
    <i name="e_0_energy">    -93.36105827 </i>
   </energy>
  </scstep>
  <scstep>
   <time name="dav">   10.71   10.79</time>
   <time name="total">   11.14   11.23</time>
   <energy>
    <i name="e_fr_energy">    -93.29078668 </i>
    <i name="e_wo_entrp">    -93.27922857 </i>
    <i name="e_0_energy">    -93.28693398 </i>
   </energy>
  </scstep>
  <scstep>
   <time name="dav">    9.33    9.40</time>
   <time name="total">    9.77    9.85</time>
   <energy>
    <i name="e_fr_energy">    -95.63076042 </i>
    <i name="e_wo_entrp">    -95.59718944 </i>
    <i name="e_0_energy">    -95.61957009 </i>
   </energy>
  </scstep>
  <scstep>
   <time name="dav">    8.89    8.97</time>
   <time name="total">    9.34    9.41</time>
   <energy>
    <i name="e_fr_energy">   -100.52232489 </i>
    <i name="e_wo_entrp">   -100.49834470 </i>
    <i name="e_0_energy">   -100.51433149 </i>
   </energy>
  </scstep>
  <scstep>
   <time name="dav">    8.98    9.05</time>
   <time name="total">    9.43    9.50</time>
   <energy>
    <i name="e_fr_energy">   -106.19839566 </i>
    <i name="e_wo_entrp">   -106.18607979 </i>
    <i name="e_0_energy">   -106.19429037 </i>
   </energy>
  </scstep>
  <scstep>
   <time name="dav">    9.55    9.63</time>
   <time name="total">    9.99   10.07</time>
   <energy>
    <i name="e_fr_energy">   -110.21913519 </i>
    <i name="e_wo_entrp">   -110.24245736 </i>
    <i name="e_0_energy">   -110.22690924 </i>
   </energy>
  </scstep>
  <scstep>
   <time name="dav">    8.23    8.30</time>
   <time name="total">    8.68    8.76</time>
   <energy>
    <i name="e_fr_energy">   -113.18297355 </i>
    <i name="e_wo_entrp">   -113.22880223 </i>
    <i name="e_0_energy">   -113.19824977 </i>
   </energy>
  </scstep>
  <scstep>
   <time name="dav">    8.04    8.10</time>
   <time name="total">    8.49    8.55</time>
   <energy>
    <i name="e_fr_energy">   -114.72549914 </i>
    <i name="e_wo_entrp">   -114.77112419 </i>
    <i name="e_0_energy">   -114.74070749 </i>
   </energy>
  </scstep>
  <scstep>
   <time name="dav">    8.29    8.36</time>
   <time name="total">    8.73    8.80</time>
   <energy>
    <i name="e_fr_energy">   -115.98985348 </i>
    <i name="e_wo_entrp">   -116.01765183 </i>
    <i name="e_0_energy">   -115.99911960 </i>
   </energy>
  </scstep>
  <scstep>
   <time name="dav">    8.70    8.77</time>
   <time name="total">    9.14    9.21</time>
   <energy>
    <i name="e_fr_energy">   -116.61964846 </i>
    <i name="e_wo_entrp">   -116.64803600 </i>
    <i name="e_0_energy">   -116.62911098 </i>
   </energy>
  </scstep>
  <scstep>
   <time name="dav">    8.37    8.44</time>
   <time name="total">    8.80    8.87</time>
   <energy>
    <i name="e_fr_energy">   -117.06706355 </i>
    <i name="e_wo_entrp">   -117.09706579 </i>
    <i name="e_0_energy">   -117.07706430 </i>
   </energy>
  </scstep>
  <scstep>
   <time name="dav">    8.49    8.56</time>
   <time name="total">    8.94    9.01</time>
   <energy>
    <i name="e_fr_energy">   -117.19452600 </i>
    <i name="e_wo_entrp">   -117.22749540 </i>
    <i name="e_0_energy">   -117.20551580 </i>
   </energy>
  </scstep>
  <scstep>
   <time name="dav">    8.55    8.62</time>
   <time name="total">    9.00    9.07</time>
   <energy>
    <i name="e_fr_energy">   -117.39242181 </i>
    <i name="e_wo_entrp">   -117.42747721 </i>
    <i name="e_0_energy">   -117.40410694 </i>
   </energy>
  </scstep>
  <scstep>
   <time name="dav">    8.67    8.74</time>
   <time name="total">    9.11    9.19</time>
   <energy>
    <i name="e_fr_energy">   -117.62312719 </i>
    <i name="e_wo_entrp">   -117.65727364 </i>
    <i name="e_0_energy">   -117.63450934 </i>
   </energy>
  </scstep>
  <scstep>
   <time name="dav">    9.31    9.38</time>
   <time name="total">    9.75    9.82</time>
   <energy>
    <i name="e_fr_energy">   -117.77516463 </i>
    <i name="e_wo_entrp">   -117.81146704 </i>
    <i name="e_0_energy">   -117.78726543 </i>
   </energy>
  </scstep>
  <scstep>
   <time name="dav">    8.62    8.68</time>
   <time name="total">    9.06    9.13</time>
   <energy>
    <i name="e_fr_energy">   -117.90320724 </i>
    <i name="e_wo_entrp">   -117.93954683 </i>
    <i name="e_0_energy">   -117.91532043 </i>
   </energy>
  </scstep>
  <scstep>
   <time name="dav">    8.92    8.99</time>
   <time name="total">    9.37    9.45</time>
   <energy>
    <i name="e_fr_energy">   -118.07011427 </i>
    <i name="e_wo_entrp">   -118.10597515 </i>
    <i name="e_0_energy">   -118.08206790 </i>
   </energy>
  </scstep>
  <scstep>
   <time name="dav">    9.05    9.13</time>
   <time name="total">    9.50    9.58</time>
   <energy>
    <i name="e_fr_energy">   -118.15212233 </i>
    <i name="e_wo_entrp">   -118.18886228 </i>
    <i name="e_0_energy">   -118.16436898 </i>
   </energy>
  </scstep>
  <scstep>
   <time name="dav">    6.66    6.72</time>
   <time name="total">    7.10    7.16</time>
   <energy>
    <i name="e_fr_energy">   -118.18322365 </i>
    <i name="e_wo_entrp">   -118.21979291 </i>
    <i name="e_0_energy">   -118.19541340 </i>
   </energy>
  </scstep>
  <scstep>
   <time name="dav">    6.04    6.09</time>
   <time name="total">    6.48    6.54</time>
   <energy>
    <i name="e_fr_energy">   -118.19081574 </i>
    <i name="e_wo_entrp">   -118.22725926 </i>
    <i name="e_0_energy">   -118.20296358 </i>
   </energy>
  </scstep>
  <scstep>
   <time name="dav">    5.94    5.99</time>
   <time name="total">    6.39    6.45</time>
   <energy>
    <i name="e_fr_energy">   -118.19443171 </i>
    <i name="e_wo_entrp">   -118.23103063 </i>
    <i name="e_0_energy">   -118.20663135 </i>
   </energy>
  </scstep>
  <scstep>
   <time name="dav">    5.68    5.73</time>
   <time name="total">    6.12    6.17</time>
   <energy>
    <i name="e_fr_energy">   -118.19576926 </i>
    <i name="e_wo_entrp">   -118.23223260 </i>
    <i name="e_0_energy">   -118.20792371 </i>
   </energy>
  </scstep>
  <scstep>
   <time name="dav">    5.55    5.60</time>
   <time name="total">    5.99    6.05</time>
   <energy>
    <i name="e_fr_energy">   -118.19597327 </i>
    <i name="e_wo_entrp">   -118.23239422 </i>
    <i name="e_0_energy">   -118.20811358 </i>
   </energy>
  </scstep>
  <scstep>
   <time name="dav">    5.58    5.63</time>
   <time name="total">    5.67    5.72</time>
   <energy>
    <i name="alphaZ">    844.48149002 </i>
    <i name="ewald"> 173054.98652357 </i>
    <i name="hartreedc">-215814.89220435 </i>
    <i name="XCdc">   1431.83073905 </i>
    <i name="pawpsdc">  41949.38220518 </i>
    <i name="pawaedc"> -45397.31795465 </i>
    <i name="eentropy">      0.03643014 </i>
    <i name="bandstr">   -722.30507178 </i>
    <i name="atom">  44535.60175172 </i>
    <i name="e_fr_energy">   -118.19609110 </i>
    <i name="e_wo_entrp">   -118.23252124 </i>
    <i name="e_0_energy">   -118.20823448 </i>
   </energy>
  </scstep>
  <structure>
   <crystal>
    <varray name="basis" >
     <v>       7.26000023       0.00000000       0.00000000 </v>
     <v>       0.00000000       5.13359547       0.00000000 </v>
     <v>       0.00000000       0.00000000      23.98379135 </v>
    </varray>
    <i name="volume">    893.87360752 </i>
    <varray name="rec_basis" >
     <v>       0.13774104       0.00000000       0.00000000 </v>
     <v>       0.00000000       0.19479525       0.00000000 </v>
     <v>       0.00000000       0.00000000       0.04169483 </v>
    </varray>
   </crystal>
   <varray name="positions" >
    <v>       0.00000000       0.00000000       0.00000000 </v>
    <v>       0.00000000       0.50000000       0.00000000 </v>
    <v>       0.50000000       0.00000000       0.00000000 </v>
    <v>       0.50000000       0.50000000       0.00000000 </v>
    <v>       0.25000000       0.25000000       0.05351109 </v>
    <v>       0.25000000       0.75000000       0.05351109 </v>
    <v>       0.75000000       0.25000000       0.05351109 </v>
    <v>       0.75000000       0.75000000       0.05351109 </v>
    <v>       0.00000000       0.00000000       0.10541371 </v>
    <v>       0.00000000       0.50000000       0.10541371 </v>
    <v>       0.50000000       0.00000000       0.10541371 </v>
    <v>       0.50000000       0.50000000       0.10541371 </v>
    <v>       0.25000000       0.25000000       0.15715010 </v>
    <v>       0.25000000       0.75000000       0.15715010 </v>
    <v>       0.75000000       0.25000000       0.15715010 </v>
    <v>       0.75000000       0.75000000       0.15715010 </v>
    <v>       0.00000000       0.00000000       0.20866257 </v>
    <v>       0.00000000       0.50000000       0.20866257 </v>
    <v>       0.50000000       0.00000000       0.20866257 </v>
    <v>       0.50000000       0.50000000       0.20866257 </v>
    <v>       0.25000000       0.25000000       0.25947965 </v>
    <v>       0.25000000       0.75000000       0.25947965 </v>
    <v>       0.75000000       0.25000000       0.25947965 </v>
    <v>       0.75000000       0.75000000       0.25947965 </v>
    <v>       0.00000000       0.00000000       0.31415415 </v>
    <v>       0.00000000       0.50000000       0.31415415 </v>
    <v>       0.50000000       0.00000000       0.31415415 </v>
    <v>       0.50000000       0.50000000       0.31415415 </v>
    <v>       0.25000000       0.25000000       0.36181799 </v>
    <v>       0.25000000       0.75000000       0.36181799 </v>
    <v>       0.75000000       0.25000000       0.36181799 </v>
    <v>       0.75000000       0.75000000       0.36181799 </v>
    <v>       0.50000000       0.75000000       0.42690792 </v>
    <v>       0.50000000       0.85275482       0.44890201 </v>
   </varray>
  </structure>
  <varray name="forces" >
   <v>       0.00000000      -0.01380754       0.44013564 </v>
   <v>       0.00000000       0.01347212       0.44618376 </v>
   <v>       0.00000000      -0.00757270       0.45816914 </v>
   <v>       0.00000000       0.00833555       0.45920721 </v>
   <v>       0.00306405      -0.00312044      -0.45148993 </v>
   <v>      -0.00571003       0.00264251      -0.45575493 </v>
   <v>      -0.00306405      -0.00312044      -0.45148993 </v>
   <v>       0.00571003       0.00264251      -0.45575493 </v>
   <v>       0.00000000      -0.00441351      -0.01036169 </v>
   <v>       0.00000000       0.00289959      -0.00999381 </v>
   <v>       0.00000000       0.00325227      -0.02861676 </v>
   <v>       0.00000000      -0.00025741      -0.03762535 </v>
   <v>       0.00888889      -0.00210719       0.01543435 </v>
   <v>      -0.00017502       0.00188223       0.01088389 </v>
   <v>      -0.00888889      -0.00210719       0.01543435 </v>
   <v>       0.00017502       0.00188223       0.01088389 </v>
   <v>       0.00000000       0.00033622       0.01555809 </v>
   <v>       0.00000000       0.00040033       0.03255079 </v>
   <v>       0.00000000       0.01171058      -0.01128834 </v>
   <v>       0.00000000      -0.01359423      -0.02377714 </v>
   <v>      -0.01127909      -0.00928579       0.00251182 </v>
   <v>       0.02011574       0.00958672       0.02050568 </v>
   <v>       0.01127909      -0.00928579       0.00251182 </v>
   <v>      -0.02011574       0.00958672       0.02050568 </v>
   <v>       0.00000000       0.00458951       0.04901801 </v>
   <v>       0.00000000       0.00052109       0.04360396 </v>
   <v>       0.00000000       0.04529109      -0.13524930 </v>
   <v>       0.00000000      -0.04402471      -0.04542370 </v>
   <v>      -0.04250233       0.02868027      -0.04413481 </v>
   <v>      -0.12943948      -0.01560218      -0.07239675 </v>
   <v>       0.04250233       0.02868027      -0.04413481 </v>
   <v>       0.12943948      -0.01560218      -0.07239675 </v>
   <v>       0.00000000      -0.42583434      -0.27978379 </v>
   <v>       0.00000000       0.39334387       0.58657464 </v>
  </varray>
  <varray name="stress" >
   <v>     -31.48332963       0.00000000       0.00000000 </v>
   <v>       0.00000000     -28.19957935       0.23927314 </v>
   <v>       0.00000000       0.23927307      -6.46504880 </v>
  </varray>
  <energy>
   <i name="e_fr_energy">   -130.60538484 </i>
   <i name="e_wo_entrp">   -130.64181498 </i>
   <i name="e_0_energy">   -130.61752822 </i>
  </energy>
  <time name="totalsc">  296.49  299.13</time>
 </calculation>
 <calculation>
  <scstep>
   <time name="dav">    7.52    7.58</time>
   <time name="total">    7.96    8.02</time>
   <energy>
    <i name="alphaZ">    844.48149002 </i>
    <i name="ewald"> 173110.47006695 </i>
    <i name="hartreedc">-215870.83634904 </i>
    <i name="XCdc">   1431.79275917 </i>
    <i name="pawpsdc">  41949.23701703 </i>
    <i name="pawaedc"> -45397.15345635 </i>
    <i name="eentropy">      0.03727698 </i>
    <i name="bandstr">   -721.81303146 </i>
    <i name="atom">  44535.60175172 </i>
    <i name="e_fr_energy">   -118.18247497 </i>
    <i name="e_wo_entrp">   -118.21975195 </i>
    <i name="e_0_energy">   -118.19490063 </i>
   </energy>
  </scstep>
  <scstep>
   <time name="dav">    9.62    9.70</time>
   <time name="total">   10.06   10.14</time>
   <energy>
    <i name="e_fr_energy">   -118.18398699 </i>
    <i name="e_wo_entrp">   -118.22069517 </i>
    <i name="e_0_energy">   -118.19622305 </i>
   </energy>
  </scstep>
  <scstep>
   <time name="dav">    8.42    8.49</time>
   <time name="total">    8.87    8.94</time>
   <energy>
    <i name="e_fr_energy">   -118.18496841 </i>
    <i name="e_wo_entrp">   -118.22232336 </i>
    <i name="e_0_energy">   -118.19742006 </i>
   </energy>
  </scstep>
  <scstep>
   <time name="dav">    8.45    8.52</time>
   <time name="total">    8.88    8.96</time>
   <energy>
    <i name="e_fr_energy">   -118.18397377 </i>
    <i name="e_wo_entrp">   -118.22132980 </i>
    <i name="e_0_energy">   -118.19642578 </i>
   </energy>
  </scstep>
  <scstep>
   <time name="dav">    9.43    9.51</time>
   <time name="total">    9.87    9.96</time>
   <energy>
    <i name="e_fr_energy">   -118.18290251 </i>
    <i name="e_wo_entrp">   -118.21943367 </i>
    <i name="e_0_energy">   -118.19507956 </i>
   </energy>
  </scstep>
  <scstep>
   <time name="dav">    6.90    6.96</time>
   <time name="total">    6.99    7.04</time>
   <energy>
    <i name="alphaZ">    844.48149002 </i>
    <i name="ewald"> 173110.47006695 </i>
    <i name="hartreedc">-215869.21093370 </i>
    <i name="XCdc">   1431.71351356 </i>
    <i name="pawpsdc">  41948.04938468 </i>
    <i name="pawaedc"> -45395.94304761 </i>
    <i name="eentropy">      0.03704579 </i>
    <i name="bandstr">   -723.38216254 </i>
    <i name="atom">  44535.60175172 </i>
    <i name="e_fr_energy">   -118.18289112 </i>
    <i name="e_wo_entrp">   -118.21993691 </i>
    <i name="e_0_energy">   -118.19523972 </i>
   </energy>
  </scstep>
  <structure>
   <crystal>
    <varray name="basis" >
     <v>       7.26000023       0.00000000       0.00000000 </v>
     <v>       0.00000000       5.13359547       0.00000000 </v>
     <v>       0.00000000       0.00000000      23.98379135 </v>
    </varray>
    <i name="volume">    893.87360752 </i>
    <varray name="rec_basis" >
     <v>       0.13774104       0.00000000       0.00000000 </v>
     <v>       0.00000000       0.19479525       0.00000000 </v>
     <v>       0.00000000       0.00000000       0.04169483 </v>
    </varray>
   </crystal>
   <varray name="positions" >
    <v>       0.00000000       0.00000000       0.00000000 </v>
    <v>       0.00000000       0.50000000       0.00000000 </v>
    <v>       0.50000000       0.00000000       0.00000000 </v>
    <v>       0.50000000       0.50000000       0.00000000 </v>
    <v>       0.25000000       0.25000000       0.05351109 </v>
    <v>       0.25000000       0.75000000       0.05351109 </v>
    <v>       0.75000000       0.25000000       0.05351109 </v>
    <v>       0.75000000       0.75000000       0.05351109 </v>
    <v>       0.00000000       0.00000000       0.10541371 </v>
    <v>       0.00000000       0.50000000       0.10541371 </v>
    <v>       0.50000000       0.00000000       0.10541371 </v>
    <v>       0.50000000       0.50000000       0.10541371 </v>
    <v>       0.25005907       0.24998020       0.15718114 </v>
    <v>       0.24999884       0.75001769       0.15717199 </v>
    <v>       0.74994093       0.24998020       0.15718114 </v>
    <v>       0.75000116       0.75001769       0.15717199 </v>
    <v>       0.00000000       0.00000316       0.20869386 </v>
    <v>       0.00000000       0.50000376       0.20872804 </v>
    <v>       0.50000000       0.00011005       0.20863986 </v>
    <v>       0.50000000       0.49987225       0.20861474 </v>
    <v>       0.24992505       0.24991274       0.25948471 </v>
    <v>       0.25013367       0.75009009       0.25952090 </v>
    <v>       0.75007495       0.24991274       0.25948471 </v>
    <v>       0.74986633       0.75009009       0.25952090 </v>
    <v>       0.00000000       0.00004313       0.31425275 </v>
    <v>       0.00000000       0.50000490       0.31424186 </v>
    <v>       0.50000000       0.00042562       0.31388210 </v>
    <v>       0.50000000       0.49958628       0.31406278 </v>
    <v>       0.24971757       0.25026952       0.36172921 </v>
    <v>       0.24913988       0.74985338       0.36167237 </v>
    <v>       0.75028243       0.25026952       0.36172921 </v>
    <v>       0.75086012       0.74985338       0.36167237 </v>
    <v>       0.50000000       0.74599825       0.42634514 </v>
    <v>       0.50000000       0.85645124       0.45008189 </v>
   </varray>
  </structure>
  <varray name="forces" >
   <v>       0.00000000      -0.01417693       0.43504385 </v>
   <v>       0.00000000       0.01402678       0.44199290 </v>
   <v>       0.00000000      -0.00751435       0.45410570 </v>
   <v>       0.00000000       0.00860140       0.45507177 </v>
   <v>       0.00204058      -0.00319308      -0.45101381 </v>
   <v>      -0.00616202       0.00291148      -0.45630859 </v>
   <v>      -0.00204058      -0.00319308      -0.45101381 </v>
   <v>       0.00616202       0.00291148      -0.45630859 </v>
   <v>       0.00000000      -0.00314841      -0.00972507 </v>
   <v>       0.00000000       0.00170254      -0.00667720 </v>
   <v>       0.00000000       0.00288507      -0.03404237 </v>
   <v>       0.00000000       0.00063892      -0.04425273 </v>
   <v>      -0.00116803       0.00008908       0.00304292 </v>
   <v>      -0.00328152      -0.00011947       0.00560994 </v>
   <v>       0.00116803       0.00008908       0.00304292 </v>
   <v>       0.00328152      -0.00011947       0.00560994 </v>
   <v>       0.00000000      -0.00252536       0.00923772 </v>
   <v>       0.00000000       0.00318227       0.01819209 </v>
   <v>       0.00000000       0.00204229      -0.01806840 </v>
   <v>       0.00000000      -0.00324553      -0.01428924 </v>
   <v>      -0.01282392      -0.00201785      -0.00373359 </v>
   <v>       0.00938623       0.00261548      -0.00099951 </v>
   <v>       0.01282392      -0.00201785      -0.00373359 </v>
   <v>      -0.00938623       0.00261548      -0.00099951 </v>
   <v>       0.00000000       0.01093539       0.01888920 </v>
   <v>       0.00000000      -0.00573962       0.01019031 </v>
   <v>       0.00000000       0.01001256      -0.06934550 </v>
   <v>       0.00000000      -0.00624616      -0.01526627 </v>
   <v>      -0.01957203       0.01402249      -0.01896584 </v>
   <v>      -0.05173082      -0.00294140      -0.01639879 </v>
   <v>       0.01957203       0.01402249      -0.01896584 </v>
   <v>       0.05173082      -0.00294140      -0.01639879 </v>
   <v>       0.00000000       0.54286733       0.64801966 </v>
   <v>       0.00000000      -0.57703165      -0.40154188 </v>
  </varray>
  <varray name="stress" >
   <v>     -29.91937459       0.00000000       0.00000000 </v>
   <v>       0.00000000     -27.44788669      -0.73458653 </v>
   <v>       0.00000000      -0.73458650      -5.72263314 </v>
  </varray>
  <energy>
   <i name="e_fr_energy">   -130.60112059 </i>
   <i name="e_wo_entrp">   -130.63816638 </i>
   <i name="e_0_energy">   -130.61346919 </i>
  </energy>
  <time name="totalsc">   67.52   68.07</time>
 </calculation>
 <calculation>
  <scstep>
   <time name="dav">    7.53    7.59</time>
   <time name="total">    7.97    8.04</time>
   <energy>
    <i name="alphaZ">    844.48149002 </i>
    <i name="ewald"> 173078.37998924 </i>
    <i name="hartreedc">-215836.91306329 </i>
    <i name="XCdc">   1431.73687015 </i>
    <i name="pawpsdc">  41948.12349895 </i>
    <i name="pawaedc"> -45396.04686245 </i>
    <i name="eentropy">      0.03639208 </i>
    <i name="bandstr">   -723.60213069 </i>
    <i name="atom">  44535.60175172 </i>
    <i name="e_fr_energy">   -118.20206427 </i>
    <i name="e_wo_entrp">   -118.23845635 </i>
    <i name="e_0_energy">   -118.21419496 </i>
   </energy>
  </scstep>
  <scstep>
   <time name="dav">    9.55    9.63</time>
   <time name="total">    9.99   10.07</time>
   <energy>
    <i name="e_fr_energy">   -118.20274722 </i>
    <i name="e_wo_entrp">   -118.23942201 </i>
    <i name="e_0_energy">   -118.21497215 </i>
   </energy>
  </scstep>
  <scstep>
   <time name="dav">    8.34    8.40</time>
   <time name="total">    8.78    8.85</time>
   <energy>
    <i name="e_fr_energy">   -118.20269002 </i>
    <i name="e_wo_entrp">   -118.23941526 </i>
    <i name="e_0_energy">   -118.21493177 </i>
   </energy>
  </scstep>
  <scstep>
   <time name="dav">    7.95    8.02</time>
   <time name="total">    8.38    8.46</time>
   <energy>
    <i name="e_fr_energy">   -118.20268380 </i>
    <i name="e_wo_entrp">   -118.23907228 </i>
    <i name="e_0_energy">   -118.21481330 </i>
   </energy>
  </scstep>
  <scstep>
   <time name="dav">    5.93    5.97</time>
   <time name="total">    6.37    6.42</time>
   <energy>
    <i name="e_fr_energy">   -118.20235127 </i>
    <i name="e_wo_entrp">   -118.23898305 </i>
    <i name="e_0_energy">   -118.21456186 </i>
   </energy>
  </scstep>
  <scstep>
   <time name="dav">    5.38    5.43</time>
   <time name="total">    5.47    5.52</time>
   <energy>
    <i name="alphaZ">    844.48149002 </i>
    <i name="ewald"> 173078.37998924 </i>
    <i name="hartreedc">-215837.12189088 </i>
    <i name="XCdc">   1431.77995774 </i>
    <i name="pawpsdc">  41948.51474166 </i>
    <i name="pawaedc"> -45396.45968255 </i>
    <i name="eentropy">      0.03663701 </i>
    <i name="bandstr">   -723.41531852 </i>
    <i name="atom">  44535.60175172 </i>
    <i name="e_fr_energy">   -118.20232457 </i>
    <i name="e_wo_entrp">   -118.23896158 </i>
    <i name="e_0_energy">   -118.21453690 </i>
   </energy>
  </scstep>
  <structure>
   <crystal>
    <varray name="basis" >
     <v>       7.26000023       0.00000000       0.00000000 </v>
     <v>       0.00000000       5.13359547       0.00000000 </v>
     <v>       0.00000000       0.00000000      23.98379135 </v>
    </varray>
    <i name="volume">    893.87360752 </i>
    <varray name="rec_basis" >
     <v>       0.13774104       0.00000000       0.00000000 </v>
     <v>       0.00000000       0.19479525       0.00000000 </v>
     <v>       0.00000000       0.00000000       0.04169483 </v>
    </varray>
   </crystal>
   <varray name="positions" >
    <v>       0.00000000       0.00000000       0.00000000 </v>
    <v>       0.00000000       0.50000000       0.00000000 </v>
    <v>       0.50000000       0.00000000       0.00000000 </v>
    <v>       0.50000000       0.50000000       0.00000000 </v>
    <v>       0.25000000       0.25000000       0.05351109 </v>
    <v>       0.25000000       0.75000000       0.05351109 </v>
    <v>       0.75000000       0.25000000       0.05351109 </v>
    <v>       0.75000000       0.75000000       0.05351109 </v>
    <v>       0.00000000       0.00000000       0.10541371 </v>
    <v>       0.00000000       0.50000000       0.10541371 </v>
    <v>       0.50000000       0.00000000       0.10541371 </v>
    <v>       0.50000000       0.50000000       0.10541371 </v>
    <v>       0.25002496       0.24999163       0.15716321 </v>
    <v>       0.24999951       0.75000747       0.15715935 </v>
    <v>       0.74997504       0.24999163       0.15716321 </v>
    <v>       0.75000049       0.75000747       0.15715935 </v>
    <v>       0.00000000       0.00000133       0.20867579 </v>
    <v>       0.00000000       0.50000159       0.20869023 </v>
    <v>       0.50000000       0.00004650       0.20865298 </v>
    <v>       0.50000000       0.49994602       0.20864236 </v>
    <v>       0.24996833       0.24996313       0.25948179 </v>
    <v>       0.25005648       0.75003806       0.25949708 </v>
    <v>       0.75003167       0.24996313       0.25948179 </v>
    <v>       0.74994352       0.75003806       0.25949708 </v>
    <v>       0.00000000       0.00001822       0.31419581 </v>
    <v>       0.00000000       0.50000207       0.31419121 </v>
    <v>       0.50000000       0.00017983       0.31403921 </v>
    <v>       0.50000000       0.49982520       0.31411555 </v>
    <v>       0.24988067       0.25011387       0.36178048 </v>
    <v>       0.24963659       0.74993805       0.36175646 </v>
    <v>       0.75011933       0.25011387       0.36178048 </v>
    <v>       0.75036341       0.74993805       0.36175646 </v>
    <v>       0.50000000       0.74830925       0.42667015 </v>
    <v>       0.50000000       0.85431657       0.44940051 </v>
   </varray>
  </structure>
  <varray name="forces" >
   <v>       0.00000000      -0.01411966       0.43809542 </v>
   <v>       0.00000000       0.01364685       0.44441776 </v>
   <v>       0.00000000      -0.00748670       0.45716442 </v>
   <v>       0.00000000       0.00817949       0.45830409 </v>
   <v>       0.00247944      -0.00331012      -0.44913945 </v>
   <v>      -0.00616160       0.00269464      -0.45359167 </v>
   <v>      -0.00247944      -0.00331012      -0.44913945 </v>
   <v>       0.00616160       0.00269464      -0.45359167 </v>
   <v>       0.00000000      -0.00428083      -0.00745895 </v>
   <v>       0.00000000       0.00257310      -0.00637843 </v>
   <v>       0.00000000       0.00308701      -0.02718451 </v>
   <v>       0.00000000      -0.00010420      -0.03675975 </v>
   <v>       0.00807766      -0.00222451       0.01744050 </v>
   <v>      -0.00101324       0.00179857       0.01413603 </v>
   <v>      -0.00807766      -0.00222451       0.01744050 </v>
   <v>       0.00101324       0.00179857       0.01413603 </v>
   <v>       0.00000000      -0.00074010       0.01896737 </v>
   <v>       0.00000000       0.00141980       0.03648719 </v>
   <v>       0.00000000       0.01101139      -0.01396549 </v>
   <v>       0.00000000      -0.01314091      -0.02372583 </v>
   <v>      -0.01409110      -0.00894004       0.00042066 </v>
   <v>       0.01949437       0.00921030       0.01641730 </v>
   <v>       0.01409110      -0.00894004       0.00042066 </v>
   <v>      -0.01949437       0.00921030       0.01641730 </v>
   <v>       0.00000000       0.00764415       0.04506983 </v>
   <v>       0.00000000      -0.00199893       0.03835000 </v>
   <v>       0.00000000       0.04109985      -0.13718067 </v>
   <v>       0.00000000      -0.04018038      -0.04796644 </v>
   <v>      -0.04382205       0.02808538      -0.04248007 </v>
   <v>      -0.11894455      -0.01341792      -0.06478849 </v>
   <v>       0.04382205       0.02808538      -0.04248007 </v>
   <v>       0.11894455      -0.01341792      -0.06478849 </v>
   <v>       0.00000000       0.07090387       0.20253273 </v>
   <v>       0.00000000      -0.10530639       0.08440162 </v>
  </varray>
  <varray name="stress" >
   <v>     -31.03755962       0.00000000       0.00000000 </v>
   <v>       0.00000000     -28.17218568      -0.23775435 </v>
   <v>       0.00000000      -0.23775435      -6.44442943 </v>
  </varray>
  <energy>
   <i name="e_fr_energy">   -130.61374838 </i>
   <i name="e_wo_entrp">   -130.65038540 </i>
   <i name="e_0_energy">   -130.62596072 </i>
  </energy>
  <time name="totalsc">   61.88   62.40</time>
 </calculation>
 <calculation>
  <scstep>
   <time name="dav">    7.87    7.93</time>
   <time name="total">    8.31    8.37</time>
   <energy>
    <i name="alphaZ">    844.48149002 </i>
    <i name="ewald"> 173136.39938548 </i>
    <i name="hartreedc">-215895.03201120 </i>
    <i name="XCdc">   1431.79663909 </i>
    <i name="pawpsdc">  41948.57828412 </i>
    <i name="pawaedc"> -45396.52182446 </i>
    <i name="eentropy">      0.03714199 </i>
    <i name="bandstr">   -723.54469057 </i>
    <i name="atom">  44535.60175172 </i>
    <i name="e_fr_energy">   -118.20383381 </i>
    <i name="e_wo_entrp">   -118.24097580 </i>
    <i name="e_0_energy">   -118.21621447 </i>
   </energy>
  </scstep>
  <scstep>
   <time name="dav">    9.60    9.67</time>
   <time name="total">   10.04   10.12</time>
   <energy>
    <i name="e_fr_energy">   -118.20592301 </i>
    <i name="e_wo_entrp">   -118.24295027 </i>
    <i name="e_0_energy">   -118.21826543 </i>
   </energy>
  </scstep>
  <scstep>
   <time name="dav">    7.10    7.16</time>
   <time name="total">    7.19    7.25</time>
   <energy>
    <i name="alphaZ">    844.48149002 </i>
    <i name="ewald"> 173136.39938548 </i>
    <i name="hartreedc">-215894.68280563 </i>
    <i name="XCdc">   1431.79215085 </i>
    <i name="pawpsdc">  41950.01791635 </i>
    <i name="pawaedc"> -45397.94428379 </i>
    <i name="eentropy">      0.03721362 </i>
    <i name="bandstr">   -723.90870577 </i>
    <i name="atom">  44535.60175172 </i>
    <i name="e_fr_energy">   -118.20588714 </i>
    <i name="e_wo_entrp">   -118.24310077 </i>
    <i name="e_0_energy">   -118.21829169 </i>
   </energy>
  </scstep>
  <structure>
   <crystal>
    <varray name="basis" >
     <v>       7.26000023       0.00000000       0.00000000 </v>
     <v>       0.00000000       5.13359547       0.00000000 </v>
     <v>       0.00000000       0.00000000      23.98379135 </v>
    </varray>
    <i name="volume">    893.87360752 </i>
    <varray name="rec_basis" >
     <v>       0.13774104       0.00000000       0.00000000 </v>
     <v>       0.00000000       0.19479525       0.00000000 </v>
     <v>       0.00000000       0.00000000       0.04169483 </v>
    </varray>
   </crystal>
   <varray name="positions" >
    <v>       0.00000000       0.00000000       0.00000000 </v>
    <v>       0.00000000       0.50000000       0.00000000 </v>
    <v>       0.50000000       0.00000000       0.00000000 </v>
    <v>       0.50000000       0.50000000       0.00000000 </v>
    <v>       0.25000000       0.25000000       0.05351109 </v>
    <v>       0.25000000       0.75000000       0.05351109 </v>
    <v>       0.75000000       0.25000000       0.05351109 </v>
    <v>       0.75000000       0.75000000       0.05351109 </v>
    <v>       0.00000000       0.00000000       0.10541371 </v>
    <v>       0.00000000       0.50000000       0.10541371 </v>
    <v>       0.50000000       0.00000000       0.10541371 </v>
    <v>       0.50000000       0.50000000       0.10541371 </v>
    <v>       0.25008104       0.24997026       0.15719877 </v>
    <v>       0.24999338       0.75002500       0.15718769 </v>
    <v>       0.74991896       0.24997026       0.15719877 </v>
    <v>       0.75000662       0.75002500       0.15718769 </v>
    <v>       0.00000000      -0.00000436       0.20871410 </v>
    <v>       0.00000000       0.50001394       0.20876469 </v>
    <v>       0.50000000       0.00015406       0.20862482 </v>
    <v>       0.50000000       0.49981818       0.20859318 </v>
    <v>       0.24987459       0.24987610       0.25948327 </v>
    <v>       0.25019054       0.75012775       0.25953230 </v>
    <v>       0.75012541       0.24987610       0.25948327 </v>
    <v>       0.74980946       0.75012775       0.25953230 </v>
    <v>       0.00000000       0.00008805       0.31429036 </v>
    <v>       0.00000000       0.49998617       0.31427222 </v>
    <v>       0.50000000       0.00058348       0.31375549 </v>
    <v>       0.50000000       0.49943092       0.31401689 </v>
    <v>       0.24958195       0.25038660       0.36169196 </v>
    <v>       0.24881214       0.74980515       0.36161997 </v>
    <v>       0.75041805       0.25038660       0.36169196 </v>
    <v>       0.75118786       0.74980515       0.36161997 </v>
    <v>       0.50000000       0.74831537       0.42694846 </v>
    <v>       0.50000000       0.85397999       0.44972264 </v>
   </varray>
  </structure>
  <varray name="forces" >
   <v>       0.00000000      -0.01388125       0.43649406 </v>
   <v>       0.00000000       0.01349757       0.44307011 </v>
   <v>       0.00000000      -0.00724110       0.45543099 </v>
   <v>       0.00000000       0.00798091       0.45640347 </v>
   <v>       0.00236980      -0.00317003      -0.44920747 </v>
   <v>      -0.00601811       0.00265683      -0.45424341 </v>
   <v>      -0.00236980      -0.00317003      -0.44920747 </v>
   <v>       0.00601811       0.00265683      -0.45424341 </v>
   <v>       0.00000000      -0.00298005      -0.00607036 </v>
   <v>       0.00000000       0.00138594      -0.00207158 </v>
   <v>       0.00000000       0.00227686      -0.03304369 </v>
   <v>       0.00000000       0.00069023      -0.04293766 </v>
   <v>      -0.00405360       0.00049709      -0.00014393 </v>
   <v>      -0.00396767      -0.00074920       0.00355440 </v>
   <v>       0.00405360       0.00049709      -0.00014393 </v>
   <v>       0.00396767      -0.00074920       0.00355440 </v>
   <v>       0.00000000      -0.00341225       0.00719636 </v>
   <v>       0.00000000       0.00379732       0.01252378 </v>
   <v>       0.00000000       0.00018014      -0.02198737 </v>
   <v>       0.00000000      -0.00144494      -0.01223796 </v>
   <v>      -0.01332433       0.00052167      -0.00879858 </v>
   <v>       0.00590084      -0.00018047      -0.00804238 </v>
   <v>       0.01332433       0.00052167      -0.00879858 </v>
   <v>      -0.00590084      -0.00018047      -0.00804238 </v>
   <v>       0.00000000       0.01154437       0.00689373 </v>
   <v>       0.00000000      -0.00661263      -0.00154261 </v>
   <v>       0.00000000       0.00048465      -0.04721069 </v>
   <v>       0.00000000       0.00339677      -0.01217700 </v>
   <v>      -0.00931834       0.00728380      -0.01564707 </v>
   <v>      -0.03765287       0.00173865      -0.02532567 </v>
   <v>       0.00931834       0.00728380      -0.01564707 </v>
   <v>       0.03765287       0.00173865      -0.02532567 </v>
   <v>       0.00000000       0.07655296       0.19957415 </v>
   <v>       0.00000000      -0.10341217       0.07740047 </v>
  </varray>
  <varray name="stress" >
   <v>     -29.92297495       0.00000000       0.00000000 </v>
   <v>       0.00000000     -27.11161895      -0.24607892 </v>
   <v>       0.00000000      -0.24607887      -5.23036727 </v>
  </varray>
  <energy>
   <i name="e_fr_energy">   -130.61865137 </i>
   <i name="e_wo_entrp">   -130.65586500 </i>
   <i name="e_0_energy">   -130.63105591 </i>
  </energy>
  <time name="totalsc">   40.47   40.81</time>
 </calculation>
 <calculation>
  <scstep>
   <time name="dav">    7.86    7.92</time>
   <time name="total">    8.30    8.37</time>
   <energy>
    <i name="alphaZ">    844.48149002 </i>
    <i name="ewald"> 173202.39373114 </i>
    <i name="hartreedc">-215960.70999763 </i>
    <i name="XCdc">   1431.81464145 </i>
    <i name="pawpsdc">  41950.36376579 </i>
    <i name="pawaedc"> -45398.31976887 </i>
    <i name="eentropy">      0.03761261 </i>
    <i name="bandstr">   -723.86864791 </i>
    <i name="atom">  44535.60175172 </i>
    <i name="e_fr_energy">   -118.20542168 </i>
    <i name="e_wo_entrp">   -118.24303429 </i>
    <i name="e_0_energy">   -118.21795922 </i>
   </energy>
  </scstep>
  <scstep>
   <time name="dav">    9.60    9.68</time>
   <time name="total">   10.04   10.13</time>
   <energy>
    <i name="e_fr_energy">   -118.20809972 </i>
    <i name="e_wo_entrp">   -118.24576601 </i>
    <i name="e_0_energy">   -118.22065515 </i>
   </energy>
  </scstep>
  <scstep>
   <time name="dav">    7.60    7.66</time>
   <time name="total">    7.69    7.75</time>
   <energy>
    <i name="alphaZ">    844.48149002 </i>
    <i name="ewald"> 173202.39373114 </i>
    <i name="hartreedc">-215960.09705532 </i>
    <i name="XCdc">   1431.80906181 </i>
    <i name="pawpsdc">  41952.56250889 </i>
    <i name="pawaedc"> -45400.52399544 </i>
    <i name="eentropy">      0.03782600 </i>
    <i name="bandstr">   -724.47338278 </i>
    <i name="atom">  44535.60175172 </i>
    <i name="e_fr_energy">   -118.20806395 </i>
    <i name="e_wo_entrp">   -118.24588995 </i>
    <i name="e_0_energy">   -118.22067262 </i>
   </energy>
  </scstep>
  <structure>
   <crystal>
    <varray name="basis" >
     <v>       7.26000023       0.00000000       0.00000000 </v>
     <v>       0.00000000       5.13359547       0.00000000 </v>
     <v>       0.00000000       0.00000000      23.98379135 </v>
    </varray>
    <i name="volume">    893.87360752 </i>
    <varray name="rec_basis" >
     <v>       0.13774104       0.00000000       0.00000000 </v>
     <v>       0.00000000       0.19479525       0.00000000 </v>
     <v>       0.00000000       0.00000000       0.04169483 </v>
    </varray>
   </crystal>
   <varray name="positions" >
    <v>       0.00000000       0.00000000       0.00000000 </v>
    <v>       0.00000000       0.50000000       0.00000000 </v>
    <v>       0.50000000       0.00000000       0.00000000 </v>
    <v>       0.50000000       0.50000000       0.00000000 </v>
    <v>       0.25000000       0.25000000       0.05351109 </v>
    <v>       0.25000000       0.75000000       0.05351109 </v>
    <v>       0.75000000       0.25000000       0.05351109 </v>
    <v>       0.75000000       0.75000000       0.05351109 </v>
    <v>       0.00000000       0.00000000       0.10541371 </v>
    <v>       0.00000000       0.50000000       0.10541371 </v>
    <v>       0.50000000       0.00000000       0.10541371 </v>
    <v>       0.50000000       0.50000000       0.10541371 </v>
    <v>       0.25014468       0.24994600       0.15723911 </v>
    <v>       0.24998643       0.75004489       0.15721985 </v>
    <v>       0.74985532       0.24994600       0.15723911 </v>
    <v>       0.75001357       0.75004489       0.15721985 </v>
    <v>       0.00000000      -0.00001081       0.20875757 </v>
    <v>       0.00000000       0.50002795       0.20884918 </v>
    <v>       0.50000000       0.00027612       0.20859287 </v>
    <v>       0.50000000       0.49967311       0.20853737 </v>
    <v>       0.24976822       0.24977735       0.25948496 </v>
    <v>       0.25034266       0.75022952       0.25957227 </v>
    <v>       0.75023178       0.24977735       0.25948496 </v>
    <v>       0.74965734       0.75022952       0.25957227 </v>
    <v>       0.00000000       0.00016728       0.31439766 </v>
    <v>       0.00000000       0.49996812       0.31436415 </v>
    <v>       0.50000000       0.00104152       0.31343355 </v>
    <v>       0.50000000       0.49898352       0.31390494 </v>
    <v>       0.24924297       0.25069608       0.36159152 </v>
    <v>       0.24787660       0.74965435       0.36146509 </v>
    <v>       0.75075703       0.25069608       0.36159152 </v>
    <v>       0.75212340       0.74965435       0.36146509 </v>
    <v>       0.50000000       0.74832231       0.42726427 </v>
    <v>       0.50000000       0.85359807       0.45008816 </v>
   </varray>
  </structure>
  <varray name="forces" >
   <v>       0.00000000      -0.01379701       0.43749540 </v>
   <v>       0.00000000       0.01333865       0.44446200 </v>
   <v>       0.00000000      -0.00696118       0.45675102 </v>
   <v>       0.00000000       0.00757860       0.45761748 </v>
   <v>       0.00236431      -0.00308436      -0.44668215 </v>
   <v>      -0.00582444       0.00252922      -0.45204299 </v>
   <v>      -0.00236431      -0.00308436      -0.44668215 </v>
   <v>       0.00582444       0.00252922      -0.45204299 </v>
   <v>       0.00000000      -0.00206667      -0.00158673 </v>
   <v>       0.00000000       0.00041450       0.00507858 </v>
   <v>       0.00000000       0.00137502      -0.03553397 </v>
   <v>       0.00000000       0.00141303      -0.04564555 </v>
   <v>      -0.01317488       0.00236966      -0.00969738 </v>
   <v>      -0.00672255      -0.00272833       0.00001854 </v>
   <v>       0.01317488       0.00236966      -0.00969738 </v>
   <v>       0.00672255      -0.00272833       0.00001854 </v>
   <v>       0.00000000      -0.00641519       0.00233024 </v>
   <v>       0.00000000       0.00648284       0.00023765 </v>
   <v>       0.00000000      -0.00763250      -0.03201365 </v>
   <v>       0.00000000       0.00675873      -0.00530461 </v>
   <v>      -0.01553364       0.00768507      -0.01878204 </v>
   <v>      -0.00313487      -0.00733365      -0.02921231 </v>
   <v>       0.01553364       0.00768507      -0.01878204 </v>
   <v>       0.00313487      -0.00733365      -0.02921231 </v>
   <v>       0.00000000       0.01700818      -0.02293789 </v>
   <v>       0.00000000      -0.01196208      -0.03377168 </v>
   <v>       0.00000000      -0.02815625       0.00840296 </v>
   <v>       0.00000000       0.03504837       0.00657306 </v>
   <v>       0.01421697      -0.00709516       0.00078500 </v>
   <v>       0.02104735       0.01330750      -0.00029217 </v>
   <v>      -0.01421697      -0.00709516       0.00078500 </v>
   <v>      -0.02104735       0.01330750      -0.00029217 </v>
   <v>       0.00000000       0.07624343       0.19468433 </v>
   <v>       0.00000000      -0.09997035       0.07497235 </v>
  </varray>
  <varray name="stress" >
   <v>     -29.23503976       0.00000000       0.00000000 </v>
   <v>       0.00000000     -26.45845826      -0.24788599 </v>
   <v>       0.00000000      -0.24788599      -4.42628573 </v>
  </varray>
  <energy>
   <i name="e_fr_energy">   -130.62231805 </i>
   <i name="e_wo_entrp">   -130.66014406 </i>
   <i name="e_0_energy">   -130.63492672 </i>
  </energy>
  <time name="totalsc">   40.94   41.25</time>
 </calculation>
 <calculation>
  <scstep>
   <time name="dav">    7.83    7.90</time>
   <time name="total">    8.28    8.34</time>
   <energy>
    <i name="alphaZ">    844.48149002 </i>
    <i name="ewald"> 173334.88319573 </i>
    <i name="hartreedc">-216092.39368779 </i>
    <i name="XCdc">   1431.85781162 </i>
    <i name="pawpsdc">  41953.08811853 </i>
    <i name="pawaedc"> -45401.09787894 </i>
    <i name="eentropy">      0.03885211 </i>
    <i name="bandstr">   -724.65555917 </i>
    <i name="atom">  44535.60175172 </i>
    <i name="e_fr_energy">   -118.19590618 </i>
    <i name="e_wo_entrp">   -118.23475829 </i>
    <i name="e_0_energy">   -118.20885689 </i>
   </energy>
  </scstep>
  <scstep>
   <time name="dav">    9.79    9.87</time>
   <time name="total">   10.25   10.33</time>
   <energy>
    <i name="e_fr_energy">   -118.20659925 </i>
    <i name="e_wo_entrp">   -118.24549498 </i>
    <i name="e_0_energy">   -118.21956449 </i>
   </energy>
  </scstep>
  <scstep>
   <time name="dav">    7.71    7.78</time>
   <time name="total">    8.16    8.22</time>
   <energy>
    <i name="e_fr_energy">   -118.20668976 </i>
    <i name="e_wo_entrp">   -118.24549830 </i>
    <i name="e_0_energy">   -118.21962594 </i>
   </energy>
  </scstep>
  <scstep>
   <time name="dav">    7.69    7.75</time>
   <time name="total">    8.14    8.20</time>
   <energy>
    <i name="e_fr_energy">   -118.20626252 </i>
    <i name="e_wo_entrp">   -118.24531474 </i>
    <i name="e_0_energy">   -118.21927993 </i>
   </energy>
  </scstep>
  <scstep>
   <time name="dav">    7.96    8.03</time>
   <time name="total">    8.05    8.11</time>
   <energy>
    <i name="alphaZ">    844.48149002 </i>
    <i name="ewald"> 173334.88319573 </i>
    <i name="hartreedc">-216092.15482940 </i>
    <i name="XCdc">   1431.85636965 </i>
    <i name="pawpsdc">  41960.35226430 </i>
    <i name="pawaedc"> -45408.51770957 </i>
    <i name="eentropy">      0.03837762 </i>
    <i name="bandstr">   -724.74709094 </i>
    <i name="atom">  44535.60175172 </i>
    <i name="e_fr_energy">   -118.20618088 </i>
    <i name="e_wo_entrp">   -118.24455850 </i>
    <i name="e_0_energy">   -118.21897342 </i>
   </energy>
  </scstep>
  <structure>
   <crystal>
    <varray name="basis" >
     <v>       7.26000023       0.00000000       0.00000000 </v>
     <v>       0.00000000       5.13359547       0.00000000 </v>
     <v>       0.00000000       0.00000000      23.98379135 </v>
    </varray>
    <i name="volume">    893.87360752 </i>
    <varray name="rec_basis" >
     <v>       0.13774104       0.00000000       0.00000000 </v>
     <v>       0.00000000       0.19479525       0.00000000 </v>
     <v>       0.00000000       0.00000000       0.04169483 </v>
    </varray>
   </crystal>
   <varray name="positions" >
    <v>       0.00000000       0.00000000       0.00000000 </v>
    <v>       0.00000000       0.50000000       0.00000000 </v>
    <v>       0.50000000       0.00000000       0.00000000 </v>
    <v>       0.50000000       0.50000000       0.00000000 </v>
    <v>       0.25000000       0.25000000       0.05351109 </v>
    <v>       0.25000000       0.75000000       0.05351109 </v>
    <v>       0.75000000       0.25000000       0.05351109 </v>
    <v>       0.75000000       0.75000000       0.05351109 </v>
    <v>       0.00000000       0.00000000       0.10541371 </v>
    <v>       0.00000000       0.50000000       0.10541371 </v>
    <v>       0.50000000       0.00000000       0.10541371 </v>
    <v>       0.50000000       0.50000000       0.10541371 </v>
    <v>       0.25027197       0.24989749       0.15731980 </v>
    <v>       0.24997253       0.75008467       0.15728416 </v>
    <v>       0.74972803       0.24989749       0.15731980 </v>
    <v>       0.75002747       0.75008467       0.15728416 </v>
    <v>       0.00000000      -0.00002373       0.20884450 </v>
    <v>       0.00000000       0.50005598       0.20901816 </v>
    <v>       0.50000000       0.00052024       0.20852897 </v>
    <v>       0.50000000       0.49938296       0.20842575 </v>
    <v>       0.24955547       0.24957984       0.25948833 </v>
    <v>       0.25064690       0.75043306       0.25965220 </v>
    <v>       0.75044453       0.24957984       0.25948833 </v>
    <v>       0.74935310       0.75043306       0.25965220 </v>
    <v>       0.00000000       0.00032574       0.31461225 </v>
    <v>       0.00000000       0.49993204       0.31454801 </v>
    <v>       0.50000000       0.00195761       0.31278967 </v>
    <v>       0.50000000       0.49808872       0.31368105 </v>
    <v>       0.24856502       0.25131502       0.36139064 </v>
    <v>       0.24600553       0.74935274       0.36115532 </v>
    <v>       0.75143498       0.25131502       0.36139064 </v>
    <v>       0.75399447       0.74935274       0.36115532 </v>
    <v>       0.50000000       0.74833619       0.42789589 </v>
    <v>       0.50000000       0.85283423       0.45081921 </v>
   </varray>
  </structure>
  <varray name="forces" >
   <v>       0.00000000      -0.01361660       0.43223374 </v>
   <v>       0.00000000       0.01315016       0.43979957 </v>
   <v>       0.00000000      -0.00635835       0.45217922 </v>
   <v>       0.00000000       0.00687260       0.45262061 </v>
   <v>       0.00219350      -0.00295582      -0.44145103 </v>
   <v>      -0.00531534       0.00236274      -0.44770999 </v>
   <v>      -0.00219350      -0.00295582      -0.44145103 </v>
   <v>       0.00531534       0.00236274      -0.44770999 </v>
   <v>       0.00000000      -0.00005508       0.01262460 </v>
   <v>       0.00000000      -0.00159034       0.02429377 </v>
   <v>       0.00000000      -0.00047091      -0.03524360 </v>
   <v>       0.00000000       0.00284903      -0.04560692 </v>
   <v>      -0.03117524       0.00605190      -0.02391641 </v>
   <v>      -0.01232767      -0.00648946      -0.00249309 </v>
   <v>       0.03117524       0.00605190      -0.02391641 </v>
   <v>       0.01232767      -0.00648946      -0.00249309 </v>
   <v>       0.00000000      -0.01182182      -0.00043726 </v>
   <v>       0.00000000       0.01137295      -0.01705378 </v>
   <v>       0.00000000      -0.02348991      -0.04719934 </v>
   <v>       0.00000000       0.02291840       0.01407026 </v>
   <v>      -0.02142180       0.02185009      -0.03204947 </v>
   <v>      -0.02045404      -0.02143352      -0.06622345 </v>
   <v>       0.02142180       0.02185009      -0.03204947 </v>
   <v>       0.02045404      -0.02143352      -0.06622345 </v>
   <v>       0.00000000       0.03151100      -0.07987961 </v>
   <v>       0.00000000      -0.02583375      -0.09810330 </v>
   <v>       0.00000000      -0.07670345       0.11165910 </v>
   <v>       0.00000000       0.09220874       0.03989984 </v>
   <v>       0.05410337      -0.03116896       0.02171318 </v>
   <v>       0.11155898       0.03333593       0.04289511 </v>
   <v>      -0.05410337      -0.03116896       0.02171318 </v>
   <v>      -0.11155898       0.03333593       0.04289511 </v>
   <v>       0.00000000       0.07193843       0.17784299 </v>
   <v>       0.00000000      -0.09598690       0.06477044 </v>
  </varray>
  <varray name="stress" >
   <v>     -31.60299668       0.00000000       0.00000000 </v>
   <v>       0.00000000     -28.95776487      -0.25101442 </v>
   <v>       0.00000000      -0.25101450      -6.99775583 </v>
  </varray>
  <energy>
   <i name="e_fr_energy">   -130.62332452 </i>
   <i name="e_wo_entrp">   -130.66170214 </i>
   <i name="e_0_energy">   -130.63611706 </i>
  </energy>
  <time name="totalsc">   57.78   58.26</time>
 </calculation>
 <calculation>
  <scstep>
   <time name="dav">    7.76    7.82</time>
   <time name="total">    8.19    8.26</time>
   <energy>
    <i name="alphaZ">    844.48149002 </i>
    <i name="ewald"> 173254.44162621 </i>
    <i name="hartreedc">-216010.89795656 </i>
    <i name="XCdc">   1431.82283856 </i>
    <i name="pawpsdc">  41961.75664399 </i>
    <i name="pawaedc"> -45409.97084844 </i>
    <i name="eentropy">      0.03835025 </i>
    <i name="bandstr">   -725.47843350 </i>
    <i name="atom">  44535.60175172 </i>
    <i name="e_fr_energy">   -118.20453774 </i>
    <i name="e_wo_entrp">   -118.24288799 </i>
    <i name="e_0_energy">   -118.21732116 </i>
   </energy>
  </scstep>
  <scstep>
   <time name="dav">    9.51    9.58</time>
   <time name="total">    9.94   10.02</time>
   <energy>
[...]
       <r>    10.5142    -0.0005   232.0000 </r>
       <r>    10.5879    -0.0001   232.0000 </r>
       <r>    10.6616    -0.0000   232.0000 </r>
       <r>    10.7353    -0.0000   232.0000 </r>
       <r>    10.8090    -0.0000   232.0000 </r>
       <r>    10.8827    -0.0000   232.0000 </r>
       <r>    10.9564    -0.0000   232.0000 </r>
       <r>    11.0301    -0.0000   232.0000 </r>
       <r>    11.1038    -0.0000   232.0000 </r>
       <r>    11.1775     0.0000   232.0000 </r>
       <r>    11.2512     0.0000   232.0000 </r>
       <r>    11.3249     0.0000   232.0000 </r>
       <r>    11.3986     0.0000   232.0000 </r>
       <r>    11.4723     0.0000   232.0000 </r>
       <r>    11.5460     0.0000   232.0000 </r>
       <r>    11.6197     0.0000   232.0000 </r>
       <r>    11.6934     0.0000   232.0000 </r>
       <r>    11.7671     0.0000   232.0000 </r>
       <r>    11.8408     0.0000   232.0000 </r>
      </set>
      <set comment="spin 2">
       <r>   -10.2702     0.0000     0.0000 </r>
       <r>   -10.1965     0.0000     0.0000 </r>
       <r>   -10.1228     0.0000     0.0000 </r>
       <r>   -10.0491     0.0000     0.0000 </r>
       <r>    -9.9754     0.0000     0.0000 </r>
       <r>    -9.9017    -0.0000    -0.0000 </r>
       <r>    -9.8280    -0.0000    -0.0000 </r>
       <r>    -9.7543    -0.0000    -0.0000 </r>
       <r>    -9.6806    -0.0000    -0.0000 </r>
       <r>    -9.6069    -0.0000    -0.0000 </r>
       <r>    -9.5332    -0.0000    -0.0000 </r>
       <r>    -9.4595    -0.0000    -0.0000 </r>
       <r>    -9.3858    -0.0000    -0.0000 </r>
       <r>    -9.3121    -0.0000    -0.0000 </r>
       <r>    -9.2384    -0.0000    -0.0000 </r>
       <r>    -9.1647    -0.0000    -0.0000 </r>
       <r>    -9.0910    -0.0000    -0.0000 </r>
       <r>    -9.0172    -0.0000    -0.0000 </r>
       <r>    -8.9435    -0.0000    -0.0000 </r>
       <r>    -8.8698    -0.0001    -0.0000 </r>
       <r>    -8.7961    -0.0008    -0.0001 </r>
       <r>    -8.7224    -0.0038    -0.0003 </r>
       <r>    -8.6487    -0.0121    -0.0012 </r>
       <r>    -8.5750    -0.0234    -0.0030 </r>
       <r>    -8.5013    -0.0129    -0.0039 </r>
       <r>    -8.4276     0.0685     0.0011 </r>
       <r>    -8.3539     0.2332     0.0183 </r>
       <r>    -8.2802     0.3848     0.0467 </r>
       <r>    -8.2065     0.4016     0.0763 </r>
       <r>    -8.1328     0.3418     0.1015 </r>
       <r>    -8.0591     0.4201     0.1324 </r>
       <r>    -7.9854     0.6772     0.1823 </r>
       <r>    -7.9117     0.8479     0.2448 </r>
       <r>    -7.8380     0.7403     0.2994 </r>
       <r>    -7.7643     0.5575     0.3405 </r>
       <r>    -7.6906     0.5839     0.3835 </r>
       <r>    -7.6169     0.7282     0.4372 </r>
       <r>    -7.5432     0.7377     0.4916 </r>
       <r>    -7.4695     0.7574     0.5474 </r>
       <r>    -7.3958     1.1806     0.6344 </r>
       <r>    -7.3221     1.8747     0.7726 </r>
       <r>    -7.2484     2.1430     0.9305 </r>
       <r>    -7.1747     1.7409     1.0588 </r>
       <r>    -7.1010     1.3148     1.1557 </r>
       <r>    -7.0273     1.4105     1.2597 </r>
       <r>    -6.9535     1.6583     1.3819 </r>
       <r>    -6.8798     1.4542     1.4891 </r>
       <r>    -6.8061     0.9117     1.5563 </r>
       <r>    -6.7324     0.5719     1.5985 </r>
       <r>    -6.6587     0.5949     1.6423 </r>
       <r>    -6.5850     0.8559     1.7054 </r>
       <r>    -6.5113     1.4998     1.8159 </r>
       <r>    -6.4376     2.6048     2.0079 </r>
       <r>    -6.3639     3.4789     2.2643 </r>
       <r>    -6.2902     3.2597     2.5046 </r>
       <r>    -6.2165     2.1525     2.6632 </r>
       <r>    -6.1428     1.1605     2.7488 </r>
       <r>    -6.0691     0.7851     2.8066 </r>
       <r>    -5.9954     0.7975     2.8654 </r>
       <r>    -5.9217     0.9259     2.9336 </r>
       <r>    -5.8480     1.1324     3.0171 </r>
       <r>    -5.7743     1.6228     3.1367 </r>
       <r>    -5.7006     2.8319     3.3454 </r>
       <r>    -5.6269     4.8144     3.7003 </r>
       <r>    -5.5532     6.6594     4.1911 </r>
       <r>    -5.4795     7.1521     4.7182 </r>
       <r>    -5.4058     5.9563     5.1572 </r>
       <r>    -5.3321     3.8904     5.4439 </r>
       <r>    -5.2584     2.3355     5.6161 </r>
       <r>    -5.1847     2.3960     5.7927 </r>
       <r>    -5.1110     4.1260     6.0968 </r>
       <r>    -5.0373     6.3135     6.5621 </r>
       <r>    -4.9636     7.3662     7.1050 </r>
       <r>    -4.8899     6.6646     7.5962 </r>
       <r>    -4.8161     4.7800     7.9485 </r>
       <r>    -4.7424     2.5893     8.1394 </r>
       <r>    -4.6687     0.8190     8.1997 </r>
       <r>    -4.5950     0.1615     8.2116 </r>
       <r>    -4.5213     1.1181     8.2940 </r>
       <r>    -4.4476     3.5922     8.5588 </r>
       <r>    -4.3739     6.6882     9.0517 </r>
       <r>    -4.3002     9.0229     9.7168 </r>
       <r>    -4.2265     9.7100    10.4324 </r>
       <r>    -4.1528     9.3610    11.1224 </r>
       <r>    -4.0791     9.7110    11.8381 </r>
       <r>    -4.0054    11.7598    12.7048 </r>
       <r>    -3.9317    14.5344    13.7761 </r>
       <r>    -3.8580    16.3613    14.9820 </r>
       <r>    -3.7843    17.1679    16.2473 </r>
       <r>    -3.7106    18.2235    17.5904 </r>
       <r>    -3.6369    19.7325    19.0448 </r>
       <r>    -3.5632    20.8062    20.5783 </r>
       <r>    -3.4895    21.9333    22.1948 </r>
       <r>    -3.4158    24.9879    24.0365 </r>
       <r>    -3.3421    30.0001    26.2476 </r>
       <r>    -3.2684    33.9729    28.7516 </r>
       <r>    -3.1947    34.3602    31.2840 </r>
       <r>    -3.1210    32.1985    33.6572 </r>
       <r>    -3.0473    30.0738    35.8737 </r>
       <r>    -2.9736    28.6882    37.9881 </r>
       <r>    -2.8999    27.6889    40.0289 </r>
       <r>    -2.8262    28.2427    42.1105 </r>
       <r>    -2.7524    31.9945    44.4686 </r>
       <r>    -2.6787    38.0836    47.2755 </r>
       <r>    -2.6050    43.3715    50.4721 </r>
       <r>    -2.5313    45.6987    53.8403 </r>
       <r>    -2.4576    45.8366    57.2186 </r>
       <r>    -2.3839    46.3757    60.6367 </r>
       <r>    -2.3102    49.3454    64.2736 </r>
       <r>    -2.2365    54.7198    68.3066 </r>
       <r>    -2.1628    60.5474    72.7692 </r>
       <r>    -2.0891    64.0771    77.4919 </r>
       <r>    -2.0154    63.4084    82.1653 </r>
       <r>    -1.9417    59.0191    86.5152 </r>
       <r>    -1.8680    53.3725    90.4490 </r>
       <r>    -1.7943    48.8052    94.0461 </r>
       <r>    -1.7206    46.3193    97.4600 </r>
       <r>    -1.6469    46.1908   100.8644 </r>
       <r>    -1.5732    48.6950   104.4534 </r>
       <r>    -1.4995    53.2001   108.3744 </r>
       <r>    -1.4258    57.3044   112.5979 </r>
       <r>    -1.3521    59.1545   116.9578 </r>
       <r>    -1.2784    59.9872   121.3791 </r>
       <r>    -1.2047    61.7810   125.9326 </r>
       <r>    -1.1310    63.9391   130.6451 </r>
       <r>    -1.0573    65.5920   135.4795 </r>
       <r>    -0.9836    69.0047   140.5654 </r>
       <r>    -0.9099    76.2555   146.1857 </r>
       <r>    -0.8362    83.5928   152.3468 </r>
       <r>    -0.7625    82.9514   158.4606 </r>
       <r>    -0.6888    69.7423   163.6008 </r>
       <r>    -0.6150    47.8960   167.1309 </r>
       <r>    -0.5413    26.6602   169.0959 </r>
       <r>    -0.4676    12.9474   170.0501 </r>
       <r>    -0.3939     7.4024   170.5957 </r>
       <r>    -0.3202     6.5534   171.0787 </r>
       <r>    -0.2465     6.6317   171.5675 </r>
       <r>    -0.1728     5.5985   171.9801 </r>
       <r>    -0.0991     3.4161   172.2319 </r>
       <r>    -0.0254     1.2733   172.3258 </r>
       <r>     0.0483     0.3867   172.3543 </r>
       <r>     0.1220     1.1656   172.4402 </r>
       <r>     0.1957     3.0786   172.6671 </r>
       <r>     0.2694     5.1086   173.0436 </r>
       <r>     0.3431     6.5491   173.5263 </r>
       <r>     0.4168     7.5423   174.0822 </r>
       <r>     0.4905     8.6282   174.7181 </r>
       <r>     0.5642     9.6148   175.4268 </r>
       <r>     0.6379     9.4787   176.1254 </r>
       <r>     0.7116     7.8469   176.7037 </r>
       <r>     0.7853     5.7753   177.1294 </r>
       <r>     0.8590     4.5197   177.4625 </r>
       <r>     0.9327     4.3494   177.7831 </r>
       <r>     1.0064     4.8541   178.1408 </r>
       <r>     1.0801     5.5248   178.5480 </r>
       <r>     1.1538     5.7302   178.9703 </r>
       <r>     1.2275     4.9065   179.3320 </r>
       <r>     1.3012     3.2817   179.5738 </r>
       <r>     1.3749     2.0386   179.7241 </r>
       <r>     1.4486     2.3163   179.8948 </r>
       <r>     1.5224     3.9301   180.1845 </r>
       <r>     1.5961     5.3332   180.5775 </r>
       <r>     1.6698     5.3593   180.9725 </r>
       <r>     1.7435     4.6850   181.3179 </r>
       <r>     1.8172     4.7068   181.6648 </r>
       <r>     1.8909     5.4985   182.0700 </r>
       <r>     1.9646     6.0634   182.5169 </r>
       <r>     2.0383     6.0595   182.9635 </r>
       <r>     2.1120     5.9757   183.4040 </r>
       <r>     2.1857     5.9930   183.8457 </r>
       <r>     2.2594     5.7911   184.2725 </r>
       <r>     2.3331     5.3300   184.6653 </r>
       <r>     2.4068     5.0660   185.0387 </r>
       <r>     2.4805     5.2556   185.4261 </r>
       <r>     2.5542     5.4295   185.8262 </r>
       <r>     2.6279     4.9527   186.1913 </r>
       <r>     2.7016     3.9257   186.4806 </r>
       <r>     2.7753     3.1124   186.7100 </r>
       <r>     2.8490     3.2367   186.9486 </r>
       <r>     2.9227     4.5223   187.2819 </r>
       <r>     2.9964     6.2465   187.7423 </r>
       <r>     3.0701     6.8237   188.2452 </r>
       <r>     3.1438     5.3930   188.6427 </r>
       <r>     3.2175     3.1289   188.8733 </r>
       <r>     3.2912     2.0007   189.0207 </r>
       <r>     3.3649     2.6316   189.2147 </r>
       <r>     3.4386     4.0627   189.5141 </r>
       <r>     3.5123     5.0545   189.8867 </r>
       <r>     3.5861     5.0942   190.2621 </r>
       <r>     3.6598     4.5840   190.6000 </r>
       <r>     3.7335     4.3136   190.9179 </r>
       <r>     3.8072     4.5788   191.2554 </r>
       <r>     3.8809     5.0117   191.6248 </r>
       <r>     3.9546     5.2140   192.0091 </r>
       <r>     4.0283     5.0787   192.3834 </r>
       <r>     4.1020     4.6336   192.7249 </r>
       <r>     4.1757     3.9759   193.0179 </r>
       <r>     4.2494     3.3873   193.2676 </r>
       <r>     4.3231     3.2696   193.5086 </r>
       <r>     4.3968     3.6325   193.7763 </r>
       <r>     4.4705     3.8826   194.0624 </r>
       <r>     4.5442     3.7167   194.3364 </r>
       <r>     4.6179     3.8590   194.6208 </r>
       <r>     4.6916     5.0931   194.9962 </r>
       <r>     4.7653     6.8421   195.5005 </r>
       <r>     4.8390     7.5324   196.0556 </r>
       <r>     4.9127     6.4107   196.5281 </r>
       <r>     4.9864     4.3626   196.8497 </r>
       <r>     5.0601     2.7913   197.0554 </r>
       <r>     5.1338     2.3784   197.2307 </r>
       <r>     5.2075     3.1500   197.4628 </r>
       <r>     5.2812     4.8018   197.8168 </r>
       <r>     5.3549     6.4830   198.2946 </r>
       <r>     5.4286     7.2999   198.8326 </r>
       <r>     5.5023     7.4113   199.3788 </r>
       <r>     5.5760     7.5031   199.9318 </r>
       <r>     5.6497     7.4759   200.4828 </r>
       <r>     5.7235     6.9667   200.9963 </r>
       <r>     5.7972     6.4596   201.4724 </r>
       <r>     5.8709     6.7197   201.9677 </r>
       <r>     5.9446     7.6679   202.5328 </r>
       <r>     6.0183     8.4688   203.1570 </r>
       <r>     6.0920     8.4081   203.7767 </r>
       <r>     6.1657     7.4559   204.3262 </r>
       <r>     6.2394     6.3158   204.7917 </r>
       <r>     6.3131     5.9043   205.2269 </r>
       <r>     6.3868     6.4373   205.7014 </r>
       <r>     6.4605     7.3312   206.2417 </r>
       <r>     6.5342     8.0284   206.8334 </r>
       <r>     6.6079     8.3155   207.4463 </r>
       <r>     6.6816     8.1401   208.0462 </r>
       <r>     6.7553     7.7075   208.6143 </r>
       <r>     6.8290     7.3507   209.1561 </r>
       <r>     6.9027     7.0533   209.6759 </r>
       <r>     6.9764     6.5742   210.1605 </r>
       <r>     7.0501     6.0576   210.6069 </r>
       <r>     7.1238     6.0252   211.0510 </r>
       <r>     7.1975     6.7398   211.5478 </r>
       <r>     7.2712     7.8511   212.1264 </r>
       <r>     7.3449     8.6498   212.7639 </r>
       <r>     7.4186     8.6098   213.3985 </r>
       <r>     7.4923     7.7542   213.9700 </r>
       <r>     7.5660     6.6322   214.4588 </r>
       <r>     7.6397     6.0703   214.9062 </r>
       <r>     7.7134     6.6732   215.3981 </r>
       <r>     7.7872     8.3138   216.0108 </r>
       <r>     7.8609    10.2372   216.7654 </r>
       <r>     7.9346    11.4508   217.6093 </r>
       <r>     8.0083    11.1111   218.4283 </r>
       <r>     8.0820     9.3850   219.1200 </r>
       <r>     8.1557     7.7152   219.6886 </r>
       <r>     8.2294     7.3406   220.2296 </r>
       <r>     8.3031     8.0171   220.8205 </r>
       <r>     8.3768     8.6771   221.4601 </r>
       <r>     8.4505     8.5711   222.0918 </r>
       <r>     8.5242     7.6409   222.6549 </r>
       <r>     8.5979     6.6198   223.1428 </r>
       <r>     8.6716     6.6184   223.6306 </r>
       <r>     8.7453     7.9543   224.2169 </r>
       <r>     8.8190     9.6766   224.9301 </r>
       <r>     8.8927    10.5899   225.7106 </r>
       <r>     8.9664    10.4294   226.4793 </r>
       <r>     9.0401     9.7160   227.1954 </r>
       <r>     9.1138     8.7180   227.8380 </r>
       <r>     9.1875     7.3037   228.3763 </r>
       <r>     9.2612     5.8544   228.8078 </r>
       <r>     9.3349     5.2397   229.1939 </r>
       <r>     9.4086     5.5934   229.6062 </r>
       <r>     9.4823     6.1101   230.0565 </r>
       <r>     9.5560     6.1489   230.5097 </r>
       <r>     9.6297     5.7068   230.9303 </r>
       <r>     9.7034     4.9776   231.2972 </r>
       <r>     9.7771     4.0656   231.5969 </r>
       <r>     9.8508     3.0062   231.8184 </r>
       <r>     9.9246     1.8522   231.9549 </r>
       <r>     9.9983     0.8012   232.0140 </r>
       <r>    10.0720     0.1213   232.0229 </r>
       <r>    10.1457    -0.1235   232.0138 </r>
       <r>    10.2194    -0.1150   232.0053 </r>
       <r>    10.2931    -0.0527   232.0015 </r>
       <r>    10.3668    -0.0158   232.0003 </r>
       <r>    10.4405    -0.0033   232.0000 </r>
       <r>    10.5142    -0.0005   232.0000 </r>
       <r>    10.5879    -0.0001   232.0000 </r>
       <r>    10.6616    -0.0000   232.0000 </r>
       <r>    10.7353    -0.0000   232.0000 </r>
       <r>    10.8090    -0.0000   232.0000 </r>
       <r>    10.8827    -0.0000   232.0000 </r>
       <r>    10.9564    -0.0000   232.0000 </r>
       <r>    11.0301    -0.0000   232.0000 </r>
       <r>    11.1038    -0.0000   232.0000 </r>
       <r>    11.1775     0.0000   232.0000 </r>
       <r>    11.2512     0.0000   232.0000 </r>
       <r>    11.3249     0.0000   232.0000 </r>
       <r>    11.3986     0.0000   232.0000 </r>
       <r>    11.4723     0.0000   232.0000 </r>
       <r>    11.5460     0.0000   232.0000 </r>
       <r>    11.6197     0.0000   232.0000 </r>
       <r>    11.6934     0.0000   232.0000 </r>
       <r>    11.7671     0.0000   232.0000 </r>
       <r>    11.8408     0.0000   232.0000 </r>
      </set>
     </set>
    </array>
   </total>
  </dos>
 </calculation>
 <structure name="finalpos" >
  <crystal>
   <varray name="basis" >
    <v>       7.26000023       0.00000000       0.00000000 </v>
    <v>       0.00000000       5.13359547       0.00000000 </v>
    <v>       0.00000000       0.00000000      23.98379135 </v>
   </varray>
   <i name="volume">    893.87360752 </i>
   <varray name="rec_basis" >
    <v>       0.13774104       0.00000000       0.00000000 </v>
    <v>       0.00000000       0.19479525       0.00000000 </v>
    <v>       0.00000000       0.00000000       0.04169483 </v>
   </varray>
  </crystal>
  <varray name="positions" >
   <v>       0.00000000       0.00000000       0.00000000 </v>
   <v>       0.00000000       0.50000000       0.00000000 </v>
   <v>       0.50000000       0.00000000       0.00000000 </v>
   <v>       0.50000000       0.50000000       0.00000000 </v>
   <v>       0.25000000       0.25000000       0.05351109 </v>
   <v>       0.25000000       0.75000000       0.05351109 </v>
   <v>       0.75000000       0.25000000       0.05351109 </v>
   <v>       0.75000000       0.75000000       0.05351109 </v>
   <v>       0.00000000       0.00000000       0.10541371 </v>
   <v>       0.00000000       0.50000000       0.10541371 </v>
   <v>       0.50000000       0.00000000       0.10541371 </v>
   <v>       0.50000000       0.50000000       0.10541371 </v>
   <v>       0.24997086       0.25053498       0.15730430 </v>
   <v>       0.24997254       0.75053328       0.15732051 </v>
   <v>       0.75002914       0.25053498       0.15730430 </v>
   <v>       0.75002746       0.75053328       0.15732051 </v>
   <v>       0.00000000       0.00069653       0.20890597 </v>
   <v>       0.00000000       0.50114483       0.20893301 </v>
   <v>       0.50000000       0.00110573       0.20874452 </v>
   <v>       0.50000000       0.50073491       0.20879121 </v>
   <v>       0.24999859       0.25114226       0.25966634 </v>
   <v>       0.25022054       0.75105873       0.25970477 </v>
   <v>       0.75000141       0.25114226       0.25966634 </v>
   <v>       0.74977946       0.75105873       0.25970477 </v>
   <v>       0.00000000       0.00129001       0.31458386 </v>
   <v>       0.00000000       0.50113329       0.31453239 </v>
   <v>       0.50000000       0.00113988       0.31434378 </v>
   <v>       0.50000000       0.50130303       0.31453181 </v>
   <v>       0.24981793       0.25144292       0.36206983 </v>
   <v>       0.24958411       0.75121425       0.36203325 </v>
   <v>       0.75018207       0.25144292       0.36206983 </v>
   <v>       0.75041589       0.75121425       0.36203325 </v>
   <v>       0.50000000       0.76165565       0.45239679 </v>
   <v>       0.50000000       0.80870137       0.48233621 </v>
  </varray>
  <varray name="selective"  type="logical" >
   <v type="logical" >  F  F  F </v>
   <v type="logical" >  F  F  F </v>
   <v type="logical" >  F  F  F </v>
   <v type="logical" >  F  F  F </v>
   <v type="logical" >  F  F  F </v>
   <v type="logical" >  F  F  F </v>
   <v type="logical" >  F  F  F </v>
   <v type="logical" >  F  F  F </v>
   <v type="logical" >  F  F  F </v>
   <v type="logical" >  F  F  F </v>
   <v type="logical" >  F  F  F </v>
   <v type="logical" >  F  F  F </v>
   <v type="logical" >  T  T  T </v>
   <v type="logical" >  T  T  T </v>
   <v type="logical" >  T  T  T </v>
   <v type="logical" >  T  T  T </v>
   <v type="logical" >  T  T  T </v>
   <v type="logical" >  T  T  T </v>
   <v type="logical" >  T  T  T </v>
   <v type="logical" >  T  T  T </v>
   <v type="logical" >  T  T  T </v>
   <v type="logical" >  T  T  T </v>
   <v type="logical" >  T  T  T </v>
   <v type="logical" >  T  T  T </v>
   <v type="logical" >  T  T  T </v>
   <v type="logical" >  T  T  T </v>
   <v type="logical" >  T  T  T </v>
   <v type="logical" >  T  T  T </v>
   <v type="logical" >  T  T  T </v>
   <v type="logical" >  T  T  T </v>
   <v type="logical" >  T  T  T </v>
   <v type="logical" >  T  T  T </v>
   <v type="logical" >  T  T  T </v>
   <v type="logical" >  T  T  T </v>
  </varray>
  <nose>
   <v>      -3.00000000       0.00000000       0.00010000       0.00010000 </v>
  </nose>
 </structure>
</modeling>
