unknown system                          
           1
     7.260000    0.000000    0.000000
     0.000000    5.133595    0.000000
     0.000000    0.000000   23.983791
   Cu   H 
    32     2
Direct configuration=     1
   0.00000000  0.00000000  0.00000000
   0.00000000  0.50000000  0.00000000
   0.50000000  0.00000000  0.00000000
   0.50000000  0.50000000  0.00000000
   0.25000000  0.25000000  0.05351109
   0.25000000  0.75000000  0.05351109
   0.75000000  0.25000000  0.05351109
   0.75000000  0.75000000  0.05351109
   0.00000000  0.00000000  0.10541371
   0.00000000  0.50000000  0.10541371
   0.50000000  0.00000000  0.10541371
   0.50000000  0.50000000  0.10541371
   0.25000000  0.25000000  0.15715010
   0.25000000  0.75000000  0.15715010
   0.75000000  0.25000000  0.15715010
   0.75000000  0.75000000  0.15715010
   0.00000000  0.00000000  0.20866257
   0.00000000  0.50000000  0.20866257
   0.50000000  0.00000000  0.20866257
   0.50000000  0.50000000  0.20866257
   0.25000000  0.25000000  0.25947965
   0.25000000  0.75000000  0.25947965
   0.75000000  0.25000000  0.25947965
   0.75000000  0.75000000  0.25947965
   0.00000000  0.00000000  0.31415415
   0.00000000  0.50000000  0.31415415
   0.50000000  0.00000000  0.31415415
   0.50000000  0.50000000  0.31415415
   0.25000000  0.25000000  0.36181799
   0.25000000  0.75000000  0.36181799
   0.75000000  0.25000000  0.36181799
   0.75000000  0.75000000  0.36181799
   0.50000000  0.75000000  0.42690792
   0.50000000  0.85275482  0.44890201
Direct configuration=     2
   0.00000000  0.00000000  0.00000000
   0.00000000  0.50000000  0.00000000
   0.50000000  0.00000000  0.00000000
   0.50000000  0.50000000  0.00000000
   0.25000000  0.25000000  0.05351109
   0.25000000  0.75000000  0.05351109
   0.75000000  0.25000000  0.05351109
   0.75000000  0.75000000  0.05351109
   0.00000000  0.00000000  0.10541371
   0.00000000  0.50000000  0.10541371
   0.50000000  0.00000000  0.10541371
   0.50000000  0.50000000  0.10541371
   0.25005907  0.24998020  0.15718114
   0.24999884  0.75001769  0.15717199
   0.74994093  0.24998020  0.15718114
   0.75000116  0.75001769  0.15717199
   0.00000000  0.00000316  0.20869386
   0.00000000  0.50000376  0.20872804
   0.50000000  0.00011005  0.20863986
   0.50000000  0.49987225  0.20861474
   0.24992505  0.24991274  0.25948471
   0.25013367  0.75009009  0.25952090
   0.75007495  0.24991274  0.25948471
   0.74986633  0.75009009  0.25952090
   0.00000000  0.00004313  0.31425275
   0.00000000  0.50000490  0.31424186
   0.50000000  0.00042562  0.31388210
   0.50000000  0.49958628  0.31406278
   0.24971757  0.25026952  0.36172921
   0.24913988  0.74985338  0.36167237
   0.75028243  0.25026952  0.36172921
   0.75086012  0.74985338  0.36167237
   0.50000000  0.74599825  0.42634514
   0.50000000  0.85645124  0.45008189
Direct configuration=     3
   0.00000000  0.00000000  0.00000000
   0.00000000  0.50000000  0.00000000
   0.50000000  0.00000000  0.00000000
   0.50000000  0.50000000  0.00000000
   0.25000000  0.25000000  0.05351109
   0.25000000  0.75000000  0.05351109
   0.75000000  0.25000000  0.05351109
   0.75000000  0.75000000  0.05351109
   0.00000000  0.00000000  0.10541371
   0.00000000  0.50000000  0.10541371
   0.50000000  0.00000000  0.10541371
   0.50000000  0.50000000  0.10541371
   0.25002496  0.24999163  0.15716321
   0.24999951  0.75000747  0.15715935
   0.74997504  0.24999163  0.15716321
   0.75000049  0.75000747  0.15715935
   0.00000000  0.00000133  0.20867579
   0.00000000  0.50000159  0.20869023
   0.50000000  0.00004650  0.20865298
   0.50000000  0.49994602  0.20864236
   0.24996833  0.24996313  0.25948179
   0.25005648  0.75003806  0.25949708
   0.75003167  0.24996313  0.25948179
   0.74994352  0.75003806  0.25949708
   0.00000000  0.00001822  0.31419581
   0.00000000  0.50000207  0.31419121
   0.50000000  0.00017983  0.31403921
   0.50000000  0.49982520  0.31411555
   0.24988067  0.25011387  0.36178048
   0.24963659  0.74993805  0.36175646
   0.75011933  0.25011387  0.36178048
   0.75036341  0.74993805  0.36175646
   0.50000000  0.74830925  0.42667015
   0.50000000  0.85431657  0.44940051
Direct configuration=     4
   0.00000000  0.00000000  0.00000000
   0.00000000  0.50000000  0.00000000
   0.50000000  0.00000000  0.00000000
   0.50000000  0.50000000  0.00000000
   0.25000000  0.25000000  0.05351109
   0.25000000  0.75000000  0.05351109
   0.75000000  0.25000000  0.05351109
   0.75000000  0.75000000  0.05351109
   0.00000000  0.00000000  0.10541371
   0.00000000  0.50000000  0.10541371
   0.50000000  0.00000000  0.10541371
   0.50000000  0.50000000  0.10541371
   0.25008104  0.24997026  0.15719877
   0.24999338  0.75002500  0.15718769
   0.74991896  0.24997026  0.15719877
   0.75000662  0.75002500  0.15718769
   0.00000000 -0.00000436  0.20871410
   0.00000000  0.50001394  0.20876469
   0.50000000  0.00015406  0.20862482
   0.50000000  0.49981818  0.20859318
   0.24987459  0.24987610  0.25948327
   0.25019054  0.75012775  0.25953230
   0.75012541  0.24987610  0.25948327
   0.74980946  0.75012775  0.25953230
   0.00000000  0.00008805  0.31429036
   0.00000000  0.49998617  0.31427222
   0.50000000  0.00058348  0.31375549
   0.50000000  0.49943092  0.31401689
   0.24958195  0.25038660  0.36169196
   0.24881214  0.74980515  0.36161997
   0.75041805  0.25038660  0.36169196
   0.75118786  0.74980515  0.36161997
   0.50000000  0.74831537  0.42694846
   0.50000000  0.85397999  0.44972264
Direct configuration=     5
   0.00000000  0.00000000  0.00000000
   0.00000000  0.50000000  0.00000000
   0.50000000  0.00000000  0.00000000
   0.50000000  0.50000000  0.00000000
   0.25000000  0.25000000  0.05351109
   0.25000000  0.75000000  0.05351109
   0.75000000  0.25000000  0.05351109
   0.75000000  0.75000000  0.05351109
   0.00000000  0.00000000  0.10541371
   0.00000000  0.50000000  0.10541371
   0.50000000  0.00000000  0.10541371
   0.50000000  0.50000000  0.10541371
   0.25014468  0.24994600  0.15723911
   0.24998643  0.75004489  0.15721985
   0.74985532  0.24994600  0.15723911
   0.75001357  0.75004489  0.15721985
   0.00000000 -0.00001081  0.20875757
   0.00000000  0.50002795  0.20884918
   0.50000000  0.00027612  0.20859287
   0.50000000  0.49967311  0.20853737
   0.24976822  0.24977735  0.25948496
   0.25034266  0.75022952  0.25957227
   0.75023178  0.24977735  0.25948496
   0.74965734  0.75022952  0.25957227
   0.00000000  0.00016728  0.31439766
   0.00000000  0.49996812  0.31436415
   0.50000000  0.00104152  0.31343355
   0.50000000  0.49898352  0.31390494
   0.24924297  0.25069608  0.36159152
   0.24787660  0.74965435  0.36146509
   0.75075703  0.25069608  0.36159152
   0.75212340  0.74965435  0.36146509
   0.50000000  0.74832231  0.42726427
   0.50000000  0.85359807  0.45008816
Direct configuration=     6
   0.00000000  0.00000000  0.00000000
   0.00000000  0.50000000  0.00000000
   0.50000000  0.00000000  0.00000000
   0.50000000  0.50000000  0.00000000
   0.25000000  0.25000000  0.05351109
   0.25000000  0.75000000  0.05351109
   0.75000000  0.25000000  0.05351109
   0.75000000  0.75000000  0.05351109
   0.00000000  0.00000000  0.10541371
   0.00000000  0.50000000  0.10541371
   0.50000000  0.00000000  0.10541371
   0.50000000  0.50000000  0.10541371
   0.25027197  0.24989749  0.15731980
   0.24997253  0.75008467  0.15728416
   0.74972803  0.24989749  0.15731980
   0.75002747  0.75008467  0.15728416
   0.00000000 -0.00002373  0.20884450
   0.00000000  0.50005598  0.20901816
   0.50000000  0.00052024  0.20852897
   0.50000000  0.49938296  0.20842575
   0.24955547  0.24957984  0.25948833
   0.25064690  0.75043306  0.25965220
   0.75044453  0.24957984  0.25948833
   0.74935310  0.75043306  0.25965220
   0.00000000  0.00032574  0.31461225
   0.00000000  0.49993204  0.31454801
   0.50000000  0.00195761  0.31278967
   0.50000000  0.49808872  0.31368105
   0.24856502  0.25131502  0.36139064
   0.24600553  0.74935274  0.36115532
   0.75143498  0.25131502  0.36139064
   0.75399447  0.74935274  0.36115532
   0.50000000  0.74833619  0.42789589
   0.50000000  0.85283423  0.45081921
Direct configuration=     7
   0.00000000  0.00000000  0.00000000
   0.00000000  0.50000000  0.00000000
   0.50000000  0.00000000  0.00000000
   0.50000000  0.50000000  0.00000000
   0.25000000  0.25000000  0.05351109
   0.25000000  0.75000000  0.05351109
   0.75000000  0.25000000  0.05351109
   0.75000000  0.75000000  0.05351109
   0.00000000  0.00000000  0.10541371
   0.00000000  0.50000000  0.10541371
   0.50000000  0.00000000  0.10541371
   0.50000000  0.50000000  0.10541371
   0.25019476  0.24992691  0.15727086
   0.24998096  0.75006054  0.15724515
   0.74980524  0.24992691  0.15727086
   0.75001904  0.75006054  0.15724515
   0.00000000 -0.00001590  0.20879177
   0.00000000  0.50003898  0.20891567
   0.50000000  0.00037217  0.20856773
   0.50000000  0.49955895  0.20849346
   0.24968451  0.24969964  0.25948628
   0.25046236  0.75030960  0.25960371
   0.75031549  0.24969964  0.25948628
   0.74953764  0.75030960  0.25960371
   0.00000000  0.00022963  0.31448209
   0.00000000  0.49995392  0.31443649
   0.50000000  0.00140195  0.31318022
   0.50000000  0.49863147  0.31381685
   0.24897624  0.25093960  0.36151248
   0.24714044  0.74953568  0.36134321
   0.75102376  0.25093960  0.36151248
   0.75285956  0.74953568  0.36134321
   0.50000000  0.74832777  0.42751278
   0.50000000  0.85329754  0.45037579
Direct configuration=     8
   0.00000000  0.00000000  0.00000000
   0.00000000  0.50000000  0.00000000
   0.50000000  0.00000000  0.00000000
   0.50000000  0.50000000  0.00000000
   0.25000000  0.25000000  0.05351109
   0.25000000  0.75000000  0.05351109
   0.75000000  0.25000000  0.05351109
   0.75000000  0.75000000  0.05351109
   0.00000000  0.00000000  0.10541371
   0.00000000  0.50000000  0.10541371
   0.50000000  0.00000000  0.10541371
   0.50000000  0.50000000  0.10541371
   0.25023336  0.24991220  0.15729533
   0.24997675  0.75007261  0.15726466
   0.74976664  0.24991220  0.15729533
   0.75002325  0.75007261  0.15726466
   0.00000000 -0.00001981  0.20881814
   0.00000000  0.50004748  0.20896692
   0.50000000  0.00044620  0.20854835
   0.50000000  0.49947096  0.20845960
   0.24961999  0.24963974  0.25948730
   0.25055463  0.75037133  0.25962796
   0.75038001  0.24963974  0.25948730
   0.74944537  0.75037133  0.25962796
   0.00000000  0.00027768  0.31454717
   0.00000000  0.49994298  0.31449225
   0.50000000  0.00167978  0.31298495
   0.50000000  0.49836009  0.31374895
   0.24877063  0.25112731  0.36145156
   0.24657298  0.74944421  0.36124927
   0.75122937  0.25112731  0.36145156
   0.75342702  0.74944421  0.36124927
   0.50000000  0.74833198  0.42770433
   0.50000000  0.85306589  0.45059750
Direct configuration=     9
   0.00000000  0.00000000  0.00000000
   0.00000000  0.50000000  0.00000000
   0.50000000  0.00000000  0.00000000
   0.50000000  0.50000000  0.00000000
   0.25000000  0.25000000  0.05351109
   0.25000000  0.75000000  0.05351109
   0.75000000  0.25000000  0.05351109
   0.75000000  0.75000000  0.05351109
   0.00000000  0.00000000  0.10541371
   0.00000000  0.50000000  0.10541371
   0.50000000  0.00000000  0.10541371
   0.50000000  0.50000000  0.10541371
   0.25007566  0.24994860  0.15727666
   0.24988130  0.75002744  0.15728453
   0.74992434  0.24994860  0.15727666
   0.75011870  0.75002744  0.15728453
   0.00000000 -0.00014930  0.20885529
   0.00000000  0.50018138  0.20900975
   0.50000000  0.00033708  0.20840356
   0.50000000  0.49955094  0.20842363
   0.24936001  0.24975578  0.25941741
   0.25057317  0.75026490  0.25952562
   0.75063999  0.24975578  0.25941741
   0.74942683  0.75026490  0.25952562
   0.00000000  0.00067647  0.31450302
   0.00000000  0.49966879  0.31439125
   0.50000000  0.00133073  0.31290368
   0.50000000  0.49885314  0.31372779
   0.24880570  0.25112910  0.36140557
   0.24642312  0.74964148  0.36117618
   0.75119430  0.25112910  0.36140557
   0.75357688  0.74964148  0.36117618
   0.50000000  0.74921533  0.42843684
   0.50000000  0.85153527  0.45106546
Direct configuration=    10
   0.00000000  0.00000000  0.00000000
   0.00000000  0.50000000  0.00000000
   0.50000000  0.00000000  0.00000000
   0.50000000  0.50000000  0.00000000
   0.25000000  0.25000000  0.05351109
   0.25000000  0.75000000  0.05351109
   0.75000000  0.25000000  0.05351109
   0.75000000  0.75000000  0.05351109
   0.00000000  0.00000000  0.10541371
   0.00000000  0.50000000  0.10541371
   0.50000000  0.00000000  0.10541371
   0.50000000  0.50000000  0.10541371
   0.25005848  0.24995257  0.15727463
   0.24987090  0.75002252  0.15728670
   0.74994152  0.24995257  0.15727463
   0.75012910  0.75002252  0.15728670
   0.00000000 -0.00016340  0.20885934
   0.00000000  0.50019597  0.20901441
   0.50000000  0.00032520  0.20838779
   0.50000000  0.49955965  0.20841971
   0.24933170  0.24976842  0.25940980
   0.25057519  0.75025330  0.25951447
   0.75066830  0.24976842  0.25940980
   0.74942481  0.75025330  0.25951447
   0.00000000  0.00071990  0.31449821
   0.00000000  0.49963893  0.31438025
   0.50000000  0.00129271  0.31289483
   0.50000000  0.49890685  0.31372548
   0.24880952  0.25112929  0.36140056
   0.24640680  0.74966297  0.36116822
   0.75119048  0.25112929  0.36140056
   0.75359320  0.74966297  0.36116822
   0.50000000  0.74931155  0.42851663
   0.50000000  0.85136855  0.45111643
Direct configuration=    11
   0.00000000  0.00000000  0.00000000
   0.00000000  0.50000000  0.00000000
   0.50000000  0.00000000  0.00000000
   0.50000000  0.50000000  0.00000000
   0.25000000  0.25000000  0.05351109
   0.25000000  0.75000000  0.05351109
   0.75000000  0.25000000  0.05351109
   0.75000000  0.75000000  0.05351109
   0.00000000  0.00000000  0.10541371
   0.00000000  0.50000000  0.10541371
   0.50000000  0.00000000  0.10541371
   0.50000000  0.50000000  0.10541371
   0.24999747  0.24996781  0.15726166
   0.24983718  0.75000671  0.15728471
   0.75000253  0.24996781  0.15726166
   0.75016282  0.75000671  0.15728471
   0.00000000 -0.00020390  0.20886350
   0.00000000  0.50023950  0.20901461
   0.50000000  0.00029311  0.20833943
   0.50000000  0.49958487  0.20841028
   0.24926896  0.24981308  0.25938222
   0.25056962  0.75021597  0.25947374
   0.75073104  0.24981308  0.25938222
   0.74943038  0.75021597  0.25947374
   0.00000000  0.00084212  0.31446833
   0.00000000  0.49956235  0.31433317
   0.50000000  0.00114595  0.31289238
   0.50000000  0.49910909  0.31372497
   0.24886498  0.25110596  0.36138974
   0.24643587  0.74975005  0.36115095
   0.75113502  0.25110596  0.36138974
   0.75356413  0.74975005  0.36115095
   0.50000000  0.74925638  0.42871814
   0.50000000  0.85117024  0.45139294
Direct configuration=    12
   0.00000000  0.00000000  0.00000000
   0.00000000  0.50000000  0.00000000
   0.50000000  0.00000000  0.00000000
   0.50000000  0.50000000  0.00000000
   0.25000000  0.25000000  0.05351109
   0.25000000  0.75000000  0.05351109
   0.75000000  0.25000000  0.05351109
   0.75000000  0.75000000  0.05351109
   0.00000000  0.00000000  0.10541371
   0.00000000  0.50000000  0.10541371
   0.50000000  0.00000000  0.10541371
   0.50000000  0.50000000  0.10541371
   0.24981443  0.25001352  0.15722275
   0.24973603  0.74995927  0.15727873
   0.75018557  0.25001352  0.15722275
   0.75026397  0.74995927  0.15727873
   0.00000000 -0.00032542  0.20887599
   0.00000000  0.50037011  0.20901520
   0.50000000  0.00019683  0.20819436
   0.50000000  0.49966052  0.20838199
   0.24908075  0.24994706  0.25929949
   0.25055289  0.75010396  0.25935155
   0.75091925  0.24994706  0.25929949
   0.74944711  0.75010396  0.25935155
   0.00000000  0.00120877  0.31437869
   0.00000000  0.49933260  0.31419192
   0.50000000  0.00070568  0.31288503
   0.50000000  0.49971580  0.31372341
   0.24903138  0.25103595  0.36135729
   0.24652308  0.75001130  0.36109915
   0.75096862  0.25103595  0.36135729
   0.75347692  0.75001130  0.36109915
   0.50000000  0.74909086  0.42932265
   0.50000000  0.85057528  0.45222247
Direct configuration=    13
   0.00000000  0.00000000  0.00000000
   0.00000000  0.50000000  0.00000000
   0.50000000  0.00000000  0.00000000
   0.50000000  0.50000000  0.00000000
   0.25000000  0.25000000  0.05351109
   0.25000000  0.75000000  0.05351109
   0.75000000  0.25000000  0.05351109
   0.75000000  0.75000000  0.05351109
   0.00000000  0.00000000  0.10541371
   0.00000000  0.50000000  0.10541371
   0.50000000  0.00000000  0.10541371
   0.50000000  0.50000000  0.10541371
   0.24944836  0.25010494  0.15714494
   0.24953372  0.74986439  0.15726677
   0.75055164  0.25010494  0.15714494
   0.75046628  0.74986439  0.15726677
   0.00000000 -0.00056844  0.20890097
   0.00000000  0.50063132  0.20901637
   0.50000000  0.00000429  0.20790421
   0.50000000  0.49981183  0.20832540
   0.24870432  0.25021502  0.25913404
   0.25051944  0.74987994  0.25910717
   0.75129568  0.25021502  0.25913404
   0.74948056  0.74987994  0.25910717
   0.00000000  0.00194208  0.31419940
   0.00000000  0.49887312  0.31390941
   0.50000000 -0.00017487  0.31287034
   0.50000000  0.50092924  0.31372030
   0.24936419  0.25089594  0.36129239
   0.24669751  0.75053379  0.36099554
   0.75063581  0.25089594  0.36129239
   0.75330249  0.75053379  0.36099554
   0.50000000  0.74875983  0.43053167
   0.50000000  0.84938537  0.45388153
Direct configuration=    14
   0.00000000  0.00000000  0.00000000
   0.00000000  0.50000000  0.00000000
   0.50000000  0.00000000  0.00000000
   0.50000000  0.50000000  0.00000000
   0.25000000  0.25000000  0.05351109
   0.25000000  0.75000000  0.05351109
   0.75000000  0.25000000  0.05351109
   0.75000000  0.75000000  0.05351109
   0.00000000  0.00000000  0.10541371
   0.00000000  0.50000000  0.10541371
   0.50000000  0.00000000  0.10541371
   0.50000000  0.50000000  0.10541371
   0.24871621  0.25028779  0.15698932
   0.24912909  0.74967463  0.15724286
   0.75128379  0.25028779  0.15698932
   0.75087091  0.74967463  0.15724286
   0.00000000 -0.00105449  0.20895093
   0.00000000  0.50115374  0.20901872
   0.50000000 -0.00038081  0.20732391
   0.50000000  0.50011446  0.20821222
   0.24795147  0.25075095  0.25880312
   0.25045252  0.74943191  0.25861841
   0.75204853  0.25075095  0.25880312
   0.74954748  0.74943191  0.25861841
   0.00000000  0.00340869  0.31384083
   0.00000000  0.49795414  0.31334441
   0.50000000 -0.00193596  0.31284096
   0.50000000  0.50335610  0.31371409
   0.25002979  0.25061591  0.36116257
   0.24704636  0.75157877  0.36078832
   0.74997021  0.25061591  0.36116257
   0.75295364  0.75157877  0.36078832
   0.50000000  0.74809778  0.43294971
   0.50000000  0.84700556  0.45719964
Direct configuration=    15
   0.00000000  0.00000000  0.00000000
   0.00000000  0.50000000  0.00000000
   0.50000000  0.00000000  0.00000000
   0.50000000  0.50000000  0.00000000
   0.25000000  0.25000000  0.05351109
   0.25000000  0.75000000  0.05351109
   0.75000000  0.25000000  0.05351109
   0.75000000  0.75000000  0.05351109
   0.00000000  0.00000000  0.10541371
   0.00000000  0.50000000  0.10541371
   0.50000000  0.00000000  0.10541371
   0.50000000  0.50000000  0.10541371
   0.24905361  0.25020353  0.15706103
   0.24931556  0.74976207  0.15725388
   0.75094639  0.25020353  0.15706103
   0.75068444  0.74976207  0.15725388
   0.00000000 -0.00083051  0.20892791
   0.00000000  0.50091300  0.20901764
   0.50000000 -0.00020334  0.20759133
   0.50000000  0.49997500  0.20826437
   0.24829840  0.25050398  0.25895562
   0.25048336  0.74963838  0.25884364
   0.75170160  0.25050398  0.25895562
   0.74951664  0.74963838  0.25884364
   0.00000000  0.00273283  0.31400607
   0.00000000  0.49837763  0.31360478
   0.50000000 -0.00112440  0.31285450
   0.50000000  0.50223773  0.31371695
   0.24972306  0.25074495  0.36122240
   0.24688560  0.75109721  0.36088381
   0.75027694  0.25074495  0.36122240
   0.75311440  0.75109721  0.36088381
   0.50000000  0.74840287  0.43183540
   0.50000000  0.84810225  0.45567056
Direct configuration=    16
   0.00000000  0.00000000  0.00000000
   0.00000000  0.50000000  0.00000000
   0.50000000  0.00000000  0.00000000
   0.50000000  0.50000000  0.00000000
   0.25000000  0.25000000  0.05351109
   0.25000000  0.75000000  0.05351109
   0.75000000  0.25000000  0.05351109
   0.75000000  0.75000000  0.05351109
   0.00000000  0.00000000  0.10541371
   0.00000000  0.50000000  0.10541371
   0.50000000  0.00000000  0.10541371
   0.50000000  0.50000000  0.10541371
   0.24888085  0.25024668  0.15702431
   0.24922008  0.74971730  0.15724824
   0.75111915  0.25024668  0.15702431
   0.75077992  0.74971730  0.15724824
   0.00000000 -0.00094520  0.20893970
   0.00000000  0.50103627  0.20901819
   0.50000000 -0.00029421  0.20745440
   0.50000000  0.50004641  0.20823767
   0.24812076  0.25063044  0.25887753
   0.25046757  0.74953266  0.25872831
   0.75187924  0.25063044  0.25887753
   0.74953243  0.74953266  0.25872831
   0.00000000  0.00307890  0.31392146
   0.00000000  0.49816079  0.31347146
   0.50000000 -0.00153995  0.31284756
   0.50000000  0.50281039  0.31371548
   0.24988012  0.25067888  0.36119176
   0.24696791  0.75134379  0.36083491
   0.75011988  0.25067888  0.36119176
   0.75303209  0.75134379  0.36083491
   0.50000000  0.74824665  0.43240598
   0.50000000  0.84754069  0.45645352
Direct configuration=    17
   0.00000000  0.00000000  0.00000000
   0.00000000  0.50000000  0.00000000
   0.50000000  0.00000000  0.00000000
   0.50000000  0.50000000  0.00000000
   0.25000000  0.25000000  0.05351109
   0.25000000  0.75000000  0.05351109
   0.75000000  0.25000000  0.05351109
   0.75000000  0.75000000  0.05351109
   0.00000000  0.00000000  0.10541371
   0.00000000  0.50000000  0.10541371
   0.50000000  0.00000000  0.10541371
   0.50000000  0.50000000  0.10541371
   0.24879313  0.25026544  0.15699094
   0.24916956  0.74969663  0.15720652
   0.75120687  0.25026544  0.15699094
   0.75083044  0.74969663  0.15720652
   0.00000000 -0.00097074  0.20891098
   0.00000000  0.50106973  0.20896657
   0.50000000 -0.00023328  0.20741068
   0.50000000  0.49997916  0.20822052
   0.24819956  0.25064422  0.25883528
   0.25047196  0.74954447  0.25868042
   0.75180044  0.25064422  0.25883528
   0.74952804  0.74954447  0.25868042
   0.00000000  0.00314759  0.31385667
   0.00000000  0.49820339  0.31340085
   0.50000000 -0.00159154  0.31282844
   0.50000000  0.50298559  0.31370299
   0.25004591  0.25067701  0.36115420
   0.24701384  0.75148226  0.36078990
   0.74995409  0.25067701  0.36115420
   0.75298616  0.75148226  0.36078990
   0.50000000  0.74842063  0.43297281
   0.50000000  0.84676703  0.45707303
Direct configuration=    18
   0.00000000  0.00000000  0.00000000
   0.00000000  0.50000000  0.00000000
   0.50000000  0.00000000  0.00000000
   0.50000000  0.50000000  0.00000000
   0.25000000  0.25000000  0.05351109
   0.25000000  0.75000000  0.05351109
   0.75000000  0.25000000  0.05351109
   0.75000000  0.75000000  0.05351109
   0.00000000  0.00000000  0.10541371
   0.00000000  0.50000000  0.10541371
   0.50000000  0.00000000  0.10541371
   0.50000000  0.50000000  0.10541371
   0.24852999  0.25032174  0.15689081
   0.24901799  0.74963462  0.15708137
   0.75147001  0.25032174  0.15689081
   0.75098201  0.74963462  0.15708137
   0.00000000 -0.00104737  0.20882483
   0.00000000  0.50117010  0.20881172
   0.50000000 -0.00005049  0.20727954
   0.50000000  0.49977741  0.20816908
   0.24843597  0.25068554  0.25870851
   0.25048515  0.74957991  0.25853673
   0.75156403  0.25068554  0.25870851
   0.74951485  0.74957991  0.25853673
   0.00000000  0.00335367  0.31366229
   0.00000000  0.49833121  0.31318903
   0.50000000 -0.00174631  0.31277106
   0.50000000  0.50351118  0.31366551
   0.25054328  0.25067142  0.36104149
   0.24715162  0.75189766  0.36065485
   0.74945672  0.25067142  0.36104149
   0.75284838  0.75189766  0.36065485
   0.50000000  0.74894257  0.43467330
   0.50000000  0.84444604  0.45893158
Direct configuration=    19
   0.00000000  0.00000000  0.00000000
   0.00000000  0.50000000  0.00000000
   0.50000000  0.00000000  0.00000000
   0.50000000  0.50000000  0.00000000
   0.25000000  0.25000000  0.05351109
   0.25000000  0.75000000  0.05351109
   0.75000000  0.25000000  0.05351109
   0.75000000  0.75000000  0.05351109
   0.00000000  0.00000000  0.10541371
   0.00000000  0.50000000  0.10541371
   0.50000000  0.00000000  0.10541371
   0.50000000  0.50000000  0.10541371
   0.24800369  0.25043433  0.15669055
   0.24871486  0.74951060  0.15683107
   0.75199630  0.25043433  0.15669055
   0.75128514  0.74951060  0.15683107
   0.00000000 -0.00120062  0.20865252
   0.00000000  0.50137084  0.20850200
   0.50000000  0.00031511  0.20701726
   0.50000000  0.49937390  0.20806619
   0.24890880  0.25076818  0.25845498
   0.25051152  0.74965080  0.25824937
   0.75109120  0.25076818  0.25845498
   0.74948848  0.74965080  0.25824937
   0.00000000  0.00376581  0.31327353
   0.00000000  0.49858685  0.31276540
   0.50000000 -0.00205585  0.31265630
   0.50000000  0.50456236  0.31359056
   0.25153802  0.25066022  0.36081608
   0.24742719  0.75272845  0.36038476
   0.74846198  0.25066022  0.36081608
   0.75257281  0.75272845  0.36038476
   0.50000000  0.74998646  0.43807427
   0.50000000  0.83980407  0.46264868
Direct configuration=    20
   0.00000000  0.00000000  0.00000000
   0.00000000  0.50000000  0.00000000
   0.50000000  0.00000000  0.00000000
   0.50000000  0.50000000  0.00000000
   0.25000000  0.25000000  0.05351109
   0.25000000  0.75000000  0.05351109
   0.75000000  0.25000000  0.05351109
   0.75000000  0.75000000  0.05351109
   0.00000000  0.00000000  0.10541371
   0.00000000  0.50000000  0.10541371
   0.50000000  0.00000000  0.10541371
   0.50000000  0.50000000  0.10541371
   0.24802259  0.25040971  0.15663151
   0.24876029  0.74953794  0.15671167
   0.75197741  0.25040971  0.15663151
   0.75123971  0.74953794  0.15671167
   0.00000000 -0.00106340  0.20853595
   0.00000000  0.50125971  0.20834817
   0.50000000  0.00053192  0.20705695
   0.50000000  0.49918321  0.20802476
   0.24936446  0.25067070  0.25841749
   0.25055652  0.74983604  0.25823367
   0.75063554  0.25067070  0.25841749
   0.74944348  0.74983604  0.25823367
   0.00000000  0.00362125  0.31316906
   0.00000000  0.49898088  0.31271680
   0.50000000 -0.00159321  0.31258434
   0.50000000  0.50433949  0.31352865
   0.25181613  0.25081877  0.36071261
   0.24743794  0.75282313  0.36028589
   0.74818387  0.25081877  0.36071261
   0.75256206  0.75282313  0.36028589
   0.50000000  0.74959105  0.43911082
   0.50000000  0.83883292  0.46425446
Direct configuration=    21
   0.00000000  0.00000000  0.00000000
   0.00000000  0.50000000  0.00000000
   0.50000000  0.00000000  0.00000000
   0.50000000  0.50000000  0.00000000
   0.25000000  0.25000000  0.05351109
   0.25000000  0.75000000  0.05351109
   0.75000000  0.25000000  0.05351109
   0.75000000  0.75000000  0.05351109
   0.00000000  0.00000000  0.10541371
   0.00000000  0.50000000  0.10541371
   0.50000000  0.00000000  0.10541371
   0.50000000  0.50000000  0.10541371
   0.24804660  0.25037845  0.15655653
   0.24881798  0.74957266  0.15656003
   0.75195340  0.25037845  0.15655653
   0.75118202  0.74957266  0.15656003
   0.00000000 -0.00088914  0.20838790
   0.00000000  0.50111856  0.20815281
   0.50000000  0.00080726  0.20710737
   0.50000000  0.49894103  0.20797214
   0.24994312  0.25054691  0.25836988
   0.25061368  0.75007129  0.25821374
   0.75005688  0.25054691  0.25836988
   0.74938632  0.75007129  0.25821374
   0.00000000  0.00343766  0.31303639
   0.00000000  0.49948129  0.31265508
   0.50000000 -0.00100567  0.31249296
   0.50000000  0.50405643  0.31345004
   0.25216934  0.25102013  0.36058119
   0.24745161  0.75294337  0.36016032
   0.74783066  0.25102013  0.36058119
   0.75254839  0.75294337  0.36016032
   0.50000000  0.74908890  0.44042720
   0.50000000  0.83759958  0.46629377
Direct configuration=    22
   0.00000000  0.00000000  0.00000000
   0.00000000  0.50000000  0.00000000
   0.50000000  0.00000000  0.00000000
   0.50000000  0.50000000  0.00000000
   0.25000000  0.25000000  0.05351109
   0.25000000  0.75000000  0.05351109
   0.75000000  0.25000000  0.05351109
   0.75000000  0.75000000  0.05351109
   0.00000000  0.00000000  0.10541371
   0.00000000  0.50000000  0.10541371
   0.50000000  0.00000000  0.10541371
   0.50000000  0.50000000  0.10541371
   0.24832249  0.25029174  0.15654103
   0.24905333  0.74967901  0.15649109
   0.75167751  0.25029174  0.15654103
   0.75094667  0.74967901  0.15649109
   0.00000000 -0.00059559  0.20827743
   0.00000000  0.50086391  0.20806107
   0.50000000  0.00086430  0.20724181
   0.50000000  0.49896351  0.20792618
   0.25033793  0.25043956  0.25838791
   0.25064443  0.75029030  0.25825634
   0.74966207  0.25043956  0.25838791
   0.74935557  0.75029030  0.25825634
   0.00000000  0.00321561  0.31299969
   0.00000000  0.49988893  0.31271225
   0.50000000 -0.00027540  0.31243587
   0.50000000  0.50347173  0.31336794
   0.25215838  0.25129911  0.36049887
   0.24743483  0.75278849  0.36010776
   0.74784162  0.25129911  0.36049887
   0.75256517  0.75278849  0.36010776
   0.50000000  0.74957319  0.44149888
   0.50000000  0.83595340  0.46742420
Direct configuration=    23
   0.00000000  0.00000000  0.00000000
   0.00000000  0.50000000  0.00000000
   0.50000000  0.00000000  0.00000000
   0.50000000  0.50000000  0.00000000
   0.25000000  0.25000000  0.05351109
   0.25000000  0.75000000  0.05351109
   0.75000000  0.25000000  0.05351109
   0.75000000  0.75000000  0.05351109
   0.00000000  0.00000000  0.10541371
   0.00000000  0.50000000  0.10541371
   0.50000000  0.00000000  0.10541371
   0.50000000  0.50000000  0.10541371
   0.24910359  0.25004626  0.15649717
   0.24971964  0.74998009  0.15629591
   0.75089641  0.25004626  0.15649717
   0.75028036  0.74998009  0.15629591
   0.00000000  0.00023546  0.20796468
   0.00000000  0.50014295  0.20780132
   0.50000000  0.00102578  0.20762243