  108  108  800    2
  0.2643616E+02  0.1089000E-08  0.1089000E-08  0.2407500E-08  0.5000000E-15
  1.000000000000000E-004
  CAR 
 unknown system                          
   1188      3    768
 
  0.0000000E+00  0.0000000E+00  0.0000000E+00  0.1111111E+00
      1         -8.228120       -8.228120   1.000000   1.000000
      2         -7.311058       -7.311058   1.000000   1.000000
      3         -6.944488       -6.944488   1.000000   1.000000
      4         -6.944488       -6.944488   1.000000   1.000000
      5         -6.944488       -6.944488   1.000000   1.000000
      6         -6.944488       -6.944488   1.000000   1.000000
      7         -6.087619       -6.087619   1.000000   1.000000
      8         -6.087619       -6.087619   1.000000   1.000000
      9         -6.087619       -6.087619   1.000000   1.000000
     10         -6.087619       -6.087619   1.000000   1.000000
     11         -5.981230       -5.981230   1.000000   1.000000
     12         -5.804815       -5.804815   1.000000   1.000000
     13         -5.804815       -5.804815   1.000000   1.000000
     14         -5.804815       -5.804815   1.000000   1.000000
     15         -5.804815       -5.804815   1.000000   1.000000
     16         -5.135013       -5.135013   1.000000   1.000000
     17         -5.135013       -5.135013   1.000000   1.000000
     18         -5.135013       -5.135013   1.000000   1.000000
     19         -5.135013       -5.135013   1.000000   1.000000
     20         -4.889946       -4.889946   1.000000   1.000000
     21         -4.889946       -4.889946   1.000000   1.000000
     22         -4.889946       -4.889946   1.000000   1.000000
     23         -4.889946       -4.889946   1.000000   1.000000
     24         -4.581828       -4.581827   1.000000   1.000000
     25         -4.357335       -4.357335   1.000000   1.000000
     26         -4.357335       -4.357335   1.000000   1.000000
     27         -4.357335       -4.357335   1.000000   1.000000
     28         -4.357335       -4.357335   1.000000   1.000000
     29         -4.266823       -4.266823   1.000000   1.000000
     30         -4.266823       -4.266823   1.000000   1.000000
     31         -4.266823       -4.266823   1.000000   1.000000
     32         -4.266823       -4.266823   1.000000   1.000000
     33         -3.913054       -3.913054   1.000000   1.000000
     34         -3.900319       -3.900319   1.000000   1.000000
     35         -3.885073       -3.885073   1.000000   1.000000
     36         -3.841271       -3.841271   1.000000   1.000000
     37         -3.806306       -3.806305   1.000000   1.000000
     38         -3.806306       -3.806305   1.000000   1.000000
     39         -3.806306       -3.806305   1.000000   1.000000
     40         -3.806306       -3.806305   1.000000   1.000000
     41         -3.804011       -3.804012   1.000000   1.000000
     42         -3.804011       -3.804012   1.000000   1.000000
     43         -3.804011       -3.804012   1.000000   1.000000
     44         -3.804011       -3.804012   1.000000   1.000000
     45         -3.740003       -3.740003   1.000000   1.000000
     46         -3.740003       -3.740003   1.000000   1.000000
     47         -3.740003       -3.740003   1.000000   1.000000
     48         -3.740003       -3.740003   1.000000   1.000000
     49         -3.722884       -3.722884   1.000000   1.000000
     50         -3.722884       -3.722884   1.000000   1.000000
     51         -3.722884       -3.722884   1.000000   1.000000
     52         -3.722884       -3.722884   1.000000   1.000000
     53         -3.691910       -3.691910   1.000000   1.000000
     54         -3.691910       -3.691910   1.000000   1.000000
     55         -3.691910       -3.691910   1.000000   1.000000
     56         -3.691910       -3.691910   1.000000   1.000000
     57         -3.683342       -3.683342   1.000000   1.000000
     58         -3.683342       -3.683342   1.000000   1.000000
     59         -3.683342       -3.683342   1.000000   1.000000
     60         -3.683342       -3.683342   1.000000   1.000000
     61         -3.622740       -3.622740   1.000000   1.000000
     62         -3.622740       -3.622740   1.000000   1.000000
     63         -3.622740       -3.622740   1.000000   1.000000
     64         -3.622740       -3.622740   1.000000   1.000000
     65         -3.535293       -3.535293   1.000000   1.000000
     66         -3.495298       -3.495298   1.000000   1.000000
     67         -3.483244       -3.483244   1.000000   1.000000
     68         -3.464970       -3.464970   1.000000   1.000000
     69         -3.464970       -3.464970   1.000000   1.000000
     70         -3.398164       -3.398164   1.000000   1.000000
     71         -3.398164       -3.398164   1.000000   1.000000
     72         -3.398164       -3.398164   1.000000   1.000000
     73         -3.398164       -3.398164   1.000000   1.000000
     74         -3.325108       -3.325108   1.000000   1.000000
     75         -3.325108       -3.325108   1.000000   1.000000
     76         -3.325108       -3.325107   1.000000   1.000000
     77         -3.325108       -3.325107   1.000000   1.000000
     78         -3.271310       -3.271310   1.000000   1.000000
     79         -3.271310       -3.271310   1.000000   1.000000
     80         -3.271310       -3.271310   1.000000   1.000000
     81         -3.271310       -3.271310   1.000000   1.000000
     82         -3.240330       -3.240330   1.000000   1.000000
     83         -3.240330       -3.240330   1.000000   1.000000
     84         -3.240330       -3.240330   1.000000   1.000000
     85         -3.240330       -3.240330   1.000000   1.000000
     86         -3.209833       -3.209833   1.000000   1.000000
     87         -3.180886       -3.180886   1.000000   1.000000
     88         -3.180886       -3.180886   1.000000   1.000000
     89         -3.180886       -3.180886   1.000000   1.000000
     90         -3.180886       -3.180886   1.000000   1.000000
     91         -3.166050       -3.166050   1.000000   1.000000
     92         -3.166050       -3.166050   1.000000   1.000000
     93         -3.166050       -3.166050   1.000000   1.000000
     94         -3.166050       -3.166050   1.000000   1.000000
     95         -3.162592       -3.162592   1.000000   1.000000
     96         -3.162592       -3.162592   1.000000   1.000000
     97         -3.162592       -3.162592   1.000000   1.000000
     98         -3.162592       -3.162592   1.000000   1.000000
     99         -3.161964       -3.161964   1.000000   1.000000
    100         -3.161964       -3.161964   1.000000   1.000000
    101         -3.161964       -3.161964   1.000000   1.000000
    102         -3.161964       -3.161964   1.000000   1.000000
    103         -3.160686       -3.160686   1.000000   1.000000
    104         -3.160686       -3.160686   1.000000   1.000000
    105         -3.160686       -3.160686   1.000000   1.000000
    106         -3.160686       -3.160686   1.000000   1.000000
    107         -3.140783       -3.140783   1.000000   1.000000
    108         -3.140783       -3.140783   1.000000   1.000000
    109         -3.135398       -3.135398   1.000000   1.000000
    110         -3.135398       -3.135398   1.000000   1.000000
    111         -3.135398       -3.135398   1.000000   1.000000
    112         -3.135398       -3.135398   1.000000   1.000000
    113         -3.081402       -3.081402   1.000000   1.000000
    114         -3.081402       -3.081402   1.000000   1.000000
    115         -3.081402       -3.081402   1.000000   1.000000
    116         -3.081402       -3.081402   1.000000   1.000000
    117         -3.078530       -3.078531   1.000000   1.000000
    118         -3.078530       -3.078531   1.000000   1.000000
    119         -3.078530       -3.078531   1.000000   1.000000
    120         -3.078530       -3.078531   1.000000   1.000000
    121         -2.972081       -2.972081   1.000000   1.000000
    122         -2.972081       -2.972081   1.000000   1.000000
    123         -2.972081       -2.972081   1.000000   1.000000
    124         -2.972081       -2.972081   1.000000   1.000000
    125         -2.933386       -2.933386   1.000000   1.000000
    126         -2.933386       -2.933386   1.000000   1.000000
    127         -2.933386       -2.933386   1.000000   1.000000
    128         -2.933386       -2.933386   1.000000   1.000000
    129         -2.916444       -2.916444   1.000000   1.000000
    130         -2.916444       -2.916444   1.000000   1.000000
    131         -2.916444       -2.916444   1.000000   1.000000
    132         -2.916444       -2.916444   1.000000   1.000000
    133         -2.913010       -2.913010   1.000000   1.000000
    134         -2.913010       -2.913010   1.000000   1.000000
    135         -2.913010       -2.913010   1.000000   1.000000
    136         -2.913010       -2.913010   1.000000   1.000000
    137         -2.912345       -2.912346   1.000000   1.000000
    138         -2.820489       -2.820489   1.000000   1.000000
    139         -2.805589       -2.805589   1.000000   1.000000
    140         -2.689706       -2.689706   1.000000   1.000000
    141         -2.689706       -2.689706   1.000000   1.000000
    142         -2.689706       -2.689706   1.000000   1.000000
    143         -2.689706       -2.689706   1.000000   1.000000
    144         -2.685388       -2.685388   1.000000   1.000000
    145         -2.685388       -2.685388   1.000000   1.000000
    146         -2.685388       -2.685388   1.000000   1.000000
    147         -2.685388       -2.685388   1.000000   1.000000
    148         -2.682429       -2.682429   1.000000   1.000000
    149         -2.682429       -2.682429   1.000000   1.000000
    150         -2.682429       -2.682429   1.000000   1.000000
    151         -2.682429       -2.682429   1.000000   1.000000
    152         -2.635951       -2.635951   1.000000   1.000000
    153         -2.635951       -2.635951   1.000000   1.000000
    154         -2.583928       -2.583928   1.000000   1.000000
    155         -2.583928       -2.583928   1.000000   1.000000
    156         -2.583928       -2.583928   1.000000   1.000000
    157         -2.583928       -2.583928   1.000000   1.000000
    158         -2.575196       -2.575196   1.000000   1.000000
    159         -2.575196       -2.575196   1.000000   1.000000
    160         -2.575196       -2.575196   1.000000   1.000000
    161         -2.575196       -2.575196   1.000000   1.000000
    162         -2.554453       -2.554453   1.000000   1.000000
    163         -2.554453       -2.554453   1.000000   1.000000
    164         -2.554453       -2.554453   1.000000   1.000000
    165         -2.554453       -2.554453   1.000000   1.000000
    166         -2.531048       -2.531048   1.000000   1.000000
    167         -2.531048       -2.531048   1.000000   1.000000
    168         -2.531048       -2.531048   1.000000   1.000000
    169         -2.531048       -2.531048   1.000000   1.000000
    170         -2.526529       -2.526529   1.000000   1.000000
    171         -2.526529       -2.526529   1.000000   1.000000
    172         -2.526529       -2.526529   1.000000   1.000000
    173         -2.526529       -2.526529   1.000000   1.000000
    174         -2.520114       -2.520114   1.000000   1.000000
    175         -2.520114       -2.520114   1.000000   1.000000
    176         -2.520114       -2.520114   1.000000   1.000000
    177         -2.520114       -2.520114   1.000000   1.000000
    178         -2.449271       -2.449271   1.000000   1.000000
    179         -2.449271       -2.449271   1.000000   1.000000
    180         -2.449271       -2.449271   1.000000   1.000000
    181         -2.449271       -2.449271   1.000000   1.000000
    182         -2.425523       -2.425523   1.000000   1.000000
    183         -2.425523       -2.425523   1.000000   1.000000
    184         -2.425523       -2.425523   1.000000   1.000000
    185         -2.425523       -2.425523   1.000000   1.000000
    186         -2.417134       -2.417134   1.000000   1.000000
    187         -2.415368       -2.415368   1.000000   1.000000
    188         -2.415368       -2.415368   1.000000   1.000000
    189         -2.415368       -2.415368   1.000000   1.000000
    190         -2.415368       -2.415368   1.000000   1.000000
    191         -2.289793       -2.289793   1.000000   1.000000
    192         -2.289793       -2.289793   1.000000   1.000000
    193         -2.289793       -2.289793   1.000000   1.000000
    194         -2.289793       -2.289793   1.000000   1.000000
    195         -2.274695       -2.274695   1.000000   1.000000
    196         -2.274695       -2.274695   1.000000   1.000000
    197         -2.274695       -2.274695   1.000000   1.000000
    198         -2.274695       -2.274695   1.000000   1.000000
    199         -2.227119       -2.227119   1.000000   1.000000
    200         -2.227119       -2.227119   1.000000   1.000000
    201         -2.227119       -2.227119   1.000000   1.000000
    202         -2.227119       -2.227119   1.000000   1.000000
    203         -2.216791       -2.216791   1.000000   1.000000
    204         -2.216791       -2.216791   1.000000   1.000000
    205         -2.216791       -2.216791   1.000000   1.000000
    206         -2.216791       -2.216791   1.000000   1.000000
    207         -2.185123       -2.185122   1.000000   1.000000
    208         -2.185123       -2.185122   1.000000   1.000000
    209         -2.185123       -2.185122   1.000000   1.000000
    210         -2.185123       -2.185122   1.000000   1.000000
    211         -2.183850       -2.183850   1.000000   1.000000
    212         -2.183850       -2.183850   1.000000   1.000000
    213         -2.183850       -2.183850   1.000000   1.000000
    214         -2.183850       -2.183850   1.000000   1.000000
    215         -2.179071       -2.179071   1.000000   1.000000
    216         -2.179071       -2.179071   1.000000   1.000000
    217         -2.179071       -2.179071   1.000000   1.000000
    218         -2.179071       -2.179071   1.000000   1.000000
    219         -2.161570       -2.161570   1.000000   1.000000
    220         -2.161570       -2.161570   1.000000   1.000000
    221         -2.161570       -2.161570   1.000000   1.000000
    222         -2.161570       -2.161570   1.000000   1.000000
    223         -2.140640       -2.140640   1.000000   1.000000
    224         -2.140640       -2.140640   1.000000   1.000000
    225         -2.140640       -2.140640   1.000000   1.000000
    226         -2.140640       -2.140640   1.000000   1.000000
    227         -2.126832       -2.126832   1.000000   1.000000
    228         -2.107440       -2.107440   1.000000   1.000000
    229         -2.107440       -2.107440   1.000000   1.000000
    230         -2.107440       -2.107440   1.000000   1.000000
    231         -2.107440       -2.107440   1.000000   1.000000
    232         -2.102506       -2.102506   1.000000   1.000000
    233         -2.102506       -2.102506   1.000000   1.000000
    234         -2.069747       -2.069747   1.000000   1.000000
    235         -2.069747       -2.069747   1.000000   1.000000
    236         -2.069747       -2.069747   1.000000   1.000000
    237         -2.069747       -2.069747   1.000000   1.000000
    238         -2.055387       -2.055387   1.000000   1.000000
    239         -2.055387       -2.055387   1.000000   1.000000
    240         -2.055387       -2.055387   1.000000   1.000000
    241         -2.055387       -2.055387   1.000000   1.000000
    242         -2.051280       -2.051280   1.000000   1.000000
    243         -2.051280       -2.051280   1.000000   1.000000
    244         -2.051280       -2.051280   1.000000   1.000000
    245         -2.051280       -2.051280   1.000000   1.000000
    246         -2.038135       -2.038135   1.000000   1.000000
    247         -2.036572       -2.036572   1.000000   1.000000
    248         -2.036572       -2.036572   1.000000   1.000000
    249         -2.036572       -2.036572   1.000000   1.000000
    250         -2.036572       -2.036572   1.000000   1.000000
    251         -2.004626       -2.004626   1.000000   1.000000
    252         -2.004626       -2.004626   1.000000   1.000000
    253         -2.004626       -2.004626   1.000000   1.000000
    254         -2.004626       -2.004626   1.000000   1.000000
    255         -1.999760       -1.999761   1.000000   1.000000
    256         -1.999760       -1.999761   1.000000   1.000000
    257         -1.999760       -1.999761   1.000000   1.000000
    258         -1.999760       -1.999761   1.000000   1.000000
    259         -1.988128       -1.988128   1.000000   1.000000
    260         -1.988128       -1.988128   1.000000   1.000000
    261         -1.988128       -1.988128   1.000000   1.000000
    262         -1.988128       -1.988128   1.000000   1.000000
    263         -1.977606       -1.977606   1.000000   1.000000
    264         -1.977606       -1.977606   1.000000   1.000000
    265         -1.977606       -1.977606   1.000000   1.000000
    266         -1.977606       -1.977606   1.000000   1.000000
    267         -1.970860       -1.970860   1.000000   1.000000
    268         -1.970860       -1.970860   1.000000   1.000000
    269         -1.966743       -1.966742   1.000000   1.000000
    270         -1.966743       -1.966742   1.000000   1.000000
    271         -1.966743       -1.966742   1.000000   1.000000
    272         -1.966743       -1.966742   1.000000   1.000000
    273         -1.919770       -1.919770   1.000000   1.000000
    274         -1.919770       -1.919770   1.000000   1.000000
    275         -1.919770       -1.919770   1.000000   1.000000
    276         -1.919770       -1.919770   1.000000   1.000000
    277         -1.831632       -1.831632   1.000000   1.000000
    278         -1.831632       -1.831632   1.000000   1.000000
    279         -1.811849       -1.811849   1.000000   1.000000
    280         -1.811849       -1.811849   1.000000   1.000000
    281         -1.811849       -1.811849   1.000000   1.000000
    282         -1.811849       -1.811849   1.000000   1.000000
    283         -1.792445       -1.792445   1.000000   1.000000
    284         -1.792445       -1.792445   1.000000   1.000000
    285         -1.792445       -1.792445   1.000000   1.000000
    286         -1.792445       -1.792445   1.000000   1.000000
    287         -1.770515       -1.770515   1.000000   1.000000
    288         -1.770515       -1.770515   1.000000   1.000000
    289         -1.770515       -1.770515   1.000000   1.000000
    290         -1.770515       -1.770515   1.000000   1.000000
    291         -1.769905       -1.769905   1.000000   1.000000
    292         -1.769905       -1.769905   1.000000   1.000000
    293         -1.769905       -1.769905   1.000000   1.000000
    294         -1.769905       -1.769905   1.000000   1.000000
    295         -1.761295       -1.761295   1.000000   1.000000
    296         -1.761295       -1.761295   1.000000   1.000000
    297         -1.761295       -1.761295   1.000000   1.000000
    298         -1.761295       -1.761295   1.000000   1.000000
    299         -1.750002       -1.750002   1.000000   1.000000
    300         -1.750002       -1.750002   1.000000   1.000000
    301         -1.750002       -1.750002   1.000000   1.000000
    302         -1.750002       -1.750002   1.000000   1.000000
    303         -1.740849       -1.740849   1.000000   1.000000
    304         -1.740849       -1.740849   1.000000   1.000000
    305         -1.740849       -1.740849   1.000000   1.000000
    306         -1.740849       -1.740849   1.000000   1.000000
    307         -1.713733       -1.713732   1.000000   1.000000
    308         -1.713733       -1.713732   1.000000   1.000000
    309         -1.713733       -1.713732   1.000000   1.000000
    310         -1.713733       -1.713732   1.000000   1.000000
    311         -1.704125       -1.704125   1.000000   1.000000
    312         -1.704125       -1.704125   1.000000   1.000000
    313         -1.704125       -1.704125   1.000000   1.000000
    314         -1.704125       -1.704125   1.000000   1.000000
    315         -1.702939       -1.702939   1.000000   1.000000
    316         -1.702939       -1.702939   1.000000   1.000000
    317         -1.702939       -1.702939   1.000000   1.000000
    318         -1.702939       -1.702939   1.000000   1.000000
    319         -1.669516       -1.669517   1.000000   1.000000
    320         -1.669516       -1.669517   1.000000   1.000000
    321         -1.669516       -1.669517   1.000000   1.000000
    322         -1.669516       -1.669517   1.000000   1.000000
    323         -1.574154       -1.574154   1.000000   1.000000
    324         -1.574154       -1.574154   1.000000   1.000000
    325         -1.574154       -1.574154   1.000000   1.000000
    326         -1.574154       -1.574154   1.000000   1.000000
    327         -1.570986       -1.570986   1.000000   1.000000
    328         -1.570986       -1.570986   1.000000   1.000000
    329         -1.570986       -1.570986   1.000000   1.000000
    330         -1.570986       -1.570986   1.000000   1.000000
    331         -1.548453       -1.548452   1.000000   1.000000
    332         -1.548453       -1.548452   1.000000   1.000000
    333         -1.548453       -1.548452   1.000000   1.000000
    334         -1.548453       -1.548452   1.000000   1.000000
    335         -1.513266       -1.513266   1.000000   1.000000
    336         -1.485675       -1.485675   1.000000   1.000000
    337         -1.479721       -1.479721   1.000000   1.000000
    338         -1.479721       -1.479721   1.000000   1.000000
    339         -1.479721       -1.479721   1.000000   1.000000
    340         -1.479721       -1.479721   1.000000   1.000000
    341         -1.458959       -1.458959   1.000000   1.000000
    342         -1.458959       -1.458959   1.000000   1.000000
    343         -1.458959       -1.458959   1.000000   1.000000
    344         -1.458959       -1.458959   1.000000   1.000000
    345         -1.451699       -1.451699   1.000000   1.000000
    346         -1.451699       -1.451699   1.000000   1.000000
    347         -1.451699       -1.451699   1.000000   1.000000
    348         -1.451699       -1.451699   1.000000   1.000000
    349         -1.451581       -1.451581   1.000000   1.000000
    350         -1.451581       -1.451581   1.000000   1.000000
    351         -1.451581       -1.451581   1.000000   1.000000
    352         -1.451581       -1.451581   1.000000   1.000000
    353         -1.446362       -1.446362   1.000000   1.000000
    354         -1.446362       -1.446362   1.000000   1.000000
    355         -1.419080       -1.419080   1.000000   1.000000
    356         -1.419080       -1.419080   1.000000   1.000000
    357         -1.419080       -1.419080   1.000000   1.000000
    358         -1.419080       -1.419080   1.000000   1.000000
    359         -1.414106       -1.414106   1.000000   1.000000
    360         -1.414106       -1.414106   1.000000   1.000000
    361         -1.414106       -1.414106   1.000000   1.000000
    362         -1.414106       -1.414106   1.000000   1.000000
    363         -1.390727       -1.390727   1.000000   1.000000
    364         -1.390727       -1.390727   1.000000   1.000000
    365         -1.390727       -1.390727   1.000000   1.000000
    366         -1.390727       -1.390727   1.000000   1.000000
    367         -1.363261       -1.363261   1.000000   1.000000
    368         -1.363261       -1.363261   1.000000   1.000000
    369         -1.363261       -1.363261   1.000000   1.000000
    370         -1.363261       -1.363261   1.000000   1.000000
    371         -1.352059       -1.352059   1.000000   1.000000
    372         -1.352059       -1.352059   1.000000   1.000000
    373         -1.352059       -1.352059   1.000000   1.000000
    374         -1.352059       -1.352059   1.000000   1.000000
    375         -1.336434       -1.336434   1.000000   1.000000
    376         -1.336434       -1.336434   1.000000   1.000000
    377         -1.336434       -1.336434   1.000000   1.000000
    378         -1.336434       -1.336434   1.000000   1.000000
    379         -1.329367       -1.329367   1.000000   1.000000
    380         -1.303536       -1.303536   1.000000   1.000000
    381         -1.303536       -1.303536   1.000000   1.000000
    382         -1.303536       -1.303536   1.000000   1.000000
    383         -1.303536       -1.303536   1.000000   1.000000
    384         -1.301556       -1.301555   1.000000   1.000000
    385         -1.301556       -1.301555   1.000000   1.000000
    386         -1.301556       -1.301555   1.000000   1.000000
    387         -1.301556       -1.301555   1.000000   1.000000
    388         -1.255707       -1.255707   1.000000   1.000000
    389         -1.249686       -1.249686   1.000000   1.000000
    390         -1.249686       -1.249686   1.000000   1.000000
    391         -1.215845       -1.215845   1.000000   1.000000
    392         -1.192944       -1.192944   1.000000   1.000000
    393         -1.192944       -1.192944   1.000000   1.000000
    394         -1.192944       -1.192944   1.000000   1.000000
    395         -1.192944       -1.192944   1.000000   1.000000
    396         -1.190041       -1.190041   1.000000   1.000000
    397         -1.178676       -1.178676   1.000000   1.000000
    398         -1.178676       -1.178676   1.000000   1.000000
    399         -1.178676       -1.178676   1.000000   1.000000
    400         -1.178676       -1.178676   1.000000   1.000000
    401         -1.155434       -1.155434   1.000000   1.000000
    402         -1.150638       -1.150638   1.000000   1.000000
    403         -1.150638       -1.150638   1.000000   1.000000
    404         -1.150638       -1.150638   1.000000   1.000000
    405         -1.150638       -1.150638   1.000000   1.000000
    406         -1.144896       -1.144895   1.000000   1.000000
    407         -1.109477       -1.109477   1.000000   1.000000
    408         -1.109477       -1.109477   1.000000   1.000000
    409         -1.109477       -1.109477   1.000000   1.000000
    410         -1.109477       -1.109477   1.000000   1.000000
    411         -1.099643       -1.099643   1.000000   1.000000
    412         -1.099643       -1.099643   1.000000   1.000000
    413         -1.099643       -1.099643   1.000000   1.000000
    414         -1.099643       -1.099643   1.000000   1.000000
    415         -1.081812       -1.081812   1.000000   1.000000
    416         -1.081812       -1.081812   1.000000   1.000000
    417         -1.081812       -1.081812   1.000000   1.000000
    418         -1.081812       -1.081812   1.000000   1.000000
    419         -1.076043       -1.076043   1.000000   1.000000
    420         -1.076043       -1.076043   1.000000   1.000000
    421         -1.076043       -1.076043   1.000000   1.000000
    422         -1.076043       -1.076043   1.000000   1.000000
    423         -1.074756       -1.074756   1.000000   1.000000
    424         -1.074756       -1.074756   1.000000   1.000000
    425         -1.074756       -1.074756   1.000000   1.000000
    426         -1.074756       -1.074756   1.000000   1.000000
    427         -1.068814       -1.068814   1.000000   1.000000
    428         -1.068814       -1.068814   1.000000   1.000000
    429         -1.068814       -1.068814   1.000000   1.000000
    430         -1.068814       -1.068814   1.000000   1.000000
    431         -1.062208       -1.062208   1.000000   1.000000
    432         -1.062208       -1.062208   1.000000   1.000000
    433         -1.062208       -1.062208   1.000000   1.000000
    434         -1.062208       -1.062208   1.000000   1.000000
    435         -1.060627       -1.060627   1.000000   1.000000
    436         -1.060627       -1.060627   1.000000   1.000000
    437         -1.060627       -1.060627   1.000000   1.000000
    438         -1.060627       -1.060627   1.000000   1.000000
    439         -1.054429       -1.054429   1.000000   1.000000
    440         -1.054429       -1.054429   1.000000   1.000000
    441         -1.054429       -1.054429   1.000000   1.000000
    442         -1.054429       -1.054429   1.000000   1.000000
    443         -1.013647       -1.013647   1.000000   1.000000
    444         -1.013647       -1.013647   1.000000   1.000000
    445         -1.009267       -1.009267   1.000000   1.000000
    446         -1.009267       -1.009267   1.000000   1.000000
    447         -1.009267       -1.009267   1.000000   1.000000
    448         -1.009267       -1.009267   1.000000   1.000000
    449         -1.005867       -1.005867   1.000000   1.000000
    450         -0.968894       -0.968894   1.000000   1.000000
    451         -0.968894       -0.968894   1.000000   1.000000
    452         -0.968894       -0.968894   1.000000   1.000000
    453         -0.968894       -0.968894   1.000000   1.000000
    454         -0.936994       -0.936993   1.000000   1.000000
    455         -0.936994       -0.936993   1.000000   1.000000
    456         -0.936994       -0.936993   1.000000   1.000000
    457         -0.936994       -0.936993   1.000000   1.000000
    458         -0.930445       -0.930445   1.000000   1.000000
    459         -0.930445       -0.930445   1.000000   1.000000
    460         -0.930445       -0.930445   1.000000   1.000000
    461         -0.930445       -0.930445   1.000000   1.000000
    462         -0.878918       -0.878918   1.000000   1.000000
    463         -0.878918       -0.878918   1.000000   1.000000
    464         -0.878918       -0.878918   1.000000   1.000000