 vasp.6.3.2 27Jun22 (build Aug 17 2022 15:43:34) complex                        
  
 executed on           tv2STDVTST date 2025.01.21  20:05:47
 running   20 mpi-ranks, with    1 threads/rank
 distrk:  each k-point on   20 cores,    1 groups
 distr:  one band on NCORE=   5 cores,    4 groups


--------------------------------------------------------------------------------------------------------


 -----------------------------------------------------------------------------
|                                                                             |
|           W    W    AA    RRRRR   N    N  II  N    N   GGGG   !!!           |
|           W    W   A  A   R    R  NN   N  II  NN   N  G    G  !!!           |
|           W    W  A    A  R    R  N N  N  II  N N  N  G       !!!           |
|           W WW W  AAAAAA  RRRRR   N  N N  II  N  N N  G  GGG   !            |
|           WW  WW  A    A  R   R   N   NN  II  N   NN  G    G                |
|           W    W  A    A  R    R  N    N  II  N    N   GGGG   !!!           |
|                                                                             |
|     Found issues when parsing the INCAR file                                |
|     In line 64: Tagname --- R W I G S contains invalid characters.          |
|     Please check if the interpretation in the OUTCAR file is correct.       |
|                                                                             |
 -----------------------------------------------------------------------------

 INCAR:
    = \=\=\=\=\=\=\=\=\=\=\=\=\=\=\=\=\=\=\=\=\=\=\=\=\=\=\=\=\=\=\=\=\=\=\=\=\=\=\=\=\=\=\=\=\=\=\=\=\=\=\=\=\=\=\=\=\=\=\=\=\=\=\=\=\=\=\=\=\=\=\=\=
    = \=\=\=\=\=\=\=\=\=\=\=\=\=\=\=\=\=\=\=\=\=\=\=\=\=\=\=\=\=\=\=\=\=\=\=\=\=\=\=\=\=\=\=\=\=\=\=\=\=\=\=\=\=\=\=\=\=\=\=\=\=\=\=\=\=\=\=\=\=\=\=\=
   ISTART = 0
   ICHARG = 2
   IPIPOL = 3
   IVDW = 11
   IDIPOL = 3
   IVDW = 11
    = \=\=\=\=\=\=\=\=\=\=\=\=\=\=\=\=\=\=\=\=\=\=\=\=\=\=\=\=\=\=\=\=\=\=\=\=\=\=\=\=\=\=\=\=\=\=\=\=\=\=\=\=\=\=\=\=\=\=\=\=\=\=\=\=\=\=\=\=\=\=\=\=
    = \=\=\=\=\=\=\=\=\=\=\=\=\=\=\=\=\=\=\=\=\=\=\=\=\=\=\=\=\=\=\=\=\=\=\=\=\=\=\=\=\=\=\=\=\=\=\=\=\=\=\=\=\=\=\=\=\=\=\=\=\=\=\=\=\=\=\=\=\=\=\=\=
   ISPIN = 2
    = \=\=\=\=\=\=\=\=\=\=\=\=\=\=\=\=\=\=\=\=\=\=\=\=\=\=\=\=\=\=\=\=\=\=\=\=\=\=\=\=\=\=\=\=\=\=\=\=\=\=\=\=\=\=\=\=\=\=\=\=\=\=\=\=\=\=\=\=\=\=\=\=
    = \=\=\=\=\=\=\=\=\=\=\=\=\=\=\=\=\=\=\=\=\=\=\=\=\=\=\=\=\=\=\=\=\=\=\=\=\=\=\=\=\=\=\=\=\=\=\=\=\=\=\=\=\=\=\=\=\=\=\=\=\=\=\=\=\=\=\=\=\=\=\=\=
   ENCUT = 400
   PREC = Normal
   EDIFF = 2E-04
   GGA = PE
   ISMEAR = 1
   SIGMA = 0.2
   LREAL = .FALSE.
    = \=\=\=\=\=\=\=\=\=\=\=\=\=\=\=\=\=\=\=\=\=\=\=\=\=\=\=\=\=\=\=\=\=\=\=\=\=\=\=\=\=\=\=\=\=\=\=\=\=\=\=\=\=\=\=\=\=\=\=\=\=\=\=\=\=\=\=\=\=\=\=\=
    = \=\=\=\=\=\=\=\=\=\=\=\=\=\=\=\=\=\=\=\=\=\=\=\=\=\=\=\=\=\=\=\=\=\=\=\=\=\=\=\=\=\=\=\=\=\=\=\=\=\=\=\=\=\=\=\=\=\=\=\=\=\=\=\=\=\=\=\=\=\=\=\=
   ISYM = 1
   NSW = 800
   IBRION = 2
   POTIM = 0.5
   ISIF = 2
   EDIFFG = -.03
    = \=\=\=\=\=\=\=\=\=\=\=\=\=\=\=\=\=\=\=\=\=\=\=\=\=\=\=\=\=\=\=\=\=\=\=\=\=\=\=\=\=\=\=\=\=\=\=\=\=\=\=\=\=\=\=\=\=\=\=\=\=\=\=\=\=\=\=\=\=\=\=\=
    = \=\=\=\=\=\=\=\=\=\=\=\=\=\=\=\=\=\=\=\=\=\=\=\=\=\=\=\=\=\=\=\=\=\=\=\=\=\=\=\=\=\=\=\=\=\=\=\=\=\=\=\=\=\=\=\=\=\=\=\=\=\=\=\=\=\=\=\=\=\=\=\=
   NPAR = 4
   LWAVE = .FALSE.
   LCHARG = .FALSE.

 POTCAR:    PAW_PBE Cu 22Jun2005                  
 -----------------------------------------------------------------------------
|                                                                             |
|           W    W    AA    RRRRR   N    N  II  N    N   GGGG   !!!           |
|           W    W   A  A   R    R  NN   N  II  NN   N  G    G  !!!           |
|           W    W  A    A  R    R  N N  N  II  N N  N  G       !!!           |
|           W WW W  AAAAAA  RRRRR   N  N N  II  N  N N  G  GGG   !            |
|           WW  WW  A    A  R   R   N   NN  II  N   NN  G    G                |
|           W    W  A    A  R    R  N    N  II  N    N   GGGG   !!!           |
|                                                                             |
|     You use a magnetic or noncollinear calculation, but did not specify     |
|     the initial magnetic moment with the MAGMOM tag. Note that a            |
|     default of 1 will be used for all atoms. This ferromagnetic setup       |
|     may break the symmetry of the crystal, in particular it may rule        |
|     out finding an antiferromagnetic solution. Thence, we recommend         |
|     setting the initial magnetic moment manually or verifying carefully     |
|     that this magnetic setup is desired.                                    |
|                                                                             |
 -----------------------------------------------------------------------------

 POTCAR:    PAW_PBE Cu 22Jun2005                  
   SHA256 =  0e71e558f37a4e8407882b4609ceaae59938afaad9ced71dfe8490308a0ab630 Cu/POTCAR             
   COPYR  = (c) Copyright 22Jun2005 Georg Kresse                                                    
   COPYR  = This file is part of the software VASP. Any use, copying, and all other rights are regul
   COPYR  = If you do not have a valid VASP license, you may not use, copy or distribute this file. 
   VRHFIN =Cu: d10 p1                                                                               
   LEXCH  = PE                                                                                      
   EATOM  =  1390.9808 eV,  102.2342 Ry                                                             
                                                                                                    
   TITEL  = PAW_PBE Cu 22Jun2005                                                                    
   LULTRA =        F    use ultrasoft PP ?                                                          
   IUNSCR =        1    unscreen: 0-lin 1-nonlin 2-no                                               
   RPACOR =    2.000    partial core radius                                                         
   POMASS =   63.546; ZVAL   =   11.000    mass and valenz                                          
   RCORE  =    2.300    outmost cutoff radius                                                       
   RWIGS  =    2.200; RWIGS  =    1.164    wigner-seitz radius (au A)                               
   ENMAX  =  295.446; ENMIN  =  221.585 eV                                                          
   ICORE  =        3    local potential                                                             
   LCOR   =        T    correct aug charges                                                         
   LPAW   =        T    paw PP                                                                      
   EAUG   =  586.980                                                                                
   DEXC   =    0.000                                                                                
   RMAX   =    2.344    core radius for proj-oper                                                   
   RAUG   =    1.300    factor for augmentation sphere                                              
   RDEP   =    2.302    radius for radial grids                                                     
   RDEPT  =    1.771    core radius for aug-charge                                                  
                                                                                                    
   Atomic configuration                                                                             
    9 entries                                                                                       
     n  l   j            E        occ.                                                              
     1  0  0.50     -8850.2468   2.0000                                                             
     2  0  0.50     -1062.3498   2.0000                                                             
     2  1  1.50      -916.8226   6.0000                                                             
     3  0  0.50      -114.6929   2.0000                                                             
     3  1  1.50       -72.1325   6.0000                                                             
     3  2  2.50        -5.0394  10.0000                                                             
     4  0  0.50        -4.6097   1.0000                                                             
     4  1  0.50        -4.0817   0.0000                                                             
     4  3  2.50        -1.3606   0.0000                                                             
   Description                                                                                      
     l       E           TYP  RCUT    TYP  RCUT                                                     
     2     -5.0393973     23  2.200                                                                 
     2     10.8846608     23  2.200                                                                 
     0     -4.6097109     23  2.200                                                                 
     0      8.2520465     23  2.200                                                                 
     1     -2.7211652     23  2.200                                                                 
     1     21.7055443     23  2.200                                                                 
     3      2.7211652     23  2.300                                                                 
  local pseudopotential read in
  partial core-charges read in
  partial kinetic energy density read in
  atomic valenz-charges read in
  non local Contribution for L=           2  read in
    real space projection operators read in
  non local Contribution for L=           2  read in
    real space projection operators read in
  non local Contribution for L=           0  read in
    real space projection operators read in
  non local Contribution for L=           0  read in
    real space projection operators read in
  non local Contribution for L=           1  read in
    real space projection operators read in
  non local Contribution for L=           1  read in
    real space projection operators read in
    PAW grid and wavefunctions read in
 
   number of l-projection  operators is LMAX  =           6
   number of lm-projection operators is LMMAX =          18
 
 -----------------------------------------------------------------------------
|                                                                             |
|               ----> ADVICE to this user running VASP <----                  |
|                                                                             |
|     You have a (more or less) 'large supercell' and for larger cells it     |
|     might be more efficient to use real-space projection operators.         |
|     Therefore, try LREAL= Auto in the INCAR file.                           |
|     Mind: For very accurate calculation, you might also keep the            |
|     reciprocal projection scheme (i.e. LREAL=.FALSE.).                      |
|                                                                             |
 -----------------------------------------------------------------------------

  PAW_PBE Cu 22Jun2005                  :
 energy of atom  1       EATOM=-1390.9808
 kinetic energy error for atom=    0.0232 (will be added to EATOM!!)
 
 
 POSCAR: FCC Cu
  positions in cartesian coordinates
  velocities in cartesian coordinates
  No initial velocities read in
 exchange correlation table for  LEXCH =        8
   RHO(1)=    0.500       N(1)  =     2000
   RHO(2)=  100.500       N(2)  =     4000

 VTST: version 4.2, (08/11/21)

 CHAIN: initializing optimizer
 
 OPT: Using VASP Conjugate-Gradient optimizer
 CHAIN: Read ICHAIN            0
 
 POSCAR: FCC Cu
  positions in cartesian coordinates
  velocities in cartesian coordinates
  No initial velocities read in
 


--------------------------------------------------------------------------------------------------------


 ion  position               nearest neighbor table
   1  0.000  0.000  0.000-  19 2.57  28 2.57  21 2.57  34 2.57  10 2.57  12 2.57  16 2.57  18 2.57

   2  0.000  0.333  0.000-  19 2.57  29 2.57  20 2.57  35 2.57  10 2.57  11 2.57  16 2.57  17 2.57

   3  0.000  0.667  0.000-  30 2.57  21 2.57  36 2.57  20 2.57  12 2.57  18 2.57  11 2.57  17 2.57

   4  0.333  0.000  0.000-  22 2.57  28 2.57  31 2.57  24 2.57  10 2.57  13 2.57  12 2.57  15 2.57

   5  0.333  0.333  0.000-  22 2.57  29 2.57  23 2.57  32 2.57  10 2.57  11 2.57  13 2.57  14 2.57

   6  0.333  0.667  0.000-  30 2.57  24 2.57  33 2.57  23 2.57  12 2.57  15 2.57  11 2.57  14 2.57

   7  0.667  0.000  0.000-  25 2.57  34 2.57  27 2.57  31 2.57  16 2.57  18 2.57  13 2.57  15 2.57

   8  0.667  0.333  0.000-  25 2.57  26 2.57  35 2.57  32 2.57  16 2.57  17 2.57  13 2.57  14 2.57

   9  0.667  0.667  0.000-  27 2.57  36 2.57  33 2.57  26 2.57  18 2.57  17 2.57  15 2.57  14 2.57

  10  0.167  0.167  0.000-  19 2.57  22 2.57  28 2.57  29 2.57   1 2.57   2 2.57   4 2.57   5 2.57

  11  0.167  0.500  0.000-  20 2.57  23 2.57  29 2.57  30 2.57   2 2.57   5 2.57   3 2.57   6 2.57

  12  0.167  0.833  0.000-  21 2.57  24 2.57  30 2.57  28 2.57   3 2.57   6 2.57   4 2.57   1 2.57

  13  0.500  0.167  0.000-  31 2.57  32 2.57  22 2.57  25 2.57   4 2.57   5 2.57   7 2.57   8 2.57

  14  0.500  0.500  0.000-  23 2.57  32 2.57  26 2.57  33 2.57   5 2.57   6 2.57   8 2.57   9 2.57

  15  0.500  0.833  0.000-  24 2.57  33 2.57  31 2.57  27 2.57   6 2.57   4 2.57   9 2.57   7 2.57

  16  0.833  0.167  0.000-  34 2.57  35 2.57  25 2.57  19 2.57   7 2.57   8 2.57   1 2.57   2 2.57

  17  0.833  0.500  0.000-  26 2.57  35 2.57  20 2.57  36 2.57   8 2.57   2 2.57   9 2.57   3 2.57

  18  0.833  0.833  0.000-  27 2.57  36 2.57  34 2.57  21 2.57   9 2.57   7 2.57   3 2.57   1 2.57

  19  0.000  0.167  0.075-  37 2.57  38 2.57  46 2.57  52 2.57   2 2.57  10 2.57   1 2.57  16 2.57
                            28 2.57  29 2.57  34 2.57  35 2.57
  20  0.000  0.500  0.075-  47 2.57  38 2.57  53 2.57  39 2.57  11 2.57   2 2.57  17 2.57   3 2.57
                            29 2.57  35 2.57  30 2.57  36 2.57
  21  0.000  0.833  0.075-  48 2.57  39 2.57  37 2.57  54 2.57  12 2.57   3 2.57   1 2.57  18 2.57
                            30 2.57  28 2.57  36 2.57  34 2.57
  22  0.333  0.167  0.075-  40 2.57  41 2.57  46 2.57  49 2.57   5 2.57  10 2.57   4 2.57  13 2.57
                            28 2.57  29 2.57  31 2.57  32 2.57
  23  0.333  0.500  0.075-  47 2.57  41 2.57  50 2.57  42 2.57  11 2.57   5 2.57  14 2.57   6 2.57
                            29 2.57  32 2.57  30 2.57  33 2.57
  24  0.333  0.833  0.075-  48 2.57  42 2.57  51 2.57  40 2.57  12 2.57   6 2.57  15 2.57   4 2.57
                            30 2.57  33 2.57  28 2.57  31 2.57
  25  0.667  0.167  0.075-  43 2.57  44 2.57  52 2.57  49 2.57   7 2.57   8 2.57  16 2.57  13 2.57
                            34 2.57  35 2.57  31 2.57  32 2.57
  26  0.667  0.500  0.075-  44 2.57  53 2.57  50 2.57  45 2.57   8 2.57  17 2.57  14 2.57   9 2.57
                            35 2.57  32 2.57  36 2.57  33 2.57
  27  0.667  0.833  0.075-  45 2.57  54 2.57  43 2.57  51 2.57   9 2.57  18 2.57   7 2.57  15 2.57
                            36 2.57  34 2.57  33 2.57  31 2.57
  28  0.167  0.000  0.075-  37 2.57  40 2.57  46 2.57  48 2.57   4 2.57  10 2.57   1 2.57  12 2.57
                            19 2.57  22 2.57  21 2.57  24 2.57
  29  0.167  0.333  0.075-  38 2.57  41 2.57  46 2.57  47 2.57   5 2.57  10 2.57   2 2.57  11 2.57
                            19 2.57  22 2.57  20 2.57  23 2.57
  30  0.167  0.667  0.075-  39 2.57  42 2.57  48 2.57  47 2.57   3 2.57   6 2.57  12 2.57  11 2.57
                            21 2.57  24 2.57  23 2.57  20 2.57
  31  0.500  0.000  0.075-  49 2.57  40 2.57  51 2.57  43 2.57  13 2.57   4 2.57  15 2.57   7 2.57
                            22 2.57  24 2.57  25 2.57  27 2.57
  32  0.500  0.333  0.075-  49 2.57  41 2.57  50 2.57  44 2.57  13 2.57   5 2.57  14 2.57   8 2.57
                            22 2.57  23 2.57  25 2.57  26 2.57
  33  0.500  0.667  0.075-  42 2.57  51 2.57  50 2.57  45 2.57   6 2.57  15 2.57  14 2.57   9 2.57
                            24 2.57  23 2.57  27 2.57  26 2.57
  34  0.833  0.000  0.075-  52 2.57  43 2.57  37 2.57  54 2.57  16 2.57   7 2.57   1 2.57  18 2.57
                            25 2.57  19 2.57  27 2.57  21 2.57
  35  0.833  0.333  0.075-  52 2.57  44 2.57  53 2.57  38 2.57  16 2.57   8 2.57  17 2.57   2 2.57
                            25 2.57  26 2.57  19 2.57  20 2.57
  36  0.833  0.667  0.075-  45 2.57  54 2.57  39 2.57  53 2.57   9 2.57  18 2.57   3 2.57  17 2.57
                            27 2.57  21 2.57  26 2.57  20 2.57
  37  0.000  0.000  0.151-  19 2.57  28 2.57  21 2.57  34 2.57  55 2.57  64 2.57  57 2.57  70 2.57
                            46 2.57  48 2.57  52 2.57  54 2.57
  38  0.000  0.333  0.151-  19 2.57  29 2.57  20 2.57  35 2.57  55 2.57  65 2.57  56 2.57  71 2.57
                            46 2.57  47 2.57  52 2.57  53 2.57
  39  0.000  0.667  0.151-  30 2.57  21 2.57  36 2.57  20 2.57  66 2.57  57 2.57  72 2.57  56 2.57
                            48 2.57  54 2.57  47 2.57  53 2.57
  40  0.333  0.000  0.151-  22 2.57  28 2.57  31 2.57  24 2.57  58 2.57  64 2.57  67 2.57  60 2.57
                            46 2.57  49 2.57  48 2.57  51 2.57
  41  0.333  0.333  0.151-  22 2.57  29 2.57  23 2.57  32 2.57  58 2.57  65 2.57  59 2.57  68 2.57
                            46 2.57  47 2.57  49 2.57  50 2.57
  42  0.333  0.667  0.151-  30 2.57  24 2.57  33 2.57  23 2.57  66 2.57  60 2.57  69 2.57  59 2.57
                            48 2.57  51 2.57  47 2.57  50 2.57
  43  0.667  0.000  0.151-  25 2.57  34 2.57  27 2.57  31 2.57  61 2.57  70 2.57  63 2.57  67 2.57
                            52 2.57  54 2.57  49 2.57  51 2.57
  44  0.667  0.333  0.151-  25 2.57  26 2.57  35 2.57  32 2.57  61 2.57  62 2.57  71 2.57  68 2.57
                            52 2.57  53 2.57  49 2.57  50 2.57
  45  0.667  0.667  0.151-  27 2.57  36 2.57  33 2.57  26 2.57  63 2.57  72 2.57  69 2.57  62 2.57
                            54 2.57  53 2.57  51 2.57  50 2.57
  46  0.167  0.167  0.151-  19 2.57  22 2.57  28 2.57  29 2.57  55 2.57  58 2.57  64 2.57  65 2.57
                            37 2.57  38 2.57  40 2.57  41 2.57
  47  0.167  0.500  0.151-  20 2.57  23 2.57  29 2.57  30 2.57  56 2.57  59 2.57  65 2.57  66 2.57
                            38 2.57  41 2.57  39 2.57  42 2.57
  48  0.167  0.833  0.151-  21 2.57  24 2.57  30 2.57  28 2.57  57 2.57  60 2.57  66 2.57  64 2.57
                            39 2.57  42 2.57  40 2.57  37 2.57
  49  0.500  0.167  0.151-  31 2.57  32 2.57  22 2.57  25 2.57  67 2.57  68 2.57  58 2.57  61 2.57
                            40 2.57  41 2.57  43 2.57  44 2.57
  50  0.500  0.500  0.151-  23 2.57  32 2.57  26 2.57  33 2.57  59 2.57  68 2.57  62 2.57  69 2.57
                            41 2.57  42 2.57  44 2.57  45 2.57
  51  0.500  0.833  0.151-  24 2.57  33 2.57  31 2.57  27 2.57  60 2.57  69 2.57  67 2.57  63 2.57
                            42 2.57  40 2.57  45 2.57  43 2.57
  52  0.833  0.167  0.151-  34 2.57  35 2.57  25 2.57  19 2.57  70 2.57  71 2.57  61 2.57  55 2.57
                            43 2.57  44 2.57  37 2.57  38 2.57
  53  0.833  0.500  0.151-  26 2.57  35 2.57  20 2.57  36 2.57  62 2.57  71 2.57  56 2.57  72 2.57
                            44 2.57  38 2.57  45 2.57  39 2.57
  54  0.833  0.833  0.151-  27 2.57  36 2.57  34 2.57  21 2.57  63 2.57  72 2.57  70 2.57  57 2.57
                            45 2.57  43 2.57  39 2.57  37 2.57
  55  0.000  0.167  0.226-  73 2.57  74 2.57  82 2.57  88 2.57  38 2.57  46 2.57  37 2.57  52 2.57
                            64 2.57  65 2.57  70 2.57  71 2.57
  56  0.000  0.500  0.226-  83 2.57  74 2.57  89 2.57  75 2.57  47 2.57  38 2.57  53 2.57  39 2.57
                            65 2.57  71 2.57  66 2.57  72 2.57
  57  0.000  0.833  0.226-  84 2.57  75 2.57  73 2.57  90 2.57  48 2.57  39 2.57  37 2.57  54 2.57
                            66 2.57  64 2.57  72 2.57  70 2.57
  58  0.333  0.167  0.226-  76 2.57  77 2.57  82 2.57  85 2.57  41 2.57  46 2.57  40 2.57  49 2.57
                            64 2.57  65 2.57  67 2.57  68 2.57
  59  0.333  0.500  0.226-  83 2.57  77 2.57  86 2.57  78 2.57  47 2.57  41 2.57  50 2.57  42 2.57
                            65 2.57  68 2.57  66 2.57  69 2.57
  60  0.333  0.833  0.226-  84 2.57  78 2.57  87 2.57  76 2.57  48 2.57  42 2.57  51 2.57  40 2.57
                            66 2.57  69 2.57  64 2.57  67 2.57
  61  0.667  0.167  0.226-  79 2.57  80 2.57  88 2.57  85 2.57  43 2.57  44 2.57  52 2.57  49 2.57
                            70 2.57  71 2.57  67 2.57  68 2.57
  62  0.667  0.500  0.226-  80 2.57  89 2.57  86 2.57  81 2.57  44 2.57  53 2.57  50 2.57  45 2.57
                            71 2.57  68 2.57  72 2.57  69 2.57
  63  0.667  0.833  0.226-  81 2.57  90 2.57  79 2.57  87 2.57  45 2.57  54 2.57  43 2.57  51 2.57
                            72 2.57  70 2.57  69 2.57  67 2.57
  64  0.167  0.000  0.226-  73 2.57  76 2.57  82 2.57  84 2.57  40 2.57  46 2.57  37 2.57  48 2.57
                            55 2.57  58 2.57  57 2.57  60 2.57
  65  0.167  0.333  0.226-  74 2.57  77 2.57  82 2.57  83 2.57  41 2.57  46 2.57  38 2.57  47 2.57
                            55 2.57  58 2.57  56 2.57  59 2.57
  66  0.167  0.667  0.226-  75 2.57  78 2.57  84 2.57  83 2.57  39 2.57  42 2.57  48 2.57  47 2.57
                            57 2.57  60 2.57  59 2.57  56 2.57
  67  0.500  0.000  0.226-  85 2.57  76 2.57  87 2.57  79 2.57  49 2.57  40 2.57  51 2.57  43 2.57
                            58 2.57  60 2.57  61 2.57  63 2.57
  68  0.500  0.333  0.226-  85 2.57  77 2.57  86 2.57  80 2.57  49 2.57  41 2.57  50 2.57  44 2.57
                            58 2.57  59 2.57  61 2.57  62 2.57
  69  0.500  0.667  0.226-  78 2.57  87 2.57  86 2.57  81 2.57  42 2.57  51 2.57  50 2.57  45 2.57
                            60 2.57  59 2.57  63 2.57  62 2.57
  70  0.833  0.000  0.226-  88 2.57  79 2.57  73 2.57  90 2.57  52 2.57  43 2.57  37 2.57  54 2.57
                            61 2.57  55 2.57  63 2.57  57 2.57
  71  0.833  0.333  0.226-  88 2.57  80 2.57  89 2.57  74 2.57  52 2.57  44 2.57  53 2.57  38 2.57
                            61 2.57  62 2.57  55 2.57  56 2.57
  72  0.833  0.667  0.226-  81 2.57  90 2.57  75 2.57  89 2.57  45 2.57  54 2.57  39 2.57  53 2.57
                            63 2.57  57 2.57  62 2.57  56 2.57
  73  0.000  0.000  0.302-  55 2.57  64 2.57  91 2.57 100 2.57  57 2.57  70 2.57  93 2.57 106 2.57
                            82 2.57  84 2.57  88 2.57  90 2.57
  74  0.000  0.333  0.302-  55 2.57  65 2.57  56 2.57  91 2.57 101 2.57  92 2.57  71 2.57 107 2.57
                            82 2.57  83 2.57  88 2.57  89 2.57
  75  0.000  0.667  0.302-  66 2.57  57 2.57 102 2.57  93 2.57  72 2.57 108 2.57  56 2.57  92 2.57
                            84 2.57  90 2.57  83 2.57  89 2.57
  76  0.333  0.000  0.302-  58 2.57  64 2.57  67 2.57  94 2.57 100 2.57 103 2.57  60 2.57  96 2.57
                            82 2.57  85 2.57  84 2.57  87 2.57
  77  0.333  0.333  0.302-  58 2.57  65 2.57  59 2.57  68 2.57  94 2.57 101 2.57  95 2.57 104 2.57
                            82 2.57  83 2.57  85 2.57  86 2.57
  78  0.333  0.667  0.302-  66 2.57  60 2.57  69 2.57 102 2.57  96 2.57 105 2.57  59 2.57  95 2.57
                            84 2.57  87 2.57  83 2.57  86 2.57
  79  0.667  0.000  0.302-  61 2.57  70 2.57  97 2.57 106 2.57  63 2.57  99 2.57  67 2.57 103 2.57
                            88 2.57  90 2.57  85 2.57  87 2.57
  80  0.667  0.333  0.302-  61 2.57  62 2.57  71 2.57  97 2.57  98 2.57 107 2.57  68 2.57 104 2.57
                            88 2.57  89 2.57  85 2.57  86 2.57
  81  0.667  0.667  0.302-  63 2.57  72 2.57  99 2.57 108 2.57  69 2.57  62 2.57 105 2.57  98 2.57
                            90 2.57  89 2.57  87 2.57  86 2.57
  82  0.167  0.167  0.302-  55 2.57  58 2.57  64 2.57  65 2.57  91 2.57  94 2.57 100 2.57 101 2.57
                            73 2.57  74 2.57  76 2.57  77 2.57
  83  0.167  0.500  0.302-  56 2.57  59 2.57  65 2.57  92 2.57  95 2.57 101 2.57  66 2.57 102 2.57
                            74 2.57  77 2.57  75 2.57  78 2.57
  84  0.167  0.833  0.302-  57 2.57  60 2.57  66 2.57  93 2.57  96 2.57 102 2.57  64 2.57 100 2.57
                            75 2.57  78 2.57  76 2.57  73 2.57
  85  0.500  0.167  0.302-  67 2.57  68 2.57  58 2.57 103 2.57 104 2.57  94 2.57  61 2.57  97 2.57
                            76 2.57  77 2.57  79 2.57  80 2.57
  86  0.500  0.500  0.302-  59 2.57  68 2.57  95 2.57 104 2.57  62 2.57  69 2.57  98 2.57 105 2.57
                            77 2.57  78 2.57  80 2.57  81 2.57
  87  0.500  0.833  0.302-  60 2.57  69 2.57  96 2.57 105 2.57  67 2.57 103 2.57  63 2.57  99 2.57
                            78 2.57  76 2.57  81 2.57  79 2.57
  88  0.833  0.167  0.302-  70 2.57  71 2.57  61 2.57 106 2.57 107 2.57  97 2.57  55 2.57  91 2.57
                            79 2.57  80 2.57  73 2.57  74 2.57
  89  0.833  0.500  0.302-  62 2.57  71 2.57  98 2.57 107 2.57  56 2.57  92 2.57  72 2.57 108 2.57
                            80 2.57  74 2.57  81 2.57  75 2.57
  90  0.833  0.833  0.302-  63 2.57  72 2.57  99 2.57 108 2.57  70 2.57  57 2.57 106 2.57  93 2.57
                            81 2.57  79 2.57  75 2.57  73 2.57
  91  0.000  0.167  0.377-  73 2.57  74 2.57  82 2.57  88 2.57 100 2.57 101 2.57 106 2.57 107 2.57

  92  0.000  0.500  0.377-  83 2.57  74 2.57  89 2.57  75 2.57 101 2.57 107 2.57 102 2.57 108 2.57

  93  0.000  0.833  0.377-  84 2.57  75 2.57  73 2.57  90 2.57 102 2.57 100 2.57 108 2.57 106 2.57

  94  0.333  0.167  0.377-  76 2.57  77 2.57  82 2.57  85 2.57 100 2.57 101 2.57 103 2.57 104 2.57

  95  0.333  0.500  0.377-  83 2.57  77 2.57  86 2.57  78 2.57 101 2.57 104 2.57 102 2.57 105 2.57

  96  0.333  0.833  0.377-  84 2.57  78 2.57  87 2.57  76 2.57 102 2.57 105 2.57 100 2.57 103 2.57

  97  0.667  0.167  0.377-  79 2.57  80 2.57  88 2.57  85 2.57 106 2.57 107 2.57 103 2.57 104 2.57

  98  0.667  0.500  0.377-  80 2.57  89 2.57  86 2.57  81 2.57 107 2.57 104 2.57 108 2.57 105 2.57

  99  0.667  0.833  0.377-  81 2.57  90 2.57  79 2.57  87 2.57 108 2.57 106 2.57 105 2.57 103 2.57

 100  0.167  0.000  0.377-  73 2.57  76 2.57  82 2.57  84 2.57  91 2.57  94 2.57  93 2.57  96 2.57

 101  0.167  0.333  0.377-  74 2.57  77 2.57  82 2.57  83 2.57  91 2.57  94 2.57  92 2.57  95 2.57

 102  0.167  0.667  0.377-  75 2.57  78 2.57  84 2.57  83 2.57  93 2.57  96 2.57  95 2.57  92 2.57

 103  0.500  0.000  0.377-  85 2.57  76 2.57  87 2.57  79 2.57  94 2.57  96 2.57  97 2.57  99 2.57

 104  0.500  0.333  0.377-  85 2.57  77 2.57  86 2.57  80 2.57  94 2.57  95 2.57  97 2.57  98 2.57

 105  0.500  0.667  0.377-  78 2.57  87 2.57  86 2.57  81 2.57  96 2.57  95 2.57  99 2.57  98 2.57

 106  0.833  0.000  0.377-  88 2.57  79 2.57  73 2.57  90 2.57  97 2.57  91 2.57  99 2.57  93 2.57

 107  0.833  0.333  0.377-  88 2.57  80 2.57  89 2.57  74 2.57  97 2.57  98 2.57  91 2.57  92 2.57

 108  0.833  0.667  0.377-  81 2.57  90 2.57  75 2.57  89 2.57  99 2.57  93 2.57  98 2.57  92 2.57

 
  LATTYP: Found a simple tetragonal cell.
 ALAT       =    10.8900003433
 C/A-ratio  =     2.2107437320
  
  Lattice vectors:
  
 A1 = (  10.8900003433,   0.0000000000,   0.0000000000)
 A2 = (   0.0000000000,  10.8900003433,   0.0000000000)
 A3 = (   0.0000000000,   0.0000000000,  24.0750000000)


Analysis of symmetry for initial positions (statically):
=====================================================================
 Subroutine PRICEL returns following result:
 
  LATTYP: Found a simple tetragonal cell.
 ALAT       =     2.5667976963
 C/A-ratio  =     9.3793913071
  
  Lattice vectors:
  
 A1 = (   1.8150000570,  -1.8150000570,   0.0000000000)
 A2 = (   1.8150000570,   1.8150000570,   0.0000000000)
 A3 = (   0.0000000000,   0.0000000000,  24.0750000000)
 
  18 primitive cells build up your supercell.
 

 Routine SETGRP: Setting up the symmetry group for a 
 simple tetragonal supercell.


 Subroutine GETGRP returns: Found 16 space group operations
 (whereof  8 operations were pure point group operations)
 out of a pool of 16 trial point group operations.


The static configuration has the point symmetry C_4v.
 The point group associated with its full space group is D_4h.


Analysis of symmetry for dynamics (positions and initial velocities):
=====================================================================
 Subroutine PRICEL returns following result:
 
  LATTYP: Found a simple tetragonal cell.
 ALAT       =     2.5667976963
 C/A-ratio  =     9.3793913071
  
  Lattice vectors:
  
 A1 = (   1.8150000570,  -1.8150000570,   0.0000000000)
 A2 = (   1.8150000570,   1.8150000570,   0.0000000000)
 A3 = (   0.0000000000,   0.0000000000,  24.0750000000)
 
  18 primitive cells build up your supercell.
 

 Routine SETGRP: Setting up the symmetry group for a 
 simple tetragonal supercell.


 Subroutine GETGRP returns: Found 16 space group operations
 (whereof  8 operations were pure point group operations)
 out of a pool of 16 trial point group operations.


The dynamic configuration has the point symmetry C_4v.
 The point group associated with its full space group is D_4h.


Analysis of constrained symmetry for selective dynamics:
=====================================================================
 Subroutine PRICEL returns following result:
 
  LATTYP: Found a simple tetragonal cell.
 ALAT       =     2.5667976963
 C/A-ratio  =     9.3793913071
  
  Lattice vectors:
  
 A1 = (   1.8150000570,  -1.8150000570,   0.0000000000)
 A2 = (   1.8150000570,   1.8150000570,   0.0000000000)
 A3 = (   0.0000000000,   0.0000000000,  24.0750000000)
 
  18 primitive cells build up your supercell.
 

 Routine SETGRP: Setting up the symmetry group for a 
 simple tetragonal supercell.


 Subroutine GETGRP returns: Found  8 space group operations
 (whereof  8 operations were pure point group operations)
 out of a pool of 16 trial point group operations.


The constrained configuration has the point symmetry C_4v.


Analysis of structural, dynamic, and magnetic symmetry:
=====================================================================
 Subroutine PRICEL returns following result:
 
  LATTYP: Found a simple tetragonal cell.
 ALAT       =     2.5667976963
 C/A-ratio  =     9.3793913071
  
  Lattice vectors:
  
 A1 = (   1.8150000570,  -1.8150000570,   0.0000000000)
 A2 = (   1.8150000570,   1.8150000570,   0.0000000000)
 A3 = (   0.0000000000,   0.0000000000,  24.0750000000)
 
  18 primitive cells build up your supercell.
 

 Routine SETGRP: Setting up the symmetry group for a 
 simple tetragonal supercell.


 Subroutine GETGRP returns: Found  8 space group operations
 (whereof  8 operations were pure point group operations)
 out of a pool of 16 trial point group operations.


The overall configuration has the point symmetry C_4v.


 Subroutine INISYM returns: Found  8 space group operations
 (whereof  8 operations are pure point group operations),
 and found    18 'primitive' translations


----------------------------------------------------------------------------------------

                                     Primitive cell                                     

  volume of cell :     158.6169

  direct lattice vectors                    reciprocal lattice vectors
     1.815000057 -1.815000057  0.000000000     0.275482085 -0.275482085  0.000000000
     1.815000057  1.815000057  0.000000000     0.275482085  0.275482085  0.000000000
     0.000000000  0.000000000 24.075000000     0.000000000  0.000000000  0.041536864

  length of vectors
     2.566797696  2.566797696 24.075000000     0.389590501  0.389590501  0.041536864

  position of ions in fractional coordinates (direct lattice)
     0.000000000  0.000000000  0.000000000
     0.500000000  0.500000000  0.075389409
     0.000000000  0.000000000  0.150778818
     0.500000000  0.500000000  0.226168228
     0.000000000  0.000000000  0.301557637
     0.500000000  0.500000000  0.376947046

  ion indices of the primitive-cell ions
   primitive index   ion index
                 1           1
                 2          19
                 3          37
                 4          55
                 5          73
                 6          91

----------------------------------------------------------------------------------------

 
 
 KPOINTS: Auto-mesh                               

Automatic generation of k-mesh.
 Grid dimensions read from file:
 generate k-points for:    3    3    1

 Generating k-lattice:

  Cartesian coordinates                     Fractional coordinates (reciprocal lattice)
     0.030609121  0.000000000  0.000000000     0.333333333  0.000000000  0.000000000
     0.000000000  0.030609121  0.000000000     0.000000000  0.333333333  0.000000000
     0.000000000  0.000000000  0.041536864     0.000000000  0.000000000  1.000000000

  Length of vectors
     0.030609121  0.030609121  0.041536864

  Shift w.r.t. Gamma in fractional coordinates (k-lattice)
     0.000000000  0.000000000  0.000000000

 
 Subroutine IBZKPT returns following result:
 ===========================================
 
 Found      3 irreducible k-points:
 
 Following reciprocal coordinates:
            Coordinates               Weight
  0.000000  0.000000  0.000000      1.000000
  0.333333  0.000000  0.000000      4.000000
  0.333333  0.333333  0.000000      4.000000
 
 Following cartesian coordinates:
            Coordinates               Weight
  0.000000  0.000000  0.000000      1.000000
  0.030609  0.000000  0.000000      4.000000
  0.030609  0.030609  0.000000      4.000000
 


--------------------------------------------------------------------------------------------------------




 Dimension of arrays:
   k-points           NKPTS =      3   k-points in BZ     NKDIM =      3   number of bands    NBANDS=    768
   number of dos      NEDOS =    301   number of ions     NIONS =    108
   non local maximal  LDIM  =      6   non local SUM 2l+1 LMDIM =     18
   total plane-waves  NPLWV = 349920
   max r-space proj   IRMAX =      1   max aug-charges    IRDMAX=   3749
   dimension x,y,z NGX =    54 NGY =   54 NGZ =  120
   dimension x,y,z NGXF=   108 NGYF=  108 NGZF=  240
   support grid    NGXF=   108 NGYF=  108 NGZF=  240
   ions per type =             108
   NGX,Y,Z   is equivalent  to a cutoff of   8.24,  8.24,  8.29 a.u.
   NGXF,Y,Z  is equivalent  to a cutoff of  16.49, 16.49, 16.57 a.u.

 SYSTEM =  unknown system                          
 POSCAR =  FCC Cu                                  

 Startparameter for this run:
   NWRITE =      2    write-flag & timer
   PREC   = normal    normal or accurate (medium, high low for compatibility)
   ISTART =      0    job   : 0-new  1-cont  2-samecut
   ICHARG =      2    charge: 1-file 2-atom 10-const
   ISPIN  =      2    spin polarized calculation?
   LNONCOLLINEAR =      F non collinear calculations
   LSORBIT =      F    spin-orbit coupling
   INIWAV =      1    electr: 0-lowe 1-rand  2-diag
   LASPH  =      F    aspherical Exc in radial PAW
 Electronic Relaxation 1
   ENCUT  =  400.0 eV  29.40 Ry    5.42 a.u.  17.76 17.76 39.26*2*pi/ulx,y,z
   ENINI  =  400.0     initial cutoff
   ENAUG  =  587.0 eV  augmentation charge cutoff
   NELM   =     60;   NELMIN=  2; NELMDL= -5     # of ELM steps 
   EDIFF  = 0.2E-03   stopping-criterion for ELM
   LREAL  =      F    real-space projection
   NLSPLINE    = F    spline interpolate recip. space projectors
   LCOMPAT=      F    compatible to vasp.4.4
   GGA_COMPAT  = T    GGA compatible to vasp.4.4-vasp.4.6
   LMAXPAW     = -100 max onsite density
   LMAXMIX     =    2 max onsite mixed and CHGCAR
   VOSKOWN=      0    Vosko Wilk Nusair interpolation
   ROPT   =    0.00000
 Ionic relaxation
   EDIFFG = -.3E-01   stopping-criterion for IOM
   NSW    =    800    number of steps for IOM
   NBLOCK =      1;   KBLOCK =    800    inner block; outer block 
   IBRION =      2    ionic relax: 0-MD 1-quasi-New 2-CG
   NFREE  =      1    steps in history (QN), initial steepest desc. (CG)
   ISIF   =      2    stress and relaxation
   IWAVPR =     11    prediction:  0-non 1-charg 2-wave 3-comb
   ISYM   =      1    0-nonsym 1-usesym 2-fastsym
   LCORR  =      T    Harris-Foulkes like correction to forces

   POTIM  = 0.5000    time-step for ionic-motion
   TEIN   =    0.0    initial temperature
   TEBEG  =    0.0;   TEEND  =   0.0 temperature during run
   SMASS  =  -3.00    Nose mass-parameter (am)
   estimated Nose-frequenzy (Omega)   =  0.10E-29 period in steps = 0.13E+47 mass=  -0.271E-26a.u.
   SCALEE = 1.0000    scale energy and forces
   NPACO  =    256;   APACO  = 10.0  distance and # of slots for P.C.
   PSTRESS=    0.0 pullay stress

  Mass of Ions in am
   POMASS =  63.55
  Ionic Valenz
   ZVAL   =  11.00
  Atomic Wigner-Seitz radii
   RWIGS  =  -1.00
  virtual crystal weights 
   VCA    =   1.00
   NELECT =    1188.0000    total number of electrons
   NUPDOWN=      -1.0000    fix difference up-down

 DOS related values:
   EMIN   =  10.00;   EMAX   =-10.00  energy-range for DOS
   EFERMI =   0.00
   ISMEAR =     1;   SIGMA  =   0.20  broadening in eV -4-tet -1-fermi 0-gaus

 Electronic relaxation 2 (details)
   IALGO  =     38    algorithm
   LDIAG  =      T    sub-space diagonalisation (order eigenvalues)
   LSUBROT=      F    optimize rotation matrix (better conditioning)
   TURBO    =      0    0=normal 1=particle mesh
   IRESTART =      0    0=no restart 2=restart with 2 vectors
   NREBOOT  =      0    no. of reboots
   NMIN     =      0    reboot dimension
   EREF     =   0.00    reference energy to select bands
   IMIX   =      4    mixing-type and parameters
     AMIX     =   0.40;   BMIX     =  1.00
     AMIX_MAG =   1.60;   BMIX_MAG =  1.00
     AMIN     =   0.10
     WC   =   100.;   INIMIX=   1;  MIXPRE=   1;  MAXMIX= -45

 Intra band minimization:
   WEIMIN = 0.0010     energy-eigenvalue tresh-hold
   EBREAK =  0.65E-07  absolut break condition
   DEPER  =   0.30     relativ break condition  

   TIME   =   0.40     timestep for ELM

  volume/ion in A,a.u.               =      26.44       178.40
  Fermi-wavevector in a.u.,A,eV,Ry     =   1.222193  2.309609 20.323764  1.493755
  Thomas-Fermi vector in A             =   2.357348
 
 Write flags
   LWAVE        =      F    write WAVECAR
   LDOWNSAMPLE  =      F    k-point downsampling of WAVECAR
   LCHARG       =      F    write CHGCAR
   LVTOT        =      F    write LOCPOT, total local potential
   LVHAR        =      F    write LOCPOT, Hartree potential only
   LELF         =      F    write electronic localiz. function (ELF)
   LORBIT       =      0    0 simple, 1 ext, 2 COOP (PROOUT), +10 PAW based schemes


 Dipole corrections
   LMONO  =      F    monopole corrections only (constant potential shift)
   LDIPOL =      F    correct potential (dipole corrections)
   IDIPOL =      3    1-x, 2-y, 3-z, 4-all directions 
   EPSILON=  1.0000000 bulk dielectric constant

 Exchange correlation treatment:
   GGA     =    PE    GGA type
   LEXCH   =     8    internal setting for exchange type
   LIBXC   =     F    Libxc                    
   VOSKOWN =     0    Vosko Wilk Nusair interpolation
   LHFCALC =     F    Hartree Fock is set to
   LHFONE  =     F    Hartree Fock one center treatment
   AEXX    =    0.0000 exact exchange contribution

 Linear response parameters
   LEPSILON=     F    determine dielectric tensor
   LRPA    =     F    only Hartree local field effects (RPA)
   LNABLA  =     F    use nabla operator in PAW spheres
   LVEL    =     F    velocity operator in full k-point grid
   CSHIFT  =0.1000    complex shift for real part using Kramers Kronig
   OMEGAMAX=  -1.0    maximum frequency
   DEG_THRESHOLD= 0.2000000E-02 threshold for treating states as degnerate
   RTIME   =   -0.100 relaxation time in fs
  (WPLASMAI=    0.000 imaginary part of plasma frequency in eV, 0.658/RTIME)
   DFIELD  = 0.0000000 0.0000000 0.0000000 field for delta impulse in time
 
  Optional k-point grid parameters
   LKPOINTS_OPT  =     F    use optional k-point grid
   KPOINTS_OPT_MODE=     1    mode for optional k-point grid
 
 Orbital magnetization related:
   ORBITALMAG=     F  switch on orbital magnetization
   LCHIMAG   =     F  perturbation theory with respect to B field
   DQ        =  0.001000  dq finite difference perturbation B field
   LLRAUG    =     F  two centre corrections for induced B field



--------------------------------------------------------------------------------------------------------


 conjugate gradient relaxation of ions
   using selective dynamics as specified on POSCAR
   WARNING: If single coordinates had been selected the selection of coordinates
            is made according to the corresponding   d i r e c t   coordinates!
            Don't support selection of single cartesian coordinates -- sorry ...
  !
 charge density and potential will be updated during run
 spin polarized calculation
 Variant of blocked Davidson
 Davidson routine will perform the subspace rotation
 perform sub-space diagonalisation
    after iterative eigenvector-optimisation
 modified Broyden-mixing scheme, WC =      100.0
 initial mixing is a Kerker type mixing with AMIX =  0.4000 and BMIX =      1.0000
 Hartree-type preconditioning will be used
 using additional bands          174
 reciprocal scheme for non local part
 use partial core corrections
 calculate Harris-corrections to forces 
   (improved forces if not selfconsistent)
 use gradient corrections 
 use of overlap-Matrix (Vanderbilt PP)
 Methfessel and Paxton  Order N= 1 SIGMA  =   0.20


--------------------------------------------------------------------------------------------------------


  energy-cutoff  :      400.00
  volume of cell :     2855.10
      direct lattice vectors                 reciprocal lattice vectors
    10.890000343  0.000000000  0.000000000     0.091827362  0.000000000  0.000000000
     0.000000000 10.890000343  0.000000000     0.000000000  0.091827362  0.000000000
     0.000000000  0.000000000 24.075000000     0.000000000  0.000000000  0.041536864

  length of vectors
    10.890000343 10.890000343 24.075000000     0.091827362  0.091827362  0.041536864


 
 k-points in units of 2pi/SCALE and weight: Auto-mesh                               
   0.00000000  0.00000000  0.00000000       0.111
   0.03060912  0.00000000  0.00000000       0.444
   0.03060912  0.03060912  0.00000000       0.444
 
 k-points in reciprocal lattice and weights: Auto-mesh                               
   0.00000000  0.00000000  0.00000000       0.111
   0.33333333  0.00000000  0.00000000       0.444
   0.33333333  0.33333333  0.00000000       0.444
 
 position of ions in fractional coordinates (direct lattice) 
   0.00000000  0.00000000  0.00000000
   0.00000000  0.33333333  0.00000000
   0.00000000  0.66666667  0.00000000
   0.33333333  0.00000000  0.00000000
   0.33333333  0.33333333  0.00000000
   0.33333333  0.66666667  0.00000000
   0.66666667  0.00000000  0.00000000
   0.66666667  0.33333333  0.00000000
   0.66666667  0.66666667  0.00000000
   0.16666667  0.16666667  0.00000000
   0.16666667  0.50000000  0.00000000
   0.16666667  0.83333333  0.00000000
   0.50000000  0.16666667  0.00000000
   0.50000000  0.50000000  0.00000000
   0.50000000  0.83333333  0.00000000
   0.83333333  0.16666667  0.00000000
   0.83333333  0.50000000  0.00000000
   0.83333333  0.83333333  0.00000000
   0.00000000  0.16666667  0.07538941
   0.00000000  0.50000000  0.07538941
   0.00000000  0.83333333  0.07538941
   0.33333333  0.16666667  0.07538941
   0.33333333  0.50000000  0.07538941
   0.33333333  0.83333333  0.07538941
   0.66666667  0.16666667  0.07538941
   0.66666667  0.50000000  0.07538941
   0.66666667  0.83333333  0.07538941
   0.16666667  0.00000000  0.07538941
   0.16666667  0.33333333  0.07538941
   0.16666667  0.66666667  0.07538941
   0.50000000  0.00000000  0.07538941
   0.50000000  0.33333333  0.07538941
   0.50000000  0.66666667  0.07538941
   0.83333333  0.00000000  0.07538941
   0.83333333  0.33333333  0.07538941
   0.83333333  0.66666667  0.07538941
   0.00000000  0.00000000  0.15077882
   0.00000000  0.33333333  0.15077882
   0.00000000  0.66666667  0.15077882
   0.33333333  0.00000000  0.15077882
   0.33333333  0.33333333  0.15077882
   0.33333333  0.66666667  0.15077882
   0.66666667  0.00000000  0.15077882
   0.66666667  0.33333333  0.15077882
   0.66666667  0.66666667  0.15077882
   0.16666667  0.16666667  0.15077882
   0.16666667  0.50000000  0.15077882
   0.16666667  0.83333333  0.15077882
   0.50000000  0.16666667  0.15077882
   0.50000000  0.50000000  0.15077882
   0.50000000  0.83333333  0.15077882
   0.83333333  0.16666667  0.15077882
   0.83333333  0.50000000  0.15077882
   0.83333333  0.83333333  0.15077882
   0.00000000  0.16666667  0.22616823
   0.00000000  0.50000000  0.22616823
   0.00000000  0.83333333  0.22616823
   0.33333333  0.16666667  0.22616823
   0.33333333  0.50000000  0.22616823
   0.33333333  0.83333333  0.22616823
   0.66666667  0.16666667  0.22616823
   0.66666667  0.50000000  0.22616823
   0.66666667  0.83333333  0.22616823
   0.16666667  0.00000000  0.22616823
   0.16666667  0.33333333  0.22616823
   0.16666667  0.66666667  0.22616823
   0.50000000  0.00000000  0.22616823
   0.50000000  0.33333333  0.22616823
   0.50000000  0.66666667  0.22616823
   0.83333333  0.00000000  0.22616823
   0.83333333  0.33333333  0.22616823
   0.83333333  0.66666667  0.22616823
   0.00000000  0.00000000  0.30155764
   0.00000000  0.33333333  0.30155764
   0.00000000  0.66666667  0.30155764
   0.33333333  0.00000000  0.30155764
   0.33333333  0.33333333  0.30155764
   0.33333333  0.66666667  0.30155764
   0.66666667  0.00000000  0.30155764
   0.66666667  0.33333333  0.30155764
   0.66666667  0.66666667  0.30155764
   0.16666667  0.16666667  0.30155764
   0.16666667  0.50000000  0.30155764
   0.16666667  0.83333333  0.30155764
   0.50000000  0.16666667  0.30155764
   0.50000000  0.50000000  0.30155764
   0.50000000  0.83333333  0.30155764
   0.83333333  0.16666667  0.30155764
   0.83333333  0.50000000  0.30155764
   0.83333333  0.83333333  0.30155764
   0.00000000  0.16666667  0.37694705
   0.00000000  0.50000000  0.37694705
   0.00000000  0.83333333  0.37694705
   0.33333333  0.16666667  0.37694705
   0.33333333  0.50000000  0.37694705
   0.33333333  0.83333333  0.37694705
   0.66666667  0.16666667  0.37694705
   0.66666667  0.50000000  0.37694705
   0.66666667  0.83333333  0.37694705
   0.16666667  0.00000000  0.37694705
   0.16666667  0.33333333  0.37694705
   0.16666667  0.66666667  0.37694705
   0.50000000  0.00000000  0.37694705
   0.50000000  0.33333333  0.37694705
   0.50000000  0.66666667  0.37694705
   0.83333333  0.00000000  0.37694705
   0.83333333  0.33333333  0.37694705
   0.83333333  0.66666667  0.37694705
 
 position of ions in cartesian coordinates  (Angst):
   0.00000000  0.00000000  0.00000000
   0.00000000  3.63000011  0.00000000
   0.00000000  7.26000023  0.00000000
   3.63000011  0.00000000  0.00000000
   3.63000011  3.63000011  0.00000000
   3.63000011  7.26000023  0.00000000
   7.26000023  0.00000000  0.00000000
   7.26000023  3.63000011  0.00000000
   7.26000023  7.26000023  0.00000000
   1.81500006  1.81500006  0.00000000
   1.81500006  5.44500017  0.00000000
   1.81500006  9.07500029  0.00000000
   5.44500017  1.81500006  0.00000000
   5.44500017  5.44500017  0.00000000
   5.44500017  9.07500029  0.00000000
   9.07500029  1.81500006  0.00000000
   9.07500029  5.44500017  0.00000000
   9.07500029  9.07500029  0.00000000
   0.00000000  1.81500006  1.81500003
   0.00000000  5.44500017  1.81500003
   0.00000000  9.07500029  1.81500003
   3.63000011  1.81500006  1.81500003
   3.63000011  5.44500017  1.81500003
   3.63000011  9.07500029  1.81500003
   7.26000023  1.81500006  1.81500003
   7.26000023  5.44500017  1.81500003
   7.26000023  9.07500029  1.81500003
   1.81500006  0.00000000  1.81500003
   1.81500006  3.63000011  1.81500003
   1.81500006  7.26000023  1.81500003
   5.44500017  0.00000000  1.81500003
   5.44500017  3.63000011  1.81500003
   5.44500017  7.26000023  1.81500003
   9.07500029  0.00000000  1.81500003
   9.07500029  3.63000011  1.81500003
   9.07500029  7.26000023  1.81500003
   0.00000000  0.00000000  3.63000005
   0.00000000  3.63000011  3.63000005
   0.00000000  7.26000023  3.63000005
   3.63000011  0.00000000  3.63000005
   3.63000011  3.63000011  3.63000005
   3.63000011  7.26000023  3.63000005
   7.26000023  0.00000000  3.63000005
   7.26000023  3.63000011  3.63000005
   7.26000023  7.26000023  3.63000005
   1.81500006  1.81500006  3.63000005
   1.81500006  5.44500017  3.63000005
   1.81500006  9.07500029  3.63000005
   5.44500017  1.81500006  3.63000005
   5.44500017  5.44500017  3.63000005
   5.44500017  9.07500029  3.63000005
   9.07500029  1.81500006  3.63000005
   9.07500029  5.44500017  3.63000005
   9.07500029  9.07500029  3.63000005
   0.00000000  1.81500006  5.44500008
   0.00000000  5.44500017  5.44500008
   0.00000000  9.07500029  5.44500008
   3.63000011  1.81500006  5.44500008
   3.63000011  5.44500017  5.44500008
   3.63000011  9.07500029  5.44500008
   7.26000023  1.81500006  5.44500008
   7.26000023  5.44500017  5.44500008
   7.26000023  9.07500029  5.44500008
   1.81500006  0.00000000  5.44500008
   1.81500006  3.63000011  5.44500008
   1.81500006  7.26000023  5.44500008
   5.44500017  0.00000000  5.44500008
   5.44500017  3.63000011  5.44500008
   5.44500017  7.26000023  5.44500008
   9.07500029  0.00000000  5.44500008
   9.07500029  3.63000011  5.44500008
   9.07500029  7.26000023  5.44500008
   0.00000000  0.00000000  7.26000010
   0.00000000  3.63000011  7.26000010
   0.00000000  7.26000023  7.26000010
   3.63000011  0.00000000  7.26000010
   3.63000011  3.63000011  7.26000010
   3.63000011  7.26000023  7.26000010
   7.26000023  0.00000000  7.26000010
   7.26000023  3.63000011  7.26000010
   7.26000023  7.26000023  7.26000010
   1.81500006  1.81500006  7.26000010
   1.81500006  5.44500017  7.26000010
   1.81500006  9.07500029  7.26000010
   5.44500017  1.81500006  7.26000010
   5.44500017  5.44500017  7.26000010
   5.44500017  9.07500029  7.26000010
   9.07500029  1.81500006  7.26000010
   9.07500029  5.44500017  7.26000010
   9.07500029  9.07500029  7.26000010
   0.00000000  1.81500006  9.07500013
   0.00000000  5.44500017  9.07500013
   0.00000000  9.07500029  9.07500013
   3.63000011  1.81500006  9.07500013
   3.63000011  5.44500017  9.07500013
   3.63000011  9.07500029  9.07500013
   7.26000023  1.81500006  9.07500013
   7.26000023  5.44500017  9.07500013
   7.26000023  9.07500029  9.07500013
   1.81500006  0.00000000  9.07500013
   1.81500006  3.63000011  9.07500013
   1.81500006  7.26000023  9.07500013
   5.44500017  0.00000000  9.07500013
   5.44500017  3.63000011  9.07500013
   5.44500017  7.26000023  9.07500013
   9.07500029  0.00000000  9.07500013
   9.07500029  3.63000011  9.07500013
   9.07500029  7.26000023  9.07500013
 


--------------------------------------------------------------------------------------------------------


 k-point   1 :   0.0000 0.0000 0.0000  plane waves:   51843
 k-point   2 :   0.3333 0.0000 0.0000  plane waves:   51856
 k-point   3 :   0.3333 0.3333 0.0000  plane waves:   51889

 maximum and minimum number of plane-waves per node :     10413    10303

 maximum number of plane-waves:     51889
 maximum index in each direction: 
   IXMAX=   17   IYMAX=   17   IZMAX=   39
   IXMIN=  -18   IYMIN=  -18   IZMIN=  -39


 parallel 3D FFT for wavefunctions:
    minimum data exchange during FFTs selected (reduces bandwidth)
 parallel 3D FFT for charge:
    minimum data exchange during FFTs selected (reduces bandwidth)


 total amount of memory used by VASP MPI-rank0   276769. kBytes
=======================================================================

   base      :      30000. kBytes
   nonl-proj :      22498. kBytes
   fftplans  :       7310. kBytes
   grid      :      16991. kBytes
   one-center:        684. kBytes
   wavefun   :     199286. kBytes
 
     INWAV:  cpu time      0.0000: real time      0.0005
 Broyden mixing: mesh for mixing (old mesh)
   NGX = 35   NGY = 35   NGZ = 79
  (NGX  =108   NGY  =108   NGZ  =240)
  gives a total of  96775 points

 initial charge density was supplied:
 charge density of overlapping atoms calculated
 number of electron    1188.0000000 magnetization     108.0000000
 keeping initial charge density in first step


--------------------------------------------------------------------------------------------------------


 Maximum index for augmentation-charges          353 (set IRDMAX)


--------------------------------------------------------------------------------------------------------


 First call to EWALD:  gamma=   0.125
 Maximum number of real-space cells 3x 3x 2
 Maximum number of reciprocal cells 2x 2x 4

    FEWALD:  cpu time      0.0059: real time      0.0059


--------------------------------------- Iteration      1(   1)  ---------------------------------------


    POTLOK:  cpu time      0.2142: real time      0.2158
    SETDIJ:  cpu time      0.0359: real time      0.0361
     EDDAV:  cpu time    264.1135: real time    266.8735
       DOS:  cpu time      0.0082: real time      0.0082
    --------------------------------------------
      LOOP:  cpu time    264.3718: real time    267.1336

 eigenvalue-minimisations  :  9224
 total energy-change (2. order) : 0.1119040E+05  (-0.4236776E+05)
 number of electron    1188.0000000 magnetization     108.0000000
 augmentation part     1188.0000000 magnetization     108.0000000

 Free energy of the ion-electron system (eV)
  ---------------------------------------------------
  alpha Z        PSCENC =      2987.70457159
  Ewald energy   TEWEN  =    544449.30831172
  -Hartree energ DENC   =   -690519.34154011
  -exchange      EXHF   =         0.00000000
  -V(xc)+E(xc)   XCENC  =      4931.25873833
  PAW double counting   =    132634.52957329  -144063.46060470
  entropy T*S    EENTRO =         0.00987371
  eigenvalues    EBANDS =     10546.96871279
  atomic energy  EATOM  =    150223.42514157
  Solvation  Ediel_sol  =         0.00000000
  ---------------------------------------------------
  free energy    TOTEN  =     11190.40277820 eV

  energy without entropy =    11190.39290448  energy(sigma->0) =    11190.39948696


--------------------------------------------------------------------------------------------------------




--------------------------------------- Iteration      1(   2)  ---------------------------------------


     EDDAV:  cpu time    263.9241: real time    266.8548
       DOS:  cpu time      0.0096: real time      0.0097
    --------------------------------------------
      LOOP:  cpu time    263.9337: real time    266.8645

 eigenvalue-minimisations  :  9216
 total energy-change (2. order) :-0.9743009E+04  (-0.9327213E+04)
 number of electron    1188.0000000 magnetization     108.0000000
 augmentation part     1188.0000000 magnetization     108.0000000

 Free energy of the ion-electron system (eV)
  ---------------------------------------------------
  alpha Z        PSCENC =      2987.70457159
  Ewald energy   TEWEN  =    544449.30831172
  -Hartree energ DENC   =   -690519.34154011
  -exchange      EXHF   =         0.00000000
  -V(xc)+E(xc)   XCENC  =      4931.25873833
  PAW double counting   =    132634.52957329  -144063.46060470
  entropy T*S    EENTRO =         0.01543631
  eigenvalues    EBANDS =       803.95404852
  atomic energy  EATOM  =    150223.42514157
  Solvation  Ediel_sol  =         0.00000000
  ---------------------------------------------------
  free energy    TOTEN  =      1447.39367653 eV

  energy without entropy =     1447.37824022  energy(sigma->0) =     1447.38853109


--------------------------------------------------------------------------------------------------------




--------------------------------------- Iteration      1(   3)  ---------------------------------------


     EDDAV:  cpu time    264.8673: real time    267.7261
       DOS:  cpu time      0.0101: real time      0.0101
    --------------------------------------------
      LOOP:  cpu time    264.8774: real time    267.7363

 eigenvalue-minimisations  :  9216
 total energy-change (2. order) :-0.1761766E+04  (-0.1587932E+04)
 number of electron    1188.0000000 magnetization     108.0000000
 augmentation part     1188.0000000 magnetization     108.0000000

 Free energy of the ion-electron system (eV)
  ---------------------------------------------------
  alpha Z        PSCENC =      2987.70457159
  Ewald energy   TEWEN  =    544449.30831172
  -Hartree energ DENC   =   -690519.34154011
  -exchange      EXHF   =         0.00000000
  -V(xc)+E(xc)   XCENC  =      4931.25873833
  PAW double counting   =    132634.52957329  -144063.46060470
  entropy T*S    EENTRO =        -0.03977085
  eigenvalues    EBANDS =      -957.75650960
  atomic energy  EATOM  =    150223.42514157
  Solvation  Ediel_sol  =         0.00000000
  ---------------------------------------------------
  free energy    TOTEN  =      -314.37208876 eV

  energy without entropy =     -314.33231791  energy(sigma->0) =     -314.35883181


--------------------------------------------------------------------------------------------------------




--------------------------------------- Iteration      1(   4)  ---------------------------------------


     EDDAV:  cpu time    287.1980: real time    290.6547
       DOS:  cpu time      0.0103: real time      0.0103
    --------------------------------------------
      LOOP:  cpu time    287.2083: real time    290.6650

 eigenvalue-minimisations  : 10248
 total energy-change (2. order) :-0.1333370E+03  (-0.1275118E+03)
 number of electron    1188.0000000 magnetization     108.0000000
 augmentation part     1188.0000000 magnetization     108.0000000

 Free energy of the ion-electron system (eV)
  ---------------------------------------------------
  alpha Z        PSCENC =      2987.70457159
  Ewald energy   TEWEN  =    544449.30831172
  -Hartree energ DENC   =   -690519.34154011
  -exchange      EXHF   =         0.00000000
  -V(xc)+E(xc)   XCENC  =      4931.25873833
  PAW double counting   =    132634.52957329  -144063.46060470
  entropy T*S    EENTRO =        -0.05035492
  eigenvalues    EBANDS =     -1091.08291936
  atomic energy  EATOM  =    150223.42514157
  Solvation  Ediel_sol  =         0.00000000
  ---------------------------------------------------
  free energy    TOTEN  =      -447.70908258 eV

  energy without entropy =     -447.65872767  energy(sigma->0) =     -447.69229761


--------------------------------------------------------------------------------------------------------




--------------------------------------- Iteration      1(   5)  ---------------------------------------


     EDDAV:  cpu time    290.5673: real time    293.8120
       DOS:  cpu time      0.0084: real time      0.0085
    CHARGE:  cpu time      3.3988: real time      3.4172
    MIXING:  cpu time      0.0259: real time      0.0260
    --------------------------------------------
      LOOP:  cpu time    294.0004: real time    297.2637

 eigenvalue-minimisations  : 10328
 total energy-change (2. order) :-0.3403920E+01  (-0.3388382E+01)
 number of electron    1188.0015598 magnetization      98.6315934
 augmentation part      703.7699201 magnetization      98.1437753

 Broyden mixing:
  rms(total) = 0.96121E+01    rms(broyden)= 0.96110E+01
  rms(prec ) = 0.99216E+01
  weight for this iteration     100.00

 Free energy of the ion-electron system (eV)
  ---------------------------------------------------
  alpha Z        PSCENC =      2987.70457159
  Ewald energy   TEWEN  =    544449.30831172
  -Hartree energ DENC   =   -690519.34154011
  -exchange      EXHF   =         0.00000000
  -V(xc)+E(xc)   XCENC  =      4931.25873833
  PAW double counting   =    132634.52957329  -144063.46060470
  entropy T*S    EENTRO =        -0.04716446
  eigenvalues    EBANDS =     -1094.49002975
  atomic energy  EATOM  =    150223.42514157
  Solvation  Ediel_sol  =         0.00000000
  ---------------------------------------------------
  free energy    TOTEN  =      -451.11300251 eV

  energy without entropy =     -451.06583805  energy(sigma->0) =     -451.09728103


--------------------------------------------------------------------------------------------------------




--------------------------------------- Iteration      1(   6)  ---------------------------------------


    POTLOK:  cpu time      0.2081: real time      0.2157
    SETDIJ:  cpu time      0.0337: real time      0.0338
     EDDAV:  cpu time    279.9587: real time    283.4053
       DOS:  cpu time      0.0071: real time      0.0071
    CHARGE:  cpu time      3.2360: real time      3.2576
    MIXING:  cpu time      0.0176: real time      0.0177
    --------------------------------------------
      LOOP:  cpu time    283.4611: real time    286.9372

 eigenvalue-minimisations  :  9880
 total energy-change (2. order) : 0.8228153E+02  (-0.1071782E+03)
 number of electron    1188.0017302 magnetization      92.8579573
 augmentation part      793.6488191 magnetization      68.0947467

 Broyden mixing:
  rms(total) = 0.49031E+01    rms(broyden)= 0.49006E+01
  rms(prec ) = 0.51223E+01
  weight for this iteration     100.00

 eigenvalues of (default mixing * dielectric matrix)
  average eigenvalue GAMMA=   0.7868
  0.7868

 Free energy of the ion-electron system (eV)
  ---------------------------------------------------
  alpha Z        PSCENC =      2987.70457159
  Ewald energy   TEWEN  =    544449.30831172
  -Hartree energ DENC   =   -687573.64031838
  -exchange      EXHF   =         0.00000000
  -V(xc)+E(xc)   XCENC  =      4807.79566461
  PAW double counting   =    134086.09266642  -144931.37737602
  entropy T*S    EENTRO =        -0.00811801
  eigenvalues    EBANDS =     -4418.13201493
  atomic energy  EATOM  =    150223.42514157
  Solvation  Ediel_sol  =         0.00000000
  ---------------------------------------------------
  free energy    TOTEN  =      -368.83147142 eV

  energy without entropy =     -368.82335341  energy(sigma->0) =     -368.82876542


--------------------------------------------------------------------------------------------------------




--------------------------------------- Iteration      1(   7)  ---------------------------------------


    POTLOK:  cpu time      0.2122: real time      0.2173
    SETDIJ:  cpu time      0.0340: real time      0.0341
     EDDAV:  cpu time    283.5918: real time    286.8172
       DOS:  cpu time      0.0060: real time      0.0060
    CHARGE:  cpu time      3.3059: real time      3.3251
    MIXING:  cpu time      0.0184: real time      0.0185
    --------------------------------------------
      LOOP:  cpu time    287.1683: real time    290.4182

 eigenvalue-minimisations  : 10024
 total energy-change (2. order) : 0.5137313E+02  (-0.2543056E+02)
 number of electron    1188.0016693 magnetization      86.6524597
 augmentation part      761.2680003 magnetization      61.6109801

 Broyden mixing:
  rms(total) = 0.24577E+01    rms(broyden)= 0.24571E+01
  rms(prec ) = 0.25153E+01
  weight for this iteration     100.00

 eigenvalues of (default mixing * dielectric matrix)
  average eigenvalue GAMMA=   0.8160
  1.0053  0.6267

 Free energy of the ion-electron system (eV)
  ---------------------------------------------------
  alpha Z        PSCENC =      2987.70457159
  Ewald energy   TEWEN  =    544449.30831172
  -Hartree energ DENC   =   -689186.46439910
  -exchange      EXHF   =         0.00000000
  -V(xc)+E(xc)   XCENC  =      4869.13744141
  PAW double counting   =    136874.47092244  -148268.97606082
  entropy T*S    EENTRO =         0.00283901
  eigenvalues    EBANDS =     -2266.06710478
  atomic energy  EATOM  =    150223.42514157
  Solvation  Ediel_sol  =         0.00000000
  ---------------------------------------------------
  free energy    TOTEN  =      -317.45833695 eV

  energy without entropy =     -317.46117596  energy(sigma->0) =     -317.45928329


--------------------------------------------------------------------------------------------------------




--------------------------------------- Iteration      1(   8)  ---------------------------------------


    POTLOK:  cpu time      0.1960: real time      0.2006
    SETDIJ:  cpu time      0.0339: real time      0.0340
     EDDAV:  cpu time    299.4081: real time    303.0112
       DOS:  cpu time      0.0065: real time      0.0065
    CHARGE:  cpu time      3.3295: real time      3.3470
    MIXING:  cpu time      0.0164: real time      0.0164
    --------------------------------------------
      LOOP:  cpu time    302.9904: real time    306.6159

 eigenvalue-minimisations  : 10760
 total energy-change (2. order) : 0.4976783E+01  (-0.7041475E+01)
 number of electron    1188.0016622 magnetization      79.4640874
 augmentation part      758.1682916 magnetization      53.5004469

 Broyden mixing:
  rms(total) = 0.23876E+01    rms(broyden)= 0.23872E+01
  rms(prec ) = 0.25198E+01
  weight for this iteration     100.00

 eigenvalues of (default mixing * dielectric matrix)
  average eigenvalue GAMMA=   0.7212
  1.1465  0.6507  0.3663

 Free energy of the ion-electron system (eV)
  ---------------------------------------------------
  alpha Z        PSCENC =      2987.70457159
  Ewald energy   TEWEN  =    544449.30831172
  -Hartree energ DENC   =   -689130.55535634
  -exchange      EXHF   =         0.00000000
  -V(xc)+E(xc)   XCENC  =      4874.55280798
  PAW double counting   =    138343.41030498  -149857.69351387
  entropy T*S    EENTRO =        -0.01108130
  eigenvalues    EBANDS =     -2202.62273982
  atomic energy  EATOM  =    150223.42514157
  Solvation  Ediel_sol  =         0.00000000
  ---------------------------------------------------
  free energy    TOTEN  =      -312.48155348 eV

  energy without entropy =     -312.47047218  energy(sigma->0) =     -312.47785971


--------------------------------------------------------------------------------------------------------




--------------------------------------- Iteration      1(   9)  ---------------------------------------


    POTLOK:  cpu time      0.1982: real time      0.2029
    SETDIJ:  cpu time      0.0338: real time      0.0340
     EDDAV:  cpu time    340.7207: real time    344.2309
       DOS:  cpu time      0.0086: real time      0.0086
    CHARGE:  cpu time      3.4066: real time      3.4252
    MIXING:  cpu time      0.0200: real time      0.0201
    --------------------------------------------
      LOOP:  cpu time    344.3879: real time    347.9218

 eigenvalue-minimisations  : 12648
 total energy-change (2. order) : 0.7380513E+01  (-0.2138090E+01)
 number of electron    1188.0016584 magnetization      58.3804832
 augmentation part      756.1619518 magnetization      32.1072842

 Broyden mixing:
  rms(total) = 0.18359E+01    rms(broyden)= 0.18358E+01
  rms(prec ) = 0.18476E+01
  weight for this iteration     100.00

 eigenvalues of (default mixing * dielectric matrix)
  average eigenvalue GAMMA=   1.0087
  1.4803  1.4803  0.7274  0.3467

 Free energy of the ion-electron system (eV)
  ---------------------------------------------------
  alpha Z        PSCENC =      2987.70457159
  Ewald energy   TEWEN  =    544449.30831172
  -Hartree energ DENC   =   -689393.09259425
  -exchange      EXHF   =         0.00000000
  -V(xc)+E(xc)   XCENC  =      4874.04353410
  PAW double counting   =    139708.26997668  -151313.52511488
  entropy T*S    EENTRO =        -0.03180548
  eigenvalues    EBANDS =     -1841.20306132
  atomic energy  EATOM  =    150223.42514157
  Solvation  Ediel_sol  =         0.00000000
  ---------------------------------------------------
  free energy    TOTEN  =      -305.10104026 eV

  energy without entropy =     -305.06923478  energy(sigma->0) =     -305.09043843


--------------------------------------------------------------------------------------------------------




--------------------------------------- Iteration      1(  10)  ---------------------------------------


    POTLOK:  cpu time      0.1961: real time      0.2010
    SETDIJ:  cpu time      0.0338: real time      0.0340
     EDDAV:  cpu time    344.6472: real time    348.5530
       DOS:  cpu time      0.0092: real time      0.0092
    CHARGE:  cpu time      3.3823: real time      3.4009
    MIXING:  cpu time      0.0304: real time      0.0305
    --------------------------------------------
      LOOP:  cpu time    348.2991: real time    352.2288

 eigenvalue-minimisations  : 12832
 total energy-change (2. order) :-0.4877211E+01  (-0.2642835E+01)
 number of electron    1188.0016714 magnetization      35.7076370
 augmentation part      763.4969711 magnetization      14.2265047

 Broyden mixing:
  rms(total) = 0.16674E+01    rms(broyden)= 0.16672E+01
  rms(prec ) = 0.17418E+01
  weight for this iteration     100.00

 eigenvalues of (default mixing * dielectric matrix)
  average eigenvalue GAMMA=   1.2398
  3.4964  1.1721  0.6713  0.5182  0.3412

 Free energy of the ion-electron system (eV)
  ---------------------------------------------------
  alpha Z        PSCENC =      2987.70457159
  Ewald energy   TEWEN  =    544449.30831172
  -Hartree energ DENC   =   -689078.70197665
  -exchange      EXHF   =         0.00000000
  -V(xc)+E(xc)   XCENC  =      4851.13724368
  PAW double counting   =    141538.20266967  -153157.33058951
  entropy T*S    EENTRO =         0.04917950
  eigenvalues    EBANDS =     -2123.77280333
  atomic energy  EATOM  =    150223.42514157
  Solvation  Ediel_sol  =         0.00000000
  ---------------------------------------------------
  free energy    TOTEN  =      -309.97825175 eV

  energy without entropy =     -310.02743126  energy(sigma->0) =     -309.99464492


--------------------------------------------------------------------------------------------------------




--------------------------------------- Iteration      1(  11)  ---------------------------------------


    POTLOK:  cpu time      0.1966: real time      0.2011
    SETDIJ:  cpu time      0.0339: real time      0.0340
     EDDAV:  cpu time    299.4884: real time    302.6366
       DOS:  cpu time      0.0083: real time      0.0084
    CHARGE:  cpu time      3.3657: real time      3.3847
    MIXING:  cpu time      0.0268: real time      0.0269
    --------------------------------------------
      LOOP:  cpu time    303.1197: real time    306.2916

 eigenvalue-minimisations  : 10824
 total energy-change (2. order) :-0.3710251E+01  (-0.1775792E+01)
 number of electron    1188.0016774 magnetization      23.8301074
 augmentation part      766.0016324 magnetization       5.5934193

 Broyden mixing:
  rms(total) = 0.14409E+01    rms(broyden)= 0.14407E+01
  rms(prec ) = 0.14981E+01
  weight for this iteration     100.00

 eigenvalues of (default mixing * dielectric matrix)
  average eigenvalue GAMMA=   1.4113
  5.0086  0.9881  0.8625  0.8625  0.3352  0.4111

 Free energy of the ion-electron system (eV)
  ---------------------------------------------------
  alpha Z        PSCENC =      2987.70457159
  Ewald energy   TEWEN  =    544449.30831172
  -Hartree energ DENC   =   -689282.12385449
  -exchange      EXHF   =         0.00000000
  -V(xc)+E(xc)   XCENC  =      4841.08367408
  PAW double counting   =    143334.08529430  -155026.98024992
  entropy T*S    EENTRO =         0.08545477
  eigenvalues    EBANDS =     -1840.27684602
  atomic energy  EATOM  =    150223.42514157
  Solvation  Ediel_sol  =         0.00000000
  ---------------------------------------------------
  free energy    TOTEN  =      -313.68850240 eV

  energy without entropy =     -313.77395717  energy(sigma->0) =     -313.71698732


--------------------------------------------------------------------------------------------------------




--------------------------------------- Iteration      1(  12)  ---------------------------------------


    POTLOK:  cpu time      0.1981: real time      0.2035
    SETDIJ:  cpu time      0.0453: real time      0.0455
     EDDAV:  cpu time    328.4764: real time    331.9523
       DOS:  cpu time      0.0085: real time      0.0086
    CHARGE:  cpu time      3.3529: real time      3.3706
    MIXING:  cpu time      0.0238: real time      0.0239
    --------------------------------------------
      LOOP:  cpu time    332.1050: real time    335.6044

 eigenvalue-minimisations  : 12104
 total energy-change (2. order) :-0.9245515E+01  (-0.8689270E+00)
 number of electron    1188.0016666 magnetization      15.7618943
 augmentation part      761.5477037 magnetization      -0.2263539

 Broyden mixing:
  rms(total) = 0.77378E+00    rms(broyden)= 0.77370E+00
  rms(prec ) = 0.84425E+00
  weight for this iteration     100.00

 eigenvalues of (default mixing * dielectric matrix)
  average eigenvalue GAMMA=   1.7328
  7.5132  1.4437  0.8739  0.8739  0.6874  0.3414  0.3963

 Free energy of the ion-electron system (eV)
  ---------------------------------------------------
  alpha Z        PSCENC =      2987.70457159
  Ewald energy   TEWEN  =    544449.30831172
  -Hartree energ DENC   =   -689702.72656167
  -exchange      EXHF   =         0.00000000
  -V(xc)+E(xc)   XCENC  =      4842.74516438
  PAW double counting   =    143578.44296680  -155335.22685286
  entropy T*S    EENTRO =         0.06664437
  eigenvalues    EBANDS =     -1366.67340319
  atomic energy  EATOM  =    150223.42514157
  Solvation  Ediel_sol  =         0.00000000
  ---------------------------------------------------
  free energy    TOTEN  =      -322.93401728 eV

  energy without entropy =     -323.00066165  energy(sigma->0) =     -322.95623207


--------------------------------------------------------------------------------------------------------




--------------------------------------- Iteration      1(  13)  ---------------------------------------


    POTLOK:  cpu time      0.1963: real time      0.2011
    SETDIJ:  cpu time      0.0339: real time      0.0340
     EDDAV:  cpu time    311.8486: real time    315.4439
       DOS:  cpu time      0.0070: real time      0.0070
    CHARGE:  cpu time      3.3487: real time      3.3677
    MIXING:  cpu time      0.0250: real time      0.0251
    --------------------------------------------
      LOOP:  cpu time    315.4594: real time    319.0788

 eigenvalue-minimisations  : 11392
 total energy-change (2. order) :-0.1841228E+02  (-0.1172631E+01)
 number of electron    1188.0016677 magnetization      11.9948687
 augmentation part      758.4297933 magnetization      -0.2276108

 Broyden mixing:
  rms(total) = 0.61280E+00    rms(broyden)= 0.61258E+00
  rms(prec ) = 0.87275E+00
  weight for this iteration     100.00

 eigenvalues of (default mixing * dielectric matrix)
  average eigenvalue GAMMA=   1.7722
  8.8644  1.7009  0.8901  0.8901  0.7530  0.4126  0.3334  0.3334

 Free energy of the ion-electron system (eV)
  ---------------------------------------------------
  alpha Z        PSCENC =      2987.70457159
  Ewald energy   TEWEN  =    544449.30831172
  -Hartree energ DENC   =   -689790.94637977
  -exchange      EXHF   =         0.00000000
  -V(xc)+E(xc)   XCENC  =      4837.67307747
  PAW double counting   =    142480.03594152  -154205.32458213
  entropy T*S    EENTRO =        -0.09788790
  eigenvalues    EBANDS =     -1323.12449130
  atomic energy  EATOM  =    150223.42514157
  Solvation  Ediel_sol  =         0.00000000
  ---------------------------------------------------
  free energy    TOTEN  =      -341.34629723 eV

  energy without entropy =     -341.24840932  energy(sigma->0) =     -341.31366792


--------------------------------------------------------------------------------------------------------




--------------------------------------- Iteration      1(  14)  ---------------------------------------


    POTLOK:  cpu time      0.1974: real time      0.2025
    SETDIJ:  cpu time      0.0339: real time      0.0340
     EDDAV:  cpu time    345.8748: real time    349.2759
       DOS:  cpu time      0.0086: real time      0.0086
    CHARGE:  cpu time      3.4158: real time      3.4389
    MIXING:  cpu time      0.0267: real time      0.0268
    --------------------------------------------
      LOOP:  cpu time    349.5571: real time    352.9868

 eigenvalue-minimisations  : 12824
 total energy-change (2. order) :-0.1054908E+02  (-0.9507173E+00)
 number of electron    1188.0016595 magnetization       7.8803530
 augmentation part      757.1261466 magnetization      -1.7569295

 Broyden mixing:
  rms(total) = 0.42318E+00    rms(broyden)= 0.42300E+00
  rms(prec ) = 0.47961E+00
  weight for this iteration     100.00

 eigenvalues of (default mixing * dielectric matrix)
  average eigenvalue GAMMA=   1.8232
 10.0003  2.1780  1.0590  0.7876  0.7876  0.6115  0.3907  0.3467  0.2473

 Free energy of the ion-electron system (eV)
  ---------------------------------------------------
  alpha Z        PSCENC =      2987.70457159
  Ewald energy   TEWEN  =    544449.30831172
  -Hartree energ DENC   =   -689766.60458083
  -exchange      EXHF   =         0.00000000
  -V(xc)+E(xc)   XCENC  =      4832.83406897
  PAW double counting   =    141764.45723212  -153460.12072583
  entropy T*S    EENTRO =        -0.11180388
  eigenvalues    EBANDS =     -1382.78759312
  atomic energy  EATOM  =    150223.42514157
  Solvation  Ediel_sol  =         0.00000000
  ---------------------------------------------------
  free energy    TOTEN  =      -351.89537768 eV

  energy without entropy =     -351.78357380  energy(sigma->0) =     -351.85810972


--------------------------------------------------------------------------------------------------------




--------------------------------------- Iteration      1(  15)  ---------------------------------------


    POTLOK:  cpu time      0.1980: real time      0.2033
    SETDIJ:  cpu time      0.0339: real time      0.0340
     EDDAV:  cpu time    320.6658: real time    324.1768
       DOS:  cpu time      0.3053: real time      0.3293
    CHARGE:  cpu time      3.5641: real time      3.7101
    MIXING:  cpu time      0.0190: real time      0.0191
    --------------------------------------------
      LOOP:  cpu time    324.7859: real time    328.4727

 eigenvalue-minimisations  : 11752
 total energy-change (2. order) :-0.1312309E+02  (-0.1323280E+01)
 number of electron    1188.0016604 magnetization       6.1208008
 augmentation part      756.8024199 magnetization       0.0568412

 Broyden mixing:
  rms(total) = 0.38830E+00    rms(broyden)= 0.38817E+00
  rms(prec ) = 0.41821E+00
  weight for this iteration     100.00

 eigenvalues of (default mixing * dielectric matrix)
  average eigenvalue GAMMA=   1.7216
 10.1690  2.3702  1.0396  0.7594  0.7594  0.5752  0.5752  0.3387  0.3998  0.2293

 Free energy of the ion-electron system (eV)
  ---------------------------------------------------
  alpha Z        PSCENC =      2987.70457159
  Ewald energy   TEWEN  =    544449.30831172
  -Hartree energ DENC   =   -689636.73452797
  -exchange      EXHF   =         0.00000000
  -V(xc)+E(xc)   XCENC  =      4824.56709944
  PAW double counting   =    140934.23351312  -152583.59621672
  entropy T*S    EENTRO =        -0.10681025
  eigenvalues    EBANDS =     -1563.81955149
  atomic energy  EATOM  =    150223.42514157
  Solvation  Ediel_sol  =         0.00000000
  ---------------------------------------------------
  free energy    TOTEN  =      -365.01846898 eV

[...]
   0.313E-06 0.814E-06 0.941E+03   -.253E-06 0.951E-08 -.941E+03   -.364E-22 0.209E-22 0.858E-01   0.680E-09 -.361E-10 0.692E-01
   0.313E-06 0.244E-05 0.941E+03   -.253E-06 0.668E-06 -.941E+03   -.174E-22 0.165E-23 0.858E-01   0.680E-09 -.673E-09 0.692E-01
   0.313E-06 0.313E-06 0.941E+03   -.253E-06 -.253E-06 -.941E+03   -.827E-22 0.480E-22 0.858E-01   0.680E-09 0.677E-09 0.692E-01
   -.342E-13 0.815E-06 -.924E+03   -.329E-06 0.954E-08 0.924E+03   -.298E-22 0.199E-22 -.426E-01   0.360E-09 -.803E-10 0.182E+00
   -.392E-13 0.244E-05 -.924E+03   -.329E-06 0.667E-06 0.924E+03   0.132E-22 -.165E-22 -.426E-01   0.358E-09 -.652E-09 0.182E+00
   -.229E-13 0.313E-06 -.924E+03   -.329E-06 -.254E-06 0.924E+03   -.529E-22 0.612E-22 -.426E-01   0.359E-09 0.388E-09 0.182E+00
   0.163E-05 0.815E-06 -.924E+03   0.399E-06 0.954E-08 0.924E+03   0.265E-22 0.265E-22 -.426E-01   -.555E-09 -.814E-10 0.182E+00
   0.163E-05 0.244E-05 -.924E+03   0.399E-06 0.667E-06 0.924E+03   -.265E-22 -.199E-22 -.426E-01   -.555E-09 -.653E-09 0.182E+00
   0.163E-05 0.313E-06 -.924E+03   0.399E-06 -.254E-06 0.924E+03   0.132E-22 0.629E-22 -.426E-01   -.556E-09 0.389E-09 0.182E+00
   -.501E-06 0.815E-06 -.924E+03   -.492E-06 0.954E-08 0.924E+03   -.132E-22 -.463E-22 -.426E-01   0.340E-09 -.806E-10 0.182E+00
   -.501E-06 0.244E-05 -.924E+03   -.492E-06 0.667E-06 0.924E+03   0.132E-22 -.538E-22 -.426E-01   0.342E-09 -.653E-09 0.182E+00
   -.501E-06 0.313E-06 -.924E+03   -.492E-06 -.254E-06 0.924E+03   0.879E-23 0.794E-22 -.426E-01   0.341E-09 0.388E-09 0.182E+00
   0.815E-06 -.729E-12 -.924E+03   0.952E-08 -.329E-06 0.924E+03   -.265E-22 -.558E-22 -.426E-01   -.805E-10 0.356E-09 0.182E+00
   0.815E-06 0.163E-05 -.924E+03   0.952E-08 0.399E-06 0.924E+03   -.265E-22 0.000E+00 -.426E-01   -.813E-10 -.554E-09 0.182E+00
   0.815E-06 -.501E-06 -.924E+03   0.952E-08 -.492E-06 0.924E+03   0.662E-23 -.463E-22 -.426E-01   -.818E-10 0.342E-09 0.182E+00
   0.244E-05 -.363E-12 -.924E+03   0.667E-06 -.329E-06 0.924E+03   -.397E-22 -.108E-22 -.426E-01   -.655E-09 0.357E-09 0.182E+00
   0.244E-05 0.163E-05 -.924E+03   0.667E-06 0.399E-06 0.924E+03   0.265E-22 -.993E-23 -.426E-01   -.654E-09 -.554E-09 0.182E+00
   0.244E-05 -.501E-06 -.924E+03   0.667E-06 -.492E-06 0.924E+03   -.132E-22 0.331E-23 -.426E-01   -.654E-09 0.342E-09 0.182E+00
   0.313E-06 -.754E-12 -.924E+03   -.254E-06 -.329E-06 0.924E+03   -.265E-22 0.132E-22 -.426E-01   0.391E-09 0.356E-09 0.182E+00
   0.313E-06 0.163E-05 -.924E+03   -.254E-06 0.399E-06 0.924E+03   0.529E-22 0.116E-22 -.426E-01   0.391E-09 -.552E-09 0.182E+00
   0.313E-06 -.501E-06 -.924E+03   -.254E-06 -.492E-06 0.924E+03   -.397E-22 -.331E-22 -.426E-01   0.391E-09 0.341E-09 0.182E+00
   -.292E-13 -.178E-11 -.279E+04   -.309E-06 -.309E-06 0.279E+04   0.447E-22 -.163E-22 0.435E+00   -.886E-10 -.916E-10 0.196E+00
   -.340E-13 0.163E-05 -.279E+04   -.309E-06 0.368E-06 0.279E+04   0.496E-22 0.513E-22 0.435E+00   -.894E-10 0.209E-09 0.196E+00
   -.309E-13 -.501E-06 -.279E+04   -.309E-06 -.482E-06 0.279E+04   -.165E-22 0.794E-22 0.435E+00   -.903E-10 -.831E-10 0.196E+00
   0.163E-05 -.163E-11 -.279E+04   0.368E-06 -.309E-06 0.279E+04   -.212E-21 -.104E-21 0.435E+00   0.205E-09 -.908E-10 0.196E+00
   0.163E-05 0.163E-05 -.279E+04   0.368E-06 0.368E-06 0.279E+04   -.993E-22 -.935E-22 0.435E+00   0.206E-09 0.208E-09 0.196E+00
   0.163E-05 -.501E-06 -.279E+04   0.368E-06 -.482E-06 0.279E+04   -.265E-22 -.662E-23 0.435E+00   0.206E-09 -.830E-10 0.196E+00
   -.501E-06 -.145E-11 -.279E+04   -.482E-06 -.309E-06 0.279E+04   -.492E-22 0.331E-22 0.435E+00   -.826E-10 -.915E-10 0.196E+00
   -.501E-06 0.163E-05 -.279E+04   -.482E-06 0.368E-06 0.279E+04   -.199E-22 0.149E-22 0.435E+00   -.820E-10 0.209E-09 0.196E+00
   -.501E-06 -.501E-06 -.279E+04   -.482E-06 -.482E-06 0.279E+04   -.496E-23 -.199E-22 0.435E+00   -.811E-10 -.835E-10 0.196E+00
   0.814E-06 0.814E-06 -.279E+04   0.643E-08 0.643E-08 0.279E+04   -.298E-22 -.178E-22 0.435E+00   0.576E-10 0.584E-10 0.196E+00
   0.814E-06 0.244E-05 -.279E+04   0.643E-08 0.642E-06 0.279E+04   0.993E-23 0.463E-22 0.435E+00   0.566E-10 0.242E-09 0.196E+00
   0.814E-06 0.313E-06 -.279E+04   0.643E-08 -.225E-06 0.279E+04   -.893E-22 0.560E-22 0.435E+00   0.568E-10 -.978E-10 0.196E+00
   0.244E-05 0.814E-06 -.279E+04   0.642E-06 0.643E-08 0.279E+04   -.258E-21 -.463E-22 0.435E+00   0.241E-09 0.582E-10 0.196E+00
   0.244E-05 0.244E-05 -.279E+04   0.642E-06 0.642E-06 0.279E+04   -.139E-21 -.136E-21 0.435E+00   0.242E-09 0.242E-09 0.196E+00
   0.244E-05 0.313E-06 -.279E+04   0.642E-06 -.225E-06 0.279E+04   -.331E-22 -.716E-22 0.435E+00   0.242E-09 -.980E-10 0.196E+00
   0.313E-06 0.814E-06 -.279E+04   -.225E-06 0.643E-08 0.279E+04   -.199E-22 -.209E-22 0.435E+00   -.954E-10 0.596E-10 0.196E+00
   0.313E-06 0.244E-05 -.279E+04   -.225E-06 0.642E-06 0.279E+04   -.199E-22 0.629E-22 0.435E+00   -.958E-10 0.243E-09 0.196E+00
   0.313E-06 0.313E-06 -.279E+04   -.225E-06 -.225E-06 0.279E+04   0.199E-22 0.331E-23 0.435E+00   -.954E-10 -.994E-10 0.196E+00
   -.361E-13 0.835E-06 -.459E+04   -.236E-06 0.434E-08 0.459E+04   0.827E-22 0.993E-23 0.363E+01   -.492E-09 0.354E-10 0.106E+00
   -.258E-13 0.251E-05 -.459E+04   -.236E-06 0.487E-06 0.459E+04   0.926E-22 -.199E-22 0.363E+01   -.493E-09 0.631E-09 0.106E+00
   -.412E-13 0.321E-06 -.459E+04   -.236E-06 -.176E-06 0.459E+04   0.314E-22 -.877E-22 0.363E+01   -.493E-09 -.575E-09 0.106E+00
   0.167E-05 0.835E-06 -.459E+04   0.284E-06 0.434E-08 0.459E+04   -.132E-22 -.182E-22 0.363E+01   0.592E-09 0.366E-10 0.106E+00
   0.167E-05 0.251E-05 -.459E+04   0.284E-06 0.487E-06 0.459E+04   0.926E-22 -.273E-22 0.363E+01   0.592E-09 0.630E-09 0.106E+00
   0.167E-05 0.321E-06 -.459E+04   0.284E-06 -.176E-06 0.459E+04   0.529E-22 0.298E-22 0.363E+01   0.592E-09 -.575E-09 0.106E+00
   -.514E-06 0.835E-06 -.459E+04   -.363E-06 0.433E-08 0.459E+04   -.662E-23 -.951E-22 0.363E+01   -.397E-09 0.359E-10 0.106E+00
   -.514E-06 0.251E-05 -.459E+04   -.363E-06 0.487E-06 0.459E+04   0.106E-21 0.612E-22 0.363E+01   -.396E-09 0.631E-09 0.106E+00
   -.514E-06 0.321E-06 -.459E+04   -.363E-06 -.176E-06 0.459E+04   0.265E-22 -.331E-23 0.363E+01   -.395E-09 -.576E-09 0.106E+00
   0.835E-06 -.444E-13 -.459E+04   0.432E-08 -.236E-06 0.459E+04   0.228E-21 -.170E-22 0.363E+01   0.339E-10 -.493E-09 0.106E+00
   0.835E-06 0.167E-05 -.459E+04   0.432E-08 0.284E-06 0.459E+04   0.132E-22 0.993E-23 0.363E+01   0.347E-10 0.595E-09 0.106E+00
   0.835E-06 -.514E-06 -.459E+04   0.432E-08 -.363E-06 0.459E+04   0.265E-22 0.438E-22 0.363E+01   0.339E-10 -.398E-09 0.106E+00
   0.251E-05 0.608E-13 -.459E+04   0.487E-06 -.236E-06 0.459E+04   0.496E-23 -.269E-23 0.363E+01   0.630E-09 -.493E-09 0.106E+00
   0.251E-05 0.167E-05 -.459E+04   0.487E-06 0.284E-06 0.459E+04   0.618E-22 0.331E-23 0.363E+01   0.629E-09 0.595E-09 0.106E+00
   0.251E-05 -.514E-06 -.459E+04   0.487E-06 -.363E-06 0.459E+04   0.119E-21 -.331E-22 0.363E+01   0.630E-09 -.399E-09 0.106E+00
   0.321E-06 0.621E-12 -.459E+04   -.176E-06 -.236E-06 0.459E+04   0.265E-22 -.331E-23 0.363E+01   -.572E-09 -.495E-09 0.106E+00
   0.321E-06 0.167E-05 -.459E+04   -.176E-06 0.284E-06 0.459E+04   0.794E-22 -.331E-22 0.363E+01   -.572E-09 0.596E-09 0.106E+00
   0.321E-06 -.514E-06 -.459E+04   -.176E-06 -.363E-06 0.459E+04   0.000E+00 -.121E-21 0.363E+01   -.572E-09 -.398E-09 0.106E+00
 -----------------------------------------------------------------------------------------------
   0.854E-04 0.854E-04 -.655E+01   -.444E-12 -.245E-12 0.646E-10   -.783E-21 -.607E-21 -.398E+01   0.209E-09 0.207E-09 0.104E+02
 
 
 POSITION                                       TOTAL-FORCE (eV/Angst)
 -----------------------------------------------------------------------------------
      0.00000      0.00000      0.00000        -0.000000     -0.000000      0.290255
      0.00000      3.63000      0.00000        -0.000000     -0.000000      0.290255
      0.00000      7.26000      0.00000        -0.000000      0.000000      0.290255
      3.63000      0.00000      0.00000        -0.000000      0.000000      0.290255
      3.63000      3.63000      0.00000        -0.000000     -0.000000      0.290255
      3.63000      7.26000      0.00000        -0.000000      0.000000      0.290255
      7.26000      0.00000      0.00000         0.000000     -0.000000      0.290255
      7.26000      3.63000      0.00000         0.000000      0.000000      0.290255
      7.26000      7.26000      0.00000         0.000000     -0.000000      0.290255
      1.81500      1.81500      0.00000        -0.000000     -0.000000      0.290255
      1.81500      5.44500      0.00000        -0.000000      0.000000      0.290255
      1.81500      9.07500      0.00000        -0.000000      0.000000      0.290255
      5.44500      1.81500      0.00000        -0.000000     -0.000000      0.290255
      5.44500      5.44500      0.00000        -0.000000      0.000000      0.290255
      5.44500      9.07500      0.00000         0.000000      0.000000      0.290255
      9.07500      1.81500      0.00000        -0.000000     -0.000000      0.290255
      9.07500      5.44500      0.00000        -0.000000      0.000000      0.290255
      9.07500      9.07500      0.00000        -0.000000     -0.000000      0.290255
      0.00000      1.81500      1.81500         0.000000      0.000000     -0.316215
      0.00000      5.44500      1.81500         0.000000      0.000000     -0.316215
      0.00000      9.07500      1.81500         0.000000     -0.000000     -0.316215
      3.63000      1.81500      1.81500         0.000000     -0.000000     -0.316215
      3.63000      5.44500      1.81500         0.000000     -0.000000     -0.316215
      3.63000      9.07500      1.81500        -0.000000     -0.000000     -0.316215
      7.26000      1.81500      1.81500        -0.000000      0.000000     -0.316215
      7.26000      5.44500      1.81500        -0.000000     -0.000000     -0.316215
      7.26000      9.07500      1.81500        -0.000000      0.000000     -0.316215
      1.81500      0.00000      1.81500         0.000000      0.000000     -0.316215
      1.81500      3.63000      1.81500         0.000000      0.000000     -0.316215
      1.81500      7.26000      1.81500         0.000000     -0.000000     -0.316215
      5.44500      0.00000      1.81500        -0.000000      0.000000     -0.316215
      5.44500      3.63000      1.81500        -0.000000      0.000000     -0.316215
      5.44500      7.26000      1.81500        -0.000000     -0.000000     -0.316215
      9.07500      0.00000      1.81500         0.000000     -0.000000     -0.316215
      9.07500      3.63000      1.81500        -0.000000      0.000000     -0.316215
      9.07500      7.26000      1.81500         0.000000     -0.000000     -0.316215
      0.00000      0.00000      3.57551         0.000000      0.000000      0.018775
     -0.00000      3.63000      3.57551         0.000000     -0.000000      0.018775
     -0.00000      7.26000      3.57551        -0.000000      0.000000      0.018775
      3.63000     -0.00000      3.57551         0.000000      0.000000      0.018775
      3.63000      3.63000      3.57551         0.000000      0.000000      0.018775
      3.63000      7.26000      3.57551         0.000000     -0.000000      0.018775
      7.26000     -0.00000      3.57551         0.000000     -0.000000      0.018775
      7.26000      3.63000      3.57551        -0.000000      0.000000      0.018775
      7.26000      7.26000      3.57551         0.000000     -0.000000      0.018775
      1.81500      1.81500      3.57551         0.000000     -0.000000      0.018775
      1.81500      5.44500      3.57551         0.000000     -0.000000      0.018775
      1.81500      9.07500      3.57551        -0.000000      0.000000      0.018775
      5.44500      1.81500      3.57551         0.000000      0.000000      0.018775
      5.44500      5.44500      3.57551        -0.000000     -0.000000      0.018775
      5.44500      9.07500      3.57551         0.000000     -0.000000      0.018775
      9.07500      1.81500      3.57551         0.000000      0.000000      0.018775
      9.07500      5.44500      3.57551        -0.000000      0.000000      0.018775
      9.07500      9.07500      3.57551         0.000000     -0.000000      0.018775
     -0.00000      1.81500      5.33211         0.000000      0.000000      0.022139
      0.00000      5.44500      5.33211         0.000000      0.000000      0.022139
     -0.00000      9.07500      5.33211         0.000000     -0.000000      0.022139
      3.63000      1.81500      5.33211         0.000000     -0.000000      0.022139
      3.63000      5.44500      5.33211        -0.000000      0.000000      0.022139
      3.63000      9.07500      5.33211         0.000000     -0.000000      0.022139
      7.26000      1.81500      5.33211         0.000000     -0.000000      0.022139
      7.26000      5.44500      5.33211         0.000000     -0.000000      0.022139
      7.26000      9.07500      5.33211         0.000000      0.000000      0.022139
      1.81500      0.00000      5.33211         0.000000     -0.000000      0.022139
      1.81500      3.63000      5.33211         0.000000     -0.000000      0.022139
      1.81500      7.26000      5.33211         0.000000      0.000000      0.022139
      5.44500      0.00000      5.33211         0.000000     -0.000000      0.022139
      5.44500      3.63000      5.33211         0.000000     -0.000000      0.022139
      5.44500      7.26000      5.33211         0.000000     -0.000000      0.022139
      9.07500     -0.00000      5.33211         0.000000      0.000000      0.022139
      9.07500      3.63000      5.33211         0.000000      0.000000      0.022139
      9.07500      7.26000      5.33211        -0.000000      0.000000      0.022139
      0.00000     -0.00000      7.10623        -0.000000      0.000000     -0.008324
      0.00000      3.63000      7.10623        -0.000000      0.000000     -0.008324
      0.00000      7.26000      7.10623        -0.000000      0.000000     -0.008324
      3.63000     -0.00000      7.10623        -0.000000      0.000000     -0.008324
      3.63000      3.63000      7.10623        -0.000000     -0.000000     -0.008324
      3.63000      7.26000      7.10623        -0.000000      0.000000     -0.008324
      7.26000     -0.00000      7.10623         0.000000      0.000000     -0.008324
      7.26000      3.63000      7.10623        -0.000000     -0.000000     -0.008324
      7.26000      7.26000      7.10623        -0.000000      0.000000     -0.008324
      1.81500      1.81500      7.10623        -0.000000      0.000000     -0.008324
      1.81500      5.44500      7.10623        -0.000000      0.000000     -0.008324
      1.81500      9.07500      7.10623        -0.000000      0.000000     -0.008324
      5.44500      1.81500      7.10623         0.000000      0.000000     -0.008324
      5.44500      5.44500      7.10623         0.000000      0.000000     -0.008324
      5.44500      9.07500      7.10623         0.000000      0.000000     -0.008324
      9.07500      1.81500      7.10623        -0.000000     -0.000000     -0.008324
      9.07500      5.44500      7.10623        -0.000000      0.000000     -0.008324
      9.07500      9.07500      7.10623        -0.000000      0.000000     -0.008324
      0.00000      1.81500      8.84266         0.000000      0.000000     -0.006630
      0.00000      5.44500      8.84266         0.000000     -0.000000     -0.006630
      0.00000      9.07500      8.84266         0.000000     -0.000000     -0.006630
      3.63000      1.81500      8.84266         0.000000     -0.000000     -0.006630
      3.63000      5.44500      8.84266         0.000000     -0.000000     -0.006630
      3.63000      9.07500      8.84266         0.000000      0.000000     -0.006630
      7.26000      1.81500      8.84266        -0.000000      0.000000     -0.006630
      7.26000      5.44500      8.84266         0.000000     -0.000000     -0.006630
      7.26000      9.07500      8.84266         0.000000     -0.000000     -0.006630
      1.81500      0.00000      8.84266         0.000000      0.000000     -0.006630
      1.81500      3.63000      8.84266         0.000000     -0.000000     -0.006630
      1.81500      7.26000      8.84266         0.000000      0.000000     -0.006630
      5.44500     -0.00000      8.84266        -0.000000      0.000000     -0.006630
      5.44500      3.63000      8.84266        -0.000000      0.000000     -0.006630
      5.44500      7.26000      8.84266         0.000000     -0.000000     -0.006630
      9.07500      0.00000      8.84266        -0.000000     -0.000000     -0.006630
      9.07500      3.63000      8.84266         0.000000      0.000000     -0.006630
      9.07500      7.26000      8.84266        -0.000000     -0.000000     -0.006630
 -----------------------------------------------------------------------------------
    total drift:                                0.000085      0.000085     -0.130546


--------------------------------------------------------------------------------------------------------



  FREE ENERGIE OF THE ION-ELECTRON SYSTEM (eV)
  ---------------------------------------------------
  free  energy   TOTEN  =      -422.92774509 eV

  energy  without entropy=     -422.87673848  energy(sigma->0) =     -422.91074288
 
 d Force = 0.5044791E-02[-0.346E-02, 0.136E-01]  d Energy = 0.8284569E-02-0.324E-02
 d Force =-0.2193032E+04[-0.220E+04,-0.219E+04]  d Ewald  =-0.2193033E+04 0.148E-02


--------------------------------------------------------------------------------------------------------


    POTLOK:  cpu time      0.2291: real time      0.2304


--------------------------------------------------------------------------------------------------------


 stress matrix after NEB project (eV)
    -62.04224      0.00000      0.00000
      0.00000    -62.04224     -0.00000
      0.00000      0.00000    -16.50275
  FORCES: max atom, RMS     0.022139    0.012622
  FORCE total and by dimension    0.131171    0.022139
  Stress total and by dimension   89.279452   62.042243
 Conjugate gradient step on ions:
 trial-energy change:   -0.008285  1 .order   -0.005045   -0.013554    0.003465
  (g-gl).g = 0.166E-01      g.g   = 0.572E-02  gl.gl    = 0.303E-01
 g(Force)  = 0.572E-02   g(Stress)= 0.000E+00 ortho     =-0.990E-03
 gamma     =   0.54755
 trial     =   2.61564
 opt step  =   2.35299  (harmonic =   2.08313) maximal distance =0.00000000
 next E    =  -422.927916   (d E  =  -0.00846)


--------------------------------------------------------------------------------------------------------


  
 reached required accuracy - stopping structural energy minimisation
     LOOP+:  cpu time   3080.0241: real time   3114.2906
    4ORBIT:  cpu time      0.0000: real time      0.0000

 total amount of memory used by VASP MPI-rank0   276769. kBytes
=======================================================================

   base      :      30000. kBytes
   nonl-proj :      22498. kBytes
   fftplans  :       7310. kBytes
   grid      :      16991. kBytes
   one-center:        684. kBytes
   wavefun   :     199286. kBytes
 
  
  
 General timing and accounting informations for this job:
 ========================================================
  
                  Total CPU time used (sec):    47422.516
                            User time (sec):    47081.294
                          System time (sec):      341.223
                         Elapsed time (sec):    47942.601
  
                   Maximum memory used (kb):      619560.
                   Average memory used (kb):          N/A
  
                          Minor page faults:     29861174
                          Major page faults:         7036
                 Voluntary context switches:       492661
