  10  10   0   0
  0.2234684E+02  0.3630000E-09  0.2566798E-09  0.2398379E-08  0.5000000E-15
  1.000000000000000E-004
  CAR 
 unknown system                          
     11.87921183    -10.11260083  301      0.72071376      1.00000000
    -10.113  0.0000E+00  0.0000E+00  0.0000E+00  0.0000E+00
    -10.039  0.0000E+00  0.0000E+00  0.0000E+00  0.0000E+00
     -9.966  0.0000E+00  0.0000E+00  0.0000E+00  0.0000E+00
     -9.893  0.0000E+00  0.0000E+00  0.0000E+00  0.0000E+00
     -9.819  0.0000E+00  0.0000E+00  0.0000E+00  0.0000E+00
     -9.746 -0.4679E-31 -0.4679E-31 -0.3430E-32 -0.3430E-32
     -9.673 -0.1551E-28 -0.1551E-28 -0.1141E-29 -0.1141E-29
     -9.599 -0.3932E-26 -0.3932E-26 -0.2894E-27 -0.2894E-27
     -9.526 -0.7595E-24 -0.7595E-24 -0.5597E-25 -0.5597E-25
     -9.453 -0.1118E-21 -0.1118E-21 -0.8253E-23 -0.8253E-23
     -9.380 -0.1254E-19 -0.1254E-19 -0.9274E-21 -0.9274E-21
     -9.306 -0.1070E-17 -0.1070E-17 -0.7939E-19 -0.7939E-19
     -9.233 -0.6731E-16 -0.6731E-16 -0.5013E-17 -0.5013E-17
     -9.160 -0.3309E-14 -0.3309E-14 -0.2476E-15 -0.2476E-15
     -9.086 -0.1234E-12 -0.1234E-12 -0.9290E-14 -0.9290E-14
     -9.013 -0.3482E-11 -0.3482E-11 -0.2646E-12 -0.2646E-12
     -8.940 -0.7428E-10 -0.7428E-10 -0.5710E-11 -0.5710E-11
     -8.866 -0.1193E-08 -0.1193E-08 -0.9319E-10 -0.9319E-10
     -8.793 -0.1437E-07 -0.1437E-07 -0.1147E-08 -0.1147E-08
     -8.720 -0.1289E-06 -0.1289E-06 -0.1060E-07 -0.1060E-07
     -8.646 -0.8513E-06 -0.8513E-06 -0.7300E-07 -0.7300E-07
     -8.573 -0.4061E-05 -0.4061E-05 -0.3707E-06 -0.3707E-06
     -8.500 -0.1345E-04 -0.1345E-04 -0.1357E-05 -0.1357E-05
     -8.427 -0.2785E-04 -0.2785E-04 -0.3398E-05 -0.3398E-05
     -8.353 -0.2069E-04 -0.2069E-04 -0.4915E-05 -0.4915E-05
     -8.280  0.6920E-04  0.6920E-04  0.1583E-06  0.1583E-06
     -8.207  0.2758E-03  0.2758E-03  0.2037E-04  0.2037E-04
     -8.133  0.5041E-03  0.5041E-03  0.5733E-04  0.5733E-04
     -8.060  0.5710E-03  0.5710E-03  0.9919E-04  0.9919E-04
     -7.987  0.4142E-03  0.4142E-03  0.1296E-03  0.1296E-03
     -7.913  0.1742E-03  0.1742E-03  0.1423E-03  0.1423E-03
     -7.840  0.1582E-04  0.1582E-04  0.1435E-03  0.1435E-03
     -7.767 -0.2996E-04 -0.2996E-04  0.1413E-03  0.1413E-03
     -7.694 -0.2262E-04 -0.2262E-04  0.1396E-03  0.1396E-03
     -7.620 -0.1238E-04 -0.1238E-04  0.1387E-03  0.1387E-03
     -7.547 -0.1541E-04 -0.1541E-04  0.1376E-03  0.1376E-03
     -7.474 -0.2817E-04 -0.2817E-04  0.1355E-03  0.1355E-03
     -7.400 -0.2204E-04 -0.2204E-04  0.1339E-03  0.1339E-03
     -7.327  0.6279E-04  0.6279E-04  0.1385E-03  0.1385E-03
     -7.254  0.2556E-03  0.2556E-03  0.1572E-03  0.1572E-03
     -7.180  0.4583E-03  0.4583E-03  0.1908E-03  0.1908E-03
     -7.107  0.5119E-03  0.5119E-03  0.2284E-03  0.2284E-03
     -7.034  0.4471E-03  0.4471E-03  0.2611E-03  0.2611E-03
     -6.960  0.5209E-03  0.5209E-03  0.2993E-03  0.2993E-03
     -6.887  0.8403E-03  0.8403E-03  0.3609E-03  0.3609E-03
     -6.814  0.1110E-02  0.1110E-02  0.4423E-03  0.4423E-03
     -6.741  0.9858E-03  0.9858E-03  0.5146E-03  0.5146E-03
     -6.667  0.5342E-03  0.5342E-03  0.5537E-03  0.5537E-03
     -6.594  0.1092E-03  0.1092E-03  0.5617E-03  0.5617E-03
     -6.521 -0.6964E-04 -0.6964E-04  0.5566E-03  0.5566E-03
     -6.447 -0.1099E-04 -0.1099E-04  0.5558E-03  0.5558E-03
     -6.374  0.1984E-03  0.1984E-03  0.5704E-03  0.5704E-03
     -6.301  0.4612E-03  0.4612E-03  0.6042E-03  0.6042E-03
     -6.227  0.7101E-03  0.7101E-03  0.6562E-03  0.6562E-03
     -6.154  0.9495E-03  0.9495E-03  0.7258E-03  0.7258E-03
     -6.081  0.1163E-02  0.1163E-02  0.8111E-03  0.8111E-03
     -6.007  0.1272E-02  0.1272E-02  0.9043E-03  0.9043E-03
     -5.934  0.1301E-02  0.1301E-02  0.9997E-03  0.9997E-03
     -5.861  0.1400E-02  0.1400E-02  0.1102E-02  0.1102E-02
     -5.788  0.1635E-02  0.1635E-02  0.1222E-02  0.1222E-02
     -5.714  0.1886E-02  0.1886E-02  0.1360E-02  0.1360E-02
     -5.641  0.1898E-02  0.1898E-02  0.1500E-02  0.1500E-02
     -5.568  0.1481E-02  0.1481E-02  0.1608E-02  0.1608E-02
     -5.494  0.7776E-03  0.7776E-03  0.1665E-02  0.1665E-02
     -5.421  0.1687E-03  0.1687E-03  0.1678E-02  0.1678E-02
     -5.348 -0.1316E-03 -0.1316E-03  0.1668E-02  0.1668E-02
     -5.274 -0.1624E-03 -0.1624E-03  0.1656E-02  0.1656E-02
     -5.201  0.2940E-05  0.2940E-05  0.1656E-02  0.1656E-02
     -5.128  0.3589E-03  0.3589E-03  0.1683E-02  0.1683E-02
     -5.054  0.1006E-02  0.1006E-02  0.1756E-02  0.1756E-02
     -4.981  0.2263E-02  0.2263E-02  0.1922E-02  0.1922E-02
     -4.908  0.4278E-02  0.4278E-02  0.2236E-02  0.2236E-02
     -4.835  0.6183E-02  0.6183E-02  0.2689E-02  0.2689E-02
     -4.761  0.6419E-02  0.6419E-02  0.3160E-02  0.3160E-02
     -4.688  0.4560E-02  0.4560E-02  0.3494E-02  0.3494E-02
     -4.615  0.1970E-02  0.1970E-02  0.3638E-02  0.3638E-02
     -4.541  0.1799E-03  0.1799E-03  0.3651E-02  0.3651E-02
     -4.468 -0.5035E-03 -0.5035E-03  0.3615E-02  0.3615E-02
     -4.395 -0.5018E-03 -0.5018E-03  0.3578E-02  0.3578E-02
     -4.321  0.1281E-03  0.1281E-03  0.3587E-02  0.3587E-02
     -4.248  0.1724E-02  0.1724E-02  0.3714E-02  0.3714E-02
     -4.175  0.4002E-02  0.4002E-02  0.4007E-02  0.4007E-02
     -4.102  0.5583E-02  0.5583E-02  0.4416E-02  0.4416E-02
     -4.028  0.5235E-02  0.5235E-02  0.4800E-02  0.4800E-02
     -3.955  0.3420E-02  0.3420E-02  0.5051E-02  0.5051E-02
     -3.882  0.1830E-02  0.1830E-02  0.5185E-02  0.5185E-02
     -3.808  0.1523E-02  0.1523E-02  0.5296E-02  0.5296E-02
     -3.735  0.2187E-02  0.2187E-02  0.5457E-02  0.5457E-02
     -3.662  0.3152E-02  0.3152E-02  0.5688E-02  0.5688E-02
     -3.588  0.4309E-02  0.4309E-02  0.6004E-02  0.6004E-02
     -3.515  0.5677E-02  0.5677E-02  0.6420E-02  0.6420E-02
     -3.442  0.6802E-02  0.6802E-02  0.6918E-02  0.6918E-02
     -3.368  0.7323E-02  0.7323E-02  0.7455E-02  0.7455E-02
     -3.295  0.7677E-02  0.7677E-02  0.8018E-02  0.8018E-02
     -3.222  0.8519E-02  0.8519E-02  0.8642E-02  0.8642E-02
     -3.149  0.9810E-02  0.9810E-02  0.9362E-02  0.9362E-02
     -3.075  0.1104E-01  0.1104E-01  0.1017E-01  0.1017E-01
     -3.002  0.1181E-01  0.1181E-01  0.1104E-01  0.1104E-01
     -2.929  0.1169E-01  0.1169E-01  0.1189E-01  0.1189E-01
     -2.855  0.1046E-01  0.1046E-01  0.1266E-01  0.1266E-01
     -2.782  0.8827E-02  0.8827E-02  0.1331E-01  0.1331E-01
     -2.709  0.8208E-02  0.8208E-02  0.1391E-01  0.1391E-01
     -2.635  0.9152E-02  0.9152E-02  0.1458E-01  0.1458E-01
     -2.562  0.1064E-01  0.1064E-01  0.1536E-01  0.1536E-01
     -2.489  0.1169E-01  0.1169E-01  0.1622E-01  0.1622E-01
     -2.415  0.1267E-01  0.1267E-01  0.1715E-01  0.1715E-01
     -2.342  0.1404E-01  0.1404E-01  0.1817E-01  0.1817E-01
     -2.269  0.1494E-01  0.1494E-01  0.1927E-01  0.1927E-01
     -2.196  0.1489E-01  0.1489E-01  0.2036E-01  0.2036E-01
     -2.122  0.1539E-01  0.1539E-01  0.2149E-01  0.2149E-01
     -2.049  0.1787E-01  0.1787E-01  0.2280E-01  0.2280E-01
     -1.976  0.2083E-01  0.2083E-01  0.2433E-01  0.2433E-01
     -1.902  0.2146E-01  0.2146E-01  0.2590E-01  0.2590E-01
     -1.829  0.1936E-01  0.1936E-01  0.2732E-01  0.2732E-01
     -1.756  0.1680E-01  0.1680E-01  0.2855E-01  0.2855E-01
     -1.682  0.1550E-01  0.1550E-01  0.2969E-01  0.2969E-01
     -1.609  0.1484E-01  0.1484E-01  0.3077E-01  0.3077E-01
     -1.536  0.1334E-01  0.1334E-01  0.3175E-01  0.3175E-01
     -1.462  0.1118E-01  0.1118E-01  0.3257E-01  0.3257E-01
     -1.389  0.1027E-01  0.1027E-01  0.3332E-01  0.3332E-01
     -1.316  0.1226E-01  0.1226E-01  0.3422E-01  0.3422E-01
     -1.243  0.1700E-01  0.1700E-01  0.3547E-01  0.3547E-01
     -1.169  0.2267E-01  0.2267E-01  0.3713E-01  0.3713E-01
     -1.096  0.2636E-01  0.2636E-01  0.3906E-01  0.3906E-01
     -1.023  0.2594E-01  0.2594E-01  0.4097E-01  0.4097E-01
     -0.949  0.2244E-01  0.2244E-01  0.4261E-01  0.4261E-01
     -0.876  0.1967E-01  0.1967E-01  0.4405E-01  0.4405E-01
     -0.803  0.1999E-01  0.1999E-01  0.4552E-01  0.4552E-01
     -0.729  0.2205E-01  0.2205E-01  0.4713E-01  0.4713E-01
     -0.656  0.2321E-01  0.2321E-01  0.4884E-01  0.4884E-01
     -0.583  0.2243E-01  0.2243E-01  0.5048E-01  0.5048E-01
     -0.510  0.1989E-01  0.1989E-01  0.5194E-01  0.5194E-01
     -0.436  0.1601E-01  0.1601E-01  0.5311E-01  0.5311E-01
     -0.363  0.1159E-01  0.1159E-01  0.5396E-01  0.5396E-01
     -0.290  0.7676E-02  0.7676E-02  0.5452E-01  0.5452E-01
     -0.216  0.4788E-02  0.4788E-02  0.5487E-01  0.5487E-01
     -0.143  0.2719E-02  0.2719E-02  0.5507E-01  0.5507E-01
     -0.070  0.1182E-02  0.1182E-02  0.5516E-01  0.5516E-01
      0.004  0.1863E-03  0.1863E-03  0.5517E-01  0.5517E-01
      0.077 -0.2516E-03 -0.2516E-03  0.5515E-01  0.5515E-01
      0.150 -0.3133E-03 -0.3133E-03  0.5513E-01  0.5513E-01
      0.224 -0.1333E-03 -0.1333E-03  0.5512E-01  0.5512E-01
      0.297  0.3750E-03  0.3750E-03  0.5515E-01  0.5515E-01
      0.370  0.1246E-02  0.1246E-02  0.5524E-01  0.5524E-01
      0.443  0.2206E-02  0.2206E-02  0.5540E-01  0.5540E-01
      0.517  0.2933E-02  0.2933E-02  0.5562E-01  0.5562E-01
      0.590  0.3331E-02  0.3331E-02  0.5586E-01  0.5586E-01
      0.663  0.3252E-02  0.3252E-02  0.5610E-01  0.5610E-01
      0.737  0.2490E-02  0.2490E-02  0.5628E-01  0.5628E-01
      0.810  0.1351E-02  0.1351E-02  0.5638E-01  0.5638E-01
      0.883  0.6176E-03  0.6176E-03  0.5643E-01  0.5643E-01
      0.957  0.6354E-03  0.6354E-03  0.5647E-01  0.5647E-01
      1.030  0.9412E-03  0.9412E-03  0.5654E-01  0.5654E-01
      1.103  0.9272E-03  0.9272E-03  0.5661E-01  0.5661E-01
      1.177  0.5727E-03  0.5727E-03  0.5665E-01  0.5665E-01
      1.250  0.3432E-03  0.3432E-03  0.5668E-01  0.5668E-01
      1.323  0.5219E-03  0.5219E-03  0.5672E-01  0.5672E-01
      1.396  0.8730E-03  0.8730E-03  0.5678E-01  0.5678E-01
      1.470  0.1055E-02  0.1055E-02  0.5686E-01  0.5686E-01
      1.543  0.1191E-02  0.1191E-02  0.5694E-01  0.5694E-01
      1.616  0.1622E-02  0.1622E-02  0.5706E-01  0.5706E-01
      1.690  0.2129E-02  0.2129E-02  0.5722E-01  0.5722E-01
      1.763  0.2041E-02  0.2041E-02  0.5737E-01  0.5737E-01
      1.836  0.1276E-02  0.1276E-02  0.5746E-01  0.5746E-01
      1.910  0.6424E-03  0.6424E-03  0.5751E-01  0.5751E-01
      1.983  0.8621E-03  0.8621E-03  0.5757E-01  0.5757E-01
      2.056  0.1673E-02  0.1673E-02  0.5770E-01  0.5770E-01
      2.130  0.2158E-02  0.2158E-02  0.5785E-01  0.5785E-01
      2.203  0.1896E-02  0.1896E-02  0.5799E-01  0.5799E-01
      2.276  0.1418E-02  0.1418E-02  0.5810E-01  0.5810E-01
      2.349  0.1312E-02  0.1312E-02  0.5819E-01  0.5819E-01
      2.423  0.1478E-02  0.1478E-02  0.5830E-01  0.5830E-01
      2.496  0.1645E-02  0.1645E-02  0.5842E-01  0.5842E-01
      2.569  0.1914E-02  0.1914E-02  0.5856E-01  0.5856E-01
      2.643  0.2327E-02  0.2327E-02  0.5873E-01  0.5873E-01
      2.716  0.2534E-02  0.2534E-02  0.5892E-01  0.5892E-01
      2.789  0.2349E-02  0.2349E-02  0.5909E-01  0.5909E-01
      2.863  0.2068E-02  0.2068E-02  0.5924E-01  0.5924E-01
      2.936  0.1972E-02  0.1972E-02  0.5939E-01  0.5939E-01
      3.009  0.1917E-02  0.1917E-02  0.5953E-01  0.5953E-01
      3.082  0.1581E-02  0.1581E-02  0.5964E-01  0.5964E-01
      3.156  0.9419E-03  0.9419E-03  0.5971E-01  0.5971E-01
      3.229  0.3183E-03  0.3183E-03  0.5974E-01  0.5974E-01
      3.302 -0.1852E-04 -0.1852E-04  0.5973E-01  0.5973E-01
      3.376 -0.9009E-04 -0.9009E-04  0.5973E-01  0.5973E-01
      3.449 -0.6320E-04 -0.6320E-04  0.5972E-01  0.5972E-01
      3.522 -0.5615E-04 -0.5615E-04  0.5972E-01  0.5972E-01
      3.596 -0.1076E-03 -0.1076E-03  0.5971E-01  0.5971E-01
      3.669 -0.1753E-03 -0.1753E-03  0.5970E-01  0.5970E-01
      3.742 -0.5857E-04 -0.5857E-04  0.5969E-01  0.5969E-01
      3.816  0.5787E-03  0.5787E-03  0.5974E-01  0.5974E-01
      3.889  0.1852E-02  0.1852E-02  0.5987E-01  0.5987E-01
      3.962  0.3270E-02  0.3270E-02  0.6011E-01  0.6011E-01
      4.035  0.4017E-02  0.4017E-02  0.6041E-01  0.6041E-01
      4.109  0.3813E-02  0.3813E-02  0.6069E-01  0.6069E-01
      4.182  0.3190E-02  0.3190E-02  0.6092E-01  0.6092E-01
      4.255  0.2758E-02  0.2758E-02  0.6112E-01  0.6112E-01
      4.329  0.2537E-02  0.2537E-02  0.6131E-01  0.6131E-01
      4.402  0.2202E-02  0.2202E-02  0.6147E-01  0.6147E-01
      4.475  0.1657E-02  0.1657E-02  0.6159E-01  0.6159E-01
      4.549  0.1109E-02  0.1109E-02  0.6167E-01  0.6167E-01
      4.622  0.7339E-03  0.7339E-03  0.6173E-01  0.6173E-01
      4.695  0.5004E-03  0.5004E-03  0.6176E-01  0.6176E-01
      4.769  0.3649E-03  0.3649E-03  0.6179E-01  0.6179E-01
      4.842  0.4590E-03  0.4590E-03  0.6182E-01  0.6182E-01
      4.915  0.8796E-03  0.8796E-03  0.6189E-01  0.6189E-01
      4.988  0.1429E-02  0.1429E-02  0.6199E-01  0.6199E-01
      5.062  0.1747E-02  0.1747E-02  0.6212E-01  0.6212E-01
      5.135  0.1608E-02  0.1608E-02  0.6224E-01  0.6224E-01
      5.208  0.1041E-02  0.1041E-02  0.6231E-01  0.6231E-01
      5.282  0.3378E-03  0.3378E-03  0.6234E-01  0.6234E-01
      5.355 -0.7233E-05 -0.7231E-05  0.6234E-01  0.6234E-01
      5.428  0.5099E-03  0.5099E-03  0.6238E-01  0.6238E-01
      5.502  0.2010E-02  0.2010E-02  0.6252E-01  0.6252E-01
      5.575  0.3800E-02  0.3800E-02  0.6280E-01  0.6280E-01
      5.648  0.4643E-02  0.4643E-02  0.6314E-01  0.6314E-01
      5.722  0.3954E-02  0.3954E-02  0.6343E-01  0.6343E-01
      5.795  0.2514E-02  0.2514E-02  0.6362E-01  0.6362E-01
      5.868  0.1598E-02  0.1598E-02  0.6373E-01  0.6373E-01
      5.941  0.1684E-02  0.1684E-02  0.6386E-01  0.6386E-01
      6.015  0.2265E-02  0.2265E-02  0.6402E-01  0.6402E-01
      6.088  0.2538E-02  0.2538E-02  0.6421E-01  0.6421E-01
      6.161  0.2148E-02  0.2148E-02  0.6437E-01  0.6437E-01
      6.235  0.1553E-02  0.1553E-02  0.6448E-01  0.6448E-01
      6.308  0.1617E-02  0.1617E-02  0.6460E-01  0.6460E-01
      6.381  0.2644E-02  0.2644E-02  0.6479E-01  0.6479E-01
      6.455  0.3924E-02  0.3924E-02  0.6508E-01  0.6508E-01
      6.528  0.4483E-02  0.4483E-02  0.6541E-01  0.6541E-01
      6.601  0.4231E-02  0.4231E-02  0.6572E-01  0.6572E-01
      6.674  0.3858E-02  0.3858E-02  0.6600E-01  0.6600E-01
      6.748  0.3603E-02  0.3603E-02  0.6627E-01  0.6627E-01
      6.821  0.2967E-02  0.2967E-02  0.6648E-01  0.6648E-01
      6.894  0.1896E-02  0.1896E-02  0.6662E-01  0.6662E-01
      6.968  0.1264E-02  0.1264E-02  0.6672E-01  0.6672E-01
      7.041  0.1727E-02  0.1727E-02  0.6684E-01  0.6684E-01
      7.114  0.2708E-02  0.2708E-02  0.6704E-01  0.6704E-01
      7.188  0.3023E-02  0.3023E-02  0.6726E-01  0.6726E-01
      7.261  0.2295E-02  0.2295E-02  0.6743E-01  0.6743E-01
      7.334  0.1297E-02  0.1297E-02  0.6753E-01  0.6753E-01
      7.408  0.8289E-03  0.8289E-03  0.6759E-01  0.6759E-01
      7.481  0.8000E-03  0.8000E-03  0.6764E-01  0.6764E-01
      7.554  0.7438E-03  0.7439E-03  0.6770E-01  0.6770E-01
      7.627  0.7856E-03  0.7857E-03  0.6776E-01  0.6776E-01
      7.701  0.1547E-02  0.1547E-02  0.6787E-01  0.6787E-01
      7.774  0.3183E-02  0.3183E-02  0.6810E-01  0.6810E-01
      7.847  0.5021E-02  0.5021E-02  0.6847E-01  0.6847E-01
      7.921  0.6261E-02  0.6261E-02  0.6893E-01  0.6893E-01
      7.994  0.6604E-02  0.6604E-02  0.6941E-01  0.6941E-01
      8.067  0.6101E-02  0.6101E-02  0.6986E-01  0.6986E-01
      8.141  0.4991E-02  0.4991E-02  0.7023E-01  0.7023E-01
      8.214  0.3709E-02  0.3709E-02  0.7050E-01  0.7050E-01
      8.287  0.2577E-02  0.2577E-02  0.7069E-01  0.7069E-01
      8.361  0.1723E-02  0.1723E-02  0.7081E-01  0.7081E-01
      8.434  0.1358E-02  0.1358E-02  0.7091E-01  0.7091E-01
      8.507  0.1539E-02  0.1539E-02  0.7103E-01  0.7103E-01
      8.580  0.1832E-02  0.1832E-02  0.7116E-01  0.7116E-01
      8.654  0.1756E-02  0.1756E-02  0.7129E-01  0.7129E-01
      8.727  0.1413E-02  0.1413E-02  0.7139E-01  0.7139E-01
      8.800  0.1315E-02  0.1315E-02  0.7149E-01  0.7149E-01
      8.874  0.1681E-02  0.1681E-02  0.7161E-01  0.7161E-01
      8.947  0.2148E-02  0.2148E-02  0.7177E-01  0.7177E-01
      9.020  0.2330E-02  0.2330E-02  0.7194E-01  0.7194E-01
      9.094  0.2483E-02  0.2483E-02  0.7212E-01  0.7212E-01
      9.167  0.3014E-02  0.3014E-02  0.7234E-01  0.7234E-01
      9.240  0.3628E-02  0.3628E-02  0.7261E-01  0.7261E-01
      9.314  0.3794E-02  0.3794E-02  0.7289E-01  0.7289E-01
      9.387  0.3627E-02  0.3627E-02  0.7315E-01  0.7315E-01
      9.460  0.3545E-02  0.3545E-02  0.7341E-01  0.7341E-01
      9.533  0.3645E-02  0.3645E-02  0.7368E-01  0.7368E-01
      9.607  0.3837E-02  0.3837E-02  0.7396E-01  0.7396E-01
      9.680  0.3964E-02  0.3964E-02  0.7425E-01  0.7425E-01
      9.753  0.3741E-02  0.3741E-02  0.7453E-01  0.7453E-01
      9.827  0.3041E-02  0.3041E-02  0.7475E-01  0.7475E-01
      9.900  0.2070E-02  0.2070E-02  0.7490E-01  0.7490E-01
      9.973  0.1122E-02  0.1122E-02  0.7498E-01  0.7498E-01
     10.047  0.4042E-03  0.4043E-03  0.7501E-01  0.7501E-01
     10.120  0.1357E-04  0.1360E-04  0.7502E-01  0.7502E-01
     10.193 -0.9638E-04 -0.9637E-04  0.7501E-01  0.7501E-01
     10.266 -0.7198E-04 -0.7198E-04  0.7500E-01  0.7500E-01
     10.340 -0.3036E-04 -0.3036E-04  0.7500E-01  0.7500E-01
     10.413 -0.8664E-05 -0.8665E-05  0.7500E-01  0.7500E-01
     10.486 -0.1766E-05 -0.1766E-05  0.7500E-01  0.7500E-01
     10.560 -0.2634E-06 -0.2634E-06  0.7500E-01  0.7500E-01
     10.633 -0.2911E-07 -0.2912E-07  0.7500E-01  0.7500E-01
     10.706 -0.2405E-08 -0.2406E-08  0.7500E-01  0.7500E-01
     10.780 -0.1492E-09 -0.1493E-09  0.7500E-01  0.7500E-01
     10.853 -0.6983E-11 -0.6986E-11  0.7500E-01  0.7500E-01
     10.926 -0.2471E-12 -0.2472E-12  0.7500E-01  0.7500E-01
     11.000 -0.6622E-14 -0.6625E-14  0.7500E-01  0.7500E-01
     11.073 -0.1346E-15 -0.1346E-15  0.7500E-01  0.7500E-01
     11.146 -0.2524E-17 -0.2524E-17  0.7500E-01  0.7500E-01
     11.219  0.0000E+00  0.0000E+00  0.7500E-01  0.7500E-01
     11.293  0.0000E+00  0.0000E+00  0.7500E-01  0.7500E-01
     11.366  0.0000E+00  0.0000E+00  0.7500E-01  0.7500E-01
     11.439  0.0000E+00  0.0000E+00  0.7500E-01  0.7500E-01
     11.513  0.0000E+00  0.0000E+00  0.7500E-01  0.7500E-01
     11.586  0.0000E+00  0.0000E+00  0.7500E-01  0.7500E-01
     11.659  0.0000E+00  0.0000E+00  0.7500E-01  0.7500E-01
     11.733  0.0000E+00  0.0000E+00  0.7500E-01  0.7500E-01
     11.806  0.0000E+00  0.0000E+00  0.7500E-01  0.7500E-01
     11.879  0.0000E+00  0.0000E+00  0.7500E-01  0.7500E-01
