       N       E                     dE             d eps       ncg     rms          rms(c)
DAV:   1     0.772387968802E+03    0.77239E+03   -0.33247E+04   960   0.168E+03
DAV:   2     0.588149820772E+02   -0.71357E+03   -0.68573E+03   960   0.376E+02
DAV:   3    -0.307736639268E+02   -0.89589E+02   -0.83287E+02   992   0.182E+02
DAV:   4    -0.345255521029E+02   -0.37519E+01   -0.37219E+01  1120   0.508E+01
DAV:   5    -0.346096785492E+02   -0.84126E-01   -0.84060E-01  1128   0.631E+00    0.270E+01
DAV:   6    -0.295894831052E+02    0.50202E+01   -0.90153E+01  1100   0.121E+02    0.134E+01
DAV:   7    -0.273352097396E+02    0.22543E+01   -0.25050E+01  1156   0.103E+02    0.881E+00
DAV:   8    -0.269669725884E+02    0.36824E+00   -0.11500E+01  1304   0.841E+01    0.747E+00
DAV:   9    -0.265186240672E+02    0.44835E+00   -0.52371E+00  1644   0.517E+01    0.641E+00
DAV:  10    -0.270497294561E+02   -0.53111E+00   -0.17322E+00  1312   0.317E+01    0.531E+00
DAV:  11    -0.286265071719E+02   -0.15768E+01   -0.11463E+00  1260   0.274E+01    0.455E+00
DAV:  12    -0.295915865158E+02   -0.96508E+00   -0.70809E-01  1216   0.234E+01    0.354E+00
DAV:  13    -0.316231079198E+02   -0.20315E+01   -0.12802E+00  1300   0.263E+01    0.199E+00
DAV:  14    -0.334933261645E+02   -0.18702E+01   -0.19936E+00  1244   0.201E+01    0.111E+00
DAV:  15    -0.340646250768E+02   -0.57130E+00   -0.64594E-01  1156   0.903E+00    0.753E-01
DAV:  16    -0.343037623448E+02   -0.23914E+00   -0.20223E-01  1124   0.590E+00    0.538E-01
DAV:  17    -0.344804151847E+02   -0.17665E+00   -0.14702E-01  1184   0.491E+00    0.433E-01
DAV:  18    -0.345360522504E+02   -0.55637E-01   -0.39134E-02  1152   0.243E+00    0.272E-01
DAV:  19    -0.346283580769E+02   -0.92306E-01   -0.24008E-02  1168   0.222E+00    0.215E-01
DAV:  20    -0.346769146001E+02   -0.48557E-01   -0.94578E-03  1168   0.169E+00    0.171E-01
DAV:  21    -0.347122390214E+02   -0.35324E-01   -0.38758E-03  1180   0.823E-01    0.123E-01
DAV:  22    -0.347659810516E+02   -0.53742E-01   -0.53761E-03  1084   0.493E-01    0.977E-02
DAV:  23    -0.348104093902E+02   -0.44428E-01   -0.21200E-03  1068   0.645E-01    0.677E-02
DAV:  24    -0.348407519593E+02   -0.30343E-01   -0.96009E-04   900   0.609E-01    0.467E-02
DAV:  25    -0.348598421467E+02   -0.19090E-01   -0.54597E-04   852   0.279E-01    0.289E-02
DAV:  26    -0.348648142419E+02   -0.49721E-02   -0.33769E-04   752   0.212E-01    0.225E-02
DAV:  27    -0.348652474787E+02   -0.43324E-03   -0.99907E-05   696   0.198E-01    0.134E-02
DAV:  28    -0.348653755561E+02   -0.12808E-03   -0.38143E-05   704   0.105E-01
   1 F= -.38141948E+02 E0= -.38145791E+02  d E =-.381419E+02  mag=    -0.0007
       N       E                     dE             d eps       ncg     rms          rms(c)
DAV:   1    -0.348777946039E+02   -0.12547E-01   -0.11958E+01  1036   0.142E+01    0.541E-01
DAV:   2    -0.348966551382E+02   -0.18861E-01   -0.24324E-01  1348   0.622E+00    0.447E-01
DAV:   3    -0.348946277209E+02    0.20274E-02   -0.22963E-02  1128   0.556E+00    0.287E-01
DAV:   4    -0.348940011490E+02    0.62657E-03   -0.94230E-03  1160   0.309E+00    0.177E-01
DAV:   5    -0.348939670492E+02    0.34100E-04   -0.84740E-03  1560   0.283E+00    0.931E-02
DAV:   6    -0.348937802218E+02    0.18683E-03   -0.45716E-03  1008   0.199E+00    0.443E-02
DAV:   7    -0.348937800821E+02    0.13968E-06   -0.92574E-04   836   0.757E-01
   2 F= -.38183734E+02 E0= -.38188200E+02  d E =-.417857E-01  mag=    -0.0003
       N       E                     dE             d eps       ncg     rms          rms(c)
DAV:   1    -0.348905111000E+02    0.32691E-02   -0.27999E-01  1032   0.217E+00    0.737E-02
DAV:   2    -0.348909705264E+02   -0.45943E-03   -0.54216E-03  1308   0.798E-01    0.575E-02
DAV:   3    -0.348909704805E+02    0.45859E-07   -0.72235E-04   800   0.892E-01
   3 F= -.38184662E+02 E0= -.38189205E+02  d E =-.427142E-01  mag=    -0.0002
       N       E                     dE             d eps       ncg     rms          rms(c)
DAV:   1    -0.349172336255E+02   -0.26263E-01   -0.87502E+00  1012   0.121E+01    0.307E-01
DAV:   2    -0.349325726803E+02   -0.15339E-01   -0.16976E-01  1344   0.461E+00    0.322E-01
DAV:   3    -0.349317534947E+02    0.81919E-03   -0.13508E-02  1060   0.326E+00    0.191E-01
DAV:   4    -0.349315951278E+02    0.15837E-03   -0.33868E-03  1124   0.137E+00    0.147E-01
DAV:   5    -0.349314917272E+02    0.10340E-03   -0.29954E-03  1136   0.177E+00    0.961E-02
DAV:   6    -0.349313596657E+02    0.13206E-03   -0.19800E-03  1036   0.152E+00
   4 F= -.38226316E+02 E0= -.38231097E+02  d E =-.416539E-01  mag=    -0.0001
       N       E                     dE             d eps       ncg     rms          rms(c)
DAV:   1    -0.348435669690E+02    0.87925E-01   -0.81090E+01  1044   0.392E+01    0.979E-01
DAV:   2    -0.349949654637E+02   -0.15140E+00   -0.16655E+00  1356   0.154E+01    0.104E+00
DAV:   3    -0.349823049563E+02    0.12661E-01   -0.90969E-02  1132   0.104E+01    0.550E-01
DAV:   4    -0.349811852468E+02    0.11197E-02   -0.29728E-02  1192   0.332E+00    0.421E-01
DAV:   5    -0.349806525235E+02    0.53272E-03   -0.30846E-02  1192   0.564E+00    0.299E-01
DAV:   6    -0.349790305438E+02    0.16220E-02   -0.21578E-02  1224   0.484E+00    0.935E-02
DAV:   7    -0.349791736865E+02   -0.14314E-03   -0.48665E-03  1608   0.142E+00    0.561E-02
DAV:   8    -0.349791707885E+02    0.28980E-05   -0.62482E-04   868   0.560E-01
   5 F= -.38282170E+02 E0= -.38287293E+02  d E =-.975076E-01  mag=    -0.0000
       N       E                     dE             d eps       ncg     rms          rms(c)
DAV:   1    -0.349910080296E+02   -0.11834E-01   -0.65253E+00   984   0.105E+01    0.299E-01
DAV:   2    -0.350022582610E+02   -0.11250E-01   -0.12214E-01  1280   0.252E+00    0.229E-01
DAV:   3    -0.350018075206E+02    0.45074E-03   -0.25647E-03  1140   0.110E+00    0.159E-01
DAV:   4    -0.350017239352E+02    0.83585E-04   -0.17922E-03  1068   0.166E+00
   6 F= -.38309050E+02 E0= -.38313892E+02  d E =-.268798E-01  mag=    -0.0000
       N       E                     dE             d eps       ncg     rms          rms(c)
DAV:   1    -0.349413571696E+02    0.60450E-01   -0.59765E+01  1016   0.331E+01    0.902E-01
DAV:   2    -0.350490696425E+02   -0.10771E+00   -0.11647E+00  1348   0.904E+00    0.772E-01
DAV:   3    -0.350450244554E+02    0.40452E-02   -0.55221E-02  1144   0.735E+00    0.546E-01
DAV:   4    -0.350429395675E+02    0.20849E-02   -0.38816E-02  1184   0.666E+00    0.400E-01
DAV:   5    -0.350417434695E+02    0.11961E-02   -0.38442E-02  1704   0.541E+00    0.191E-01
DAV:   6    -0.350408538676E+02    0.88960E-03   -0.10589E-02  1352   0.348E+00    0.556E-02
DAV:   7    -0.350409391227E+02   -0.85255E-04   -0.18368E-03  1160   0.765E-01
   7 F= -.38359882E+02 E0= -.38363979E+02  d E =-.777119E-01  mag=     0.0000
       N       E                     dE             d eps       ncg     rms          rms(c)
DAV:   1    -0.346119897883E+02    0.42886E+00   -0.25588E+02  1168   0.778E+01    0.176E+00
DAV:   2    -0.350262884342E+02   -0.41430E+00   -0.45219E+00  1336   0.221E+01    0.170E+00
DAV:   3    -0.350072605500E+02    0.19028E-01   -0.30827E-01  1136   0.174E+01    0.105E+00
DAV:   4    -0.350012009226E+02    0.60596E-02   -0.16029E-01  1368   0.120E+01    0.737E-01
DAV:   5    -0.349981235395E+02    0.30774E-02   -0.18038E-01  1616   0.124E+01    0.452E-01
DAV:   6    -0.349931090363E+02    0.50145E-02   -0.50654E-02  1688   0.676E+00    0.101E-01
DAV:   7    -0.349937689316E+02   -0.65990E-03   -0.90208E-03  1168   0.116E+00    0.792E-02
DAV:   8    -0.349938201989E+02   -0.51267E-04   -0.13970E-03  1020   0.687E-01
   8 F= -.38333566E+02 E0= -.38335918E+02  d E =-.513964E-01  mag=     0.0000
       N       E                     dE             d eps       ncg     rms          rms(c)
DAV:   1    -0.348659516144E+02    0.12782E+00   -0.11792E+02  1096   0.492E+01    0.117E+00
DAV:   2    -0.350571849736E+02   -0.19123E+00   -0.20755E+00  1256   0.135E+01    0.110E+00
DAV:   3    -0.350512437172E+02    0.59413E-02   -0.14938E-01  1088   0.109E+01    0.750E-01
DAV:   4    -0.350466188565E+02    0.46249E-02   -0.66917E-02  1488   0.752E+00    0.470E-01
DAV:   5    -0.350456583316E+02    0.96052E-03   -0.73450E-02  1656   0.806E+00    0.282E-01
DAV:   6    -0.350430629496E+02    0.25954E-02   -0.21386E-02  1368   0.521E+00    0.743E-02
DAV:   7    -0.350434333450E+02   -0.37040E-03   -0.50230E-03  1336   0.939E-01    0.487E-02
DAV:   8    -0.350434497963E+02   -0.16451E-04   -0.58705E-04   848   0.279E-01
   9 F= -.38368832E+02 E0= -.38372374E+02  d E =-.866624E-01  mag=     0.0000
       N       E                     dE             d eps       ncg     rms          rms(c)
DAV:   1    -0.350511553187E+02   -0.77220E-02   -0.11301E+01   984   0.139E+01    0.506E-01
DAV:   2    -0.350700155123E+02   -0.18860E-01   -0.22573E-01  1272   0.357E+00    0.399E-01
DAV:   3    -0.350691456840E+02    0.86983E-03   -0.16400E-02  1136   0.376E+00    0.301E-01
DAV:   4    -0.350686434295E+02    0.50225E-03   -0.15398E-02  1048   0.417E+00    0.186E-01
DAV:   5    -0.350680568835E+02    0.58655E-03   -0.11237E-02  1400   0.334E+00    0.687E-02
DAV:   6    -0.350679070808E+02    0.14980E-03   -0.24344E-03   868   0.142E+00    0.400E-02
DAV:   7    -0.350679797119E+02   -0.72631E-04   -0.10838E-03  1040   0.502E-01
  10 F= -.38387543E+02 E0= -.38390423E+02  d E =-.187109E-01  mag=     0.0000
       N       E                     dE             d eps       ncg     rms          rms(c)
DAV:   1    -0.350675932558E+02    0.31382E-03   -0.13249E-01   984   0.150E+00    0.592E-02
DAV:   2    -0.350677862137E+02   -0.19296E-03   -0.25169E-03  1272   0.406E-01    0.447E-02
DAV:   3    -0.350677735382E+02    0.12676E-04   -0.19320E-04   672   0.479E-01
  11 F= -.38387810E+02 E0= -.38390790E+02  d E =-.189779E-01  mag=     0.0000
       N       E                     dE             d eps       ncg     rms          rms(c)
DAV:   1    -0.350797028101E+02   -0.11917E-01   -0.96787E+00   984   0.129E+01    0.383E-01
DAV:   2    -0.350959049451E+02   -0.16202E-01   -0.17831E-01  1296   0.354E+00    0.318E-01
DAV:   3    -0.350954179822E+02    0.48696E-03   -0.10541E-02  1068   0.301E+00    0.229E-01
DAV:   4    -0.350952103522E+02    0.20763E-03   -0.80421E-03  1176   0.285E+00    0.154E-01
DAV:   5    -0.350948847208E+02    0.32563E-03   -0.60183E-03   768   0.240E+00    0.568E-02
DAV:   6    -0.350948230183E+02    0.61702E-04   -0.18515E-03   816   0.121E+00
  12 F= -.38408958E+02 E0= -.38411312E+02  d E =-.211478E-01  mag=     0.0000
       N       E                     dE             d eps       ncg     rms          rms(c)
DAV:   1    -0.351001548151E+02   -0.52701E-02   -0.32399E+00   984   0.747E+00    0.216E-01
DAV:   2    -0.351054513821E+02   -0.52966E-02   -0.57967E-02  1280   0.187E+00    0.161E-01
DAV:   3    -0.351053454306E+02    0.10595E-03   -0.21876E-03  1120   0.114E+00    0.118E-01
DAV:   4    -0.351052967372E+02    0.48693E-04   -0.11455E-03   952   0.126E+00
  13 F= -.38415995E+02 E0= -.38417978E+02  d E =-.281846E-01  mag=     0.0000
       N       E                     dE             d eps       ncg     rms          rms(c)
DAV:   1    -0.350929101283E+02    0.12435E-01   -0.12925E+01   984   0.151E+01    0.434E-01
DAV:   2    -0.351153170050E+02   -0.22407E-01   -0.24552E-01  1296   0.365E+00    0.339E-01
DAV:   3    -0.351145576532E+02    0.75935E-03   -0.11137E-02  1200   0.257E+00    0.251E-01
DAV:   4    -0.351145559326E+02    0.17207E-05   -0.11516E-02  1072   0.379E+00    0.210E-01
DAV:   5    -0.351138373502E+02    0.71858E-03   -0.81550E-03  1448   0.259E+00    0.572E-02
DAV:   6    -0.351138321318E+02    0.52184E-05   -0.13471E-03   832   0.118E+00
  14 F= -.38417669E+02 E0= -.38418881E+02  d E =-.298585E-01  mag=     0.0000
       N       E                     dE             d eps       ncg     rms          rms(c)
DAV:   1    -0.351067945852E+02    0.70428E-02   -0.31929E+00   992   0.740E+00    0.217E-01
DAV:   2    -0.351120620454E+02   -0.52675E-02   -0.58886E-02  1296   0.223E+00    0.192E-01
DAV:   3    -0.351118108331E+02    0.25121E-03   -0.33046E-03  1088   0.173E+00    0.132E-01
DAV:   4    -0.351116988451E+02    0.11199E-03   -0.19710E-03   908   0.143E+00
  15 F= -.38418947E+02 E0= -.38420611E+02  d E =-.311367E-01  mag=     0.0000
       N       E                     dE             d eps       ncg     rms          rms(c)
DAV:   1    -0.351126172117E+02   -0.80638E-03   -0.31014E-01  1240   0.279E+00    0.876E-02
DAV:   2    -0.351131021654E+02   -0.48495E-03   -0.80960E-03  1432   0.269E+00    0.116E-01
DAV:   3    -0.351127158364E+02    0.38633E-03   -0.35466E-03   936   0.200E+00    0.423E-02
DAV:   4    -0.351127251430E+02   -0.93067E-05   -0.41695E-04   664   0.514E-01
  16 F= -.38418911E+02 E0= -.38420415E+02  d E =-.311005E-01  mag=     0.0000
       N       E                     dE             d eps       ncg     rms          rms(c)
DAV:   1    -0.351279236455E+02   -0.15208E-01   -0.52229E+00   984   0.930E+00    0.268E-01
DAV:   2    -0.351363743079E+02   -0.84507E-02   -0.91674E-02  1224   0.243E+00    0.223E-01
DAV:   3    -0.351361428204E+02    0.23149E-03   -0.46139E-03  1088   0.170E+00    0.161E-01
DAV:   4    -0.351359712971E+02    0.17152E-03   -0.17907E-03  1040   0.155E+00
  17 F= -.38433377E+02 E0= -.38434743E+02  d E =-.144663E-01  mag=     0.0000
       N       E                     dE             d eps       ncg     rms          rms(c)
DAV:   1    -0.351474142065E+02   -0.11271E-01   -0.38796E+00   984   0.815E+00    0.242E-01
DAV:   2    -0.351536620705E+02   -0.62479E-02   -0.68718E-02  1320   0.308E+00    0.207E-01
DAV:   3    -0.351536391824E+02    0.22888E-04   -0.92688E-03  1072   0.301E+00    0.158E-01
DAV:   4    -0.351533900102E+02    0.24917E-03   -0.36045E-03  1056   0.176E+00    0.851E-02
DAV:   5    -0.351533394433E+02    0.50567E-04   -0.12386E-03   776   0.928E-01
  18 F= -.38443216E+02 E0= -.38444371E+02  d E =-.243054E-01  mag=     0.0000
       N       E                     dE             d eps       ncg     rms          rms(c)
DAV:   1    -0.351565873581E+02   -0.31973E-02   -0.15560E+01   984   0.163E+01    0.463E-01
DAV:   2    -0.351834946476E+02   -0.26907E-01   -0.28910E-01  1256   0.423E+00    0.382E-01
DAV:   3    -0.351828196912E+02    0.67496E-03   -0.14177E-02  1112   0.305E+00    0.281E-01
DAV:   4    -0.351822097532E+02    0.60994E-03   -0.44043E-03  1144   0.253E+00    0.187E-01
DAV:   5    -0.351819602198E+02    0.24953E-03   -0.31498E-03  1416   0.131E+00    0.433E-02
DAV:   6    -0.351819885295E+02   -0.28310E-04   -0.88694E-04   696   0.107E+00
  19 F= -.38456940E+02 E0= -.38457817E+02  d E =-.380292E-01  mag=     0.0000
       N       E                     dE             d eps       ncg     rms          rms(c)
DAV:   1    -0.351047003369E+02    0.77260E-01   -0.63139E+01  1000   0.340E+01    0.935E-01
DAV:   2    -0.352195145913E+02   -0.11481E+00   -0.12322E+00  1264   0.876E+00    0.790E-01
DAV:   3    -0.352152830938E+02    0.42315E-02   -0.49439E-02  1104   0.613E+00    0.559E-01
DAV:   4    -0.352131347937E+02    0.21483E-02   -0.21889E-02  1096   0.466E+00    0.375E-01
DAV:   5    -0.352129700886E+02    0.16471E-03   -0.30242E-02  1640   0.542E+00    0.201E-01
DAV:   6    -0.352118191252E+02    0.11510E-02   -0.17561E-02  1408   0.430E+00    0.689E-02
DAV:   7    -0.352117926664E+02    0.26459E-04   -0.20931E-03  1296   0.115E+00    0.375E-02
DAV:   8    -0.352118248204E+02   -0.32154E-04   -0.56735E-04   840   0.424E-01
  20 F= -.38457660E+02 E0= -.38458122E+02  d E =-.387492E-01  mag=     0.0000
       N       E                     dE             d eps       ncg     rms          rms(c)
DAV:   1    -0.351760851603E+02    0.35708E-01   -0.15870E+01   984   0.163E+01    0.488E-01
DAV:   2    -0.352041231645E+02   -0.28038E-01   -0.31152E-01  1320   0.607E+00    0.460E-01
DAV:   3    -0.352021915882E+02    0.19316E-02   -0.24181E-02  1120   0.495E+00    0.300E-01
DAV:   4    -0.352017831779E+02    0.40841E-03   -0.11991E-02  1248   0.321E+00    0.222E-01
DAV:   5    -0.352015514824E+02    0.23170E-03   -0.97207E-03  1432   0.335E+00    0.138E-01
DAV:   6    -0.352012956539E+02    0.25583E-03   -0.31473E-03  1208   0.199E+00    0.264E-02
DAV:   7    -0.352013397493E+02   -0.44095E-04   -0.66006E-04   848   0.430E-01
  21 F= -.38461758E+02 E0= -.38462416E+02  d E =-.428473E-01  mag=     0.0000
       N       E                     dE             d eps       ncg     rms          rms(c)
DAV:   1    -0.352081312018E+02   -0.68355E-02   -0.15604E+01  1000   0.163E+01    0.467E-01
DAV:   2    -0.352362935664E+02   -0.28162E-01   -0.31200E-01  1312   0.472E+00    0.435E-01
DAV:   3    -0.352348049662E+02    0.14886E-02   -0.14795E-02  1104   0.330E+00    0.297E-01
DAV:   4    -0.352339338491E+02    0.87112E-03   -0.43822E-03  1104   0.215E+00    0.200E-01
DAV:   5    -0.352335634998E+02    0.37035E-03   -0.36558E-03  1472   0.136E+00    0.377E-02
DAV:   6    -0.352335869330E+02   -0.23433E-04   -0.69661E-04   800   0.939E-01
  22 F= -.38476773E+02 E0= -.38476806E+02  d E =-.150147E-01  mag=     0.0000
       N       E                     dE             d eps       ncg     rms          rms(c)
DAV:   1    -0.352362000641E+02   -0.26366E-02   -0.52718E-01  1000   0.302E+00    0.868E-02
DAV:   2    -0.352370827687E+02   -0.88270E-03   -0.96709E-03  1344   0.832E-01    0.697E-02
DAV:   3    -0.352370783375E+02    0.44312E-05   -0.56044E-04   856   0.650E-01
  23 F= -.38477216E+02 E0= -.38477118E+02  d E =-.154583E-01  mag=     0.0000
       N       E                     dE             d eps       ncg     rms          rms(c)
DAV:   1    -0.352461334860E+02   -0.90507E-02   -0.15244E+00  1008   0.504E+00    0.150E-01
DAV:   2    -0.352485030625E+02   -0.23696E-02   -0.26573E-02  1312   0.133E+00    0.129E-01
DAV:   3    -0.352484078858E+02    0.95177E-04   -0.15716E-03  1032   0.110E+00
  24 F= -.38483994E+02 E0= -.38483716E+02  d E =-.677781E-02  mag=     0.0000
       N       E                     dE             d eps       ncg     rms          rms(c)
DAV:   1    -0.352536637536E+02   -0.51607E-02   -0.13757E+01  1008   0.153E+01    0.448E-01
DAV:   2    -0.352774278205E+02   -0.23764E-01   -0.26227E-01  1328   0.476E+00    0.419E-01
DAV:   3    -0.352761479385E+02    0.12799E-02   -0.13796E-02  1120   0.360E+00    0.279E-01
DAV:   4    -0.352755317004E+02    0.61624E-03   -0.65198E-03  1296   0.257E+00    0.183E-01
DAV:   5    -0.352756936968E+02   -0.16200E-03   -0.11270E-02  1616   0.339E+00    0.139E-01
DAV:   6    -0.352751539447E+02    0.53975E-03   -0.50819E-03  1080   0.222E+00    0.245E-02
DAV:   7    -0.352751841025E+02   -0.30158E-04   -0.55519E-04   760   0.374E-01
  25 F= -.38497381E+02 E0= -.38496667E+02  d E =-.201649E-01  mag=     0.0000
       N       E                     dE             d eps       ncg     rms          rms(c)
DAV:   1    -0.351967057441E+02    0.78448E-01   -0.56326E+01  1008   0.324E+01    0.826E-01
DAV:   2    -0.353072712603E+02   -0.11057E+00   -0.11920E+00  1360   0.995E+00    0.812E-01
DAV:   3    -0.353019999432E+02    0.52713E-02   -0.59241E-02  1112   0.673E+00    0.523E-01
DAV:   4    -0.352996718970E+02    0.23280E-02   -0.13636E-02  1152   0.333E+00    0.367E-01
DAV:   5    -0.352988701341E+02    0.80176E-03   -0.16795E-02  1632   0.345E+00    0.161E-01
DAV:   6    -0.352986434467E+02    0.22669E-03   -0.14663E-02  1224   0.418E+00    0.105E-01
DAV:   7    -0.352982771312E+02    0.36632E-03   -0.30490E-03   776   0.171E+00    0.352E-02
DAV:   8    -0.352983398022E+02   -0.62671E-04   -0.82174E-04   904   0.507E-01
  26 F= -.38495369E+02 E0= -.38494110E+02  d E =-.181532E-01  mag=     0.0000
       N       E                     dE             d eps       ncg     rms          rms(c)
DAV:   1    -0.352557162731E+02    0.42561E-01   -0.19970E+01  1008   0.186E+01    0.486E-01
DAV:   2    -0.352927512129E+02   -0.37035E-01   -0.40346E-01  1312   0.678E+00    0.493E-01
DAV:   3    -0.352905111109E+02    0.22401E-02   -0.25988E-02  1112   0.535E+00    0.323E-01
DAV:   4    -0.352898886813E+02    0.62243E-03   -0.10787E-02  1208   0.303E+00    0.246E-01
DAV:   5    -0.352896313099E+02    0.25737E-03   -0.12526E-02  1440   0.362E+00    0.174E-01
DAV:   6    -0.352891223060E+02    0.50900E-03   -0.51303E-03  1504   0.226E+00    0.303E-02
DAV:   7    -0.352891599163E+02   -0.37610E-04   -0.73498E-04   832   0.450E-01
  27 F= -.38501049E+02 E0= -.38500052E+02  d E =-.238326E-01  mag=     0.0000
       N       E                     dE             d eps       ncg     rms          rms(c)
DAV:   1    -0.352910443737E+02   -0.19221E-02   -0.72313E-01  1008   0.347E+00    0.899E-02
DAV:   2    -0.352921613532E+02   -0.11170E-02   -0.12512E-02  1312   0.952E-01    0.870E-02
DAV:   3    -0.352920960681E+02    0.65285E-04   -0.49517E-04   800   0.581E-01
  28 F= -.38501062E+02 E0= -.38499990E+02  d E =-.238458E-01  mag=     0.0000
       N       E                     dE             d eps       ncg     rms          rms(c)
DAV:   1    -0.352899126027E+02    0.22488E-02   -0.26113E-01  1008   0.215E+00    0.450E-02
DAV:   2    -0.352903742031E+02   -0.46160E-03   -0.47307E-03  1328   0.813E-01    0.365E-02
DAV:   3    -0.352903653180E+02    0.88852E-05   -0.36929E-04   632   0.575E-01
  29 F= -.38501093E+02 E0= -.38500069E+02  d E =-.238765E-01  mag=     0.0000
       N       E                     dE             d eps       ncg     rms          rms(c)
DAV:   1    -0.352911154087E+02   -0.74121E-03   -0.64619E-02  1008   0.107E+00    0.213E-02
DAV:   2    -0.352912279774E+02   -0.11257E-03   -0.11792E-03  1016   0.276E-01
  30 F= -.38501073E+02 E0= -.38500027E+02  d E =-.238569E-01  mag=     0.0000
       N       E                     dE             d eps       ncg     rms          rms(c)
DAV:   1    -0.352906715951E+02    0.44381E-03   -0.23293E-02  1000   0.683E-01    0.152E-02
DAV:   2    -0.352906913600E+02   -0.19765E-04   -0.22612E-04   696   0.349E-01
  31 F= -.38501073E+02 E0= -.38500036E+02  d E =-.238563E-01  mag=     0.0000
       N       E                     dE             d eps       ncg     rms          rms(c)
DAV:   1    -0.352909692495E+02   -0.29765E-03   -0.60838E-03  1304   0.451E-01    0.868E-03
DAV:   2    -0.352909747037E+02   -0.54542E-05   -0.78066E-05   584   0.271E-01
  32 F= -.38501088E+02 E0= -.38500048E+02  d E =-.238715E-01  mag=     0.0000
       N       E                     dE             d eps       ncg     rms          rms(c)
DAV:   1    -0.352908535762E+02    0.11567E-03   -0.56685E-04   920   0.232E-01    0.975E-03
DAV:   2    -0.352908713622E+02   -0.17786E-04   -0.19500E-04   512   0.275E-01
  33 F= -.38501082E+02 E0= -.38500044E+02  d E =-.238656E-01  mag=     0.0000
       N       E                     dE             d eps       ncg     rms          rms(c)
DAV:   1    -0.352909479444E+02   -0.94368E-04   -0.23678E-04   624   0.210E-01    0.622E-03
DAV:   2    -0.352909551309E+02   -0.71866E-05   -0.72516E-05   536   0.111E-01
  34 F= -.38501083E+02 E0= -.38500046E+02  d E =-.238668E-01  mag=     0.0000
       N       E                     dE             d eps       ncg     rms          rms(c)
DAV:   1    -0.352909175643E+02    0.30380E-04   -0.45758E-05   488   0.995E-02    0.315E-03
DAV:   2    -0.352909192993E+02   -0.17350E-05   -0.18886E-05   480   0.922E-02
  35 F= -.38501089E+02 E0= -.38500052E+02  d E =-.238723E-01  mag=     0.0000
       N       E                     dE             d eps       ncg     rms          rms(c)
DAV:   1    -0.352909332244E+02   -0.15660E-04   -0.67543E-06   480   0.673E-02    0.939E-04
DAV:   2    -0.352909335770E+02   -0.35254E-06   -0.31654E-06   520   0.225E-02
  36 F= -.38501090E+02 E0= -.38500054E+02  d E =-.238732E-01  mag=     0.0000
       N       E                     dE             d eps       ncg     rms          rms(c)
DAV:   1    -0.352942631486E+02   -0.33299E-02   -0.43484E-01  1008   0.273E+00    0.694E-02
DAV:   2    -0.352949529630E+02   -0.68981E-03   -0.75354E-03  1296   0.736E-01    0.628E-02
DAV:   3    -0.352949308665E+02    0.22097E-04   -0.35305E-04   720   0.497E-01
  37 F= -.38502610E+02 E0= -.38501478E+02  d E =-.152074E-02  mag=     0.0000
       N       E                     dE             d eps       ncg     rms          rms(c)
DAV:   1    -0.352998095703E+02   -0.48566E-02   -0.25497E+00  1008   0.663E+00    0.187E-01
DAV:   2    -0.353039353025E+02   -0.41257E-02   -0.45642E-02  1288   0.170E+00    0.168E-01
DAV:   3    -0.353037365812E+02    0.19872E-03   -0.19216E-03  1096   0.114E+00
  38 F= -.38505494E+02 E0= -.38504167E+02  d E =-.440425E-02  mag=     0.0000
       N       E                     dE             d eps       ncg     rms          rms(c)
DAV:   1    -0.353013893260E+02    0.25460E-02   -0.10196E+01  1008   0.134E+01    0.384E-01
DAV:   2    -0.353185495757E+02   -0.17160E-01   -0.18941E-01  1280   0.334E+00    0.348E-01
DAV:   3    -0.353175934888E+02    0.95609E-03   -0.72458E-03  1104   0.232E+00    0.246E-01
DAV:   4    -0.353170707828E+02    0.52271E-03   -0.37717E-03  1192   0.227E+00    0.162E-01
DAV:   5    -0.353169727220E+02    0.98061E-04   -0.64278E-03  1352   0.269E+00    0.900E-02
DAV:   6    -0.353167370327E+02    0.23569E-03   -0.33514E-03   880   0.186E+00    0.329E-02
DAV:   7    -0.353167279495E+02    0.90831E-05   -0.40883E-04   648   0.525E-01
  39 F= -.38506901E+02 E0= -.38505329E+02  d E =-.581194E-02  mag=     0.0000
       N       E                     dE             d eps       ncg     rms          rms(c)
DAV:   1    -0.353099143738E+02    0.68227E-02   -0.15845E+00  1008   0.521E+00    0.137E-01
DAV:   2    -0.353124331873E+02   -0.25188E-02   -0.27935E-02  1320   0.148E+00    0.130E-01
DAV:   3    -0.353123270113E+02    0.10618E-03   -0.13895E-03  1024   0.108E+00
  40 F= -.38507039E+02 E0= -.38505554E+02  d E =-.594989E-02  mag=     0.0000
       N       E                     dE             d eps       ncg     rms          rms(c)
DAV:   1    -0.353139874308E+02   -0.15542E-02   -0.54839E-01  1032   0.326E+00    0.663E-02
DAV:   2    -0.353150604547E+02   -0.10730E-02   -0.11811E-02  1488   0.161E+00    0.586E-02
DAV:   3    -0.353150021037E+02    0.58351E-04   -0.21101E-03   928   0.133E+00    0.477E-02
DAV:   4    -0.353149983931E+02    0.37107E-05   -0.42607E-04   656   0.484E-01
  41 F= -.38507024E+02 E0= -.38505479E+02  d E =-.593488E-02  mag=     0.0000
       N       E                     dE             d eps       ncg     rms          rms(c)
DAV:   1    -0.353184776580E+02   -0.34756E-02   -0.10912E+00  1008   0.430E+00    0.141E-01
DAV:   2    -0.353201985117E+02   -0.17209E-02   -0.19563E-02  1288   0.102E+00    0.114E-01
DAV:   3    -0.353200863996E+02    0.11211E-03   -0.59236E-04   792   0.652E-01
  42 F= -.38509323E+02 E0= -.38507720E+02  d E =-.229898E-02  mag=     0.0000
       N       E                     dE             d eps       ncg     rms          rms(c)
DAV:   1    -0.353210818997E+02   -0.88339E-03   -0.10930E-01  1248   0.164E+00    0.707E-02
DAV:   2    -0.353211895049E+02   -0.10761E-03   -0.18772E-03   992   0.133E+00
  43 F= -.38509586E+02 E0= -.38507962E+02  d E =-.256192E-02  mag=     0.0000
       N       E                     dE             d eps       ncg     rms          rms(c)
DAV:   1    -0.353250752369E+02   -0.39933E-02   -0.12683E+00   984   0.483E+00    0.147E-01
DAV:   2    -0.353272486663E+02   -0.21734E-02   -0.24321E-02  1296   0.127E+00    0.122E-01
DAV:   3    -0.353271985206E+02    0.50146E-04   -0.17396E-03  1040   0.114E+00
  44 F= -.38512998E+02 E0= -.38511349E+02  d E =-.341141E-02  mag=     0.0000
       N       E                     dE             d eps       ncg     rms          rms(c)
DAV:   1    -0.353296580898E+02   -0.24094E-02   -0.18815E+00   984   0.580E+00    0.190E-01
DAV:   2    -0.353323973805E+02   -0.27393E-02   -0.33132E-02  1464   0.243E+00    0.166E-01
DAV:   3    -0.353323489497E+02    0.48431E-04   -0.72498E-03  1176   0.267E+00    0.136E-01
DAV:   4    -0.353321707577E+02    0.17819E-03   -0.21173E-03  1032   0.142E+00    0.681E-02
DAV:   5    -0.353321963997E+02   -0.25642E-04   -0.94687E-04  1000   0.879E-01
  45 F= -.38514986E+02 E0= -.38513296E+02  d E =-.539935E-02  mag=     0.0000
       N       E                     dE             d eps       ncg     rms          rms(c)
DAV:   1    -0.353331097928E+02   -0.93904E-03   -0.37711E-01   984   0.260E+00    0.679E-02
DAV:   2    -0.353337907560E+02   -0.68096E-03   -0.72974E-03  1288   0.696E-01    0.554E-02
DAV:   3    -0.353337899499E+02    0.80613E-06   -0.40590E-04   688   0.561E-01
  46 F= -.38515276E+02 E0= -.38513577E+02  d E =-.568956E-02  mag=     0.0000
       N       E                     dE             d eps       ncg     rms          rms(c)
DAV:   1    -0.353357166357E+02   -0.19259E-02   -0.83029E-01   976   0.377E+00    0.133E-01
DAV:   2    -0.353368573493E+02   -0.11407E-02   -0.13402E-02  1304   0.104E+00    0.105E-01
DAV:   3    -0.353368652263E+02   -0.78770E-05   -0.15884E-03  1056   0.126E+00
  47 F= -.38517166E+02 E0= -.38515463E+02  d E =-.189009E-02  mag=     0.0000
       N       E                     dE             d eps       ncg     rms          rms(c)
DAV:   1    -0.353372409025E+02   -0.38355E-03   -0.55456E-01   984   0.334E+00    0.119E-01
DAV:   2    -0.353381376483E+02   -0.89675E-03   -0.11149E-02  1464   0.169E+00    0.950E-02
DAV:   3    -0.353381003421E+02    0.37306E-04   -0.31569E-03  1056   0.168E+00    0.841E-02
DAV:   4    -0.353380387550E+02    0.61587E-04   -0.93351E-04   928   0.101E+00
  48 F= -.38517463E+02 E0= -.38515756E+02  d E =-.218700E-02  mag=     0.0000
       N       E                     dE             d eps       ncg     rms          rms(c)
DAV:   1    -0.353377555477E+02    0.34479E-03   -0.45665E-02   992   0.935E-01    0.350E-02
DAV:   2    -0.353378189696E+02   -0.63422E-04   -0.92135E-04   856   0.799E-01
  49 F= -.38517485E+02 E0= -.38515782E+02  d E =-.220938E-02  mag=     0.0000
       N       E                     dE             d eps       ncg     rms          rms(c)
DAV:   1    -0.353379646850E+02   -0.20914E-03   -0.18465E-02  1352   0.848E-01    0.138E-02
DAV:   2    -0.353379851450E+02   -0.20460E-04   -0.23840E-04   720   0.344E-01
  50 F= -.38517496E+02 E0= -.38515789E+02  d E =-.221986E-02  mag=     0.0000
       N       E                     dE             d eps       ncg     rms          rms(c)
DAV:   1    -0.353379125676E+02    0.52117E-04   -0.46368E-03  1352   0.425E-01    0.127E-02
DAV:   2    -0.353379184818E+02   -0.59142E-05   -0.81338E-05   640   0.308E-01
  51 F= -.38517506E+02 E0= -.38515801E+02  d E =-.223063E-02  mag=     0.0000
       N       E                     dE             d eps       ncg     rms          rms(c)
DAV:   1    -0.353396479633E+02   -0.17354E-02   -0.34308E-01   968   0.240E+00    0.697E-02
DAV:   2    -0.353401837887E+02   -0.53583E-03   -0.59720E-03  1288   0.699E-01    0.613E-02
DAV:   3    -0.353401610290E+02    0.22760E-04   -0.30816E-04   680   0.520E-01
  52 F= -.38519142E+02 E0= -.38517442E+02  d E =-.163511E-02  mag=     0.0000
       N       E                     dE             d eps       ncg     rms          rms(c)
DAV:   1    -0.353416471870E+02   -0.14634E-02   -0.18810E+00   968   0.563E+00    0.180E-01
DAV:   2    -0.353445546615E+02   -0.29075E-02   -0.32948E-02  1288   0.142E+00    0.152E-01
DAV:   3    -0.353444095366E+02    0.14512E-03   -0.13490E-03  1088   0.104E+00
  53 F= -.38522125E+02 E0= -.38520439E+02  d E =-.461829E-02  mag=     0.0000
       N       E                     dE             d eps       ncg     rms          rms(c)
DAV:   1    -0.353375674556E+02    0.69872E-02   -0.74701E+00   968   0.113E+01    0.365E-01
DAV:   2    -0.353496778728E+02   -0.12110E-01   -0.13727E-01  1312   0.345E+00    0.316E-01
DAV:   3    -0.353491943843E+02    0.48349E-03   -0.11886E-02  1104   0.341E+00    0.235E-01
DAV:   4    -0.353487956511E+02    0.39873E-03   -0.84304E-03  1160   0.330E+00    0.151E-01
DAV:   5    -0.353485884137E+02    0.20724E-03   -0.59707E-03  1600   0.214E+00    0.737E-02
DAV:   6    -0.353485056740E+02    0.82740E-04   -0.93093E-04   824   0.102E+00
  54 F= -.38524279E+02 E0= -.38522605E+02  d E =-.677248E-02  mag=     0.0000
       N       E                     dE             d eps       ncg     rms          rms(c)
DAV:   1    -0.353502513126E+02   -0.16629E-02   -0.12324E+00   968   0.452E+00    0.135E-01
DAV:   2    -0.353523355659E+02   -0.20843E-02   -0.22807E-02  1320   0.109E+00    0.116E-01
DAV:   3    -0.353522304129E+02    0.10515E-03   -0.62550E-04   848   0.701E-01
  55 F= -.38527610E+02 E0= -.38525918E+02  d E =-.333138E-02  mag=     0.0000
       N       E                     dE             d eps       ncg     rms          rms(c)
DAV:   1    -0.353520432576E+02    0.29231E-03   -0.22454E+00   968   0.624E+00    0.207E-01
DAV:   2    -0.353553935807E+02   -0.33503E-02   -0.39114E-02  1352   0.197E+00    0.175E-01
DAV:   3    -0.353554246787E+02   -0.31098E-04   -0.56283E-03  1136   0.233E+00    0.147E-01
DAV:   4    -0.353551943567E+02    0.23032E-03   -0.32034E-03  1096   0.184E+00    0.725E-02
DAV:   5    -0.353551420265E+02    0.52330E-04   -0.71844E-04   784   0.772E-01
  56 F= -.38530257E+02 E0= -.38528541E+02  d E =-.597764E-02  mag=     0.0000
       N       E                     dE             d eps       ncg     rms          rms(c)
DAV:   1    -0.353427865034E+02    0.12408E-01   -0.88798E+00   984   0.123E+01    0.364E-01
DAV:   2    -0.353584552811E+02   -0.15669E-01   -0.17330E-01  1352   0.384E+00    0.343E-01
DAV:   3    -0.353577742395E+02    0.68104E-03   -0.13012E-02  1120   0.341E+00    0.254E-01
DAV:   4    -0.353573403802E+02    0.43386E-03   -0.72416E-03  1192   0.311E+00    0.176E-01
DAV:   5    -0.353571153994E+02    0.22498E-03   -0.62671E-03  1632   0.223E+00    0.916E-02
DAV:   6    -0.353569793060E+02    0.13609E-03   -0.14037E-03  1016   0.133E+00
  57 F= -.38532281E+02 E0= -.38530517E+02  d E =-.800220E-02  mag=     0.0000
       N       E                     dE             d eps       ncg     rms          rms(c)
DAV:   1    -0.353549524428E+02    0.21630E-02   -0.13266E+00   968   0.476E+00    0.129E-01
DAV:   2    -0.353572267868E+02   -0.22743E-02   -0.25356E-02  1368   0.147E+00    0.135E-01
DAV:   3    -0.353571147096E+02    0.11208E-03   -0.14976E-03  1056   0.110E+00
  58 F= -.38532237E+02 E0= -.38530488E+02  d E =-.795767E-02  mag=     0.0000
       N       E                     dE             d eps       ncg     rms          rms(c)
DAV:   1    -0.353564489312E+02    0.77786E-03   -0.34403E-01   968   0.261E+00    0.578E-02
DAV:   2    -0.353572890792E+02   -0.84015E-03   -0.98749E-03  1640   0.204E+00    0.676E-02
DAV:   3    -0.353570978425E+02    0.19124E-03   -0.24209E-03   896   0.150E+00    0.388E-02
DAV:   4    -0.353571320912E+02   -0.34249E-04   -0.55045E-04   824   0.313E-01
  59 F= -.38532328E+02 E0= -.38530576E+02  d E =-.804949E-02  mag=     0.0000
       N       E                     dE             d eps       ncg     rms          rms(c)
DAV:   1    -0.353498663165E+02    0.72315E-02   -0.14830E+00   968   0.494E+00    0.214E-01
DAV:   2    -0.353518935772E+02   -0.20273E-02   -0.26566E-02  1352   0.119E+00    0.165E-01
DAV:   3    -0.353516172119E+02    0.27637E-03   -0.11697E-03  1104   0.912E-01    0.973E-02
DAV:   4    -0.353515724214E+02    0.44791E-04   -0.91597E-04   968   0.119E+00
  60 F= -.38528629E+02 E0= -.38526860E+02  d E =0.369995E-02  mag=     0.0000
       N       E                     dE             d eps       ncg     rms          rms(c)
DAV:   1    -0.353563731656E+02   -0.47560E-02   -0.81441E-01   968   0.375E+00    0.149E-01
DAV:   2    -0.353576426589E+02   -0.12695E-02   -0.16001E-02  1336   0.951E-01    0.125E-01
DAV:   3    -0.353574980785E+02    0.14458E-03   -0.90626E-04   912   0.912E-01
  61 F= -.38533041E+02 E0= -.38531285E+02  d E =-.712728E-03  mag=     0.0000
       N       E                     dE             d eps       ncg     rms          rms(c)
DAV:   1    -0.353560870666E+02    0.15556E-02   -0.13619E+00  1008   0.513E+00    0.785E-02
DAV:   2    -0.353584068607E+02   -0.23198E-02   -0.24563E-02  1488   0.187E+00    0.970E-02
DAV:   3    -0.353584070407E+02   -0.18000E-06   -0.27174E-03  1056   0.131E+00    0.752E-02
DAV:   4    -0.353584036847E+02    0.33560E-05   -0.53480E-04   776   0.463E-01
  62 F= -.38534224E+02 E0= -.38532452E+02  d E =-.118271E-02  mag=     0.0000
       N       E                     dE             d eps       ncg     rms          rms(c)
DAV:   1    -0.353583661882E+02    0.40852E-04   -0.10242E-02  1008   0.468E-01    0.382E-02
DAV:   2    -0.353583746835E+02   -0.84953E-05   -0.46760E-04   648   0.685E-01
  63 F= -.38534222E+02 E0= -.38532460E+02  d E =-.118091E-02  mag=     0.0000
       N       E                     dE             d eps       ncg     rms          rms(c)
DAV:   1    -0.353580563862E+02    0.30980E-03   -0.26982E-01  1024   0.220E+00    0.117E-01
DAV:   2    -0.353583579867E+02   -0.30160E-03   -0.56423E-03  1376   0.888E-01    0.850E-02
DAV:   3    -0.353583880146E+02   -0.30028E-04   -0.23140E-03   992   0.159E+00    0.791E-02
DAV:   4    -0.353582399041E+02    0.14811E-03   -0.11553E-03   712   0.119E+00
  64 F= -.38532989E+02 E0= -.38531227E+02  d E =0.123351E-02  mag=     0.0000
       N       E                     dE             d eps       ncg     rms          rms(c)
DAV:   1    -0.353589695473E+02   -0.58153E-03   -0.13192E-01  1032   0.150E+00    0.874E-02
DAV:   2    -0.353591189505E+02   -0.14940E-03   -0.27949E-03  1336   0.769E-01    0.677E-02
DAV:   3    -0.353591054160E+02    0.13534E-04   -0.94348E-04   784   0.108E+00
  65 F= -.38534584E+02 E0= -.38532814E+02  d E =-.361650E-03  mag=     0.0000
       N       E                     dE             d eps       ncg     rms          rms(c)
DAV:   1    -0.353596765355E+02   -0.55759E-03   -0.18583E-01  1040   0.198E+00    0.342E-02
DAV:   2    -0.353600332948E+02   -0.35676E-03   -0.41442E-03  1408   0.884E-01    0.374E-02
DAV:   3    -0.353600077452E+02    0.25550E-04   -0.67732E-04   744   0.794E-01
  66 F= -.38534884E+02 E0= -.38533117E+02  d E =-.300182E-03  mag=     0.0000
       N       E                     dE             d eps       ncg     rms          rms(c)
DAV:   1    -0.353603208074E+02   -0.28751E-03   -0.38393E-02  1016   0.853E-01    0.285E-02
DAV:   2    -0.353603572640E+02   -0.36457E-04   -0.51655E-04   800   0.282E-01
  67 F= -.38534965E+02 E0= -.38533202E+02  d E =-.380892E-03  mag=     0.0000
       N       E                     dE             d eps       ncg     rms          rms(c)
DAV:   1    -0.353603915687E+02   -0.70761E-04   -0.55165E-02   992   0.103E+00    0.468E-02
DAV:   2    -0.353604304763E+02   -0.38908E-04   -0.74118E-04   816   0.404E-01
  68 F= -.38535088E+02 E0= -.38533326E+02  d E =-.123002E-03  mag=     0.0000
       N       E                     dE             d eps       ncg     rms          rms(c)
DAV:   1    -0.353605103997E+02   -0.11883E-03   -0.87499E-03  1328   0.785E-01    0.305E-02
DAV:   2    -0.353605785580E+02   -0.68158E-04   -0.10289E-03   720   0.115E+00
  69 F= -.38535210E+02 E0= -.38533452E+02  d E =-.245131E-03  mag=     0.0000
       N       E                     dE             d eps       ncg     rms          rms(c)
DAV:   1    -0.353604331682E+02    0.77232E-04   -0.89861E-04   696   0.865E-01    0.125E-02
DAV:   2    -0.353604733808E+02   -0.40213E-04   -0.41901E-04   792   0.302E-01
  70 F= -.38535113E+02 E0= -.38533357E+02  d E =-.148364E-03  mag=     0.0000
       N       E                     dE             d eps       ncg     rms          rms(c)
DAV:   1    -0.353605068387E+02   -0.73671E-04   -0.37452E-04   712   0.287E-01    0.947E-03
DAV:   2    -0.353605114091E+02   -0.45704E-05   -0.54882E-05   488   0.195E-01
  71 F= -.38535144E+02 E0= -.38533384E+02  d E =-.179625E-03  mag=     0.0000
       N       E                     dE             d eps       ncg     rms          rms(c)
DAV:   1    -0.353605054503E+02    0.13884E-05   -0.89238E-05   592   0.181E-01    0.482E-03
DAV:   2    -0.353605095070E+02   -0.40566E-05   -0.43175E-05   616   0.179E-01
  72 F= -.38535146E+02 E0= -.38533387E+02  d E =-.181019E-03  mag=     0.0000
       N       E                     dE             d eps       ncg     rms          rms(c)
DAV:   1    -0.353605128651E+02   -0.74148E-05   -0.27544E-05   480   0.129E-01    0.253E-03
DAV:   2    -0.353605139066E+02   -0.10414E-05   -0.95289E-06   520   0.464E-02
  73 F= -.38535148E+02 E0= -.38533388E+02  d E =-.183658E-03  mag=     0.0000
       N       E                     dE             d eps       ncg     rms          rms(c)
DAV:   1    -0.353608606573E+02   -0.34779E-03   -0.21983E-02   976   0.618E-01    0.131E-02
DAV:   2    -0.353608844073E+02   -0.23750E-04   -0.26521E-04   648   0.150E-01
  74 F= -.38535330E+02 E0= -.38533569E+02  d E =-.181280E-03  mag=     0.0000
       N       E                     dE             d eps       ncg     rms          rms(c)
DAV:   1    -0.353613755619E+02   -0.51490E-03   -0.53065E-02   976   0.972E-01    0.267E-02
DAV:   2    -0.353614426137E+02   -0.67052E-04   -0.78592E-04   968   0.224E-01
  75 F= -.38535601E+02 E0= -.38533839E+02  d E =-.452508E-03  mag=     0.0000
       N       E                     dE             d eps       ncg     rms          rms(c)
DAV:   1    -0.353621312488E+02   -0.75569E-03   -0.21054E-01   984   0.192E+00    0.515E-02
DAV:   2    -0.353624559446E+02   -0.32470E-03   -0.36446E-03  1344   0.524E-01    0.485E-02
DAV:   3    -0.353624470777E+02    0.88669E-05   -0.23594E-04   616   0.381E-01
  76 F= -.38536044E+02 E0= -.38534286E+02  d E =-.895363E-03  mag=    -0.0000
       N       E                     dE             d eps       ncg     rms          rms(c)
DAV:   1    -0.353628162263E+02   -0.36028E-03   -0.83280E-01   976   0.379E+00    0.943E-02
DAV:   2    -0.353640791642E+02   -0.12629E-02   -0.13722E-02  1360   0.974E-01    0.870E-02
DAV:   3    -0.353640628268E+02    0.16337E-04   -0.84924E-04   960   0.778E-01
  77 F= -.38536584E+02 E0= -.38534830E+02  d E =-.143546E-02  mag=    -0.0000
       N       E                     dE             d eps       ncg     rms          rms(c)
DAV:   1    -0.353643997120E+02   -0.32055E-03   -0.75025E-02  1288   0.142E+00    0.684E-02
DAV:   2    -0.353644959032E+02   -0.96191E-04   -0.19905E-03   688   0.138E+00
  78 F= -.38537021E+02 E0= -.38535276E+02  d E =-.437353E-03  mag=    -0.0000
       N       E                     dE             d eps       ncg     rms          rms(c)
DAV:   1    -0.353643752967E+02    0.24415E-04   -0.30415E-01  1200   0.266E+00    0.990E-02
DAV:   2    -0.353646953312E+02   -0.32003E-03   -0.46970E-03  1200   0.110E+00    0.813E-02
DAV:   3    -0.353646971630E+02   -0.18318E-05   -0.16962E-03   800   0.138E+00
  79 F= -.38537271E+02 E0= -.38535531E+02  d E =-.687733E-03  mag=    -0.0000
       N       E                     dE             d eps       ncg     rms          rms(c)
DAV:   1    -0.353646658754E+02    0.29456E-04   -0.94898E-03  1336   0.891E-01    0.235E-02
DAV:   2    -0.353646914717E+02   -0.25596E-04   -0.32798E-04   696   0.525E-01
  80 F= -.38537373E+02 E0= -.38535629E+02  d E =-.101246E-03  mag=    -0.0000
       N       E                     dE             d eps       ncg     rms          rms(c)
DAV:   1    -0.353646203946E+02    0.45481E-04   -0.79129E-02   960   0.123E+00    0.388E-02
DAV:   2    -0.353647747652E+02   -0.15437E-03   -0.17039E-03  1104   0.290E-01
  81 F= -.38537783E+02 E0= -.38536046E+02  d E =-.511700E-03  mag=    -0.0000
       N       E                     dE             d eps       ncg     rms          rms(c)
DAV:   1    -0.353641778650E+02    0.44253E-03   -0.31596E-01   960   0.232E+00    0.831E-02
DAV:   2    -0.353646810670E+02   -0.50320E-03   -0.59871E-03  1296   0.763E-01    0.717E-02
DAV:   3    -0.353646796438E+02    0.14232E-05   -0.94987E-04   800   0.960E-01
  82 F= -.38538374E+02 E0= -.38536648E+02  d E =-.110207E-02  mag=    -0.0000
       N       E                     dE             d eps       ncg     rms          rms(c)
DAV:   1    -0.353609214932E+02    0.37596E-02   -0.12501E+00   968   0.464E+00    0.150E-01
DAV:   2    -0.353631361708E+02   -0.22147E-02   -0.24765E-02  1304   0.115E+00    0.133E-01
DAV:   3    -0.353630360707E+02    0.10010E-03   -0.81418E-04   944   0.704E-01
  83 F= -.38538253E+02 E0= -.38536552E+02  d E =-.981780E-03  mag=    -0.0000
       N       E                     dE             d eps       ncg     rms          rms(c)
DAV:   1    -0.353629325246E+02    0.20365E-03   -0.84589E-01   960   0.397E+00    0.931E-02
DAV:   2    -0.353646439664E+02   -0.17114E-02   -0.18928E-02  1384   0.192E+00    0.100E-01
DAV:   3    -0.353645491526E+02    0.94814E-04   -0.24629E-03  1072   0.139E+00    0.756E-02
DAV:   4    -0.353645339047E+02    0.15248E-04   -0.60944E-04   776   0.623E-01
  84 F= -.38538478E+02 E0= -.38536756E+02  d E =-.120699E-02  mag=    -0.0000
       N       E                     dE             d eps       ncg     rms          rms(c)
DAV:   1    -0.353635680032E+02    0.98115E-03   -0.21059E-01   960   0.194E+00    0.485E-02
DAV:   2    -0.353639862131E+02   -0.41821E-03   -0.45621E-03  1400   0.874E-01    0.527E-02
DAV:   3    -0.353639545549E+02    0.31658E-04   -0.30340E-04   664   0.579E-01
  85 F= -.38538515E+02 E0= -.38536800E+02  d E =-.124369E-02  mag=    -0.0000
       N       E                     dE             d eps       ncg     rms          rms(c)
DAV:   1    -0.353641466967E+02   -0.16048E-03   -0.29669E-02  1048   0.787E-01    0.185E-02
DAV:   2    -0.353641912555E+02   -0.44559E-04   -0.51744E-04   768   0.540E-01
  86 F= -.38538516E+02 E0= -.38536798E+02  d E =-.124436E-02  mag=    -0.0000
       N       E                     dE             d eps       ncg     rms          rms(c)
DAV:   1    -0.353640838071E+02    0.62890E-04   -0.66902E-03  1320   0.564E-01    0.922E-03
DAV:   2    -0.353640919110E+02   -0.81038E-05   -0.93690E-05   632   0.229E-01
  87 F= -.38538526E+02 E0= -.38536810E+02  d E =-.125482E-02  mag=    -0.0000
       N       E                     dE             d eps       ncg     rms          rms(c)
DAV:   1    -0.353641272543E+02   -0.43447E-04   -0.10598E-03  1080   0.234E-01    0.888E-03
DAV:   2    -0.353641406559E+02   -0.13402E-04   -0.14927E-04   584   0.285E-01
  88 F= -.38538528E+02 E0= -.38536811E+02  d E =-.125627E-02  mag=    -0.0000
       N       E                     dE             d eps       ncg     rms          rms(c)
DAV:   1    -0.353640856104E+02    0.41644E-04   -0.30355E-04   648   0.221E-01    0.840E-03
DAV:   2    -0.353640995417E+02   -0.13931E-04   -0.14533E-04   584   0.226E-01
  89 F= -.38538521E+02 E0= -.38536805E+02  d E =-.124961E-02  mag=    -0.0000
       N       E                     dE             d eps       ncg     rms          rms(c)
DAV:   1    -0.353641308318E+02   -0.45221E-04   -0.11542E-04   584   0.174E-01    0.373E-03
DAV:   2    -0.353641341868E+02   -0.33550E-05   -0.31845E-05   520   0.332E-02
  90 F= -.38538532E+02 E0= -.38536816E+02  d E =-.126061E-02  mag=    -0.0000
       N       E                     dE             d eps       ncg     rms          rms(c)
DAV:   1    -0.353641320301E+02   -0.11983E-05   -0.61972E-06   504   0.494E-02    0.299E-03
DAV:   2    -0.353641324382E+02   -0.40809E-06   -0.49103E-06   528   0.784E-02
  91 F= -.38538533E+02 E0= -.38536817E+02  d E =-.126159E-02  mag=    -0.0000
       N       E                     dE             d eps       ncg     rms          rms(c)
DAV:   1    -0.353641334770E+02   -0.14469E-05   -0.20044E-06   480   0.549E-02    0.758E-04
DAV:   2    -0.353641336070E+02   -0.12999E-06   -0.11424E-06   544   0.331E-02
  92 F= -.38538533E+02 E0= -.38536817E+02  d E =-.126152E-02  mag=    -0.0000
       N       E                     dE             d eps       ncg     rms          rms(c)
DAV:   1    -0.353639193900E+02    0.21409E-03   -0.33489E-02   960   0.740E-01    0.226E-02
DAV:   2    -0.353639619595E+02   -0.42569E-04   -0.49786E-04   736   0.189E-01
  93 F= -.38538715E+02 E0= -.38537001E+02  d E =-.182044E-03  mag=    -0.0000
       N       E                     dE             d eps       ncg     rms          rms(c)
DAV:   1    -0.353636518381E+02    0.26755E-03   -0.61658E-02   960   0.105E+00    0.433E-02
DAV:   2    -0.353637025085E+02   -0.50670E-04   -0.83208E-04   776   0.489E-01
  94 F= -.38538937E+02 E0= -.38537228E+02  d E =-.404463E-03  mag=    -0.0000
       N       E                     dE             d eps       ncg     rms          rms(c)
DAV:   1    -0.353627915441E+02    0.86029E-03   -0.24364E-01   960   0.215E+00    0.859E-02
DAV:   2    -0.353632244329E+02   -0.43289E-03   -0.55597E-03  1344   0.112E+00    0.765E-02
DAV:   3    -0.353631705142E+02    0.53919E-04   -0.11803E-03   664   0.114E+00
  95 F= -.38539395E+02 E0= -.38537687E+02  d E =-.861590E-03  mag=    -0.0000
       N       E                     dE             d eps       ncg     rms          rms(c)
DAV:   1    -0.353632614321E+02   -0.36999E-04   -0.59588E-02  1208   0.121E+00    0.438E-02
DAV:   2    -0.353633085799E+02   -0.47148E-04   -0.76905E-04   920   0.527E-01
  96 F= -.38539864E+02 E0= -.38538153E+02  d E =-.468969E-03  mag=    -0.0000
       N       E                     dE             d eps       ncg     rms          rms(c)
DAV:   1    -0.353630497245E+02    0.21171E-03   -0.50836E-02  1056   0.109E+00    0.471E-02
DAV:   2    -0.353630889398E+02   -0.39215E-04   -0.70691E-04   800   0.642E-01
  97 F= -.38539970E+02 E0= -.38538258E+02  d E =-.575114E-03  mag=    -0.0000
       N       E                     dE             d eps       ncg     rms          rms(c)
DAV:   1    -0.353631858991E+02   -0.13617E-03   -0.38970E-03  1320   0.717E-01    0.288E-02
DAV:   2    -0.353632210393E+02   -0.35140E-04   -0.51644E-04   624   0.795E-01
  98 F= -.38540017E+02 E0= -.38538303E+02  d E =-.621983E-03  mag=    -0.0000
       N       E                     dE             d eps       ncg     rms          rms(c)
DAV:   1    -0.353630719696E+02    0.11393E-03   -0.62049E-04   704   0.621E-01    0.171E-02
DAV:   2    -0.353631170374E+02   -0.45068E-04   -0.50159E-04   736   0.487E-01
  99 F= -.38539962E+02 E0= -.38538249E+02  d E =-.567672E-03  mag=    -0.0000
       N       E                     dE             d eps       ncg     rms          rms(c)
DAV:   1    -0.353631759548E+02   -0.10399E-03   -0.34033E-04   704   0.384E-01    0.108E-02
DAV:   2    -0.353631868120E+02   -0.10857E-04   -0.99331E-05   592   0.167E-01
 100 F= -.38539990E+02 E0= -.38538278E+02  d E =-.595501E-03  mag=    -0.0000
       N       E                     dE             d eps       ncg     rms          rms(c)
DAV:   1    -0.353631632243E+02    0.12730E-04   -0.84075E-05   528   0.183E-01    0.754E-03
DAV:   2    -0.353631704347E+02   -0.72104E-05   -0.85792E-05   568   0.285E-01
 101 F= -.38539995E+02 E0= -.38538282E+02  d E =-.600072E-03  mag=    -0.0000
       N       E                     dE             d eps       ncg     rms          rms(c)
DAV:   1    -0.353631826469E+02   -0.19423E-04   -0.39714E-05   544   0.195E-01    0.311E-03
DAV:   2    -0.353631842499E+02   -0.16030E-05   -0.13429E-05   584   0.412E-02
 102 F= -.38539996E+02 E0= -.38538285E+02  d E =-.601665E-03  mag=    -0.0000
       N       E                     dE             d eps       ncg     rms          rms(c)
DAV:   1    -0.353625953475E+02    0.58730E-03   -0.95372E-02   984   0.128E+00    0.268E-02
DAV:   2    -0.353627569721E+02   -0.16162E-03   -0.17381E-03  1320   0.424E-01
 103 F= -.38540377E+02 E0= -.38538664E+02  d E =-.380961E-03  mag=    -0.0000
       N       E                     dE             d eps       ncg     rms          rms(c)
DAV:   1    -0.353623524133E+02    0.24293E-03   -0.35781E-02  1008   0.824E-01    0.301E-02
DAV:   2    -0.353623971870E+02   -0.44774E-04   -0.59807E-04   856   0.258E-01
 104 F= -.38540507E+02 E0= -.38538793E+02  d E =-.510941E-03  mag=    -0.0000
       N       E                     dE             d eps       ncg     rms          rms(c)
DAV:   1    -0.353623112866E+02    0.41127E-04   -0.36571E-03  1376   0.468E-01    0.292E-02
DAV:   2    -0.353623253518E+02   -0.14065E-04   -0.34190E-04   608   0.693E-01
 105 F= -.38540578E+02 E0= -.38538864E+02  d E =-.581997E-03  mag=    -0.0000
       N       E                     dE             d eps       ncg     rms          rms(c)
DAV:   1    -0.353620553133E+02    0.25597E-03   -0.12237E-02  1320   0.731E-01    0.204E-02
DAV:   2    -0.353620621450E+02   -0.68317E-05   -0.17078E-04   592   0.375E-01
 106 F= -.38540601E+02 E0= -.38538883E+02  d E =-.604756E-03  mag=    -0.0000
       N       E                     dE             d eps       ncg     rms          rms(c)
DAV:   1    -0.353614538107E+02    0.60150E-03   -0.48028E-02   984   0.978E-01    0.280E-02
DAV:   2    -0.353615009451E+02   -0.47134E-04   -0.62929E-04   816   0.444E-01
 107 F= -.38540613E+02 E0= -.38538894E+02  d E =-.616242E-03  mag=    -0.0000
       N       E                     dE             d eps       ncg     rms          rms(c)
DAV:   1    -0.353618681985E+02   -0.41439E-03   -0.19946E-02  1264   0.763E-01    0.171E-02
DAV:   2    -0.353618840803E+02   -0.15882E-04   -0.19150E-04   640   0.421E-01
 108 F= -.38540624E+02 E0= -.38538905E+02  d E =-.628087E-03  mag=    -0.0000
       N       E                     dE             d eps       ncg     rms          rms(c)
DAV:   1    -0.353616978449E+02    0.17035E-03   -0.59624E-03  1320   0.475E-01    0.102E-02
DAV:   2    -0.353617031499E+02   -0.53050E-05   -0.83353E-05   576   0.293E-01
 109 F= -.38540645E+02 E0= -.38538926E+02  d E =-.648958E-03  mag=    -0.0000
       N       E                     dE             d eps       ncg     rms          rms(c)
DAV:   1    -0.353613065651E+02    0.39128E-03   -0.13100E-02  1080   0.543E-01    0.142E-02
DAV:   2    -0.353613171096E+02   -0.10544E-04   -0.13923E-04   624   0.174E-01
 110 F= -.38540751E+02 E0= -.38539033E+02  d E =-.105832E-03  mag=    -0.0000
