<?xml version="1.0" encoding="ISO-8859-1"?>
<modeling>
 <generator>
  <i name="program" type="string">vasp </i>
  <i name="version" type="string">6.3.2  </i>
  <i name="subversion" type="string">27Jun22 (build Aug 17 2022 15:43:34) complex                          parallel </i>
  <i name="platform" type="string">tv2STDVTST </i>
  <i name="date" type="string">2025 02 04 </i>
  <i name="time" type="string">13:51:27 </i>
 </generator>
 <incar>
  <i type="int" name="ISTART">     0</i>
  <i type="string" name="PREC">Normal</i>
  <i type="int" name="ISPIN">     2</i>
  <i type="int" name="ICHARG">     2</i>
  <i type="int" name="IBRION">     2</i>
  <i name="EDIFF">      0.00020000</i>
  <i name="EDIFFG">     -0.03000000</i>
  <i type="int" name="NSW">   800</i>
  <i type="int" name="ISIF">     2</i>
  <i type="int" name="ISYM">     1</i>
  <i name="ENCUT">    400.00000000</i>
  <i name="POTIM">      0.50000000</i>
  <i type="logical" name="LREAL"> F  </i>
  <i type="int" name="ISMEAR">     1</i>
  <i name="SIGMA">      0.20000000</i>
  <i type="logical" name="LWAVE"> F  </i>
  <i type="logical" name="LCHARG"> F  </i>
  <i type="string" name="GGA">PE</i>
  <i type="int" name="IVDW">    11</i>
 </incar>
 <primitive_cell>
  <structure name="primitive_cell" >
   <crystal>
    <varray name="basis" >
     <v>       3.63000011       0.00000000       0.00000000 </v>
     <v>       0.00000000       2.56679773       0.00000000 </v>
     <v>       0.00000000       0.00000000      23.98379135 </v>
    </varray>
    <i name="volume">    223.46840188 </i>
    <varray name="rec_basis" >
     <v>       0.27548208       0.00000000       0.00000000 </v>
     <v>       0.00000000       0.38959050       0.00000000 </v>
     <v>       0.00000000       0.00000000       0.04169483 </v>
    </varray>
   </crystal>
   <varray name="positions" >
    <v>       0.00000000       0.00000000       0.00000000 </v>
    <v>       0.50000000       0.50000000       0.05351109 </v>
    <v>       0.00000000       0.00000000       0.10468148 </v>
    <v>       0.50000000       0.50000000       0.15792996 </v>
    <v>       0.00000000       0.00000000       0.21070899 </v>
    <v>       0.50000000       0.50000000       0.26289048 </v>
    <v>       0.00000000       0.00000000       0.31711592 </v>
    <v>       0.50000000       0.50000000       0.36467590 </v>
    <v>       1.00000000       0.00000000       0.42690792 </v>
    <v>       1.00000000       0.29063451       0.42690792 </v>
   </varray>
  </structure>
  <varray name="primitive_index" >
   <v type="int" >        1 </v>
   <v type="int" >        2 </v>
   <v type="int" >        3 </v>
   <v type="int" >        4 </v>
   <v type="int" >        5 </v>
   <v type="int" >        6 </v>
   <v type="int" >        7 </v>
   <v type="int" >        8 </v>
   <v type="int" >        9 </v>
   <v type="int" >       10 </v>
  </varray>
 </primitive_cell>
 <kpoints>
  <generation param="Monkhorst-Pack">
   <v type="int" name="divisions">       3        3        1 </v>
   <v name="usershift">      0.00000000       0.00000000       0.00000000 </v>
   <v name="genvec1">      0.33333333       0.00000000       0.00000000 </v>
   <v name="genvec2">      0.00000000       0.33333333       0.00000000 </v>
   <v name="genvec3">      0.00000000       0.00000000       1.00000000 </v>
   <v name="shift">      0.00000000       0.00000000       0.00000000 </v>
  </generation>
  <varray name="kpointlist" >
   <v>       0.00000000       0.00000000       0.00000000 </v>
   <v>       0.33333333       0.00000000       0.00000000 </v>
   <v>       0.00000000       0.33333333       0.00000000 </v>
   <v>       0.33333333       0.33333333       0.00000000 </v>
  </varray>
  <varray name="weights" >
   <v>       0.11111111 </v>
   <v>       0.22222222 </v>
   <v>       0.22222222 </v>
   <v>       0.44444444 </v>
  </varray>
 </kpoints>
 <parameters>
  <separator name="general" >
   <i type="string" name="SYSTEM">unknown system</i>
   <i type="logical" name="LCOMPAT"> F  </i>
  </separator>
  <separator name="electronic" >
   <i type="string" name="PREC">normal</i>
   <i name="ENMAX">    400.00000000</i>
   <i name="ENAUG">    586.98000000</i>
   <i name="EDIFF">      0.00020000</i>
   <i type="int" name="IALGO">    38</i>
   <i type="int" name="IWAVPR">    11</i>
   <i type="int" name="NBANDS">    60</i>
   <i type="int" name="NBANDSLOW">    -1</i>
   <i type="int" name="NBANDSHIGH">    -1</i>
   <i name="NELECT">     90.00000000</i>
   <i type="int" name="TURBO">     0</i>
   <i type="int" name="IRESTART">     0</i>
   <i type="int" name="NREBOOT">     0</i>
   <i type="int" name="NMIN">     0</i>
   <i name="EREF">      0.00000000</i>
   <separator name="electronic smearing" >
    <i type="int" name="ISMEAR">     1</i>
    <i name="SIGMA">      0.20000000</i>
    <i name="KSPACING">      0.50000000</i>
    <i type="logical" name="KGAMMA"> T  </i>
    <i type="logical" name="KBLOWUP"> T  </i>
   </separator>
   <separator name="electronic projectors" >
    <i type="logical" name="LREAL"> F  </i>
    <v name="ROPT">      0.00000000      0.00000000</v>
    <i type="int" name="LMAXPAW">  -100</i>
    <i type="int" name="LMAXMIX">     2</i>
    <i type="logical" name="NLSPLINE"> F  </i>
   </separator>
   <separator name="electronic startup" >
    <i type="int" name="ISTART">     0</i>
    <i type="int" name="ICHARG">     2</i>
    <i type="int" name="INIWAV">     1</i>
   </separator>
   <separator name="electronic spin" >
    <i type="int" name="ISPIN">     2</i>
    <i type="logical" name="LNONCOLLINEAR"> F  </i>
    <v name="MAGMOM">      1.00000000      1.00000000      1.00000000      1.00000000      1.00000000      1.00000000      1.00000000      1.00000000      1.00000000      1.00000000</v>
    <i name="NUPDOWN">     -1.00000000</i>
    <i type="logical" name="LSORBIT"> F  </i>
    <v name="SAXIS">      0.00000000      0.00000000      1.00000000</v>
    <i type="logical" name="LSPIRAL"> F  </i>
    <v name="QSPIRAL">      0.00000000      0.00000000      0.00000000</v>
    <i type="logical" name="LZEROZ"> F  </i>
   </separator>
   <separator name="electronic exchange-correlation" >
    <i type="logical" name="LASPH"> F  </i>
    <i type="logical" name="LMETAGGA"> F  </i>
   </separator>
   <separator name="electronic convergence" >
    <i type="int" name="NELM">    60</i>
    <i type="int" name="NELMDL">    -5</i>
    <i type="int" name="NELMIN">     2</i>
    <i name="ENINI">    400.00000000</i>
    <separator name="electronic convergence detail" >
     <i type="logical" name="LDIAG"> T  </i>
     <i type="logical" name="LSUBROT"> F  </i>
     <i name="WEIMIN">      0.00100000</i>
     <i name="EBREAK">      0.00000083</i>
     <i name="DEPER">      0.30000000</i>
     <i type="int" name="NRMM">     4</i>
     <i name="TIME">      0.40000000</i>
    </separator>
   </separator>
   <separator name="electronic mixer" >
    <i name="AMIX">      0.40000000</i>
    <i name="BMIX">      1.00000000</i>
    <i name="AMIN">      0.10000000</i>
    <i name="AMIX_MAG">      1.60000000</i>
    <i name="BMIX_MAG">      1.00000000</i>
    <separator name="electronic mixer details" >
     <i type="int" name="IMIX">     4</i>
     <i type="logical" name="MIXFIRST"> F  </i>
     <i type="int" name="MAXMIX">   -45</i>
     <i name="WC">    100.00000000</i>
     <i type="int" name="INIMIX">     1</i>
     <i type="int" name="MIXPRE">     1</i>
     <i type="int" name="MREMOVE">     5</i>
    </separator>
   </separator>
   <separator name="electronic dipolcorrection" >
    <i type="logical" name="LDIPOL"> F  </i>
    <i type="logical" name="LMONO"> F  </i>
    <i type="int" name="IDIPOL">     0</i>
    <i name="EPSILON">      1.00000000</i>
    <v name="DIPOL">   -100.00000000   -100.00000000   -100.00000000</v>
    <i name="EFIELD">      0.00000000</i>
   </separator>
  </separator>
  <separator name="grids" >
   <i type="int" name="NGX">    18</i>
   <i type="int" name="NGY">    14</i>
   <i type="int" name="NGZ">   120</i>
   <i type="int" name="NGXF">    36</i>
   <i type="int" name="NGYF">    28</i>
   <i type="int" name="NGZF">   240</i>
   <i type="logical" name="ADDGRID"> F  </i>
  </separator>
  <separator name="ionic" >
   <i type="int" name="NSW">   800</i>
   <i type="int" name="IBRION">     2</i>
   <i type="int" name="MDALGO">     0</i>
   <i type="int" name="ISIF">     2</i>
   <i name="PSTRESS">      0.00000000</i>
   <i name="EDIFFG">     -0.03000000</i>
   <i type="int" name="NFREE">     1</i>
   <i name="POTIM">      0.50000000</i>
   <i name="SMASS">     -3.00000000</i>
   <i name="SCALEE">      1.00000000</i>
  </separator>
  <separator name="ionic md" >
   <i name="TEBEG">      0.00010000</i>
   <i name="TEEND">      0.00010000</i>
   <i type="int" name="NBLOCK">     1</i>
   <i type="int" name="KBLOCK">   800</i>
   <i type="int" name="NPACO">   256</i>
   <i name="APACO">     10.00000000</i>
  </separator>
  <separator name="symmetry" >
   <i type="int" name="ISYM">     1</i>
   <i name="SYMPREC">      0.00001000</i>
  </separator>
  <separator name="dos" >
   <i type="int" name="LORBIT">     0</i>
   <v name="RWIGS">     -1.00000000     -1.00000000</v>
   <i type="int" name="NEDOS">   301</i>
   <i name="EMIN">     10.00000000</i>
   <i name="EMAX">    -10.00000000</i>
   <i name="EFERMI">      0.00000000</i>
  </separator>
  <separator name="writing" >
   <i type="int" name="NWRITE">     2</i>
   <i type="logical" name="LWAVE"> F  </i>
   <i type="logical" name="LDOWNSAMPLE"> F  </i>
   <i type="logical" name="LCHARG"> F  </i>
   <i type="logical" name="LPARD"> F  </i>
   <i type="logical" name="LVTOT"> F  </i>
   <i type="logical" name="LVHAR"> F  </i>
   <i type="logical" name="LELF"> F  </i>
   <i type="logical" name="LOPTICS"> F  </i>
   <v name="STM">      0.00000000      0.00000000      0.00000000      0.00000000      0.00000000      0.00000000      0.00000000</v>
  </separator>
  <separator name="performance" >
   <i type="int" name="NPAR">     4</i>
   <i type="int" name="NSIM">     4</i>
   <i type="int" name="NBLK">    -1</i>
   <i type="logical" name="LPLANE"> T  </i>
   <i type="logical" name="LSCALAPACK"> T  </i>
   <i type="logical" name="LSCAAWARE"> F  </i>
   <i type="logical" name="LSCALU"> F  </i>
   <i type="logical" name="LASYNC"> F  </i>
   <i type="logical" name="LORBITALREAL"> F  </i>
  </separator>
  <separator name="miscellaneous" >
   <i type="int" name="IDIOT">     3</i>
   <i type="int" name="PHON_NSTRUCT">    -1</i>
   <i type="logical" name="LMUSIC"> F  </i>
   <v name="POMASS">     63.54600000      1.00000000</v>
   <v name="DARWINR">      0.00000000      0.00000000</v>
   <v name="DARWINV">      1.00000000      1.00000000</v>
   <i type="logical" name="LCORR"> T  </i>
  </separator>
  <i type="logical" name="GGA_COMPAT"> T  </i>
  <i type="logical" name="LBERRY"> F  </i>
  <i type="int" name="ICORELEVEL">     0</i>
  <i type="logical" name="LDAU"> F  </i>
  <i type="int" name="I_CONSTRAINED_M">     0</i>
  <separator name="electronic exchange-correlation" >
   <i type="string" name="GGA">PE</i>
   <i type="int" name="VOSKOWN">     0</i>
   <i type="logical" name="LHFCALC"> F  </i>
   <i type="string" name="PRECFOCK"></i>
   <i type="logical" name="LSYMGRAD"> F  </i>
   <i type="logical" name="LHFONE"> F  </i>
   <i type="logical" name="LRHFCALC"> F  </i>
   <i type="logical" name="LTHOMAS"> F  </i>
   <i type="logical" name="LMODELHF"> F  </i>
   <i type="logical" name="LFOCKACE"> F  </i>
   <i name="ENCUT4O">     -1.00000000</i>
   <i type="int" name="EXXOEP">     0</i>
   <i type="int" name="FOURORBIT">     0</i>
   <i name="AEXX">      0.00000000</i>
   <i name="HFALPHA">      0.00000000</i>
   <i name="MCALPHA">      0.00000000</i>
   <i name="ALDAX">      1.00000000</i>
   <i name="AGGAX">      1.00000000</i>
   <i name="ALDAC">      1.00000000</i>
   <i name="AGGAC">      1.00000000</i>
   <i type="int" name="NKREDX">     1</i>
   <i type="int" name="NKREDY">     1</i>
   <i type="int" name="NKREDZ">     1</i>
   <i type="logical" name="SHIFTRED"> F  </i>
   <i type="logical" name="ODDONLY"> F  </i>
   <i type="logical" name="EVENONLY"> F  </i>
   <i type="int" name="LMAXFOCK">     0</i>
   <i type="int" name="NMAXFOCKAE">     0</i>
   <i type="logical" name="LFOCKAEDFT"> F  </i>
   <i name="HFSCREEN">      0.00000000</i>
   <i name="HFSCREENC">      0.00000000</i>
   <i type="int" name="NBANDSGWLOW">     0</i>
  </separator>
  <separator name="vdW DFT" >
   <i type="logical" name="LUSE_VDW"> F  </i>
   <i name="Zab_VDW">     -0.84910000</i>
   <i name="PARAM1">      0.12340000</i>
   <i name="PARAM2">      1.00000000</i>
   <i name="PARAM3">      0.00000000</i>
  </separator>
  <separator name="model GW" >
   <i type="int" name="MODEL_GW">     0</i>
   <i name="MODEL_EPS0">     13.40810411</i>
   <i name="MODEL_ALPHA">      1.00000000</i>
  </separator>
  <separator name="linear response parameters" >
   <i type="logical" name="LEPSILON"> F  </i>
   <i type="logical" name="LRPA"> F  </i>
   <i type="logical" name="LNABLA"> F  </i>
   <i type="logical" name="LVEL"> F  </i>
   <i name="CSHIFT">      0.10000000</i>
   <i name="OMEGAMAX">     -1.00000000</i>
   <i name="DEG_THRESHOLD">      0.00200000</i>
   <i name="RTIME">     -0.10000000</i>
   <i name="WPLASMAI">      0.00000000</i>
   <v name="DFIELD">      0.00000000      0.00000000      0.00000000</v>
   <v name="WPLASMA">      0.00000000      0.00000000      0.00000000      0.00000000      0.00000000      0.00000000      0.00000000      0.00000000      0.00000000</v>
  </separator>
  <separator name="orbital magnetization" >
   <i type="logical" name="NUCIND"> F  </i>
   <v name="MAGPOS">      0.00000000      0.00000000      0.00000000</v>
   <i type="logical" name="LNICSALL"> T  </i>
   <i type="logical" name="ORBITALMAG"> F  </i>
   <i type="logical" name="LMAGBLOCH"> F  </i>
   <i type="logical" name="LCHIMAG"> F  </i>
   <i type="logical" name="LGAUGE"> T  </i>
   <i type="int" name="MAGATOM">     0</i>
   <v name="MAGDIPOL">      0.00000000      0.00000000      0.00000000</v>
   <v name="AVECCONST">      0.00000000      0.00000000      0.00000000</v>
  </separator>
  <separator name="response functions" >
   <i type="logical" name="LFINITE_TEMPERATURE"> F  </i>
   <i type="logical" name="LADDER"> F  </i>
   <i type="logical" name="LRPAFORCE"> F  </i>
   <i type="logical" name="LFXC"> F  </i>
   <i type="logical" name="LHARTREE"> T  </i>
   <i type="int" name="IBSE">     0</i>
   <v type="int" name="KPOINT">    -1     0     0     0</v>
   <i type="logical" name="LTCTC"> F  </i>
   <i type="logical" name="LTCTE"> F  </i>
   <i type="logical" name="LTETE"> F  </i>
   <i type="logical" name="LTRIPLET"> F  </i>
   <i type="logical" name="LFXCEPS"> F  </i>
   <i type="logical" name="LFXHEG"> F  </i>
   <i type="int" name="NATURALO">     2</i>
   <i type="logical" name="LHOLEGF"> F  </i>
   <i type="logical" name="L2ORDER"> F  </i>
   <i type="logical" name="LDMP1"> F  </i>
   <i type="logical" name="LMP2LT"> F  </i>
   <i type="logical" name="LSMP2LT"> F  </i>
   <i type="logical" name="LGWLF"> F  </i>
   <i name="ENCUTGW">     -2.00000000</i>
   <i name="ENCUTGWSOFT">     -2.00000000</i>
   <i name="ENCUTLF">     -1.00000000</i>
   <i type="logical" name="LESF_SPLINES"> F  </i>
   <i type="int" name="LMAXMP2">    -1</i>
   <i name="SCISSOR">      0.00000000</i>
   <i type="int" name="NOMEGA">     0</i>
   <i type="int" name="NOMEGAR">     0</i>
   <i type="int" name="NBANDSGW">    -1</i>
   <i type="int" name="NBANDSO">    -1</i>
   <i type="int" name="NBANDSV">    -1</i>
   <i type="int" name="NELMGW">     1</i>
   <i type="int" name="NELMHF">     1</i>
   <i type="int" name="DIM">     3</i>
   <i type="int" name="IESPILON">     4</i>
   <i type="int" name="ANTIRES">     0</i>
   <i name="OMEGAMAX">    -30.00000000</i>
   <i name="OMEGAMIN">    -30.00000000</i>
   <i name="OMEGATL">   -200.00000000</i>
   <i type="int" name="OMEGAGRID">     0</i>
   <i name="CSHIFT">     -0.10000000</i>
   <i type="logical" name="LSELFENERGY"> F  </i>
   <i type="logical" name="LSPECTRAL"> F  </i>
   <i type="logical" name="LSPECTRALGW"> F  </i>
   <i type="logical" name="LSINGLES"> F  </i>
   <i type="logical" name="LFERMIGW"> F  </i>
   <i type="logical" name="ODDONLYGW"> F  </i>
   <i type="logical" name="EVENONLYGW"> F  </i>
   <i type="int" name="NKREDLFX">     1</i>
   <i type="int" name="NKREDLFY">     1</i>
   <i type="int" name="NKREDLFZ">     1</i>
   <i type="int" name="MAXMEM">  2800</i>
   <i type="int" name="TELESCOPE">     0</i>
   <i type="int" name="NTAUPAR">    -1</i>
   <i type="int" name="NOMEGAPAR">    -1</i>
   <i name="DAMP_NEWTON">      0.80000001</i>
   <i name="LAMBDA">      1.00000000</i>
  </separator>
  <separator name="External order field" >
   <i name="OFIELD_KAPPA">      0.00000000</i>
   <v name="OFIELD_K">      0.00000000      0.00000000      0.00000000</v>
   <i name="OFIELD_Q6_NEAR">      0.00000000</i>
   <i name="OFIELD_Q6_FAR">      0.00000000</i>
   <i name="OFIELD_A">      0.00000000</i>
  </separator>
  <separator name="optional k-points parameters" >
   <i type="int" name="KPOINTS_OPT_MODE">     1</i>
   <i type="logical" name="LKPOINTS_OPT"> F  </i>
  </separator>
 </parameters>
 <atominfo>
  <atoms>      10 </atoms>
  <types>       2 </types>
  <array name="atoms" >
   <dimension dim="1">ion</dimension>
   <field type="string">element</field>
   <field type="int">atomtype</field>
   <set>
    <rc><c>Cu</c><c>   1</c></rc>
    <rc><c>Cu</c><c>   1</c></rc>
    <rc><c>Cu</c><c>   1</c></rc>
    <rc><c>Cu</c><c>   1</c></rc>
    <rc><c>Cu</c><c>   1</c></rc>
    <rc><c>Cu</c><c>   1</c></rc>
    <rc><c>Cu</c><c>   1</c></rc>
    <rc><c>Cu</c><c>   1</c></rc>
    <rc><c>H </c><c>   2</c></rc>
    <rc><c>H </c><c>   2</c></rc>
   </set>
  </array>
  <array name="atomtypes" >
   <dimension dim="1">type</dimension>
   <field type="int">atomspertype</field>
   <field type="string">element</field>
   <field>mass</field>
   <field>valence</field>
   <field type="string">pseudopotential</field>
   <set>
    <rc><c>   8</c><c>Cu</c><c>     63.54600000</c><c>     11.00000000</c><c>  PAW_PBE Cu 22Jun2005                  </c></rc>
    <rc><c>   2</c><c>H </c><c>      1.00000000</c><c>      1.00000000</c><c>  PAW_PBE H 15Jun2001                   </c></rc>
   </set>
  </array>
 </atominfo>
 <structure name="initialpos" >
  <crystal>
   <varray name="basis" >
    <v>       3.63000011       0.00000000       0.00000000 </v>
    <v>       0.00000000       2.56679773       0.00000000 </v>
    <v>       0.00000000       0.00000000      23.98379135 </v>
   </varray>
   <i name="volume">    223.46840188 </i>
   <varray name="rec_basis" >
    <v>       0.27548208       0.00000000       0.00000000 </v>
    <v>       0.00000000       0.38959050       0.00000000 </v>
    <v>       0.00000000       0.00000000       0.04169483 </v>
   </varray>
  </crystal>
  <varray name="positions" >
   <v>       0.00000000       0.00000000       0.00000000 </v>
   <v>       0.50000000       0.50000000       0.05351109 </v>
   <v>       0.00000000       0.00000000       0.10468148 </v>
   <v>       0.50000000       0.50000000       0.15792996 </v>
   <v>       0.00000000       0.00000000       0.21070899 </v>
   <v>       0.50000000       0.50000000       0.26289048 </v>
   <v>       0.00000000       0.00000000       0.31711592 </v>
   <v>       0.50000000       0.50000000       0.36467590 </v>
   <v>       1.00000000       0.00000000       0.42690792 </v>
   <v>       1.00000000       0.29063451       0.42690792 </v>
  </varray>
 </structure>
 <calculation>
  <scstep>
   <time name="dav">    0.32    0.32</time>
   <time name="total">    0.34    0.35</time>
   <energy>
    <i name="alphaZ">    216.17040255 </i>
    <i name="ewald">  42500.57693283 </i>
    <i name="hartreedc"> -53323.33693724 </i>
    <i name="XCdc">    371.43619802 </i>
    <i name="pawpsdc">   9828.36862813 </i>
    <i name="pawaedc"> -10674.97285505 </i>
    <i name="eentropy">      0.00299337 </i>
    <i name="bandstr">    701.52421927 </i>
    <i name="atom">  11152.61838693 </i>
    <i name="e_fr_energy">    772.38796880 </i>
    <i name="e_wo_entrp">    772.38497543 </i>
    <i name="e_0_energy">    772.38697101 </i>
   </energy>
  </scstep>
  <scstep>
   <time name="dav">    0.30    0.31</time>
   <time name="total">    0.31    0.31</time>
   <energy>
    <i name="e_fr_energy">     58.81498208 </i>
    <i name="e_wo_entrp">     58.82892983 </i>
    <i name="e_0_energy">     58.81963133 </i>
   </energy>
  </scstep>
  <scstep>
   <time name="dav">    0.31    0.31</time>
   <time name="total">    0.31    0.31</time>
   <energy>
    <i name="e_fr_energy">    -30.77366393 </i>
    <i name="e_wo_entrp">    -30.77263501 </i>
    <i name="e_0_energy">    -30.77332096 </i>
   </energy>
  </scstep>
  <scstep>
   <time name="dav">    0.35    0.36</time>
   <time name="total">    0.35    0.36</time>
   <energy>
    <i name="e_fr_energy">    -34.52555210 </i>
    <i name="e_wo_entrp">    -34.52286126 </i>
    <i name="e_0_energy">    -34.52465516 </i>
   </energy>
  </scstep>
  <scstep>
   <time name="dav">    0.34    0.35</time>
   <time name="total">    0.40    0.40</time>
   <energy>
    <i name="e_fr_energy">    -34.60967855 </i>
    <i name="e_wo_entrp">    -34.60693321 </i>
    <i name="e_0_energy">    -34.60876344 </i>
   </energy>
  </scstep>
  <scstep>
   <time name="dav">    0.33    0.34</time>
   <time name="total">    0.41    0.42</time>
   <energy>
    <i name="e_fr_energy">    -29.58948311 </i>
    <i name="e_wo_entrp">    -29.57898030 </i>
    <i name="e_0_energy">    -29.58598217 </i>
   </energy>
  </scstep>
  <scstep>
   <time name="dav">    0.35    0.35</time>
   <time name="total">    0.42    0.43</time>
   <energy>
    <i name="e_fr_energy">    -27.33520974 </i>
    <i name="e_wo_entrp">    -27.32135941 </i>
    <i name="e_0_energy">    -27.33059296 </i>
   </energy>
  </scstep>
  <scstep>
   <time name="dav">    0.38    0.39</time>
   <time name="total">    0.46    0.46</time>
   <energy>
    <i name="e_fr_energy">    -26.96697259 </i>
    <i name="e_wo_entrp">    -26.95911098 </i>
    <i name="e_0_energy">    -26.96435205 </i>
   </energy>
  </scstep>
  <scstep>
   <time name="dav">    0.47    0.47</time>
   <time name="total">    0.54    0.55</time>
   <energy>
    <i name="e_fr_energy">    -26.51862407 </i>
    <i name="e_wo_entrp">    -26.50194419 </i>
    <i name="e_0_energy">    -26.51306411 </i>
   </energy>
  </scstep>
  <scstep>
   <time name="dav">    0.39    0.39</time>
   <time name="total">    0.47    0.48</time>
   <energy>
    <i name="e_fr_energy">    -27.04972946 </i>
    <i name="e_wo_entrp">    -27.03268886 </i>
    <i name="e_0_energy">    -27.04404926 </i>
   </energy>
  </scstep>
  <scstep>
   <time name="dav">    0.37    0.37</time>
   <time name="total">    0.45    0.45</time>
   <energy>
    <i name="e_fr_energy">    -28.62650717 </i>
    <i name="e_wo_entrp">    -28.62072539 </i>
    <i name="e_0_energy">    -28.62457991 </i>
   </energy>
  </scstep>
  <scstep>
   <time name="dav">    0.36    0.36</time>
   <time name="total">    0.44    0.44</time>
   <energy>
    <i name="e_fr_energy">    -29.59158652 </i>
    <i name="e_wo_entrp">    -29.58918467 </i>
    <i name="e_0_energy">    -29.59078590 </i>
   </energy>
  </scstep>
  <scstep>
   <time name="dav">    0.38    0.38</time>
   <time name="total">    0.45    0.46</time>
   <energy>
    <i name="e_fr_energy">    -31.62310792 </i>
    <i name="e_wo_entrp">    -31.60802351 </i>
    <i name="e_0_energy">    -31.61807978 </i>
   </energy>
  </scstep>
  <scstep>
   <time name="dav">    0.37    0.37</time>
   <time name="total">    0.44    0.45</time>
   <energy>
    <i name="e_fr_energy">    -33.49332616 </i>
    <i name="e_wo_entrp">    -33.48338055 </i>
    <i name="e_0_energy">    -33.49001096 </i>
   </energy>
  </scstep>
  <scstep>
   <time name="dav">    0.35    0.35</time>
   <time name="total">    0.42    0.42</time>
   <energy>
    <i name="e_fr_energy">    -34.06462508 </i>
    <i name="e_wo_entrp">    -34.06397571 </i>
    <i name="e_0_energy">    -34.06440862 </i>
   </energy>
  </scstep>
  <scstep>
   <time name="dav">    0.35    0.35</time>
   <time name="total">    0.43    0.43</time>
   <energy>
    <i name="e_fr_energy">    -34.30376234 </i>
    <i name="e_wo_entrp">    -34.30864061 </i>
    <i name="e_0_energy">    -34.30538843 </i>
   </energy>
  </scstep>
  <scstep>
   <time name="dav">    0.35    0.36</time>
   <time name="total">    0.43    0.44</time>
   <energy>
    <i name="e_fr_energy">    -34.48041518 </i>
    <i name="e_wo_entrp">    -34.48917632 </i>
    <i name="e_0_energy">    -34.48333556 </i>
   </energy>
  </scstep>
  <scstep>
   <time name="dav">    0.35    0.35</time>
   <time name="total">    0.42    0.42</time>
   <energy>
    <i name="e_fr_energy">    -34.53605225 </i>
    <i name="e_wo_entrp">    -34.54678923 </i>
    <i name="e_0_energy">    -34.53963124 </i>
   </energy>
  </scstep>
  <scstep>
   <time name="dav">    0.35    0.35</time>
   <time name="total">    0.42    0.43</time>
   <energy>
    <i name="e_fr_energy">    -34.62835808 </i>
    <i name="e_wo_entrp">    -34.63987744 </i>
    <i name="e_0_energy">    -34.63219787 </i>
   </energy>
  </scstep>
  <scstep>
   <time name="dav">    0.35    0.35</time>
   <time name="total">    0.43    0.43</time>
   <energy>
    <i name="e_fr_energy">    -34.67691460 </i>
    <i name="e_wo_entrp">    -34.68888473 </i>
    <i name="e_0_energy">    -34.68090464 </i>
   </energy>
  </scstep>
  <scstep>
   <time name="dav">    0.35    0.35</time>
   <time name="total">    0.43    0.43</time>
   <energy>
    <i name="e_fr_energy">    -34.71223902 </i>
    <i name="e_wo_entrp">    -34.72427788 </i>
    <i name="e_0_energy">    -34.71625197 </i>
   </energy>
  </scstep>
  <scstep>
   <time name="dav">    0.33    0.33</time>
   <time name="total">    0.41    0.41</time>
   <energy>
    <i name="e_fr_energy">    -34.76598105 </i>
    <i name="e_wo_entrp">    -34.77798228 </i>
    <i name="e_0_energy">    -34.76998146 </i>
   </energy>
  </scstep>
  <scstep>
   <time name="dav">    0.33    0.33</time>
   <time name="total">    0.40    0.41</time>
   <energy>
    <i name="e_fr_energy">    -34.81040939 </i>
    <i name="e_wo_entrp">    -34.82236605 </i>
    <i name="e_0_energy">    -34.81439494 </i>
   </energy>
  </scstep>
  <scstep>
   <time name="dav">    0.29    0.29</time>
   <time name="total">    0.37    0.37</time>
   <energy>
    <i name="e_fr_energy">    -34.84075196 </i>
    <i name="e_wo_entrp">    -34.85250019 </i>
    <i name="e_0_energy">    -34.84466804 </i>
   </energy>
  </scstep>
  <scstep>
   <time name="dav">    0.28    0.28</time>
   <time name="total">    0.36    0.36</time>
   <energy>
    <i name="e_fr_energy">    -34.85984215 </i>
    <i name="e_wo_entrp">    -34.87149123 </i>
    <i name="e_0_energy">    -34.86372518 </i>
   </energy>
  </scstep>
  <scstep>
   <time name="dav">    0.27    0.28</time>
   <time name="total">    0.35    0.36</time>
   <energy>
    <i name="e_fr_energy">    -34.86481424 </i>
    <i name="e_wo_entrp">    -34.87641863 </i>
    <i name="e_0_energy">    -34.86868237 </i>
   </energy>
  </scstep>
  <scstep>
   <time name="dav">    0.25    0.25</time>
   <time name="total">    0.33    0.33</time>
   <energy>
    <i name="e_fr_energy">    -34.86524748 </i>
    <i name="e_wo_entrp">    -34.87682826 </i>
    <i name="e_0_energy">    -34.86910774 </i>
   </energy>
  </scstep>
  <scstep>
   <time name="dav">    0.25    0.25</time>
   <time name="total">    0.27    0.27</time>
   <energy>
    <i name="alphaZ">    216.17040255 </i>
    <i name="ewald">  42500.57693283 </i>
    <i name="hartreedc"> -53249.17118990 </i>
    <i name="XCdc">    362.30273818 </i>
    <i name="pawpsdc">  10509.65669673 </i>
    <i name="pawaedc"> -11371.33476168 </i>
    <i name="eentropy">      0.01152903 </i>
    <i name="bandstr">   -155.69611021 </i>
    <i name="atom">  11152.61838693 </i>
    <i name="e_fr_energy">    -34.86537556 </i>
    <i name="e_wo_entrp">    -34.87690458 </i>
    <i name="e_0_energy">    -34.86921857 </i>
   </energy>
  </scstep>
  <structure>
   <crystal>
    <varray name="basis" >
     <v>       3.63000011       0.00000000       0.00000000 </v>
     <v>       0.00000000       2.56679773       0.00000000 </v>
     <v>       0.00000000       0.00000000      23.98379135 </v>
    </varray>
    <i name="volume">    223.46840188 </i>
    <varray name="rec_basis" >
     <v>       0.27548208       0.00000000       0.00000000 </v>
     <v>       0.00000000       0.38959050       0.00000000 </v>
     <v>       0.00000000       0.00000000       0.04169483 </v>
    </varray>
   </crystal>
   <varray name="positions" >
    <v>       0.00000000       0.00000000       0.00000000 </v>
    <v>       0.50000000       0.50000000       0.05351109 </v>
    <v>       0.00000000       0.00000000       0.10468148 </v>
    <v>       0.50000000       0.50000000       0.15792996 </v>
    <v>       0.00000000       0.00000000       0.21070899 </v>
    <v>       0.50000000       0.50000000       0.26289048 </v>
    <v>       0.00000000       0.00000000       0.31711592 </v>
    <v>       0.50000000       0.50000000       0.36467590 </v>
    <v>       1.00000000       0.00000000       0.42690792 </v>
    <v>       1.00000000       0.29063451       0.42690792 </v>
   </varray>
  </structure>
  <varray name="forces" >
   <v>       0.00000000      -0.00030323       0.50503533 </v>
   <v>       0.00000000      -0.00033722      -0.45067896 </v>
   <v>       0.00000000       0.00218186      -0.02441964 </v>
   <v>       0.00000000      -0.00273533       0.10142259 </v>
   <v>       0.00000000       0.00036045      -0.14918285 </v>
   <v>       0.00000000       0.00949781      -0.03153313 </v>
   <v>       0.00000000      -0.05160073      -0.22807477 </v>
   <v>       0.00000000      -0.05002769      -0.52318191 </v>
   <v>       0.00000000      -0.48727513       0.37738664 </v>
   <v>       0.00000000       0.58023921       0.42322671 </v>
  </varray>
  <varray name="stress" >
   <v>     -34.38821210       0.00000000       0.00000000 </v>
   <v>       0.00000000     -28.51095306       1.26231410 </v>
   <v>       0.00000000       1.26231405       0.37685430 </v>
  </varray>
  <energy>
   <i name="e_fr_energy">    -38.14194807 </i>
   <i name="e_wo_entrp">    -38.15347710 </i>
   <i name="e_0_energy">    -38.14579108 </i>
  </energy>
  <time name="totalsc">   11.77   11.91</time>
 </calculation>
 <calculation>
  <scstep>
   <time name="dav">    0.32    0.32</time>
   <time name="total">    0.39    0.40</time>
   <energy>
    <i name="alphaZ">    216.17040255 </i>
    <i name="ewald">  42674.66774974 </i>
    <i name="hartreedc"> -53423.76893449 </i>
    <i name="XCdc">    362.32652980 </i>
    <i name="pawpsdc">  10509.49733371 </i>
    <i name="pawaedc"> -11371.17188143 </i>
    <i name="eentropy">      0.01355065 </i>
    <i name="bandstr">   -155.23093206 </i>
    <i name="atom">  11152.61838693 </i>
    <i name="e_fr_energy">    -34.87779460 </i>
    <i name="e_wo_entrp">    -34.89134526 </i>
    <i name="e_0_energy">    -34.88231149 </i>
   </energy>
  </scstep>
  <scstep>
   <time name="dav">    0.39    0.39</time>
   <time name="total">    0.47    0.47</time>
   <energy>
    <i name="e_fr_energy">    -34.89665514 </i>
    <i name="e_wo_entrp">    -34.90934789 </i>
    <i name="e_0_energy">    -34.90088606 </i>
   </energy>
  </scstep>
  <scstep>
   <time name="dav">    0.34    0.34</time>
   <time name="total">    0.42    0.42</time>
   <energy>
    <i name="e_fr_energy">    -34.89462772 </i>
    <i name="e_wo_entrp">    -34.90806954 </i>
    <i name="e_0_energy">    -34.89910833 </i>
   </energy>
  </scstep>
  <scstep>
   <time name="dav">    0.35    0.35</time>
   <time name="total">    0.42    0.43</time>
   <energy>
    <i name="e_fr_energy">    -34.89400115 </i>
    <i name="e_wo_entrp">    -34.90713079 </i>
    <i name="e_0_energy">    -34.89837770 </i>
   </energy>
  </scstep>
  <scstep>
   <time name="dav">    0.44    0.45</time>
   <time name="total">    0.52    0.52</time>
   <energy>
    <i name="e_fr_energy">    -34.89396705 </i>
    <i name="e_wo_entrp">    -34.90754943 </i>
    <i name="e_0_energy">    -34.89849451 </i>
   </energy>
  </scstep>
  <scstep>
   <time name="dav">    0.31    0.32</time>
   <time name="total">    0.39    0.39</time>
   <energy>
    <i name="e_fr_energy">    -34.89378022 </i>
    <i name="e_wo_entrp">    -34.90706362 </i>
    <i name="e_0_energy">    -34.89820802 </i>
   </energy>
  </scstep>
  <scstep>
   <time name="dav">    0.28    0.28</time>
   <time name="total">    0.30    0.30</time>
   <energy>
    <i name="alphaZ">    216.17040255 </i>
    <i name="ewald">  42674.66774974 </i>
    <i name="hartreedc"> -53422.52083871 </i>
    <i name="XCdc">    362.23628214 </i>
    <i name="pawpsdc">  10515.61336283 </i>
    <i name="pawaedc"> -11377.42828741 </i>
    <i name="eentropy">      0.01339980 </i>
    <i name="bandstr">   -156.26423795 </i>
    <i name="atom">  11152.61838693 </i>
    <i name="e_fr_energy">    -34.89378008 </i>
    <i name="e_wo_entrp">    -34.90717988 </i>
    <i name="e_0_energy">    -34.89824668 </i>
   </energy>
  </scstep>
  <structure>
   <crystal>
    <varray name="basis" >
     <v>       3.63000011       0.00000000       0.00000000 </v>
     <v>       0.00000000       2.56679773       0.00000000 </v>
     <v>       0.00000000       0.00000000      23.98379135 </v>
    </varray>
    <i name="volume">    223.46840188 </i>
    <varray name="rec_basis" >
     <v>       0.27548208       0.00000000       0.00000000 </v>
     <v>       0.00000000       0.38959050       0.00000000 </v>
     <v>       0.00000000       0.00000000       0.04169483 </v>
    </varray>
   </crystal>
   <varray name="positions" >
    <v>       0.00000000      -0.00000570       0.00101586 </v>
    <v>       0.50000000       0.49999366       0.05260456 </v>
    <v>       0.00000000       0.00004101       0.10463236 </v>
    <v>       0.50000000       0.49994859       0.15813396 </v>
    <v>       0.00000000       0.00000677       0.21040891 </v>
    <v>       0.50000000       0.50017851       0.26282705 </v>
    <v>       0.00000000      -0.00096983       0.31665715 </v>
    <v>       0.50000000       0.49905974       0.36362354 </v>
    <v>       1.00000000      -0.00915828       0.42766702 </v>
    <v>       1.00000000       0.30154004       0.42775923 </v>
   </varray>
  </structure>
  <varray name="forces" >
   <v>       0.00000000      -0.00075001       0.33692550 </v>
   <v>       0.00000000      -0.00037740      -0.26171760 </v>
   <v>       0.00000000       0.00109408      -0.00055796 </v>
   <v>       0.00000000      -0.00198853      -0.00980479 </v>
   <v>       0.00000000       0.00058948      -0.12748688 </v>
   <v>       0.00000000       0.00348818      -0.11494218 </v>
   <v>       0.00000000      -0.04187103      -0.19076421 </v>
   <v>       0.00000000      -0.04849569      -0.36601525 </v>
   <v>       0.00000000       0.68849291       0.34344938 </v>
   <v>       0.00000000      -0.60018199       0.39091399 </v>
  </varray>
  <varray name="stress" >
   <v>     -33.03376727       0.00000000       0.00000000 </v>
   <v>       0.00000000     -34.71879077       1.23692834 </v>
   <v>       0.00000000       1.23692850       2.53448598 </v>
  </varray>
  <energy>
   <i name="e_fr_energy">    -38.18373381 </i>
   <i name="e_wo_entrp">    -38.19713361 </i>
   <i name="e_0_energy">    -38.18820041 </i>
  </energy>
  <time name="totalsc">    3.40    3.46</time>
 </calculation>
 <calculation>
  <scstep>
   <time name="dav">    0.33    0.33</time>
   <time name="total">    0.41    0.41</time>
   <energy>
    <i name="alphaZ">    216.17040255 </i>
    <i name="ewald">  42701.40113017 </i>
    <i name="hartreedc"> -53449.23885485 </i>
    <i name="XCdc">    362.24005914 </i>
    <i name="pawpsdc">  10515.69138546 </i>
    <i name="pawaedc"> -11377.50593413 </i>
    <i name="eentropy">      0.01360589 </i>
    <i name="bandstr">   -156.28069224 </i>
    <i name="atom">  11152.61838693 </i>
    <i name="e_fr_energy">    -34.89051110 </i>
    <i name="e_wo_entrp">    -34.90411699 </i>
    <i name="e_0_energy">    -34.89504640 </i>
   </energy>
  </scstep>
  <scstep>
   <time name="dav">    0.38    0.39</time>
   <time name="total">    0.46    0.46</time>
   <energy>
    <i name="e_fr_energy">    -34.89097053 </i>
    <i name="e_wo_entrp">    -34.90443990 </i>
    <i name="e_0_energy">    -34.89546032 </i>
   </energy>
  </scstep>
  <scstep>
   <time name="dav">    0.27    0.27</time>
   <time name="total">    0.29    0.30</time>
   <energy>
    <i name="alphaZ">    216.17040255 </i>
    <i name="ewald">  42701.40113017 </i>
    <i name="hartreedc"> -53449.10734433 </i>
    <i name="XCdc">    362.23190271 </i>
    <i name="pawpsdc">  10516.57230167 </i>
    <i name="pawaedc"> -11378.40369950 </i>
    <i name="eentropy">      0.01362787 </i>
    <i name="bandstr">   -156.38767854 </i>
    <i name="atom">  11152.61838693 </i>
    <i name="e_fr_energy">    -34.89097048 </i>
    <i name="e_wo_entrp">    -34.90459835 </i>
    <i name="e_0_energy">    -34.89551310 </i>
   </energy>
  </scstep>
  <structure>
   <crystal>
    <varray name="basis" >
     <v>       3.63000011       0.00000000       0.00000000 </v>
     <v>       0.00000000       2.56679773       0.00000000 </v>
     <v>       0.00000000       0.00000000      23.98379135 </v>
    </varray>
    <i name="volume">    223.46840188 </i>
    <varray name="rec_basis" >
     <v>       0.27548208       0.00000000       0.00000000 </v>
     <v>       0.00000000       0.38959050       0.00000000 </v>
     <v>       0.00000000       0.00000000       0.04169483 </v>
    </varray>
   </crystal>
   <varray name="positions" >
    <v>       0.00000000      -0.00000657       0.00117161 </v>
    <v>       0.50000000       0.49999269       0.05246558 </v>
    <v>       0.00000000       0.00004730       0.10462483 </v>
    <v>       0.50000000       0.49994071       0.15816524 </v>
    <v>       0.00000000       0.00000781       0.21036291 </v>
    <v>       0.50000000       0.50020588       0.26281733 </v>
    <v>       0.00000000      -0.00111852       0.31658681 </v>
    <v>       0.50000000       0.49891558       0.36346219 </v>
    <v>       1.00000000      -0.01056239       0.42778341 </v>
    <v>       1.00000000       0.30321204       0.42788975 </v>
   </varray>
  </structure>
  <varray name="forces" >
   <v>       0.00000000      -0.00087279       0.30136508 </v>
   <v>       0.00000000      -0.00058218      -0.23042701 </v>
   <v>       0.00000000       0.00088461       0.00453436 </v>
   <v>       0.00000000      -0.00219321      -0.02484066 </v>
   <v>       0.00000000       0.00052680      -0.12042647 </v>
   <v>       0.00000000       0.00261530      -0.12329768 </v>
   <v>       0.00000000      -0.04032588      -0.18505251 </v>
   <v>       0.00000000      -0.04812698      -0.33666964 </v>
   <v>       0.00000000       0.75787702       0.33371709 </v>
   <v>       0.00000000      -0.66980269       0.38109743 </v>
  </varray>
  <varray name="stress" >
   <v>     -31.30562725       0.00000000       0.00000000 </v>
   <v>       0.00000000     -33.64582852       1.22804050 </v>
   <v>       0.00000000       1.22804052       4.50331986 </v>
  </varray>
  <energy>
   <i name="e_fr_energy">    -38.18466227 </i>
   <i name="e_wo_entrp">    -38.19829014 </i>
   <i name="e_0_energy">    -38.18920490 </i>
  </energy>
  <time name="totalsc">    1.65    1.69</time>
 </calculation>
 <calculation>
  <scstep>
   <time name="dav">    0.31    0.32</time>
   <time name="total">    0.39    0.39</time>
   <energy>
    <i name="alphaZ">    216.17040255 </i>
    <i name="ewald">  42866.80832680 </i>
    <i name="hartreedc"> -53613.93294199 </i>
    <i name="XCdc">    362.29764743 </i>
    <i name="pawpsdc">  10516.82825032 </i>
    <i name="pawaedc"> -11378.67536676 </i>
    <i name="eentropy">      0.01410088 </i>
    <i name="bandstr">   -157.04603979 </i>
    <i name="atom">  11152.61838693 </i>
    <i name="e_fr_energy">    -34.91723363 </i>
    <i name="e_wo_entrp">    -34.93133451 </i>
    <i name="e_0_energy">    -34.92193392 </i>
   </energy>
  </scstep>
  <scstep>
   <time name="dav">    0.39    0.39</time>
   <time name="total">    0.47    0.47</time>
   <energy>
    <i name="e_fr_energy">    -34.93257268 </i>
    <i name="e_wo_entrp">    -34.94677915 </i>
    <i name="e_0_energy">    -34.93730817 </i>
   </energy>
  </scstep>
  <scstep>
   <time name="dav">    0.32    0.33</time>
   <time name="total">    0.40    0.40</time>
   <energy>
    <i name="e_fr_energy">    -34.93175349 </i>
    <i name="e_wo_entrp">    -34.94578811 </i>
    <i name="e_0_energy">    -34.93643170 </i>
   </energy>
  </scstep>
  <scstep>
   <time name="dav">    0.34    0.35</time>
   <time name="total">    0.42    0.42</time>
   <energy>
    <i name="e_fr_energy">    -34.93159513 </i>
    <i name="e_wo_entrp">    -34.94589501 </i>
    <i name="e_0_energy">    -34.93636176 </i>
   </energy>
  </scstep>
  <scstep>
   <time name="dav">    0.34    0.34</time>
   <time name="total">    0.42    0.42</time>
   <energy>
    <i name="e_fr_energy">    -34.93149173 </i>
    <i name="e_wo_entrp">    -34.94554543 </i>
    <i name="e_0_energy">    -34.93617630 </i>
   </energy>
  </scstep>
  <scstep>
   <time name="dav">    0.32    0.32</time>
   <time name="total">    0.34    0.34</time>
   <energy>
    <i name="alphaZ">    216.17040255 </i>
    <i name="ewald">  42866.80832680 </i>
    <i name="hartreedc"> -53612.68200807 </i>
    <i name="XCdc">    362.29004511 </i>
    <i name="pawpsdc">  10527.37788357 </i>
    <i name="pawaedc"> -11389.42510298 </i>
    <i name="eentropy">      0.01434260 </i>
    <i name="bandstr">   -158.10363618 </i>
    <i name="atom">  11152.61838693 </i>
    <i name="e_fr_energy">    -34.93135967 </i>
    <i name="e_wo_entrp">    -34.94570227 </i>
    <i name="e_0_energy">    -34.93614053 </i>
   </energy>
  </scstep>
  <structure>
   <crystal>
    <varray name="basis" >
     <v>       3.63000011       0.00000000       0.00000000 </v>
     <v>       0.00000000       2.56679773       0.00000000 </v>
     <v>       0.00000000       0.00000000      23.98379135 </v>
    </varray>
    <i name="volume">    223.46840188 </i>
    <varray name="rec_basis" >
     <v>       0.27548208       0.00000000       0.00000000 </v>
     <v>       0.00000000       0.38959050       0.00000000 </v>
     <v>       0.00000000       0.00000000       0.04169483 </v>
    </varray>
   </crystal>
   <varray name="positions" >
    <v>       0.00000000      -0.00001892       0.00204978 </v>
    <v>       0.50000000       0.49998313       0.05172613 </v>
    <v>       0.00000000       0.00007827       0.10460430 </v>
    <v>       0.50000000       0.49989025       0.15824361 </v>
    <v>       0.00000000       0.00001701       0.21006745 </v>
    <v>       0.50000000       0.50032745       0.26264256 </v>
    <v>       0.00000000      -0.00205916       0.31613403 </v>
    <v>       0.50000000       0.49790675       0.36252438 </v>
    <v>       1.00000000      -0.00723118       0.42856419 </v>
    <v>       1.00000000       0.30174093       0.42877323 </v>
   </varray>
  </structure>
  <varray name="forces" >
   <v>       0.00000000      -0.00043753       0.17399667 </v>
   <v>       0.00000000      -0.00006824      -0.09096162 </v>
   <v>       0.00000000       0.00059034       0.02672628 </v>
   <v>       0.00000000      -0.00064165      -0.09269979 </v>
   <v>       0.00000000       0.00088758      -0.10803602 </v>
   <v>       0.00000000      -0.00185345      -0.18880373 </v>
   <v>       0.00000000      -0.03351913      -0.17209962 </v>
   <v>       0.00000000      -0.04427984      -0.23687541 </v>
   <v>       0.00000000       0.64396318       0.31949495 </v>
   <v>       0.00000000      -0.56464126       0.36925828 </v>
  </varray>
  <varray name="stress" >
   <v>     -29.27820724       0.00000000       0.00000000 </v>
   <v>       0.00000000     -31.96249925       1.13493630 </v>
   <v>       0.00000000       1.13493640       7.59269593 </v>
  </varray>
  <energy>
   <i name="e_fr_energy">    -38.22631613 </i>
   <i name="e_wo_entrp">    -38.24065873 </i>
   <i name="e_0_energy">    -38.23109700 </i>
  </energy>
  <time name="totalsc">    2.93    3.03</time>
 </calculation>
 <calculation>
  <scstep>
   <time name="dav">    0.32    0.32</time>
   <time name="total">    0.40    0.40</time>
   <energy>
    <i name="alphaZ">    216.17040255 </i>
    <i name="ewald">  43364.49505178 </i>
    <i name="hartreedc"> -54109.15773722 </i>
    <i name="XCdc">    362.52666345 </i>
    <i name="pawpsdc">  10527.68021184 </i>
    <i name="pawaedc"> -11389.73934548 </i>
    <i name="eentropy">      0.01507624 </i>
    <i name="bandstr">   -159.45227706 </i>
    <i name="atom">  11152.61838693 </i>
    <i name="e_fr_energy">    -34.84356697 </i>
    <i name="e_wo_entrp">    -34.85864321 </i>
    <i name="e_0_energy">    -34.84859238 </i>
   </energy>
  </scstep>
  <scstep>
   <time name="dav">    0.39    0.39</time>
   <time name="total">    0.47    0.47</time>
   <energy>
    <i name="e_fr_energy">    -34.99496546 </i>
    <i name="e_wo_entrp">    -35.00970660 </i>
    <i name="e_0_energy">    -34.99987918 </i>
   </energy>
  </scstep>
  <scstep>
   <time name="dav">    0.34    0.34</time>
   <time name="total">    0.42    0.42</time>
   <energy>
    <i name="e_fr_energy">    -34.98230496 </i>
    <i name="e_wo_entrp">    -34.99701841 </i>
    <i name="e_0_energy">    -34.98720944 </i>
   </energy>
  </scstep>
  <scstep>
   <time name="dav">    0.35    0.36</time>
   <time name="total">    0.43    0.44</time>
   <energy>
    <i name="e_fr_energy">    -34.98118525 </i>
    <i name="e_wo_entrp">    -34.99672656 </i>
    <i name="e_0_energy">    -34.98636568 </i>
   </energy>
  </scstep>
  <scstep>
   <time name="dav">    0.35    0.36</time>
   <time name="total">    0.44    0.44</time>
   <energy>
    <i name="e_fr_energy">    -34.98065252 </i>
    <i name="e_wo_entrp">    -34.99522354 </i>
    <i name="e_0_energy">    -34.98550953 </i>
   </energy>
  </scstep>
  <scstep>
   <time name="dav">    0.37    0.37</time>
   <time name="total">    0.45    0.45</time>
   <energy>
    <i name="e_fr_energy">    -34.97903054 </i>
    <i name="e_wo_entrp">    -34.99463507 </i>
    <i name="e_0_energy">    -34.98423205 </i>
   </energy>
  </scstep>
  <scstep>
   <time name="dav">    0.46    0.46</time>
   <time name="total">    0.54    0.54</time>
   <energy>
    <i name="e_fr_energy">    -34.97917369 </i>
    <i name="e_wo_entrp">    -34.99454089 </i>
    <i name="e_0_energy">    -34.98429609 </i>
   </energy>
  </scstep>
  <scstep>
   <time name="dav">    0.28    0.29</time>
   <time name="total">    0.31    0.31</time>
   <energy>
    <i name="alphaZ">    216.17040255 </i>
    <i name="ewald">  43364.49505178 </i>
    <i name="hartreedc"> -54105.97258951 </i>
    <i name="XCdc">    362.49875638 </i>
    <i name="pawpsdc">  10563.09506330 </i>
    <i name="pawaedc"> -11425.76248971 </i>
    <i name="eentropy">      0.01536864 </i>
    <i name="bandstr">   -162.13712114 </i>
    <i name="atom">  11152.61838693 </i>
    <i name="e_fr_energy">    -34.97917079 </i>
    <i name="e_wo_entrp">    -34.99453943 </i>
    <i name="e_0_energy">    -34.98429367 </i>
   </energy>
  </scstep>
  <structure>
   <crystal>
    <varray name="basis" >
     <v>       3.63000011       0.00000000       0.00000000 </v>
     <v>       0.00000000       2.56679773       0.00000000 </v>
     <v>       0.00000000       0.00000000      23.98379135 </v>
    </varray>
    <i name="volume">    223.46840188 </i>
    <varray name="rec_basis" >
     <v>       0.27548208       0.00000000       0.00000000 </v>
     <v>       0.00000000       0.38959050       0.00000000 </v>
     <v>       0.00000000       0.00000000       0.04169483 </v>
    </varray>
   </crystal>
   <varray name="positions" >
    <v>       0.00000000      -0.00005596       0.00468427 </v>
    <v>       0.50000000       0.49995443       0.04950778 </v>
    <v>       0.00000000       0.00017119       0.10454271 </v>
    <v>       0.50000000       0.49973887       0.15847870 </v>
    <v>       0.00000000       0.00004461       0.20918109 </v>
    <v>       0.50000000       0.50069218       0.26211825 </v>
    <v>       0.00000000      -0.00488109       0.31477570 </v>
    <v>       0.50000000       0.49488025       0.35971093 </v>
    <v>       1.00000000       0.00276244       0.43090655 </v>
    <v>       1.00000000       0.29732760       0.43142368 </v>
   </varray>
  </structure>
  <varray name="forces" >
   <v>       0.00000000      -0.00124257      -0.27271657 </v>
   <v>       0.00000000      -0.00064894       0.31261735 </v>
   <v>       0.00000000      -0.00203869       0.12800344 </v>
   <v>       0.00000000       0.00081167      -0.27474432 </v>
   <v>       0.00000000       0.00096631      -0.05450976 </v>
   <v>       0.00000000      -0.01531040      -0.41216652 </v>
   <v>       0.00000000      -0.00806463      -0.11748146 </v>
   <v>       0.00000000      -0.02781434       0.12368542 </v>
   <v>       0.00000000      -0.12145759       0.24433541 </v>
   <v>       0.00000000       0.17479919       0.32297701 </v>
  </varray>
  <varray name="stress" >
   <v>     -24.38329711       0.00000000       0.00000000 </v>
   <v>       0.00000000     -26.75948457       0.91966146 </v>
   <v>       0.00000000       0.91966142      14.87652985 </v>
  </varray>
  <energy>
   <i name="e_fr_energy">    -38.28216986 </i>
   <i name="e_wo_entrp">    -38.29753850 </i>
   <i name="e_0_energy">    -38.28729274 </i>
  </energy>
  <time name="totalsc">    3.94    4.02</time>
 </calculation>
 <calculation>
  <scstep>
   <time name="dav">    0.31    0.31</time>
   <time name="total">    0.39    0.39</time>
   <energy>
    <i name="alphaZ">    216.17040255 </i>
    <i name="ewald">  43508.79670570 </i>
    <i name="hartreedc"> -54250.37712366 </i>
    <i name="XCdc">    362.51109955 </i>
    <i name="pawpsdc">  10563.13744354 </i>
    <i name="pawaedc"> -11425.80832980 </i>
    <i name="eentropy">      0.01445890 </i>
    <i name="bandstr">   -162.05405173 </i>
    <i name="atom">  11152.61838693 </i>
    <i name="e_fr_energy">    -34.99100803 </i>
    <i name="e_wo_entrp">    -35.00546693 </i>
    <i name="e_0_energy">    -34.99582766 </i>
   </energy>
  </scstep>
  <scstep>
   <time name="dav">    0.37    0.38</time>
   <time name="total">    0.45    0.46</time>
   <energy>
    <i name="e_fr_energy">    -35.00225826 </i>
    <i name="e_wo_entrp">    -35.01671348 </i>
    <i name="e_0_energy">    -35.00707667 </i>
   </energy>
  </scstep>
  <scstep>
   <time name="dav">    0.34    0.34</time>
   <time name="total">    0.42    0.42</time>
   <energy>
    <i name="e_fr_energy">    -35.00180752 </i>
    <i name="e_wo_entrp">    -35.01641241 </i>
    <i name="e_0_energy">    -35.00667582 </i>
   </energy>
  </scstep>
  <scstep>
   <time name="dav">    0.33    0.33</time>
   <time name="total">    0.35    0.35</time>
   <energy>
    <i name="alphaZ">    216.17040255 </i>
    <i name="ewald">  43508.79670570 </i>
    <i name="hartreedc"> -54249.48217430 </i>
    <i name="XCdc">    362.50150056 </i>
    <i name="pawpsdc">  10565.81036549 </i>
    <i name="pawaedc"> -11428.52980770 </i>
    <i name="eentropy">      0.01452729 </i>
    <i name="bandstr">   -162.90163044 </i>
    <i name="atom">  11152.61838693 </i>
    <i name="e_fr_energy">    -35.00172394 </i>
    <i name="e_wo_entrp">    -35.01625123 </i>
    <i name="e_0_energy">    -35.00656637 </i>
   </energy>
  </scstep>
  <structure>
   <crystal>
    <varray name="basis" >
     <v>       3.63000011       0.00000000       0.00000000 </v>
     <v>       0.00000000       2.56679773       0.00000000 </v>
     <v>       0.00000000       0.00000000      23.98379135 </v>
    </varray>
    <i name="volume">    223.46840188 </i>
    <varray name="rec_basis" >
     <v>       0.27548208       0.00000000       0.00000000 </v>
     <v>       0.00000000       0.38959050       0.00000000 </v>
     <v>       0.00000000       0.00000000       0.04169483 </v>
    </varray>
   </crystal>
   <varray name="positions" >
    <v>       0.00000000      -0.00008699       0.00487350 </v>
    <v>       0.50000000       0.49993578       0.04950085 </v>
    <v>       0.00000000       0.00016054       0.10476169 </v>
    <v>       0.50000000       0.49971315       0.15803565 </v>
    <v>       0.00000000       0.00006843       0.20884878 </v>
    <v>       0.50000000       0.50052496       0.26122386 </v>
    <v>       0.00000000      -0.00575874       0.31420408 </v>
    <v>       0.50000000       0.49361007       0.35920109 </v>
    <v>       1.00000000       0.00329591       0.43196894 </v>
    <v>       1.00000000       0.29917140       0.43271122 </v>
   </varray>
  </structure>
  <varray name="forces" >
   <v>       0.00000000      -0.00115812      -0.29409008 </v>
   <v>       0.00000000      -0.00079892       0.30244915 </v>
   <v>       0.00000000      -0.00237091       0.04315689 </v>
   <v>       0.00000000       0.00107716      -0.23955642 </v>
   <v>       0.00000000       0.00012788      -0.05988729 </v>
   <v>       0.00000000      -0.01660397      -0.28822569 </v>
   <v>       0.00000000      -0.00770826      -0.09823184 </v>
   <v>       0.00000000      -0.02488028       0.10446471 </v>
   <v>       0.00000000      -0.00851244       0.22359322 </v>
   <v>       0.00000000       0.06082785       0.30632734 </v>
  </varray>
  <varray name="stress" >
   <v>     -24.37167736       0.00000000       0.00000000 </v>
   <v>       0.00000000     -27.77733967       0.87815449 </v>
   <v>       0.00000000       0.87815445      14.44534060 </v>
  </varray>
  <energy>
   <i name="e_fr_energy">    -38.30904971 </i>
   <i name="e_wo_entrp">    -38.32357701 </i>
   <i name="e_0_energy">    -38.31389214 </i>
  </energy>
  <time name="totalsc">    2.10    2.18</time>
 </calculation>
 <calculation>
  <scstep>
   <time name="dav">    0.31    0.32</time>
   <time name="total">    0.39    0.39</time>
   <energy>
    <i name="alphaZ">    216.17040255 </i>
    <i name="ewald">  43944.41080509 </i>
    <i name="hartreedc"> -54684.72645473 </i>
    <i name="XCdc">    362.55108988 </i>
    <i name="pawpsdc">  10566.34537836 </i>
    <i name="pawaedc"> -11429.04292665 </i>
    <i name="eentropy">      0.01164902 </i>
    <i name="bandstr">   -163.27968762 </i>
    <i name="atom">  11152.61838693 </i>
    <i name="e_fr_energy">    -34.94135717 </i>
    <i name="e_wo_entrp">    -34.95300619 </i>
    <i name="e_0_energy">    -34.94524018 </i>
   </energy>
  </scstep>
  <scstep>
   <time name="dav">    0.39    0.39</time>
   <time name="total">    0.46    0.47</time>
   <energy>
    <i name="e_fr_energy">    -35.04906964 </i>
    <i name="e_wo_entrp">    -35.06005365 </i>
    <i name="e_0_energy">    -35.05273098 </i>
   </energy>
  </scstep>
  <scstep>
   <time name="dav">    0.34    0.35</time>
   <time name="total">    0.42    0.42</time>
   <energy>
    <i name="e_fr_energy">    -35.04502446 </i>
    <i name="e_wo_entrp">    -35.05764926 </i>
    <i name="e_0_energy">    -35.04923273 </i>
   </energy>
  </scstep>
  <scstep>
   <time name="dav">    0.35    0.35</time>
   <time name="total">    0.43    0.43</time>
   <energy>
    <i name="e_fr_energy">    -35.04293957 </i>
    <i name="e_wo_entrp">    -35.05441428 </i>
    <i name="e_0_energy">    -35.04676447 </i>
   </energy>
  </scstep>
  <scstep>
   <time name="dav">    0.48    0.49</time>
   <time name="total">    0.56    0.56</time>
   <energy>
    <i name="e_fr_energy">    -35.04174347 </i>
    <i name="e_wo_entrp">    -35.05453272 </i>
    <i name="e_0_energy">    -35.04600655 </i>
   </energy>
  </scstep>
  <scstep>
   <time name="dav">    0.39    0.40</time>
   <time name="total">    0.47    0.47</time>
   <energy>
    <i name="e_fr_energy">    -35.04085387 </i>
    <i name="e_wo_entrp">    -35.05311642 </i>
    <i name="e_0_energy">    -35.04494139 </i>
   </energy>
  </scstep>
  <scstep>
   <time name="dav">    0.35    0.35</time>
   <time name="total">    0.37    0.37</time>
   <energy>
    <i name="alphaZ">    216.17040255 </i>
    <i name="ewald">  43944.41080509 </i>
    <i name="hartreedc"> -54680.95303220 </i>
    <i name="XCdc">    362.51110436 </i>
    <i name="pawpsdc">  10577.36106613 </i>
    <i name="pawaedc"> -11440.35130715 </i>
    <i name="eentropy">      0.01229294 </i>
    <i name="bandstr">   -166.82065777 </i>
    <i name="atom">  11152.61838693 </i>
    <i name="e_fr_energy">    -35.04093912 </i>
    <i name="e_wo_entrp">    -35.05323207 </i>
    <i name="e_0_energy">    -35.04503677 </i>
   </energy>
  </scstep>
  <structure>
   <crystal>
    <varray name="basis" >
     <v>       3.63000011       0.00000000       0.00000000 </v>
     <v>       0.00000000       2.56679773       0.00000000 </v>
     <v>       0.00000000       0.00000000      23.98379135 </v>
    </varray>
    <i name="volume">    223.46840188 </i>
    <varray name="rec_basis" >
     <v>       0.27548208       0.00000000       0.00000000 </v>
     <v>       0.00000000       0.38959050       0.00000000 </v>
     <v>       0.00000000       0.00000000       0.04169483 </v>
    </varray>
   </crystal>
   <varray name="positions" >
    <v>       0.00000000      -0.00018008       0.00544119 </v>
    <v>       0.50000000       0.49987981       0.04948007 </v>
    <v>       0.00000000       0.00012860       0.10541861 </v>
    <v>       0.50000000       0.49963597       0.15670652 </v>
    <v>       0.00000000       0.00013987       0.20785184 </v>
    <v>       0.50000000       0.50002331       0.25854070 </v>
    <v>       0.00000000      -0.00839166       0.31248924 </v>
    <v>       0.50000000       0.48979954       0.35767158 </v>
    <v>       1.00000000       0.00489632       0.43515609 </v>
    <v>       1.00000000       0.30470283       0.43657383 </v>
   </varray>
  </structure>
  <varray name="forces" >
   <v>       0.00000000      -0.00036569      -0.32570571 </v>
   <v>       0.00000000      -0.00051232       0.27538201 </v>
   <v>       0.00000000      -0.00261817      -0.18489539 </v>
   <v>       0.00000000       0.00351744      -0.19493685 </v>
   <v>       0.00000000      -0.00161374      -0.03102040 </v>
   <v>       0.00000000      -0.02065413       0.05171161 </v>
   <v>       0.00000000      -0.00335447      -0.02452556 </v>
   <v>       0.00000000      -0.01315674       0.06023727 </v>
   <v>       0.00000000       0.27292319       0.15071190 </v>
   <v>       0.00000000      -0.23416538       0.22304110 </v>
  </varray>
  <varray name="stress" >
   <v>     -26.62969133       0.00000000       0.00000000 </v>
   <v>       0.00000000     -32.35859908       0.82480066 </v>
   <v>       0.00000000       0.82480071      14.59345937 </v>
  </varray>
  <energy>
   <i name="e_fr_energy">    -38.35988178 </i>
   <i name="e_wo_entrp">    -38.37217472 </i>
   <i name="e_0_energy">    -38.36397942 </i>
  </energy>
  <time name="totalsc">    3.57    3.67</time>
 </calculation>
 <calculation>
  <scstep>
   <time name="dav">    0.35    0.35</time>
   <time name="total">    0.42    0.42</time>
   <energy>
    <i name="alphaZ">    216.17040255 </i>
    <i name="ewald">  44827.80985674 </i>
    <i name="hartreedc"> -55564.54013844 </i>
    <i name="XCdc">    362.70215988 </i>
    <i name="pawpsdc">  10577.51443726 </i>
    <i name="pawaedc"> -11440.46014526 </i>
    <i name="eentropy">      0.00600502 </i>
    <i name="bandstr">   -166.43295448 </i>
    <i name="atom">  11152.61838693 </i>
    <i name="e_fr_energy">    -34.61198979 </i>
    <i name="e_wo_entrp">    -34.61799481 </i>
    <i name="e_0_energy">    -34.61399146 </i>
   </energy>
  </scstep>
  <scstep>
   <time name="dav">    0.39    0.39</time>
   <time name="total">    0.47    0.47</time>
   <energy>
    <i name="e_fr_energy">    -35.02628843 </i>
    <i name="e_wo_entrp">    -35.03111434 </i>
    <i name="e_0_energy">    -35.02789707 </i>
   </energy>
  </scstep>
  <scstep>
   <time name="dav">    0.34    0.35</time>
   <time name="total">    0.42    0.42</time>
   <energy>
    <i name="e_fr_energy">    -35.00726055 </i>
    <i name="e_wo_entrp">    -35.01449220 </i>
    <i name="e_0_energy">    -35.00967110 </i>
   </energy>
  </scstep>
  <scstep>
   <time name="dav">    0.40    0.40</time>
   <time name="total">    0.47    0.48</time>
   <energy>
    <i name="e_fr_energy">    -35.00120092 </i>
    <i name="e_wo_entrp">    -35.00708249 </i>
    <i name="e_0_energy">    -35.00316144 </i>
   </energy>
  </scstep>
  <scstep>
   <time name="dav">    0.46    0.46</time>
   <time name="total">    0.53    0.54</time>
   <energy>
    <i name="e_fr_energy">    -34.99812354 </i>
    <i name="e_wo_entrp">    -35.00637995 </i>
    <i name="e_0_energy">    -35.00087568 </i>
   </energy>
  </scstep>
  <scstep>
   <time name="dav">    0.48    0.48</time>
   <time name="total">    0.55    0.56</time>
   <energy>
    <i name="e_fr_energy">    -34.99310904 </i>
    <i name="e_wo_entrp">    -35.00027685 </i>
    <i name="e_0_energy">    -34.99549831 </i>
   </energy>
  </scstep>
  <scstep>
   <time name="dav">    0.35    0.35</time>
   <time name="total">    0.42    0.43</time>
   <energy>
    <i name="e_fr_energy">    -34.99376893 </i>
    <i name="e_wo_entrp">    -35.00091919 </i>
    <i name="e_0_energy">    -34.99615235 </i>
   </energy>
  </scstep>
  <scstep>
   <time name="dav">    0.32    0.32</time>
   <time name="total">    0.34    0.35</time>
   <energy>
    <i name="alphaZ">    216.17040255 </i>
    <i name="ewald">  44827.80985674 </i>
    <i name="hartreedc"> -55555.27571398 </i>
    <i name="XCdc">    362.56690123 </i>
    <i name="pawpsdc">  10606.82127802 </i>
    <i name="pawaedc"> -11470.41501617 </i>
    <i name="eentropy">      0.00705479 </i>
    <i name="bandstr">   -175.29697030 </i>
    <i name="atom">  11152.61838693 </i>
    <i name="e_fr_energy">    -34.99382020 </i>
    <i name="e_wo_entrp">    -35.00087499 </i>
    <i name="e_0_energy">    -34.99617180 </i>
   </energy>
  </scstep>
  <structure>
   <crystal>
    <varray name="basis" >
     <v>       3.63000011       0.00000000       0.00000000 </v>
     <v>       0.00000000       2.56679773       0.00000000 </v>
     <v>       0.00000000       0.00000000      23.98379135 </v>
    </varray>
    <i name="volume">    223.46840188 </i>
    <varray name="rec_basis" >
     <v>       0.27548208       0.00000000       0.00000000 </v>
     <v>       0.00000000       0.38959050       0.00000000 </v>
     <v>       0.00000000       0.00000000       0.04169483 </v>
    </varray>
   </crystal>
   <varray name="positions" >
    <v>       0.00000000      -0.00036625       0.00657656 </v>
    <v>       0.50000000       0.49976789       0.04943850 </v>
    <v>       0.00000000       0.00006471       0.10673246 </v>
    <v>       0.50000000       0.49948162       0.15404824 </v>
    <v>       0.00000000       0.00028275       0.20585796 </v>
    <v>       0.50000000       0.49902002       0.25317438 </v>
    <v>       0.00000000      -0.01365751       0.30905956 </v>
    <v>       0.50000000       0.48217848       0.35461255 </v>
    <v>       1.00000000       0.00809713       0.44153040 </v>
    <v>       1.00000000       0.31576567       0.44429904 </v>
   </varray>
  </structure>
  <varray name="forces" >
   <v>       0.00000000       0.00064859      -0.37897021 </v>
   <v>       0.00000000      -0.00009234       0.19709632 </v>
   <v>       0.00000000      -0.00387212      -0.71227103 </v>
   <v>       0.00000000       0.00711592      -0.12823471 </v>
   <v>       0.00000000      -0.00649180       0.04783559 </v>
   <v>       0.00000000      -0.02621342       0.77095767 </v>
   <v>       0.00000000      -0.00035401       0.08031313 </v>
   <v>       0.00000000       0.00347435      -0.04941449 </v>
   <v>       0.00000000       0.73735236       0.10756018 </v>
   <v>       0.00000000      -0.71156754       0.06512755 </v>
  </varray>
  <varray name="stress" >
   <v>     -20.23033215       0.00000000       0.00000000 </v>
   <v>       0.00000000     -31.56255484       0.58917602 </v>
   <v>       0.00000000       0.58917619      26.86344263 </v>
  </varray>
  <energy>
   <i name="e_fr_energy">    -38.33356626 </i>
   <i name="e_wo_entrp">    -38.34062105 </i>
   <i name="e_0_energy">    -38.33591786 </i>
  </energy>
  <time name="totalsc">    4.12    4.23</time>
 </calculation>
 <calculation>
  <scstep>
   <time name="dav">    0.33    0.33</time>
   <time name="total">    0.41    0.41</time>
   <energy>
    <i name="alphaZ">    216.17040255 </i>
    <i name="ewald">  44211.26554085 </i>
    <i name="hartreedc"> -54940.38217571 </i>
    <i name="XCdc">    362.49573105 </i>
    <i name="pawpsdc">  10606.86245365 </i>
    <i name="pawaedc"> -11470.40259071 </i>
    <i name="eentropy">      0.01195595 </i>
    <i name="bandstr">   -173.50565617 </i>
    <i name="atom">  11152.61838693 </i>
    <i name="e_fr_energy">    -34.86595161 </i>
    <i name="e_wo_entrp">    -34.87790756 </i>
    <i name="e_0_energy">    -34.86993693 </i>
   </energy>
  </scstep>
  <scstep>
   <time name="dav">    0.37    0.37</time>
   <time name="total">    0.44    0.45</time>
   <energy>
    <i name="e_fr_energy">    -35.05718497 </i>
    <i name="e_wo_entrp">    -35.06761710 </i>
    <i name="e_0_energy">    -35.06066235 </i>
   </energy>
  </scstep>
  <scstep>
   <time name="dav">    0.33    0.33</time>
   <time name="total">    0.40    0.41</time>
   <energy>
    <i name="e_fr_energy">    -35.05124372 </i>
    <i name="e_wo_entrp">    -35.06321081 </i>
    <i name="e_0_energy">    -35.05523275 </i>
   </energy>
  </scstep>
  <scstep>
   <time name="dav">    0.43    0.43</time>
   <time name="total">    0.50    0.51</time>
   <energy>
    <i name="e_fr_energy">    -35.04661886 </i>
    <i name="e_wo_entrp">    -35.05676044 </i>
    <i name="e_0_energy">    -35.04999938 </i>
   </energy>
  </scstep>
  <scstep>
   <time name="dav">    0.47    0.47</time>
   <time name="total">    0.54    0.55</time>
   <energy>
    <i name="e_fr_energy">    -35.04565833 </i>
    <i name="e_wo_entrp">    -35.05715849 </i>
    <i name="e_0_energy">    -35.04949172 </i>
   </energy>
  </scstep>
  <scstep>
   <time name="dav">    0.40    0.40</time>
   <time name="total">    0.47    0.47</time>
   <energy>
    <i name="e_fr_energy">    -35.04306295 </i>
    <i name="e_wo_entrp">    -35.05361966 </i>
    <i name="e_0_energy">    -35.04658185 </i>
   </energy>
  </scstep>
  <scstep>
   <time name="dav">    0.39    0.39</time>
   <time name="total">    0.46    0.46</time>
   <energy>
    <i name="e_fr_energy">    -35.04343334 </i>
    <i name="e_wo_entrp">    -35.05403557 </i>
    <i name="e_0_energy">    -35.04696742 </i>
   </energy>
  </scstep>
  <scstep>
   <time name="dav">    0.28    0.28</time>
   <time name="total">    0.30    0.30</time>
   <energy>
    <i name="alphaZ">    216.17040255 </i>
    <i name="ewald">  44211.26554085 </i>
    <i name="hartreedc"> -54945.17923606 </i>
    <i name="XCdc">    362.51872702 </i>
    <i name="pawpsdc">  10586.28512082 </i>
    <i name="pawaedc"> -11449.42832666 </i>
    <i name="eentropy">      0.01062397 </i>
    <i name="bandstr">   -169.30468922 </i>
    <i name="atom">  11152.61838693 </i>
    <i name="e_fr_energy">    -35.04344980 </i>
    <i name="e_wo_entrp">    -35.05407377 </i>
    <i name="e_0_energy">    -35.04699112 </i>
   </energy>
  </scstep>
  <structure>
   <crystal>
    <varray name="basis" >
     <v>       3.63000011       0.00000000       0.00000000 </v>
     <v>       0.00000000       2.56679773       0.00000000 </v>
     <v>       0.00000000       0.00000000      23.98379135 </v>
    </varray>
    <i name="volume">    223.46840188 </i>
    <varray name="rec_basis" >
     <v>       0.27548208       0.00000000       0.00000000 </v>
     <v>       0.00000000       0.38959050       0.00000000 </v>
     <v>       0.00000000       0.00000000       0.04169483 </v>
    </varray>
   </crystal>
   <varray name="positions" >
    <v>       0.00000000      -0.00023668       0.00578636 </v>
    <v>       0.50000000       0.49984579       0.04946743 </v>
    <v>       0.00000000       0.00010917       0.10581804 </v>
    <v>       0.50000000       0.49958905       0.15589835 </v>
    <v>       0.00000000       0.00018331       0.20724567 </v>
    <v>       0.50000000       0.49971829       0.25690924 </v>
    <v>       0.00000000      -0.00999257       0.31144656 </v>
    <v>       0.50000000       0.48748261       0.35674158 </v>
    <v>       1.00000000       0.00586942       0.43709399 </v>
    <v>       1.00000000       0.30806612       0.43892243 </v>
   </varray>
  </structure>
  <varray name="forces" >
   <v>       0.00000000      -0.00056331      -0.32407440 </v>
   <v>       0.00000000      -0.00083995       0.25792101 </v>
   <v>       0.00000000      -0.00332203      -0.31807011 </v>
   <v>       0.00000000       0.00466995      -0.19481101 </v>
   <v>       0.00000000      -0.00292461      -0.01894269 </v>
   <v>       0.00000000      -0.02345831       0.25334285 </v>
   <v>       0.00000000      -0.00321179       0.00887260 </v>
   <v>       0.00000000      -0.00997992       0.02083832 </v>
   <v>       0.00000000       0.43030860       0.13392400 </v>
   <v>       0.00000000      -0.39067863       0.18099945 </v>
  </varray>
  <varray name="stress" >
   <v>     -22.81140967       0.00000000       0.00000000 </v>
   <v>       0.00000000     -30.26715239       0.80180885 </v>
   <v>       0.00000000       0.80180881      19.65753539 </v>
  </varray>
  <energy>
   <i name="e_fr_energy">    -38.36883221 </i>
   <i name="e_wo_entrp">    -38.37945619 </i>
   <i name="e_0_energy">    -38.37237354 </i>
  </energy>
  <time name="totalsc">    4.02    4.09</time>
 </calculation>
 <calculation>
  <scstep>
   <time name="dav">    0.31    0.31</time>
   <time name="total">    0.38    0.39</time>
   <energy>
    <i name="alphaZ">    216.17040255 </i>
    <i name="ewald">  44282.42624633 </i>
    <i name="hartreedc"> -55015.72756758 </i>
    <i name="XCdc">    362.54039274 </i>
    <i name="pawpsdc">  10586.12200179 </i>
    <i name="pawaedc"> -11449.22851280 </i>
    <i name="eentropy">      0.00813523 </i>
    <i name="bandstr">   -169.98064049 </i>
    <i name="atom">  11152.61838693 </i>
    <i name="e_fr_energy">    -35.05115532 </i>
    <i name="e_wo_entrp">    -35.05929055 </i>
    <i name="e_0_energy">    -35.05386706 </i>
   </energy>
  </scstep>
  <scstep>
   <time name="dav">    0.37    0.37</time>
   <time name="total">    0.45    0.45</time>
   <energy>
    <i name="e_fr_energy">    -35.07001551 </i>
    <i name="e_wo_entrp">    -35.07869658 </i>
    <i name="e_0_energy">    -35.07290920 </i>
   </energy>
  </scstep>
  <scstep>
   <time name="dav">    0.34    0.34</time>
   <time name="total">    0.42    0.42</time>
   <energy>
    <i name="e_fr_energy">    -35.06914568 </i>
    <i name="e_wo_entrp">    -35.07733181 </i>
    <i name="e_0_energy">    -35.07187439 </i>
   </energy>
  </scstep>
  <scstep>
   <time name="dav">    0.32    0.32</time>
   <time name="total">    0.40    0.40</time>
   <energy>
    <i name="e_fr_energy">    -35.06864343 </i>
    <i name="e_wo_entrp">    -35.07775930 </i>
    <i name="e_0_energy">    -35.07168205 </i>
   </energy>
  </scstep>
  <scstep>
   <time name="dav">    0.40    0.41</time>
   <time name="total">    0.48    0.48</time>
   <energy>
    <i name="e_fr_energy">    -35.06805688 </i>
    <i name="e_wo_entrp">    -35.07656268 </i>
    <i name="e_0_energy">    -35.07089215 </i>
   </energy>
  </scstep>
  <scstep>
   <time name="dav">    0.29    0.29</time>
   <time name="total">    0.36    0.36</time>
   <energy>
    <i name="e_fr_energy">    -35.06790708 </i>
    <i name="e_wo_entrp">    -35.07655118 </i>
    <i name="e_0_energy">    -35.07078845 </i>
   </energy>
  </scstep>
  <scstep>
   <time name="dav">    0.32    0.32</time>
   <time name="total">    0.34    0.35</time>
   <energy>
    <i name="alphaZ">    216.17040255 </i>
    <i name="ewald">  44282.42624633 </i>
    <i name="hartreedc"> -55014.56506220 </i>
    <i name="XCdc">    362.59166587 </i>
    <i name="pawpsdc">  10588.86842368 </i>
    <i name="pawaedc"> -11451.98881539 </i>
    <i name="eentropy">      0.00863929 </i>
    <i name="bandstr">   -171.19786677 </i>
    <i name="atom">  11152.61838693 </i>
    <i name="e_fr_energy">    -35.06797971 </i>
    <i name="e_wo_entrp">    -35.07661900 </i>
    <i name="e_0_energy">    -35.07085948 </i>
   </energy>
  </scstep>
  <structure>
   <crystal>
    <varray name="basis" >
     <v>       3.63000011       0.00000000       0.00000000 </v>
     <v>       0.00000000       2.56679773       0.00000000 </v>
     <v>       0.00000000       0.00000000      23.98379135 </v>
    </varray>
    <i name="volume">    223.46840188 </i>
    <varray name="rec_basis" >
     <v>       0.27548208       0.00000000       0.00000000 </v>
     <v>       0.00000000       0.38959050       0.00000000 </v>
     <v>       0.00000000       0.00000000       0.04169483 </v>
    </varray>
   </crystal>
   <varray name="positions" >
    <v>       0.00000000      -0.00028553       0.00533074 </v>
    <v>       0.50000000       0.49980651       0.05000466 </v>
    <v>       0.00000000       0.00003056       0.10541128 </v>
    <v>       0.50000000       0.49965010       0.15494775 </v>
    <v>       0.00000000       0.00015444       0.20680170 </v>
    <v>       0.50000000       0.49905135       0.25635819 </v>
    <v>       0.00000000      -0.01112273       0.31077060 </v>
    <v>       0.50000000       0.48574158       0.35616602 </v>
    <v>       1.00000000       0.01502399       0.43866852 </v>
    <v>       1.00000000       0.30258424       0.44087019 </v>
   </varray>
  </structure>
  <varray name="forces" >
   <v>       0.00000000      -0.00103015      -0.28000336 </v>
   <v>       0.00000000      -0.00113139       0.08307130 </v>
   <v>       0.00000000      -0.00311092      -0.31552632 </v>
   <v>       0.00000000       0.00269325      -0.03410618 </v>
   <v>       0.00000000      -0.00616818      -0.03517855 </v>
   <v>       0.00000000      -0.02087743       0.22714723 </v>
   <v>       0.00000000       0.00107915       0.04472105 </v>
   <v>       0.00000000      -0.00259606       0.04445319 </v>
   <v>       0.00000000      -0.57398168       0.04350557 </v>
   <v>       0.00000000       0.60512342       0.22191606 </v>
  </varray>
  <varray name="stress" >
   <v>     -21.37576601       0.00000000       0.00000000 </v>
   <v>       0.00000000     -22.37778238       1.11493462 </v>
   <v>       0.00000000       1.11493473      22.76257647 </v>
  </varray>
  <energy>
   <i name="e_fr_energy">    -38.38754314 </i>
   <i name="e_wo_entrp">    -38.39618243 </i>
   <i name="e_0_energy">    -38.39042290 </i>
  </energy>
  <time name="totalsc">    3.31    3.40</time>
 </calculation>
 <calculation>
  <scstep>
   <time name="dav">    0.31    0.31</time>
   <time name="total">    0.39    0.39</time>
   <energy>
    <i name="alphaZ">    216.17040255 </i>
    <i name="ewald">  44274.70513585 </i>
    <i name="hartreedc"> -55006.99863160 </i>
    <i name="XCdc">    362.58888780 </i>
    <i name="pawpsdc">  10588.92042013 </i>
    <i name="pawaedc"> -11452.04215215 </i>
    <i name="eentropy">      0.00891570 </i>
    <i name="bandstr">   -171.03895846 </i>
    <i name="atom">  11152.61838693 </i>
    <i name="e_fr_energy">    -35.06759326 </i>
    <i name="e_wo_entrp">    -35.07650896 </i>
    <i name="e_0_energy">    -35.07056516 </i>
   </energy>
  </scstep>
  <scstep>
   <time name="dav">    0.37    0.38</time>
   <time name="total">    0.45    0.46</time>
   <energy>
    <i name="e_fr_energy">    -35.06778621 </i>
    <i name="e_wo_entrp">    -35.07663504 </i>
    <i name="e_0_energy">    -35.07073582 </i>
   </energy>
  </scstep>
  <scstep>
   <time name="dav">    0.25    0.25</time>
   <time name="total">    0.27    0.27</time>
   <energy>
    <i name="alphaZ">    216.17040255 </i>
    <i name="ewald">  44274.70513585 </i>
    <i name="hartreedc"> -55007.18795391 </i>
    <i name="XCdc">    362.58368277 </i>
    <i name="pawpsdc">  10588.83395335 </i>
    <i name="pawaedc"> -11451.94819160 </i>
    <i name="eentropy">      0.00893992 </i>
    <i name="bandstr">   -170.85212938 </i>
    <i name="atom">  11152.61838693 </i>
    <i name="e_fr_energy">    -35.06777354 </i>
    <i name="e_wo_entrp">    -35.07671346 </i>
    <i name="e_0_energy">    -35.07075351 </i>
   </energy>
  </scstep>
  <structure>
   <crystal>
    <varray name="basis" >
     <v>       3.63000011       0.00000000       0.00000000 </v>
     <v>       0.00000000       2.56679773       0.00000000 </v>
     <v>       0.00000000       0.00000000      23.98379135 </v>
    </varray>
    <i name="volume">    223.46840188 </i>
    <varray name="rec_basis" >
     <v>       0.27548208       0.00000000       0.00000000 </v>
     <v>       0.00000000       0.38959050       0.00000000 </v>
     <v>       0.00000000       0.00000000       0.04169483 </v>
    </varray>
   </crystal>
   <varray name="positions" >
    <v>       0.00000000      -0.00028024       0.00538001 </v>
    <v>       0.50000000       0.49981076       0.04994656 </v>
    <v>       0.00000000       0.00003907       0.10545527 </v>
    <v>       0.50000000       0.49964349       0.15505055 </v>
    <v>       0.00000000       0.00015756       0.20684971 </v>
    <v>       0.50000000       0.49912347       0.25641778 </v>
    <v>       0.00000000      -0.01100052       0.31084370 </v>
    <v>       0.50000000       0.48592986       0.35622826 </v>
    <v>       1.00000000       0.01403401       0.43849825 </v>
    <v>       1.00000000       0.30317705       0.44065956 </v>
   </varray>
  </structure>
  <varray name="forces" >
   <v>       0.00000000      -0.00013752      -0.29353653 </v>
   <v>       0.00000000      -0.00024167       0.12562621 </v>
   <v>       0.00000000      -0.00247759      -0.31640452 </v>
   <v>       0.00000000       0.00411991      -0.06603119 </v>
   <v>       0.00000000      -0.00482858      -0.03295039 </v>
   <v>       0.00000000      -0.02220391       0.22837054 </v>
   <v>       0.00000000      -0.00059969       0.03610310 </v>
   <v>       0.00000000      -0.00715539       0.03483306 </v>
   <v>       0.00000000      -0.44847877       0.06231165 </v>
   <v>       0.00000000       0.48200322       0.22167809 </v>
  </varray>
  <varray name="stress" >
   <v>     -21.47075844       0.00000000       0.00000000 </v>
   <v>       0.00000000     -23.20676448       1.06696796 </v>
   <v>       0.00000000       1.06696799      22.60033722 </v>
  </varray>
  <energy>
   <i name="e_fr_energy">    -38.38781008 </i>
   <i name="e_wo_entrp">    -38.39674999 </i>
   <i name="e_0_energy">    -38.39079005 </i>
  </energy>
  <time name="totalsc">    1.60    1.64</time>
 </calculation>
 <calculation>
  <scstep>
   <time name="dav">    0.31    0.31</time>
   <time name="total">    0.38    0.38</time>
   <energy>
    <i name="alphaZ">    216.17040255 </i>
    <i name="ewald">  44237.61072497 </i>
    <i name="hartreedc"> -54970.44494343 </i>
    <i name="XCdc">    362.54904088 </i>
    <i name="pawpsdc">  10588.76699691 </i>
    <i name="pawaedc"> -11451.88087119 </i>
    <i name="eentropy">      0.00703665 </i>
    <i name="bandstr">   -170.47647709 </i>
[...]
       <r>     6.1613     1.7185    51.4933 </r>
       <r>     6.2346     1.2425    51.5844 </r>
       <r>     6.3080     1.2933    51.6792 </r>
       <r>     6.3813     2.1150    51.8343 </r>
       <r>     6.4546     3.1389    52.0644 </r>
       <r>     6.5279     3.5862    52.3273 </r>
       <r>     6.6012     3.3845    52.5754 </r>
       <r>     6.6745     3.0868    52.8017 </r>
       <r>     6.7478     2.8823    53.0129 </r>
       <r>     6.8211     2.3736    53.1869 </r>
       <r>     6.8944     1.5164    53.2981 </r>
       <r>     6.9677     1.0110    53.3722 </r>
       <r>     7.0410     1.3814    53.4735 </r>
       <r>     7.1143     2.1664    53.6323 </r>
       <r>     7.1876     2.4180    53.8095 </r>
       <r>     7.2609     1.8360    53.9441 </r>
       <r>     7.3342     1.0378    54.0202 </r>
       <r>     7.4075     0.6631    54.0688 </r>
       <r>     7.4808     0.6400    54.1157 </r>
       <r>     7.5542     0.5951    54.1594 </r>
       <r>     7.6275     0.6285    54.2054 </r>
       <r>     7.7008     1.2373    54.2961 </r>
       <r>     7.7741     2.5465    54.4828 </r>
       <r>     7.8474     4.0167    54.7773 </r>
       <r>     7.9207     5.0085    55.1444 </r>
       <r>     7.9940     5.2832    55.5317 </r>
       <r>     8.0673     4.8810    55.8895 </r>
       <r>     8.1406     3.9925    56.1822 </r>
       <r>     8.2139     2.9673    56.3997 </r>
       <r>     8.2872     2.0620    56.5509 </r>
       <r>     8.3605     1.3786    56.6519 </r>
       <r>     8.4338     1.0860    56.7315 </r>
       <r>     8.5071     1.2315    56.8218 </r>
       <r>     8.5804     1.4654    56.9292 </r>
       <r>     8.6537     1.4047    57.0322 </r>
       <r>     8.7271     1.1306    57.1151 </r>
       <r>     8.8004     1.0517    57.1922 </r>
       <r>     8.8737     1.3452    57.2908 </r>
       <r>     8.9470     1.7182    57.4168 </r>
       <r>     9.0203     1.8641    57.5534 </r>
       <r>     9.0936     1.9862    57.6990 </r>
       <r>     9.1669     2.4110    57.8758 </r>
       <r>     9.2402     2.9027    58.0885 </r>
       <r>     9.3135     3.0353    58.3110 </r>
       <r>     9.3868     2.9016    58.5237 </r>
       <r>     9.4601     2.8363    58.7317 </r>
       <r>     9.5334     2.9161    58.9454 </r>
       <r>     9.6067     3.0696    59.1704 </r>
       <r>     9.6800     3.1711    59.4029 </r>
       <r>     9.7533     2.9926    59.6223 </r>
       <r>     9.8266     2.4325    59.8006 </r>
       <r>     9.8999     1.6556    59.9220 </r>
       <r>     9.9733     0.8978    59.9878 </r>
       <r>    10.0466     0.3234    60.0115 </r>
       <r>    10.1199     0.0109    60.0123 </r>
       <r>    10.1932    -0.0771    60.0066 </r>
       <r>    10.2665    -0.0576    60.0024 </r>
       <r>    10.3398    -0.0243    60.0006 </r>
       <r>    10.4131    -0.0069    60.0001 </r>
       <r>    10.4864    -0.0014    60.0000 </r>
       <r>    10.5597    -0.0002    60.0000 </r>
       <r>    10.6330    -0.0000    60.0000 </r>
       <r>    10.7063    -0.0000    60.0000 </r>
       <r>    10.7796    -0.0000    60.0000 </r>
       <r>    10.8529    -0.0000    60.0000 </r>
       <r>    10.9262    -0.0000    60.0000 </r>
       <r>    10.9995    -0.0000    60.0000 </r>
       <r>    11.0728    -0.0000    60.0000 </r>
       <r>    11.1462    -0.0000    60.0000 </r>
       <r>    11.2195     0.0000    60.0000 </r>
       <r>    11.2928     0.0000    60.0000 </r>
       <r>    11.3661     0.0000    60.0000 </r>
       <r>    11.4394     0.0000    60.0000 </r>
       <r>    11.5127     0.0000    60.0000 </r>
       <r>    11.5860     0.0000    60.0000 </r>
       <r>    11.6593     0.0000    60.0000 </r>
       <r>    11.7326     0.0000    60.0000 </r>
       <r>    11.8059     0.0000    60.0000 </r>
       <r>    11.8792     0.0000    60.0000 </r>
      </set>
      <set comment="spin 2">
       <r>   -10.1126     0.0000     0.0000 </r>
       <r>   -10.0393     0.0000     0.0000 </r>
       <r>    -9.9660     0.0000     0.0000 </r>
       <r>    -9.8927     0.0000     0.0000 </r>
       <r>    -9.8194     0.0000     0.0000 </r>
       <r>    -9.7461    -0.0000    -0.0000 </r>
       <r>    -9.6728    -0.0000    -0.0000 </r>
       <r>    -9.5995    -0.0000    -0.0000 </r>
       <r>    -9.5262    -0.0000    -0.0000 </r>
       <r>    -9.4528    -0.0000    -0.0000 </r>
       <r>    -9.3795    -0.0000    -0.0000 </r>
       <r>    -9.3062    -0.0000    -0.0000 </r>
       <r>    -9.2329    -0.0000    -0.0000 </r>
       <r>    -9.1596    -0.0000    -0.0000 </r>
       <r>    -9.0863    -0.0000    -0.0000 </r>
       <r>    -9.0130    -0.0000    -0.0000 </r>
       <r>    -8.9397    -0.0000    -0.0000 </r>
       <r>    -8.8664    -0.0000    -0.0000 </r>
       <r>    -8.7931    -0.0000    -0.0000 </r>
       <r>    -8.7198    -0.0001    -0.0000 </r>
       <r>    -8.6465    -0.0007    -0.0001 </r>
       <r>    -8.5732    -0.0032    -0.0003 </r>
       <r>    -8.4999    -0.0108    -0.0011 </r>
       <r>    -8.4266    -0.0223    -0.0027 </r>
       <r>    -8.3533    -0.0166    -0.0039 </r>
       <r>    -8.2799     0.0554     0.0001 </r>
       <r>    -8.2066     0.2206     0.0163 </r>
       <r>    -8.1333     0.4033     0.0459 </r>
       <r>    -8.0600     0.4568     0.0793 </r>
       <r>    -7.9867     0.3314     0.1036 </r>
       <r>    -7.9134     0.1393     0.1139 </r>
       <r>    -7.8401     0.0127     0.1148 </r>
       <r>    -7.7668    -0.0240     0.1130 </r>
       <r>    -7.6935    -0.0181     0.1117 </r>
       <r>    -7.6202    -0.0099     0.1110 </r>
       <r>    -7.5469    -0.0123     0.1101 </r>
       <r>    -7.4736    -0.0225     0.1084 </r>
       <r>    -7.4003    -0.0176     0.1071 </r>
       <r>    -7.3270     0.0502     0.1108 </r>
       <r>    -7.2537     0.2045     0.1258 </r>
       <r>    -7.1804     0.3666     0.1527 </r>
       <r>    -7.1071     0.4095     0.1827 </r>
       <r>    -7.0337     0.3577     0.2089 </r>
       <r>    -6.9604     0.4167     0.2395 </r>
       <r>    -6.8871     0.6722     0.2887 </r>
       <r>    -6.8138     0.8881     0.3538 </r>
       <r>    -6.7405     0.7887     0.4117 </r>
       <r>    -6.6672     0.4274     0.4430 </r>
       <r>    -6.5939     0.0874     0.4494 </r>
       <r>    -6.5206    -0.0557     0.4453 </r>
       <r>    -6.4473    -0.0088     0.4447 </r>
       <r>    -6.3740     0.1587     0.4563 </r>
       <r>    -6.3007     0.3690     0.4833 </r>
       <r>    -6.2274     0.5681     0.5250 </r>
       <r>    -6.1541     0.7596     0.5807 </r>
       <r>    -6.0808     0.9303     0.6489 </r>
       <r>    -6.0075     1.0174     0.7234 </r>
       <r>    -5.9342     1.0411     0.7998 </r>
       <r>    -5.8609     1.1203     0.8819 </r>
       <r>    -5.7875     1.3079     0.9778 </r>
       <r>    -5.7142     1.5090     1.0884 </r>
       <r>    -5.6409     1.5188     1.1997 </r>
       <r>    -5.5676     1.1844     1.2865 </r>
       <r>    -5.4943     0.6221     1.3321 </r>
       <r>    -5.4210     0.1349     1.3420 </r>
       <r>    -5.3477    -0.1053     1.3343 </r>
       <r>    -5.2744    -0.1299     1.3248 </r>
       <r>    -5.2011     0.0024     1.3250 </r>
       <r>    -5.1278     0.2872     1.3460 </r>
       <r>    -5.0545     0.8052     1.4050 </r>
       <r>    -4.9812     1.8101     1.5377 </r>
       <r>    -4.9079     3.4225     1.7886 </r>
       <r>    -4.8346     4.9465     2.1512 </r>
       <r>    -4.7613     5.1351     2.5277 </r>
       <r>    -4.6880     3.6483     2.7951 </r>
       <r>    -4.6146     1.5760     2.9106 </r>
       <r>    -4.5413     0.1439     2.9212 </r>
       <r>    -4.4680    -0.4028     2.8916 </r>
       <r>    -4.3947    -0.4015     2.8622 </r>
       <r>    -4.3214     0.1025     2.8697 </r>
       <r>    -4.2481     1.3789     2.9708 </r>
       <r>    -4.1748     3.2016     3.2055 </r>
       <r>    -4.1015     4.4660     3.5329 </r>
       <r>    -4.0282     4.1881     3.8399 </r>
       <r>    -3.9549     2.7359     4.0405 </r>
       <r>    -3.8816     1.4638     4.1478 </r>
       <r>    -3.8083     1.2183     4.2371 </r>
       <r>    -3.7350     1.7494     4.3653 </r>
       <r>    -3.6617     2.5217     4.5502 </r>
       <r>    -3.5884     3.4476     4.8029 </r>
       <r>    -3.5151     4.5414     5.1358 </r>
       <r>    -3.4418     5.4412     5.5347 </r>
       <r>    -3.3684     5.8585     5.9642 </r>
       <r>    -3.2951     6.1415     6.4144 </r>
       <r>    -3.2218     6.8149     6.9139 </r>
       <r>    -3.1485     7.8478     7.4892 </r>
       <r>    -3.0752     8.8348     8.1369 </r>
       <r>    -3.0019     9.4461     8.8293 </r>
       <r>    -2.9286     9.3504     9.5148 </r>
       <r>    -2.8553     8.3669    10.1281 </r>
       <r>    -2.7820     7.0617    10.6458 </r>
       <r>    -2.7087     6.5664    11.1271 </r>
       <r>    -2.6354     7.3213    11.6638 </r>
       <r>    -2.5621     8.5135    12.2879 </r>
       <r>    -2.4888     9.3509    12.9734 </r>
       <r>    -2.4155    10.1397    13.7167 </r>
       <r>    -2.3422    11.2298    14.5399 </r>
       <r>    -2.2689    11.9500    15.4159 </r>
       <r>    -2.1955    11.9095    16.2890 </r>
       <r>    -2.1222    12.3143    17.1917 </r>
       <r>    -2.0489    14.2930    18.2394 </r>
       <r>    -1.9756    16.6619    19.4609 </r>
       <r>    -1.9023    17.1642    20.7191 </r>
       <r>    -1.8290    15.4860    21.8543 </r>
       <r>    -1.7557    13.4392    22.8395 </r>
       <r>    -1.6824    12.4036    23.7487 </r>
       <r>    -1.6091    11.8692    24.6188 </r>
       <r>    -1.5358    10.6734    25.4013 </r>
       <r>    -1.4625     8.9455    26.0570 </r>
       <r>    -1.3892     8.2200    26.6596 </r>
       <r>    -1.3159     9.8062    27.3784 </r>
       <r>    -1.2426    13.6039    28.3757 </r>
       <r>    -1.1693    18.1356    29.7051 </r>
       <r>    -1.0960    21.0916    31.2513 </r>
       <r>    -1.0227    20.7494    32.7723 </r>
       <r>    -0.9493    17.9513    34.0883 </r>
       <r>    -0.8760    15.7335    35.2416 </r>
       <r>    -0.8027    15.9949    36.4142 </r>
       <r>    -0.7294    17.6371    37.7071 </r>
       <r>    -0.6561    18.5684    39.0682 </r>
       <r>    -0.5828    17.9430    40.3836 </r>
       <r>    -0.5095    15.9088    41.5498 </r>
       <r>    -0.4362    12.8052    42.4885 </r>
       <r>    -0.3629     9.2697    43.1680 </r>
       <r>    -0.2896     6.1409    43.6182 </r>
       <r>    -0.2163     3.8305    43.8990 </r>
       <r>    -0.1430     2.1753    44.0584 </r>
       <r>    -0.0697     0.9460    44.1278 </r>
       <r>     0.0036     0.1490    44.1387 </r>
       <r>     0.0769    -0.2013    44.1239 </r>
       <r>     0.1502    -0.2506    44.1056 </r>
       <r>     0.2236    -0.1066    44.0977 </r>
       <r>     0.2969     0.3000    44.1197 </r>
       <r>     0.3702     0.9970    44.1928 </r>
       <r>     0.4435     1.7645    44.3222 </r>
       <r>     0.5168     2.3463    44.4942 </r>
       <r>     0.5901     2.6645    44.6895 </r>
       <r>     0.6634     2.6020    44.8802 </r>
       <r>     0.7367     1.9917    45.0262 </r>
       <r>     0.8100     1.0811    45.1055 </r>
       <r>     0.8833     0.4940    45.1417 </r>
       <r>     0.9566     0.5083    45.1790 </r>
       <r>     1.0299     0.7530    45.2342 </r>
       <r>     1.1032     0.7418    45.2885 </r>
       <r>     1.1765     0.4581    45.3221 </r>
       <r>     1.2498     0.2746    45.3423 </r>
       <r>     1.3231     0.4175    45.3729 </r>
       <r>     1.3964     0.6984    45.4241 </r>
       <r>     1.4698     0.8444    45.4860 </r>
       <r>     1.5431     0.9531    45.5558 </r>
       <r>     1.6164     1.2979    45.6510 </r>
       <r>     1.6897     1.7034    45.7758 </r>
       <r>     1.7630     1.6326    45.8955 </r>
       <r>     1.8363     1.0206    45.9703 </r>
       <r>     1.9096     0.5139    46.0080 </r>
       <r>     1.9829     0.6896    46.0586 </r>
       <r>     2.0562     1.3387    46.1567 </r>
       <r>     2.1295     1.7262    46.2832 </r>
       <r>     2.2028     1.5170    46.3944 </r>
       <r>     2.2761     1.1345    46.4776 </r>
       <r>     2.3494     1.0494    46.5545 </r>
       <r>     2.4227     1.1826    46.6412 </r>
       <r>     2.4960     1.3156    46.7377 </r>
       <r>     2.5693     1.5315    46.8499 </r>
       <r>     2.6427     1.8615    46.9864 </r>
       <r>     2.7160     2.0268    47.1350 </r>
       <r>     2.7893     1.8791    47.2727 </r>
       <r>     2.8626     1.6545    47.3940 </r>
       <r>     2.9359     1.5776    47.5097 </r>
       <r>     3.0092     1.5333    47.6221 </r>
       <r>     3.0825     1.2651    47.7148 </r>
       <r>     3.1558     0.7535    47.7700 </r>
       <r>     3.2291     0.2547    47.7887 </r>
       <r>     3.3024    -0.0148    47.7876 </r>
       <r>     3.3757    -0.0721    47.7823 </r>
       <r>     3.4490    -0.0506    47.7786 </r>
       <r>     3.5223    -0.0449    47.7753 </r>
       <r>     3.5956    -0.0861    47.7690 </r>
       <r>     3.6689    -0.1402    47.7588 </r>
       <r>     3.7422    -0.0469    47.7553 </r>
       <r>     3.8155     0.4630    47.7893 </r>
       <r>     3.8889     1.4820    47.8979 </r>
       <r>     3.9622     2.6158    48.0896 </r>
       <r>     4.0355     3.2134    48.3252 </r>
       <r>     4.1088     3.0504    48.5488 </r>
       <r>     4.1821     2.5517    48.7359 </r>
       <r>     4.2554     2.2062    48.8976 </r>
       <r>     4.3287     2.0296    49.0464 </r>
       <r>     4.4020     1.7618    49.1755 </r>
       <r>     4.4753     1.3256    49.2727 </r>
       <r>     4.5486     0.8868    49.3377 </r>
       <r>     4.6219     0.5871    49.3808 </r>
       <r>     4.6952     0.4003    49.4101 </r>
       <r>     4.7685     0.2920    49.4315 </r>
       <r>     4.8418     0.3672    49.4584 </r>
       <r>     4.9151     0.7036    49.5100 </r>
       <r>     4.9884     1.1433    49.5938 </r>
       <r>     5.0617     1.3979    49.6963 </r>
       <r>     5.1351     1.2862    49.7906 </r>
       <r>     5.2084     0.8325    49.8516 </r>
       <r>     5.2817     0.2702    49.8714 </r>
       <r>     5.3550    -0.0058    49.8710 </r>
       <r>     5.4283     0.4079    49.9009 </r>
       <r>     5.5016     1.6081    50.0188 </r>
       <r>     5.5749     3.0399    50.2416 </r>
       <r>     5.6482     3.7146    50.5139 </r>
       <r>     5.7215     3.1634    50.7458 </r>
       <r>     5.7948     2.0110    50.8932 </r>
       <r>     5.8681     1.2783    50.9869 </r>
       <r>     5.9414     1.3471    51.0857 </r>
       <r>     6.0147     1.8119    51.2185 </r>
       <r>     6.0880     2.0305    51.3674 </r>
       <r>     6.1613     1.7185    51.4933 </r>
       <r>     6.2346     1.2425    51.5844 </r>
       <r>     6.3080     1.2933    51.6792 </r>
       <r>     6.3813     2.1150    51.8343 </r>
       <r>     6.4546     3.1389    52.0644 </r>
       <r>     6.5279     3.5862    52.3273 </r>
       <r>     6.6012     3.3845    52.5754 </r>
       <r>     6.6745     3.0868    52.8017 </r>
       <r>     6.7478     2.8823    53.0129 </r>
       <r>     6.8211     2.3736    53.1869 </r>
       <r>     6.8944     1.5164    53.2981 </r>
       <r>     6.9677     1.0110    53.3722 </r>
       <r>     7.0410     1.3814    53.4735 </r>
       <r>     7.1143     2.1664    53.6323 </r>
       <r>     7.1876     2.4180    53.8095 </r>
       <r>     7.2609     1.8360    53.9441 </r>
       <r>     7.3342     1.0378    54.0202 </r>
       <r>     7.4075     0.6631    54.0688 </r>
       <r>     7.4808     0.6400    54.1157 </r>
       <r>     7.5542     0.5951    54.1594 </r>
       <r>     7.6275     0.6285    54.2054 </r>
       <r>     7.7008     1.2373    54.2961 </r>
       <r>     7.7741     2.5465    54.4828 </r>
       <r>     7.8474     4.0167    54.7773 </r>
       <r>     7.9207     5.0085    55.1444 </r>
       <r>     7.9940     5.2832    55.5317 </r>
       <r>     8.0673     4.8810    55.8895 </r>
       <r>     8.1406     3.9925    56.1822 </r>
       <r>     8.2139     2.9672    56.3997 </r>
       <r>     8.2872     2.0620    56.5509 </r>
       <r>     8.3605     1.3786    56.6519 </r>
       <r>     8.4338     1.0860    56.7315 </r>
       <r>     8.5071     1.2315    56.8218 </r>
       <r>     8.5804     1.4654    56.9292 </r>
       <r>     8.6537     1.4047    57.0322 </r>
       <r>     8.7271     1.1307    57.1151 </r>
       <r>     8.8004     1.0517    57.1922 </r>
       <r>     8.8737     1.3452    57.2908 </r>
       <r>     8.9470     1.7182    57.4168 </r>
       <r>     9.0203     1.8641    57.5534 </r>
       <r>     9.0936     1.9862    57.6990 </r>
       <r>     9.1669     2.4110    57.8757 </r>
       <r>     9.2402     2.9026    58.0885 </r>
       <r>     9.3135     3.0353    58.3110 </r>
       <r>     9.3868     2.9016    58.5237 </r>
       <r>     9.4601     2.8363    58.7317 </r>
       <r>     9.5334     2.9161    58.9454 </r>
       <r>     9.6067     3.0696    59.1704 </r>
       <r>     9.6800     3.1711    59.4029 </r>
       <r>     9.7533     2.9925    59.6223 </r>
       <r>     9.8266     2.4325    59.8006 </r>
       <r>     9.8999     1.6556    59.9220 </r>
       <r>     9.9733     0.8978    59.9878 </r>
       <r>    10.0466     0.3234    60.0115 </r>
       <r>    10.1199     0.0109    60.0123 </r>
       <r>    10.1932    -0.0771    60.0066 </r>
       <r>    10.2665    -0.0576    60.0024 </r>
       <r>    10.3398    -0.0243    60.0006 </r>
       <r>    10.4131    -0.0069    60.0001 </r>
       <r>    10.4864    -0.0014    60.0000 </r>
       <r>    10.5597    -0.0002    60.0000 </r>
       <r>    10.6330    -0.0000    60.0000 </r>
       <r>    10.7063    -0.0000    60.0000 </r>
       <r>    10.7796    -0.0000    60.0000 </r>
       <r>    10.8529    -0.0000    60.0000 </r>
       <r>    10.9262    -0.0000    60.0000 </r>
       <r>    10.9995    -0.0000    60.0000 </r>
       <r>    11.0728    -0.0000    60.0000 </r>
       <r>    11.1462    -0.0000    60.0000 </r>
       <r>    11.2195     0.0000    60.0000 </r>
       <r>    11.2928     0.0000    60.0000 </r>
       <r>    11.3661     0.0000    60.0000 </r>
       <r>    11.4394     0.0000    60.0000 </r>
       <r>    11.5127     0.0000    60.0000 </r>
       <r>    11.5860     0.0000    60.0000 </r>
       <r>    11.6593     0.0000    60.0000 </r>
       <r>    11.7326     0.0000    60.0000 </r>
       <r>    11.8059     0.0000    60.0000 </r>
       <r>    11.8792     0.0000    60.0000 </r>
      </set>
     </set>
    </array>
   </total>
  </dos>
 </calculation>
 <structure name="finalpos" >
  <crystal>
   <varray name="basis" >
    <v>       3.63000011       0.00000000       0.00000000 </v>
    <v>       0.00000000       2.56679773       0.00000000 </v>
    <v>       0.00000000       0.00000000      23.98379135 </v>
   </varray>
   <i name="volume">    223.46840188 </i>
   <varray name="rec_basis" >
    <v>       0.27548208       0.00000000       0.00000000 </v>
    <v>       0.00000000       0.38959050       0.00000000 </v>
    <v>       0.00000000       0.00000000       0.04169483 </v>
   </varray>
  </crystal>
  <varray name="positions" >
   <v>       0.00000000      -0.00521275      -0.00529466 </v>
   <v>       0.50000000       0.49403431       0.04204044 </v>
   <v>       0.00000000      -0.00770082       0.09633175 </v>
   <v>       0.50000000       0.49008127       0.14873354 </v>
   <v>       0.00000000      -0.01370865       0.20183666 </v>
   <v>       0.50000000       0.48179876       0.25401706 </v>
   <v>       0.00000000      -0.02331349       0.30857462 </v>
   <v>       0.50000000       0.47428703       0.35593908 </v>
   <v>       1.00000000       0.14295327       0.44701719 </v>
   <v>       1.00000000       0.25741557       0.47613399 </v>
  </varray>
 </structure>
</modeling>
