unknown system                          
           1
     3.630000    0.000000    0.000000
     0.000000    2.566798    0.000000
     0.000000    0.000000   23.983791
   Cu   H 
     8     2
Direct configuration=     1
   0.00000000  0.00000000  0.00000000
   0.50000000  0.50000000  0.05351109
   0.00000000  0.00000000  0.10468148
   0.50000000  0.50000000  0.15792996
   0.00000000  0.00000000  0.21070899
   0.50000000  0.50000000  0.26289048
   0.00000000  0.00000000  0.31711592
   0.50000000  0.50000000  0.36467590
   1.00000000  0.00000000  0.42690792
   1.00000000  0.29063451  0.42690792
Direct configuration=     2
   0.00000000 -0.00000570  0.00101586
   0.50000000  0.49999366  0.05260456
   0.00000000  0.00004101  0.10463236
   0.50000000  0.49994859  0.15813396
   0.00000000  0.00000677  0.21040891
   0.50000000  0.50017851  0.26282705
   0.00000000 -0.00096983  0.31665715
   0.50000000  0.49905974  0.36362354
   1.00000000 -0.00915828  0.42766702
   1.00000000  0.30154004  0.42775923
Direct configuration=     3
   0.00000000 -0.00000657  0.00117161
   0.50000000  0.49999269  0.05246558
   0.00000000  0.00004730  0.10462483
   0.50000000  0.49994071  0.15816524
   0.00000000  0.00000781  0.21036291
   0.50000000  0.50020588  0.26281733
   0.00000000 -0.00111852  0.31658681
   0.50000000  0.49891558  0.36346219
   1.00000000 -0.01056239  0.42778341
   1.00000000  0.30321204  0.42788975
Direct configuration=     4
   0.00000000 -0.00001892  0.00204978
   0.50000000  0.49998313  0.05172613
   0.00000000  0.00007827  0.10460430
   0.50000000  0.49989025  0.15824361
   0.00000000  0.00001701  0.21006745
   0.50000000  0.50032745  0.26264256
   0.00000000 -0.00205916  0.31613403
   0.50000000  0.49790675  0.36252438
   1.00000000 -0.00723118  0.42856419
   1.00000000  0.30174093  0.42877323
Direct configuration=     5
   0.00000000 -0.00005596  0.00468427
   0.50000000  0.49995443  0.04950778
   0.00000000  0.00017119  0.10454271
   0.50000000  0.49973887  0.15847870
   0.00000000  0.00004461  0.20918109
   0.50000000  0.50069218  0.26211825
   0.00000000 -0.00488109  0.31477570
   0.50000000  0.49488025  0.35971093
   1.00000000  0.00276244  0.43090655
   1.00000000  0.29732760  0.43142368
Direct configuration=     6
   0.00000000 -0.00008699  0.00487350
   0.50000000  0.49993578  0.04950085
   0.00000000  0.00016054  0.10476169
   0.50000000  0.49971315  0.15803565
   0.00000000  0.00006843  0.20884878
   0.50000000  0.50052496  0.26122386
   0.00000000 -0.00575874  0.31420408
   0.50000000  0.49361007  0.35920109
   1.00000000  0.00329591  0.43196894
   1.00000000  0.29917140  0.43271122
Direct configuration=     7
   0.00000000 -0.00018008  0.00544119
   0.50000000  0.49987981  0.04948007
   0.00000000  0.00012860  0.10541861
   0.50000000  0.49963597  0.15670652
   0.00000000  0.00013987  0.20785184
   0.50000000  0.50002331  0.25854070
   0.00000000 -0.00839166  0.31248924
   0.50000000  0.48979954  0.35767158
   1.00000000  0.00489632  0.43515609
   1.00000000  0.30470283  0.43657383
Direct configuration=     8
   0.00000000 -0.00036625  0.00657656
   0.50000000  0.49976789  0.04943850
   0.00000000  0.00006471  0.10673246
   0.50000000  0.49948162  0.15404824
   0.00000000  0.00028275  0.20585796
   0.50000000  0.49902002  0.25317438
   0.00000000 -0.01365751  0.30905956
   0.50000000  0.48217848  0.35461255
   1.00000000  0.00809713  0.44153040
   1.00000000  0.31576567  0.44429904
Direct configuration=     9
   0.00000000 -0.00023668  0.00578636
   0.50000000  0.49984579  0.04946743
   0.00000000  0.00010917  0.10581804
   0.50000000  0.49958905  0.15589835
   0.00000000  0.00018331  0.20724567
   0.50000000  0.49971829  0.25690924
   0.00000000 -0.00999257  0.31144656
   0.50000000  0.48748261  0.35674158
   1.00000000  0.00586942  0.43709399
   1.00000000  0.30806612  0.43892243
Direct configuration=    10
   0.00000000 -0.00028553  0.00533074
   0.50000000  0.49980651  0.05000466
   0.00000000  0.00003056  0.10541128
   0.50000000  0.49965010  0.15494775
   0.00000000  0.00015444  0.20680170
   0.50000000  0.49905135  0.25635819
   0.00000000 -0.01112273  0.31077060
   0.50000000  0.48574158  0.35616602
   1.00000000  0.01502399  0.43866852
   1.00000000  0.30258424  0.44087019
Direct configuration=    11
   0.00000000 -0.00028024  0.00538001
   0.50000000  0.49981076  0.04994656
   0.00000000  0.00003907  0.10545527
   0.50000000  0.49964349  0.15505055
   0.00000000  0.00015756  0.20684971
   0.50000000  0.49912347  0.25641778
   0.00000000 -0.01100052  0.31084370
   0.50000000  0.48592986  0.35622826
   1.00000000  0.01403401  0.43849825
   1.00000000  0.30317705  0.44065956
Direct configuration=    12
   0.00000000 -0.00031748  0.00461091
   0.50000000  0.49977898  0.05052312
   0.00000000 -0.00005244  0.10468722
   0.50000000  0.49974529  0.15426444
   0.00000000  0.00006910  0.20647942
   0.50000000  0.49833054  0.25636154
   0.00000000 -0.01182589  0.31040914
   0.50000000  0.48457113  0.35586438
   1.00000000  0.01437406  0.43972981
   1.00000000  0.30596122  0.44239967
Direct configuration=    13
   0.00000000 -0.00033899  0.00416654
   0.50000000  0.49976062  0.05085624
   0.00000000 -0.00010531  0.10424347
   0.50000000  0.49980411  0.15381025
   0.00000000  0.00001799  0.20626547
   0.50000000  0.49787239  0.25632905
   0.00000000 -0.01230277  0.31015806
   0.50000000  0.48378608  0.35565413
   1.00000000  0.01457054  0.44044137
   1.00000000  0.30756985  0.44340507
Direct configuration=    14
   0.00000000 -0.00038202  0.00327780
   0.50000000  0.49972391  0.05152249
   0.00000000 -0.00021105  0.10335595
   0.50000000  0.49992175  0.15290186
   0.00000000 -0.00008423  0.20583757
   0.50000000  0.49695611  0.25626406
   0.00000000 -0.01325654  0.30965591
   0.50000000  0.48221599  0.35523364
   1.00000000  0.01496349  0.44186451
   1.00000000  0.31078711  0.44541586
Direct configuration=    15
   0.00000000 -0.00036058  0.00372068
   0.50000000  0.49974220  0.05119048
   0.00000000 -0.00015836  0.10379822
   0.50000000  0.49986313  0.15335453
   0.00000000 -0.00003329  0.20605080
   0.50000000  0.49741272  0.25629645
   0.00000000 -0.01278125  0.30990615
   0.50000000  0.48299840  0.35544318
   1.00000000  0.01476767  0.44115533
   1.00000000  0.30918387  0.44441383
Direct configuration=    16
   0.00000000 -0.00036724  0.00358307
   0.50000000  0.49973652  0.05129364
   0.00000000 -0.00017473  0.10366080
   0.50000000  0.49988134  0.15321388
   0.00000000 -0.00004912  0.20598455
   0.50000000  0.49727084  0.25628639
   0.00000000 -0.01292894  0.30982839
   0.50000000  0.48275529  0.35537807
   1.00000000  0.01482852  0.44137569
   1.00000000  0.30968204  0.44472519
Direct configuration=    17
   0.00000000 -0.00041298  0.00283695
   0.50000000  0.49968889  0.05093661
   0.00000000 -0.00024769  0.10296948
   0.50000000  0.49991369  0.15336265
   0.00000000 -0.00030094  0.20555490
   0.50000000  0.49658566  0.25617134
   0.00000000 -0.01349180  0.30970814
   0.50000000  0.48188404  0.35544715
   1.00000000  0.01629797  0.44225778
   1.00000000  0.31071765  0.44608465
Direct configuration=    18
   0.00000000 -0.00045239  0.00219400
   0.50000000  0.49964786  0.05062894
   0.00000000 -0.00031056  0.10237375
   0.50000000  0.49994156  0.15349085
   0.00000000 -0.00051794  0.20518467
   0.50000000  0.49599523  0.25607221
   0.00000000 -0.01397682  0.30960453
   0.50000000  0.48113327  0.35550668
   1.00000000  0.01756424  0.44301790
   1.00000000  0.31161006  0.44725613
Direct configuration=    19
   0.00000000 -0.00053121  0.00090811
   0.50000000  0.49956578  0.05001361
   0.00000000 -0.00043630  0.10118229
   0.50000000  0.49999731  0.15374725
   0.00000000 -0.00095193  0.20444420
   0.50000000  0.49481437  0.25587394
   0.00000000 -0.01494688  0.30939729
   0.50000000  0.47963172  0.35562574
   1.00000000  0.02009676  0.44453814
   1.00000000  0.31339489  0.44959908
Direct configuration=    20
   0.00000000 -0.00068885 -0.00166367
   0.50000000  0.49940163  0.04878294
   0.00000000 -0.00068777  0.09879938
   0.50000000  0.50010879  0.15426005
   0.00000000 -0.00181993  0.20296326
   0.50000000  0.49245264  0.25547741
   0.00000000 -0.01688699  0.30898282
   0.50000000  0.47662863  0.35586385
   1.00000000  0.02516182  0.44757862
   1.00000000  0.31696454  0.45428500
Direct configuration=    21
   0.00000000 -0.00060913 -0.00036310
   0.50000000  0.49948464  0.04940530
   0.00000000 -0.00056060  0.10000444
   0.50000000  0.50005241  0.15400072
   0.00000000 -0.00138098  0.20371218
   0.50000000  0.49364698  0.25567794
   0.00000000 -0.01590586  0.30919242
   0.50000000  0.47814732  0.35574343
   1.00000000  0.02260038  0.44604102
   1.00000000  0.31515934  0.45191529
Direct configuration=    22
   0.00000000 -0.00062936 -0.00120741
   0.50000000  0.49944086  0.04775218
   0.00000000 -0.00051739  0.09974320
   0.50000000  0.49986006  0.15323209
   0.00000000 -0.00209145  0.20347236
   0.50000000  0.49256749  0.25581355
   0.00000000 -0.01705588  0.30918767
   0.50000000  0.47707066  0.35604961
   1.00000000  0.02991584  0.44730927
   1.00000000  0.31207368  0.45397712
Direct configuration=    23
   0.00000000 -0.00063309 -0.00136314
   0.50000000  0.49943279  0.04744727
   0.00000000 -0.00050942  0.09969502
   0.50000000  0.49982459  0.15309033
   0.00000000 -0.00222250  0.20342813
   0.50000000  0.49236839  0.25583856
   0.00000000 -0.01726800  0.30918679
   0.50000000  0.47687208  0.35610609
   1.00000000  0.03126512  0.44754319
   1.00000000  0.31150455  0.45435740
Direct configuration=    24
   0.00000000 -0.00064195 -0.00158947
   0.50000000  0.49941677  0.04692003
   0.00000000 -0.00049579  0.09963933
   0.50000000  0.49973705  0.15280333
   0.00000000 -0.00245722  0.20339591
   0.50000000  0.49205950  0.25587201
   0.00000000 -0.01761571  0.30919982
   0.50000000  0.47657722  0.35619914
   1.00000000  0.03162165  0.44786171
   1.00000000  0.31243299  0.45502784
Direct configuration=    25
   0.00000000 -0.00066854 -0.00226845
   0.50000000  0.49936873  0.04533829
   0.00000000 -0.00045490  0.09947225
   0.50000000  0.49947446  0.15194233
   0.00000000 -0.00316141  0.20329925
   0.50000000  0.49113284  0.25597236
   0.00000000 -0.01865883  0.30923890
   0.50000000  0.47569264  0.35647829
   1.00000000  0.03269122  0.44881727
   1.00000000  0.31521831  0.45703916
Direct configuration=    26
   0.00000000 -0.00072170 -0.00362643
   0.50000000  0.49927264  0.04217482
   0.00000000 -0.00037313  0.09913809
   0.50000000  0.49894927  0.15022033
   0.00000000 -0.00456979  0.20310594
   0.50000000  0.48927952  0.25617305
   0.00000000 -0.02074509  0.30931706
   0.50000000  0.47392348  0.35703660
   1.00000000  0.03483037  0.45072839
   1.00000000  0.32078896  0.46106180
Direct configuration=    27
   0.00000000 -0.00068968 -0.00280838
   0.50000000  0.49933052  0.04408051
   0.00000000 -0.00042239  0.09933939
   0.50000000  0.49926565  0.15125767
   0.00000000 -0.00372138  0.20322239
   0.50000000  0.49039597  0.25605215
   0.00000000 -0.01948832  0.30926997
   0.50000000  0.47498923  0.35670028
   1.00000000  0.03354174  0.44957712
   1.00000000  0.31743318  0.45863855
Direct configuration=    28
   0.00000000 -0.00069581 -0.00296500
   0.50000000  0.49931944  0.04371566
   0.00000000 -0.00041296  0.09930085
   0.50000000  0.49920507  0.15105907
   0.00000000 -0.00388381  0.20320010
   0.50000000  0.49018222  0.25607530
   0.00000000 -0.01972893  0.30927899
   0.50000000  0.47478519  0.35676467
   1.00000000  0.03378845  0.44979753
   1.00000000  0.31807565  0.45910248
Direct configuration=    29
   0.00000000 -0.00069210 -0.00287041
   0.50000000  0.49932613  0.04393602
   0.00000000 -0.00041866  0.09932413
   0.50000000  0.49924166  0.15117902
   0.00000000 -0.00378571  0.20321356
   0.50000000  0.49031132  0.25606132
   0.00000000 -0.01958361  0.30927354
   0.50000000  0.47490842  0.35672578
   1.00000000  0.03363944  0.44966441
   1.00000000  0.31768762  0.45882228
Direct configuration=    30
   0.00000000 -0.00069396 -0.00291770
   0.50000000  0.49932279  0.04382584
   0.00000000 -0.00041581  0.09931249
   0.50000000  0.49922337  0.15111905
   0.00000000 -0.00383476  0.20320683
   0.50000000  0.49024677  0.25606831
   0.00000000 -0.01965627  0.30927626
   0.50000000  0.47484681  0.35674522
   1.00000000  0.03371394  0.44973097
   1.00000000  0.31788163  0.45896238
Direct configuration=    31
   0.00000000 -0.00069283 -0.00288895
   0.50000000  0.49932482  0.04389282
   0.00000000 -0.00041754  0.09931956
   0.50000000  0.49923449  0.15115551
   0.00000000 -0.00380494  0.20321092
   0.50000000  0.49028601  0.25606406
   0.00000000 -0.01961210  0.30927461
   0.50000000  0.47488427  0.35673340
   1.00000000  0.03366865  0.44969051
   1.00000000  0.31776368  0.45887721
Direct configuration=    32
   0.00000000 -0.00069339 -0.00290333
   0.50000000  0.49932380  0.04385933
   0.00000000 -0.00041668  0.09931602
   0.50000000  0.49922893  0.15113728
   0.00000000 -0.00381985  0.20320887
   0.50000000  0.49026639  0.25606618
   0.00000000 -0.01963418  0.30927544
   0.50000000  0.47486554  0.35673931
   1.00000000  0.03369130  0.44971074
   1.00000000  0.31782266  0.45891979
Direct configuration=    33
   0.00000000 -0.00069319 -0.00289810
   0.50000000  0.49932417  0.04387150
   0.00000000 -0.00041699  0.09931731
   0.50000000  0.49923095  0.15114390
   0.00000000 -0.00381443  0.20320962
   0.50000000  0.49027352  0.25606541
   0.00000000 -0.01962616  0.30927514
   0.50000000  0.47487234  0.35673716
   1.00000000  0.03368307  0.44970339
   1.00000000  0.31780123  0.45890432
Direct configuration=    34
   0.00000000 -0.00069336 -0.00290253
   0.50000000  0.49932386  0.04386119
   0.00000000 -0.00041672  0.09931622
   0.50000000  0.49922924  0.15113829
   0.00000000 -0.00381902  0.20320899
   0.50000000  0.49026748  0.25606607
   0.00000000 -0.01963296  0.30927539
   0.50000000  0.47486658  0.35673898
   1.00000000  0.03369004  0.44970961
   1.00000000  0.31781938  0.45891743
Direct configuration=    35
   0.00000000 -0.00069328 -0.00290031
   0.50000000  0.49932402  0.04386635
   0.00000000 -0.00041686  0.09931677
   0.50000000  0.49923009  0.15114109
   0.00000000 -0.00381672  0.20320930
   0.50000000  0.49027050  0.25606574
   0.00000000 -0.01962956  0.30927526
   0.50000000  0.47486946  0.35673807
   1.00000000  0.03368655  0.44970650
   1.00000000  0.31781031  0.45891087
Direct configuration=    36
   0.00000000 -0.00069330 -0.00290103
   0.50000000  0.49932397  0.04386469
   0.00000000 -0.00041681  0.09931659
   0.50000000  0.49922982  0.15114019
   0.00000000 -0.00381746  0.20320920
   0.50000000  0.49026953  0.25606584
   0.00000000 -0.01963065  0.30927531
   0.50000000  0.47486853  0.35673837
   1.00000000  0.03368768  0.44970750
   1.00000000  0.31781323  0.45891299
Direct configuration=    37
   0.00000000 -0.00069565 -0.00300839
   0.50000000  0.49932597  0.04366598
   0.00000000 -0.00041913  0.09918126
   0.50000000  0.49911265  0.15094207
   0.00000000 -0.00399342  0.20325506
   0.50000000  0.49010125  0.25599465
   0.00000000 -0.01983323  0.30932572
   0.50000000  0.47473045  0.35678971
   1.00000000  0.03465545  0.44987813
   1.00000000  0.31765017  0.45930545
Direct configuration=    38
   0.00000000 -0.00070133 -0.00326802
   0.50000000  0.49933081  0.04318545
   0.00000000 -0.00042472  0.09885398
   0.50000000  0.49882931  0.15046294
   0.00000000 -0.00441896  0.20336596
   0.50000000  0.48969428  0.25582248
   0.00000000 -0.02032312  0.30944764
   0.50000000  0.47439652  0.35691387
   1.00000000  0.03699590  0.45029077
   1.00000000  0.31725582  0.46025459
Direct configuration=    39
   0.00000000 -0.00071269 -0.00378730
   0.50000000  0.49934048  0.04222437
   0.00000000 -0.00043591  0.09819942
   0.50000000  0.49826264  0.14950468
   0.00000000 -0.00527003  0.20358775
   0.50000000  0.48888036  0.25547814
   0.00000000 -0.02130292  0.30969149
   0.50000000  0.47372867  0.35716219
   1.00000000  0.04167679  0.45111605
   1.00000000  0.31646712  0.46215286
Direct configuration=    40
   0.00000000 -0.00070820 -0.00358207
   0.50000000  0.49933666  0.04260422
   0.00000000 -0.00043149  0.09845813
   0.50000000  0.49848661  0.14988342
   0.00000000 -0.00493366  0.20350009
   0.50000000  0.48920205  0.25561423
   0.00000000 -0.02091567  0.30959511
   0.50000000  0.47399262  0.35706405
   1.00000000  0.03982675  0.45078987
   1.00000000  0.31677884  0.46140260
Direct configuration=    41
   0.00000000 -0.00071085 -0.00370327
   0.50000000  0.49933892  0.04237990
   0.00000000 -0.00043410  0.09830535
   0.50000000  0.49835434  0.14965976
   0.00000000 -0.00513230  0.20355186
   0.50000000  0.48901208  0.25553386
   0.00000000 -0.02114436  0.30965202
   0.50000000  0.47383674  0.35712200
   1.00000000  0.04091928  0.45098249
   1.00000000  0.31659476  0.46184566
Direct configuration=    42
   0.00000000 -0.00072656 -0.00394508
   0.50000000  0.49933352  0.04230660
   0.00000000 -0.00053444  0.09796014
   0.50000000  0.49803322  0.14944859
   0.00000000 -0.00554712  0.20351517
   0.50000000  0.48873499  0.25532149
   0.00000000 -0.02147411  0.30976302
   0.50000000  0.47367867  0.35712232
   1.00000000  0.04140455  0.45114933
   1.00000000  0.31773180  0.46268808
Direct configuration=    43
   0.00000000 -0.00073149 -0.00402091
   0.50000000  0.49933183  0.04228361
   0.00000000 -0.00056591  0.09785188
   0.50000000  0.49793251  0.14938236
   0.00000000 -0.00567721  0.20350367
   0.50000000  0.48864809  0.25525489
   0.00000000 -0.02157753  0.30979782
   0.50000000  0.47362910  0.35712242
   1.00000000  0.04155673  0.45120165
   1.00000000  0.31808838  0.46295226
Direct configuration=    44
   0.00000000 -0.00075771 -0.00428823
   0.50000000  0.49930926  0.04243573
   0.00000000 -0.00076906  0.09748421
   0.50000000  0.49753934  0.14931752
   0.00000000 -0.00615212  0.20331115
   0.50000000  0.48836019  0.25502000
   0.00000000 -0.02187201  0.30986849
   0.50000000  0.47356217  0.35703064
   1.00000000  0.04462729  0.45138758
   1.00000000  0.31678717  0.46376257
Direct configuration=    45
   0.00000000 -0.00078966 -0.00461389
   0.50000000  0.49928175  0.04262104
   0.00000000 -0.00101655  0.09703631
   0.50000000  0.49706036  0.14923853
   0.00000000 -0.00673069  0.20307660
   0.50000000  0.48800946  0.25473383
   0.00000000 -0.02223077  0.30995457
   0.50000000  0.47348064  0.35691884
   1.00000000  0.04836798  0.45161409
   1.00000000  0.31520198  0.46474972
Direct configuration=    46
   0.00000000 -0.00080399 -0.00475996
   0.50000000  0.49926942  0.04270416
   0.00000000 -0.00112756  0.09683541
   0.50000000  0.49684553  0.14920310
   0.00000000 -0.00699019  0.20297140
   0.50000000  0.48785215  0.25460548
   0.00000000 -0.02239169  0.30999318
   0.50000000  0.47344407  0.35686870
   1.00000000  0.05004581  0.45171569
   1.00000000  0.31449096  0.46519249
Direct configuration=    47
   0.00000000 -0.00083060 -0.00498808
   0.50000000  0.49922681  0.04281778
   0.00000000 -0.00137036  0.09660333
   0.50000000  0.49646630  0.14918595
   0.00000000 -0.00742461  0.20274511
   0.50000000  0.48754539  0.25446968
   0.00000000 -0.02264637  0.30995922
   0.50000000  0.47340089  0.35672786
   1.00000000  0.05161590  0.45175782
   1.00000000  0.31465115  0.46605098
Direct configuration=    48
   0.00000000 -0.00085237 -0.00517472
   0.50000000  0.49919195  0.04291073
   0.00000000 -0.00156902  0.09641344
   0.50000000  0.49615602  0.14917191
   0.00000000 -0.00778005  0.20255995
   0.50000000  0.48729440  0.25435857
   0.00000000 -0.02285475  0.30993144
   0.50000000  0.47336555  0.35661262
   1.00000000  0.05290057  0.45179230
   1.00000000  0.31478222  0.46675340
Direct configuration=    49
   0.00000000 -0.00084612 -0.00512111
   0.50000000  0.49920196  0.04288403
   0.00000000 -0.00151196  0.09646798
   0.50000000  0.49624514  0.14917594
   0.00000000 -0.00767796  0.20261313
   0.50000000  0.48736649  0.25439049
   0.00000000 -0.02279490  0.30993942
   0.50000000  0.47337570  0.35664572
   1.00000000  0.05253159  0.45178240
   1.00000000  0.31474458  0.46655165
Direct configuration=    50
   0.00000000 -0.00085012 -0.00515537
   0.50000000  0.49919556  0.04290110
   0.00000000 -0.00154842  0.09643313
   0.50000000  0.49618818  0.14917337
   0.00000000 -0.00774320  0.20257915
   0.50000000  0.48732042  0.25437009
   0.00000000 -0.02283315  0.30993432
   0.50000000  0.47336921  0.35662456
   1.00000000  0.05276739  0.45178872
   1.00000000  0.31476864  0.46668058
Direct configuration=    51
   0.00000000 -0.00084812 -0.00513824
   0.50000000  0.49919876  0.04289257
   0.00000000 -0.00153019  0.09645055
   0.50000000  0.49621666  0.14917465
   0.00000000 -0.00771058  0.20259614
   0.50000000  0.48734346  0.25438029
   0.00000000 -0.02281403  0.30993687
   0.50000000  0.47337246  0.35663514
   1.00000000  0.05264949  0.45178556
   1.00000000  0.31475661  0.46661612
Direct configuration=    52
   0.00000000 -0.00084988 -0.00524354
   0.50000000  0.49915282  0.04289522
   0.00000000 -0.00174751  0.09642178
   0.50000000  0.49592398  0.14917975
   0.00000000 -0.00798636  0.20241621
   0.50000000  0.48707397  0.25437818
   0.00000000 -0.02295867  0.30979132
   0.50000000  0.47335500  0.35649764
   1.00000000  0.05491494  0.45181316
   1.00000000  0.31375621  0.46717994
Direct configuration=    53
   0.00000000 -0.00085400 -0.00549000
   0.50000000  0.49904531  0.04290143
   0.00000000 -0.00225612  0.09635444
   0.50000000  0.49523897  0.14919168
   0.00000000 -0.00863182  0.20199507
   0.50000000  0.48644325  0.25437326
   0.00000000 -0.02329722  0.30945065
   0.50000000  0.47331414  0.35617582
   1.00000000  0.06021717  0.45187775
   1.00000000  0.31141483  0.46849955
Direct configuration=    54
   0.00000000 -0.00086225 -0.00598292
   0.50000000  0.49883028  0.04291385
   0.00000000 -0.00327336  0.09621976
   0.50000000  0.49386894  0.14921553
   0.00000000 -0.00992273  0.20115280
   0.50000000  0.48518182  0.25436340
   0.00000000 -0.02397430  0.30876933
   0.50000000  0.47323243  0.35553218
   1.00000000  0.07082162  0.45200693
   1.00000000  0.30673206  0.47113878
Direct configuration=    55
   0.00000000 -0.00091132 -0.00591094
   0.50000000  0.49861982  0.04267124
   0.00000000 -0.00366976  0.09619623
   0.50000000  0.49333811  0.14908698
   0.00000000 -0.01041167  0.20110972
   0.50000000  0.48456449  0.25418174
   0.00000000 -0.02404396  0.30837843
   0.50000000  0.47310098  0.35536245
   1.00000000  0.07692254  0.45205482
   1.00000000  0.30312527  0.47219899
Direct configuration=    56
   0.00000000 -0.00097768 -0.00581361
   0.50000000  0.49833521  0.04234316
   0.00000000 -0.00420579  0.09616442
   0.50000000  0.49262031  0.14891314
   0.00000000 -0.01107283  0.20105146
   0.50000000  0.48372972  0.25393607
   0.00000000 -0.02413815  0.30784983
   0.50000000  0.47292324  0.35513294
   1.00000000  0.08517250  0.45211958
   1.00000000  0.29824799  0.47363266
Direct configuration=    57
   0.00000000 -0.00111040 -0.00561895
   0.50000000  0.49776600  0.04168701
   0.00000000 -0.00527785  0.09610078
   0.50000000  0.49118469  0.14856547
   0.00000000 -0.01239516  0.20093493
   0.50000000  0.48206017  0.25344475
   0.00000000 -0.02432653  0.30679264
   0.50000000  0.47256776  0.35467391
   1.00000000  0.10167241  0.45224909
   1.00000000  0.28849343  0.47650001
Direct configuration=    58
   0.00000000 -0.00105895 -0.00569442
   0.50000000  0.49798670  0.04194142
   0.00000000 -0.00486218  0.09612546
   0.50000000  0.49174132  0.14870028
   0.00000000 -0.01188246  0.20098011
   0.50000000  0.48270750  0.25363525
   0.00000000 -0.02425349  0.30720254
   0.50000000  0.47270559  0.35485189
   1.00000000  0.09527492  0.45219887
   1.00000000  0.29227555  0.47538826
Direct configuration=    59
   0.00000000 -0.00108520 -0.00565591
   0.50000000  0.49787410  0.04181162
   0.00000000 -0.00507426  0.09611287
   0.50000000  0.49145732  0.14863150
   0.00000000 -0.01214404  0.20095706
   0.50000000  0.48237723  0.25353806
   0.00000000 -0.02429075  0.30699341
   0.50000000  0.47263527  0.35476108
   1.00000000  0.09853896  0.45222450
   1.00000000  0.29034589  0.47595548
Direct configuration=    60
   0.00000000 -0.00127672 -0.00552858
   0.50000000  0.49753179  0.04162740
   0.00000000 -0.00555509  0.09606203
   0.50000000  0.49110303  0.14827915
   0.00000000 -0.01274653  0.20099143
   0.50000000  0.48173164  0.25316943
   0.00000000 -0.02440365  0.30694859
   0.50000000  0.47262595  0.35461462
   1.00000000  0.10281728  0.45184719
   1.00000000  0.28880680  0.47731839
Direct configuration=    61
   0.00000000 -0.00113438 -0.00562321
   0.50000000  0.49778620  0.04176431
   0.00000000 -0.00519774  0.09609981
   0.50000000  0.49136634  0.14854102
   0.00000000 -0.01229876  0.20096589
   0.50000000  0.48221144  0.25344340
   0.00000000 -0.02431974  0.30698190
   0.50000000  0.47263288  0.35472347
   1.00000000  0.09963762  0.45212761
   1.00000000  0.28995066  0.47630547
Direct configuration=    62
   0.00000000 -0.00129844 -0.00546584
   0.50000000  0.49754110  0.04172320
   0.00000000 -0.00553394  0.09605681
   0.50000000  0.49135771  0.14814111
   0.00000000 -0.01274036  0.20103567
   0.50000000  0.48186525  0.25308738
   0.00000000 -0.02433817  0.30725586
   0.50000000  0.47282174  0.35468294
   1.00000000  0.10345910  0.45200159
   1.00000000  0.28750051  0.47681092
Direct configuration=    63
   0.00000000 -0.00131224 -0.00545261
   0.50000000  0.49752049  0.04171975
   0.00000000 -0.00556221  0.09605320
   0.50000000  0.49135698  0.14810749
   0.00000000 -0.01277749  0.20104154
   0.50000000  0.48183614  0.25305745
   0.00000000 -0.02433972  0.30727889
   0.50000000  0.47283762  0.35467953
   1.00000000  0.10378045  0.45199099
   1.00000000  0.28729448  0.47685343
Direct configuration=    64
   0.00000000 -0.00149351 -0.00548020
   0.50000000  0.49735450  0.04174633
   0.00000000 -0.00572537  0.09605616
   0.50000000  0.49140478  0.14798509
   0.00000000 -0.01298504  0.20100757
   0.50000000  0.48177313  0.25301762
   0.00000000 -0.02439464  0.30748156
   0.50000000  0.47297737  0.35466517
   1.00000000  0.10751449  0.45208547
   1.00000000  0.28420880  0.47676487
Direct configuration=    65
   0.00000000 -0.00136685 -0.00546092
   0.50000000  0.49747048  0.04172776
   0.00000000 -0.00561136  0.09605409
   0.50000000  0.49137138  0.14807061
   0.00000000 -0.01284002  0.20103130
   0.50000000  0.48181716  0.25304545
   0.00000000 -0.02435627  0.30733995
   0.50000000  0.47287973  0.35467520
   1.00000000  0.10490543  0.45201946
   1.00000000  0.28636483  0.47682675
Direct configuration=    66
   0.00000000 -0.00155990 -0.00553642
   0.50000000  0.49731765  0.04175584
   0.00000000 -0.00573949  0.09605599
   0.50000000  0.49146480  0.14801435
   0.00000000 -0.01301648  0.20099128
   0.50000000  0.48182424  0.25309658
   0.00000000 -0.02438552  0.30753950
   0.50000000  0.47309622  0.35467336
   1.00000000  0.10612243  0.45188888
   1.00000000  0.28551055  0.47685029
Direct configuration=    67
   0.00000000 -0.00164660 -0.00557033
   0.50000000  0.49724901  0.04176845
   0.00000000 -0.00579702  0.09605685
   0.50000000  0.49150675  0.14798908
   0.00000000 -0.01309573  0.20097330
   0.50000000  0.48182742  0.25311953
   0.00000000 -0.02439865  0.30762912
   0.50000000  0.47319345  0.35467253
   1.00000000  0.10666896  0.45183024
   1.00000000  0.28512692  0.47686087
Direct configuration=    68
   0.00000000 -0.00179436 -0.00559724
   0.50000000  0.49713139  0.04175778
   0.00000000 -0.00584876  0.09602760
   0.50000000  0.49146099  0.14803153
   0.00000000 -0.01314013  0.20100576
   0.50000000  0.48181081  0.25315860
   0.00000000 -0.02435473  0.30766766
   0.50000000  0.47324336  0.35474119
   1.00000000  0.10730895  0.45158975
   1.00000000  0.28481699  0.47694702
Direct configuration=    69
   0.00000000 -0.00173606 -0.00558662
   0.50000000  0.49717780  0.04176199
   0.00000000 -0.00582835  0.09603914
   0.50000000  0.49147904  0.14801478
   0.00000000 -0.01312261  0.20099296
   0.50000000  0.48181737  0.25314319
   0.00000000 -0.02437206  0.30765245
   0.50000000  0.47322367  0.35471410
   1.00000000  0.10705644  0.45168464
   1.00000000  0.28493927  0.47691303
Direct configuration=    70
   0.00000000 -0.00175719 -0.00559047
   0.50000000  0.49716098  0.04176046
   0.00000000 -0.00583574  0.09603496
   0.50000000  0.49147250  0.14802085
   0.00000000 -0.01312896  0.20099760
   0.50000000  0.48181499  0.25314877
   0.00000000 -0.02436578  0.30765797
   0.50000000  0.47323080  0.35472392
   1.00000000  0.10714797  0.45165024
   1.00000000  0.28489495  0.47692535
Direct configuration=    71
   0.00000000 -0.00174042 -0.00558742
   0.50000000  0.49717433  0.04176168
   0.00000000 -0.00582987  0.09603828
   0.50000000  0.49147769  0.14801603
   0.00000000 -0.01312392  0.20099391
   0.50000000  0.48181688  0.25314434
   0.00000000 -0.02437077  0.30765359
   0.50000000  0.47322514  0.35471612
   1.00000000  0.10707531  0.45167754
   1.00000000  0.28493013  0.47691557
Direct configuration=    72
   0.00000000 -0.00174880 -0.00558895
   0.50000000  0.49716765  0.04176107
   0.00000000 -0.00583281  0.09603662
   0.50000000  0.49147510  0.14801844
   0.00000000 -0.01312644  0.20099576
   0.50000000  0.48181593  0.25314655
   0.00000000 -0.02436827  0.30765578
   0.50000000  0.47322797  0.35472002
   1.00000000  0.10711164  0.45166389
   1.00000000  0.28491254  0.47692046
Direct configuration=    73
   0.00000000 -0.00174438 -0.00558814
   0.50000000  0.49717118  0.04176139
   0.00000000 -0.00583126  0.09603749
   0.50000000  0.49147647  0.14801717
   0.00000000 -0.01312511  0.20099478
   0.50000000  0.48181643  0.25314538
   0.00000000 -0.02436959  0.30765462
   0.50000000  0.47322648  0.35471796
   1.00000000  0.10709247  0.45167110
   1.00000000  0.28492183  0.47691788