  66  66   0   0
  0.2212521E+02  0.7260000E-09  0.7260000E-09  0.2770500E-08  0.5000000E-15
  1.000000000000000E-004
  CAR 
 unknown system                          
     13.35240920     -9.52296342  301      1.87292637      1.00000000
     -9.523  0.0000E+00  0.0000E+00  0.0000E+00  0.0000E+00
     -9.447  0.0000E+00  0.0000E+00  0.0000E+00  0.0000E+00
     -9.370  0.0000E+00  0.0000E+00  0.0000E+00  0.0000E+00
     -9.294  0.0000E+00  0.0000E+00  0.0000E+00  0.0000E+00
     -9.218  0.0000E+00  0.0000E+00  0.0000E+00  0.0000E+00
     -9.142 -0.1476E-30 -0.1476E-30 -0.1125E-31 -0.1125E-31
     -9.065 -0.5810E-28 -0.5810E-28 -0.4441E-29 -0.4441E-29
     -8.989 -0.1709E-25 -0.1709E-25 -0.1307E-26 -0.1307E-26
     -8.913 -0.3746E-23 -0.3746E-23 -0.2870E-24 -0.2870E-24
     -8.837 -0.6121E-21 -0.6121E-21 -0.4696E-22 -0.4696E-22
     -8.760 -0.7448E-19 -0.7448E-19 -0.5726E-20 -0.5726E-20
     -8.684 -0.6544E-17 -0.6544E-17 -0.5047E-18 -0.5047E-18
     -8.608 -0.4392E-15 -0.4392E-15 -0.3400E-16 -0.3400E-16
     -8.532 -0.2187E-13 -0.2187E-13 -0.1702E-14 -0.1702E-14
     -8.455 -0.8069E-12 -0.8069E-12 -0.6323E-13 -0.6323E-13
     -8.379 -0.2201E-10 -0.2201E-10 -0.1742E-11 -0.1742E-11
     -8.303 -0.4427E-09 -0.4427E-09 -0.3550E-10 -0.3550E-10
     -8.227 -0.6534E-08 -0.6534E-08 -0.5337E-09 -0.5337E-09
     -8.150 -0.7030E-07 -0.7030E-07 -0.5894E-08 -0.5894E-08
     -8.074 -0.5457E-06 -0.5457E-06 -0.4750E-07 -0.4750E-07
     -7.998 -0.3000E-05 -0.3000E-05 -0.2762E-06 -0.2762E-06
     -7.922 -0.1125E-04 -0.1125E-04 -0.1134E-05 -0.1134E-05
     -7.845 -0.2624E-04 -0.2624E-04 -0.3135E-05 -0.3135E-05
     -7.769 -0.2472E-04 -0.2472E-04 -0.5020E-05 -0.5020E-05
     -7.693  0.5447E-04  0.5447E-04 -0.8666E-06 -0.8666E-06
     -7.617  0.2421E-03  0.2421E-03  0.1759E-04  0.1759E-04
     -7.540  0.4239E-03  0.4239E-03  0.4991E-04  0.4991E-04
     -7.464  0.4446E-03  0.4446E-03  0.8381E-04  0.8381E-04
     -7.388  0.4506E-03  0.4506E-03  0.1182E-03  0.1182E-03
     -7.312  0.8541E-03  0.8541E-03  0.1833E-03  0.1833E-03
     -7.235  0.1650E-02  0.1650E-02  0.3091E-03  0.3091E-03
     -7.159  0.2163E-02  0.2163E-02  0.4741E-03  0.4741E-03
     -7.083  0.2007E-02  0.2007E-02  0.6271E-03  0.6271E-03
     -7.007  0.1778E-02  0.1778E-02  0.7627E-03  0.7627E-03
     -6.930  0.2088E-02  0.2088E-02  0.9219E-03  0.9219E-03
     -6.854  0.2587E-02  0.2587E-02  0.1119E-02  0.1119E-02
     -6.778  0.2719E-02  0.2719E-02  0.1327E-02  0.1327E-02
     -6.702  0.2582E-02  0.2582E-02  0.1523E-02  0.1523E-02
     -6.625  0.2326E-02  0.2326E-02  0.1701E-02  0.1701E-02
     -6.549  0.1794E-02  0.1794E-02  0.1838E-02  0.1838E-02
     -6.473  0.1355E-02  0.1355E-02  0.1941E-02  0.1941E-02
     -6.397  0.1851E-02  0.1851E-02  0.2082E-02  0.2082E-02
     -6.320  0.3187E-02  0.3187E-02  0.2325E-02  0.2325E-02
     -6.244  0.4060E-02  0.4060E-02  0.2635E-02  0.2635E-02
     -6.168  0.3641E-02  0.3641E-02  0.2912E-02  0.2912E-02
     -6.092  0.2848E-02  0.2848E-02  0.3130E-02  0.3130E-02
     -6.015  0.3262E-02  0.3262E-02  0.3378E-02  0.3378E-02
     -5.939  0.4956E-02  0.4956E-02  0.3756E-02  0.3756E-02
     -5.863  0.6315E-02  0.6315E-02  0.4238E-02  0.4238E-02
     -5.787  0.6117E-02  0.6117E-02  0.4704E-02  0.4704E-02
     -5.710  0.4854E-02  0.4854E-02  0.5074E-02  0.5074E-02
     -5.634  0.3964E-02  0.3964E-02  0.5377E-02  0.5377E-02
     -5.558  0.4409E-02  0.4409E-02  0.5713E-02  0.5713E-02
     -5.482  0.5652E-02  0.5652E-02  0.6144E-02  0.6144E-02
     -5.405  0.5928E-02  0.5928E-02  0.6596E-02  0.6596E-02
     -5.329  0.4300E-02  0.4300E-02  0.6924E-02  0.6924E-02
     -5.253  0.2065E-02  0.2065E-02  0.7081E-02  0.7081E-02
     -5.177  0.1226E-02  0.1226E-02  0.7175E-02  0.7175E-02
     -5.100  0.2145E-02  0.2145E-02  0.7338E-02  0.7338E-02
     -5.024  0.3601E-02  0.3601E-02  0.7613E-02  0.7613E-02
     -4.948  0.4816E-02  0.4816E-02  0.7980E-02  0.7980E-02
     -4.872  0.6362E-02  0.6362E-02  0.8465E-02  0.8465E-02
     -4.795  0.8764E-02  0.8764E-02  0.9133E-02  0.9133E-02
     -4.719  0.1138E-01  0.1138E-01  0.1000E-01  0.1000E-01
     -4.643  0.1326E-01  0.1326E-01  0.1101E-01  0.1101E-01
     -4.567  0.1380E-01  0.1380E-01  0.1206E-01  0.1206E-01
     -4.490  0.1249E-01  0.1249E-01  0.1302E-01  0.1302E-01
     -4.414  0.9482E-02  0.9482E-02  0.1374E-01  0.1374E-01
     -4.338  0.6240E-02  0.6240E-02  0.1422E-01  0.1422E-01
     -4.262  0.4575E-02  0.4575E-02  0.1456E-01  0.1456E-01
     -4.185  0.5089E-02  0.5089E-02  0.1495E-01  0.1495E-01
     -4.109  0.6646E-02  0.6646E-02  0.1546E-01  0.1546E-01
     -4.033  0.7888E-02  0.7888E-02  0.1606E-01  0.1606E-01
     -3.957  0.8970E-02  0.8970E-02  0.1675E-01  0.1675E-01
     -3.880  0.1051E-01  0.1051E-01  0.1755E-01  0.1755E-01
     -3.804  0.1221E-01  0.1221E-01  0.1848E-01  0.1848E-01
     -3.728  0.1391E-01  0.1391E-01  0.1954E-01  0.1954E-01
     -3.652  0.1580E-01  0.1580E-01  0.2074E-01  0.2074E-01
     -3.575  0.1715E-01  0.1715E-01  0.2205E-01  0.2205E-01
     -3.499  0.1699E-01  0.1699E-01  0.2335E-01  0.2335E-01
     -3.423  0.1552E-01  0.1552E-01  0.2453E-01  0.2453E-01
     -3.347  0.1392E-01  0.1392E-01  0.2559E-01  0.2559E-01
     -3.270  0.1424E-01  0.1424E-01  0.2668E-01  0.2668E-01
     -3.194  0.1930E-01  0.1930E-01  0.2815E-01  0.2815E-01
     -3.118  0.3007E-01  0.3007E-01  0.3044E-01  0.3044E-01
     -3.042  0.4213E-01  0.4213E-01  0.3365E-01  0.3365E-01
     -2.965  0.4787E-01  0.4787E-01  0.3730E-01  0.3730E-01
     -2.889  0.4489E-01  0.4489E-01  0.4073E-01  0.4073E-01
     -2.813  0.4000E-01  0.4000E-01  0.4378E-01  0.4378E-01
     -2.737  0.4120E-01  0.4120E-01  0.4692E-01  0.4692E-01
     -2.660  0.4843E-01  0.4843E-01  0.5061E-01  0.5061E-01
     -2.584  0.5655E-01  0.5655E-01  0.5492E-01  0.5492E-01
     -2.508  0.6510E-01  0.6510E-01  0.5989E-01  0.5989E-01
     -2.432  0.7828E-01  0.7828E-01  0.6586E-01  0.6586E-01
     -2.355  0.9429E-01  0.9429E-01  0.7305E-01  0.7305E-01
     -2.279  0.1018E+00  0.1018E+00  0.8081E-01  0.8081E-01
     -2.203  0.9307E-01  0.9307E-01  0.8791E-01  0.8791E-01
     -2.127  0.7551E-01  0.7551E-01  0.9367E-01  0.9367E-01
     -2.050  0.6455E-01  0.6455E-01  0.9859E-01  0.9859E-01
     -1.974  0.6702E-01  0.6702E-01  0.1037E+00  0.1037E+00
     -1.898  0.7774E-01  0.7774E-01  0.1096E+00  0.1096E+00
     -1.822  0.8798E-01  0.8798E-01  0.1163E+00  0.1163E+00
     -1.745  0.9270E-01  0.9270E-01  0.1234E+00  0.1234E+00
     -1.669  0.9262E-01  0.9262E-01  0.1305E+00  0.1305E+00
     -1.593  0.9328E-01  0.9328E-01  0.1376E+00  0.1376E+00
     -1.517  0.1001E+00  0.1001E+00  0.1452E+00  0.1452E+00
     -1.440  0.1128E+00  0.1128E+00  0.1538E+00  0.1538E+00
     -1.364  0.1257E+00  0.1257E+00  0.1634E+00  0.1634E+00
     -1.288  0.1335E+00  0.1335E+00  0.1736E+00  0.1736E+00
     -1.212  0.1367E+00  0.1367E+00  0.1840E+00  0.1840E+00
     -1.135  0.1386E+00  0.1386E+00  0.1946E+00  0.1946E+00
     -1.059  0.1378E+00  0.1378E+00  0.2051E+00  0.2051E+00
     -0.983  0.1317E+00  0.1317E+00  0.2151E+00  0.2151E+00
     -0.907  0.1234E+00  0.1234E+00  0.2245E+00  0.2245E+00
     -0.830  0.1174E+00  0.1174E+00  0.2335E+00  0.2335E+00
     -0.754  0.1157E+00  0.1157E+00  0.2423E+00  0.2423E+00
     -0.678  0.1209E+00  0.1209E+00  0.2515E+00  0.2515E+00
     -0.602  0.1332E+00  0.1332E+00  0.2617E+00  0.2617E+00
     -0.525  0.1453E+00  0.1453E+00  0.2727E+00  0.2727E+00
     -0.449  0.1489E+00  0.1489E+00  0.2841E+00  0.2841E+00
     -0.373  0.1457E+00  0.1457E+00  0.2952E+00  0.2952E+00
     -0.297  0.1430E+00  0.1430E+00  0.3061E+00  0.3061E+00
     -0.220  0.1431E+00  0.1431E+00  0.3170E+00  0.3170E+00
     -0.144  0.1447E+00  0.1447E+00  0.3281E+00  0.3281E+00
     -0.068  0.1511E+00  0.1511E+00  0.3396E+00  0.3396E+00
      0.008  0.1681E+00  0.1681E+00  0.3524E+00  0.3524E+00
      0.085  0.1915E+00  0.1915E+00  0.3670E+00  0.3670E+00
      0.161  0.2043E+00  0.2043E+00  0.3826E+00  0.3826E+00
      0.237  0.1908E+00  0.1908E+00  0.3971E+00  0.3971E+00
      0.313  0.1504E+00  0.1504E+00  0.4086E+00  0.4086E+00
      0.390  0.9824E-01  0.9824E-01  0.4161E+00  0.4161E+00
      0.466  0.5410E-01  0.5410E-01  0.4202E+00  0.4202E+00
      0.542  0.2866E-01  0.2866E-01  0.4224E+00  0.4224E+00
      0.618  0.1897E-01  0.1897E-01  0.4239E+00  0.4239E+00
      0.695  0.1704E-01  0.1704E-01  0.4252E+00  0.4252E+00
      0.771  0.1764E-01  0.1764E-01  0.4265E+00  0.4265E+00
      0.847  0.1839E-01  0.1839E-01  0.4279E+00  0.4279E+00
      0.923  0.1899E-01  0.1899E-01  0.4293E+00  0.4293E+00
      1.000  0.1988E-01  0.1988E-01  0.4309E+00  0.4309E+00
      1.076  0.1966E-01  0.1966E-01  0.4324E+00  0.4324E+00
      1.152  0.1644E-01  0.1644E-01  0.4336E+00  0.4336E+00
      1.228  0.1134E-01  0.1134E-01  0.4345E+00  0.4345E+00
      1.305  0.7067E-02  0.7067E-02  0.4350E+00  0.4350E+00
      1.381  0.4614E-02  0.4614E-02  0.4354E+00  0.4354E+00
      1.457  0.3385E-02  0.3385E-02  0.4356E+00  0.4356E+00
      1.533  0.3146E-02  0.3146E-02  0.4359E+00  0.4359E+00
      1.610  0.4743E-02  0.4743E-02  0.4362E+00  0.4362E+00
      1.686  0.9370E-02  0.9370E-02  0.4369E+00  0.4369E+00
      1.762  0.1716E-01  0.1716E-01  0.4383E+00  0.4383E+00
      1.838  0.2576E-01  0.2576E-01  0.4402E+00  0.4402E+00
      1.915  0.3022E-01  0.3022E-01  0.4425E+00  0.4425E+00
      1.991  0.2639E-01  0.2639E-01  0.4445E+00  0.4445E+00
      2.067  0.1593E-01  0.1593E-01  0.4457E+00  0.4457E+00
      2.143  0.5861E-02  0.5861E-02  0.4462E+00  0.4462E+00
      2.220  0.1967E-02  0.1967E-02  0.4463E+00  0.4463E+00
      2.296  0.4112E-02  0.4112E-02  0.4467E+00  0.4467E+00
      2.372  0.7767E-02  0.7767E-02  0.4473E+00  0.4473E+00
      2.448  0.9328E-02  0.9328E-02  0.4480E+00  0.4480E+00
      2.525  0.9370E-02  0.9370E-02  0.4487E+00  0.4487E+00
      2.601  0.1022E-01  0.1022E-01  0.4495E+00  0.4495E+00
      2.677  0.1230E-01  0.1230E-01  0.4504E+00  0.4504E+00
      2.753  0.1411E-01  0.1411E-01  0.4515E+00  0.4515E+00
      2.830  0.1385E-01  0.1385E-01  0.4525E+00  0.4525E+00
      2.906  0.1105E-01  0.1105E-01  0.4534E+00  0.4534E+00
      2.982  0.8338E-02  0.8338E-02  0.4540E+00  0.4540E+00
      3.058  0.9602E-02  0.9602E-02  0.4547E+00  0.4547E+00
      3.135  0.1519E-01  0.1519E-01  0.4559E+00  0.4559E+00
      3.211  0.2076E-01  0.2076E-01  0.4575E+00  0.4575E+00
      3.287  0.2164E-01  0.2164E-01  0.4591E+00  0.4591E+00
      3.363  0.1704E-01  0.1704E-01  0.4604E+00  0.4604E+00
      3.440  0.9927E-02  0.9927E-02  0.4612E+00  0.4612E+00
      3.516  0.4173E-02  0.4173E-02  0.4615E+00  0.4615E+00
      3.592  0.2454E-02  0.2454E-02  0.4617E+00  0.4617E+00
      3.669  0.5324E-02  0.5324E-02  0.4621E+00  0.4621E+00
      3.745  0.1060E-01  0.1060E-01  0.4629E+00  0.4629E+00
      3.821  0.1423E-01  0.1423E-01  0.4640E+00  0.4640E+00
      3.897  0.1346E-01  0.1346E-01  0.4650E+00  0.4650E+00
      3.974  0.9359E-02  0.9359E-02  0.4657E+00  0.4657E+00
      4.050  0.5889E-02  0.5889E-02  0.4662E+00  0.4662E+00
      4.126  0.5876E-02  0.5876E-02  0.4666E+00  0.4666E+00
      4.202  0.7966E-02  0.7966E-02  0.4672E+00  0.4672E+00
      4.279  0.8882E-02  0.8882E-02  0.4679E+00  0.4679E+00
      4.355  0.7986E-02  0.7986E-02  0.4685E+00  0.4685E+00
      4.431  0.6990E-02  0.6990E-02  0.4691E+00  0.4691E+00
      4.507  0.6990E-02  0.6990E-02  0.4696E+00  0.4696E+00
      4.584  0.8666E-02  0.8666E-02  0.4702E+00  0.4702E+00
      4.660  0.1240E-01  0.1240E-01  0.4712E+00  0.4712E+00
      4.736  0.1611E-01  0.1611E-01  0.4724E+00  0.4724E+00
      4.812  0.1646E-01  0.1646E-01  0.4737E+00  0.4737E+00
      4.889  0.1329E-01  0.1329E-01  0.4747E+00  0.4747E+00
      4.965  0.9833E-02  0.9833E-02  0.4754E+00  0.4754E+00
      5.041  0.8669E-02  0.8669E-02  0.4761E+00  0.4761E+00
      5.117  0.9530E-02  0.9530E-02  0.4768E+00  0.4768E+00
      5.194  0.1067E-01  0.1067E-01  0.4776E+00  0.4776E+00
      5.270  0.1109E-01  0.1109E-01  0.4785E+00  0.4785E+00
      5.346  0.1147E-01  0.1147E-01  0.4794E+00  0.4794E+00
      5.422  0.1290E-01  0.1290E-01  0.4803E+00  0.4803E+00
      5.499  0.1438E-01  0.1438E-01  0.4814E+00  0.4814E+00
      5.575  0.1341E-01  0.1341E-01  0.4825E+00  0.4825E+00
      5.651  0.9859E-02  0.9859E-02  0.4832E+00  0.4832E+00
      5.727  0.6628E-02  0.6628E-02  0.4837E+00  0.4837E+00
      5.804  0.6047E-02  0.6047E-02  0.4842E+00  0.4842E+00
      5.880  0.7760E-02  0.7761E-02  0.4848E+00  0.4848E+00
      5.956  0.1012E-01  0.1012E-01  0.4855E+00  0.4855E+00
      6.032  0.1194E-01  0.1194E-01  0.4865E+00  0.4865E+00
      6.109  0.1257E-01  0.1257E-01  0.4874E+00  0.4874E+00
      6.185  0.1189E-01  0.1189E-01  0.4883E+00  0.4883E+00
      6.261  0.1115E-01  0.1115E-01  0.4892E+00  0.4892E+00
      6.337  0.1244E-01  0.1244E-01  0.4901E+00  0.4901E+00
      6.414  0.1606E-01  0.1606E-01  0.4913E+00  0.4913E+00
      6.490  0.1952E-01  0.1952E-01  0.4928E+00  0.4928E+00
      6.566  0.2005E-01  0.2005E-01  0.4944E+00  0.4944E+00
      6.642  0.1792E-01  0.1792E-01  0.4957E+00  0.4957E+00
      6.719  0.1634E-01  0.1634E-01  0.4970E+00  0.4970E+00
      6.795  0.1720E-01  0.1720E-01  0.4983E+00  0.4983E+00
      6.871  0.1814E-01  0.1814E-01  0.4997E+00  0.4997E+00
      6.947  0.1560E-01  0.1560E-01  0.5009E+00  0.5009E+00
      7.024  0.9926E-02  0.9925E-02  0.5016E+00  0.5016E+00
      7.100  0.5502E-02  0.5502E-02  0.5020E+00  0.5020E+00
      7.176  0.5796E-02  0.5797E-02  0.5025E+00  0.5025E+00
      7.252  0.9660E-02  0.9660E-02  0.5032E+00  0.5032E+00
      7.329  0.1303E-01  0.1303E-01  0.5042E+00  0.5042E+00
      7.405  0.1366E-01  0.1366E-01  0.5052E+00  0.5052E+00
      7.481  0.1292E-01  0.1292E-01  0.5062E+00  0.5062E+00
      7.557  0.1312E-01  0.1312E-01  0.5072E+00  0.5072E+00
      7.634  0.1481E-01  0.1481E-01  0.5084E+00  0.5084E+00
      7.710  0.1746E-01  0.1746E-01  0.5097E+00  0.5097E+00
      7.786  0.2089E-01  0.2089E-01  0.5113E+00  0.5113E+00
      7.862  0.2412E-01  0.2412E-01  0.5131E+00  0.5131E+00
      7.939  0.2427E-01  0.2427E-01  0.5150E+00  0.5150E+00
      8.015  0.1936E-01  0.1936E-01  0.5164E+00  0.5164E+00
      8.091  0.1189E-01  0.1189E-01  0.5174E+00  0.5174E+00
      8.167  0.7726E-02  0.7725E-02  0.5179E+00  0.5179E+00
      8.244  0.1094E-01  0.1094E-01  0.5188E+00  0.5188E+00
      8.320  0.1905E-01  0.1905E-01  0.5202E+00  0.5202E+00
      8.396  0.2404E-01  0.2404E-01  0.5221E+00  0.5221E+00
      8.472  0.2081E-01  0.2081E-01  0.5237E+00  0.5237E+00
      8.549  0.1311E-01  0.1311E-01  0.5247E+00  0.5247E+00
      8.625  0.8121E-02  0.8122E-02  0.5253E+00  0.5253E+00
      8.701  0.8319E-02  0.8320E-02  0.5259E+00  0.5259E+00
      8.777  0.1168E-01  0.1168E-01  0.5268E+00  0.5268E+00
      8.854  0.1612E-01  0.1612E-01  0.5280E+00  0.5280E+00
      8.930  0.2005E-01  0.2005E-01  0.5296E+00  0.5296E+00
      9.006  0.2154E-01  0.2154E-01  0.5312E+00  0.5312E+00
      9.082  0.2043E-01  0.2043E-01  0.5328E+00  0.5328E+00
      9.159  0.1905E-01  0.1905E-01  0.5342E+00  0.5342E+00
      9.235  0.1908E-01  0.1908E-01  0.5357E+00  0.5357E+00
      9.311  0.1965E-01  0.1965E-01  0.5372E+00  0.5372E+00
      9.387  0.1943E-01  0.1943E-01  0.5386E+00  0.5386E+00
      9.464  0.1848E-01  0.1848E-01  0.5401E+00  0.5401E+00
      9.540  0.1753E-01  0.1753E-01  0.5414E+00  0.5414E+00
      9.616  0.1691E-01  0.1691E-01  0.5427E+00  0.5427E+00
      9.692  0.1674E-01  0.1674E-01  0.5440E+00  0.5440E+00
      9.769  0.1737E-01  0.1738E-01  0.5453E+00  0.5453E+00
      9.845  0.1845E-01  0.1845E-01  0.5467E+00  0.5467E+00
      9.921  0.1850E-01  0.1850E-01  0.5481E+00  0.5481E+00
      9.997  0.1677E-01  0.1677E-01  0.5494E+00  0.5494E+00
     10.074  0.1419E-01  0.1419E-01  0.5505E+00  0.5505E+00
     10.150  0.1283E-01  0.1283E-01  0.5514E+00  0.5514E+00
     10.226  0.1488E-01  0.1488E-01  0.5526E+00  0.5526E+00
     10.302  0.2049E-01  0.2049E-01  0.5541E+00  0.5541E+00
     10.379  0.2653E-01  0.2653E-01  0.5562E+00  0.5562E+00
     10.455  0.2867E-01  0.2867E-01  0.5583E+00  0.5583E+00
     10.531  0.2524E-01  0.2524E-01  0.5603E+00  0.5603E+00
     10.607  0.1873E-01  0.1873E-01  0.5617E+00  0.5617E+00
     10.684  0.1298E-01  0.1298E-01  0.5627E+00  0.5627E+00
     10.760  0.9850E-02  0.9850E-02  0.5634E+00  0.5634E+00
     10.836  0.9494E-02  0.9494E-02  0.5642E+00  0.5642E+00
     10.912  0.1186E-01  0.1186E-01  0.5651E+00  0.5651E+00
     10.989  0.1533E-01  0.1533E-01  0.5662E+00  0.5662E+00
     11.065  0.1611E-01  0.1611E-01  0.5675E+00  0.5675E+00
     11.141  0.1247E-01  0.1247E-01  0.5684E+00  0.5684E+00
     11.217  0.7442E-02  0.7442E-02  0.5690E+00  0.5690E+00
     11.294  0.4692E-02  0.4692E-02  0.5693E+00  0.5693E+00
     11.370  0.4067E-02  0.4067E-02  0.5696E+00  0.5696E+00
     11.446  0.3260E-02  0.3259E-02  0.5699E+00  0.5699E+00
     11.522  0.1637E-02  0.1637E-02  0.5700E+00  0.5700E+00
     11.599  0.2695E-03  0.2694E-03  0.5700E+00  0.5700E+00
     11.675 -0.2291E-03 -0.2291E-03  0.5700E+00  0.5700E+00
     11.751 -0.1965E-03 -0.1965E-03  0.5700E+00  0.5700E+00
     11.827 -0.7873E-04 -0.7872E-04  0.5700E+00  0.5700E+00
     11.904 -0.2007E-04 -0.2006E-04  0.5700E+00  0.5700E+00
     11.980 -0.3521E-05 -0.3521E-05  0.5700E+00  0.5700E+00
     12.056 -0.4395E-06 -0.4395E-06  0.5700E+00  0.5700E+00
     12.132 -0.3970E-07 -0.3969E-07  0.5700E+00  0.5700E+00
     12.209 -0.2620E-08 -0.2619E-08  0.5700E+00  0.5700E+00
     12.285 -0.1271E-09 -0.1271E-09  0.5700E+00  0.5700E+00
     12.361 -0.4552E-11 -0.4551E-11  0.5700E+00  0.5700E+00
     12.437 -0.1207E-12 -0.1207E-12  0.5700E+00  0.5700E+00
     12.514 -0.2378E-14 -0.2378E-14  0.5700E+00  0.5700E+00
     12.590 -0.3397E-16 -0.3397E-16  0.5700E+00  0.5700E+00
     12.666  0.0000E+00  0.0000E+00  0.5700E+00  0.5700E+00
     12.742  0.0000E+00  0.0000E+00  0.5700E+00  0.5700E+00
     12.819  0.0000E+00  0.0000E+00  0.5700E+00  0.5700E+00
     12.895  0.0000E+00  0.0000E+00  0.5700E+00  0.5700E+00
     12.971  0.0000E+00  0.0000E+00  0.5700E+00  0.5700E+00
     13.047  0.0000E+00  0.0000E+00  0.5700E+00  0.5700E+00
     13.124  0.0000E+00  0.0000E+00  0.5700E+00  0.5700E+00
     13.200  0.0000E+00  0.0000E+00  0.5700E+00  0.5700E+00
     13.276  0.0000E+00  0.0000E+00  0.5700E+00  0.5700E+00
     13.352  0.0000E+00  0.0000E+00  0.5700E+00  0.5700E+00
