<?xml version="1.0" encoding="ISO-8859-1"?>
<modeling>
 <generator>
  <i name="program" type="string">vasp </i>
  <i name="version" type="string">6.3.2  </i>
  <i name="subversion" type="string">27Jun22 (build Aug 17 2022 15:43:34) complex                          parallel </i>
  <i name="platform" type="string">tv2STDVTST </i>
  <i name="date" type="string">2025 02 17 </i>
  <i name="time" type="string">16:00:01 </i>
 </generator>
 <incar>
  <i type="int" name="ISTART">     0</i>
  <i type="string" name="PREC">Normal</i>
  <i type="int" name="ISPIN">     2</i>
  <i type="int" name="ICHARG">     2</i>
  <i type="int" name="IBRION">     2</i>
  <i name="EDIFF">      0.00020000</i>
  <i name="EDIFFG">     -0.03000000</i>
  <i type="int" name="NSW">   800</i>
  <i type="int" name="ISIF">     2</i>
  <i type="int" name="ISYM">     1</i>
  <i name="ENCUT">    400.00000000</i>
  <i name="POTIM">      0.50000000</i>
  <i type="logical" name="LREAL"> F  </i>
  <i type="int" name="ISMEAR">     1</i>
  <i name="SIGMA">      0.20000000</i>
  <i type="logical" name="LWAVE"> F  </i>
  <i type="logical" name="LCHARG"> F  </i>
  <i type="string" name="GGA">PE</i>
  <i type="int" name="IVDW">    11</i>
 </incar>
 <primitive_cell>
  <structure name="primitive_cell" >
   <crystal>
    <varray name="basis" >
     <v>       7.26000023       0.00000000       0.00000000 </v>
     <v>       0.00000000       7.26000023       0.00000000 </v>
     <v>       0.00000000       0.00000000      27.70499992 </v>
    </varray>
    <i name="volume">   1460.26414606 </i>
    <varray name="rec_basis" >
     <v>       0.13774104       0.00000000       0.00000000 </v>
     <v>       0.00000000       0.13774104       0.00000000 </v>
     <v>       0.00000000       0.00000000       0.03609457 </v>
    </varray>
   </crystal>
   <varray name="positions" >
    <v>       0.00000000       0.00000000       0.00000000 </v>
    <v>       0.00000000       0.50000000       0.00000000 </v>
    <v>       0.50000000       0.00000000       0.00000000 </v>
    <v>       0.50000000       0.50000000       0.00000000 </v>
    <v>       0.25000000       0.25000000       0.00000000 </v>
    <v>       0.25000000       0.75000000       0.00000000 </v>
    <v>       0.75000000       0.25000000       0.00000000 </v>
    <v>       0.75000000       0.75000000       0.00000000 </v>
    <v>       0.00000000       0.25000000       0.06551164 </v>
    <v>       0.00000000       0.75000000       0.06551164 </v>
    <v>       0.50000000       0.25000000       0.06551164 </v>
    <v>       0.50000000       0.75000000       0.06551164 </v>
    <v>       0.25000000       0.00000000       0.06551164 </v>
    <v>       0.25000000       0.50000000       0.06551164 </v>
    <v>       0.75000000       0.00000000       0.06551164 </v>
    <v>       0.75000000       0.50000000       0.06551164 </v>
    <v>       0.00000000       0.00000000       0.13164128 </v>
    <v>       0.00000000       0.50000000       0.13164128 </v>
    <v>       0.50000000       0.00000000       0.13164128 </v>
    <v>       0.50000000       0.50000000       0.13164128 </v>
    <v>       0.25000000       0.25000000       0.13164128 </v>
    <v>       0.25000000       0.75000000       0.13164128 </v>
    <v>       0.75000000       0.25000000       0.13164128 </v>
    <v>       0.75000000       0.75000000       0.13164128 </v>
    <v>       0.00000000       0.25000000       0.19677891 </v>
    <v>       0.00000000       0.75000000       0.19677891 </v>
    <v>       0.50000000       0.25000000       0.19677891 </v>
    <v>       0.50000000       0.75000000       0.19677891 </v>
    <v>       0.25000000       0.00000000       0.19677891 </v>
    <v>       0.25000000       0.50000000       0.19677891 </v>
    <v>       0.75000000       0.00000000       0.19677891 </v>
    <v>       0.75000000       0.50000000       0.19677891 </v>
    <v>       0.00000000       0.00000000       0.26184662 </v>
    <v>       0.00000000       0.50000000       0.26184662 </v>
    <v>       0.50000000       0.00000000       0.26184662 </v>
    <v>       0.50000000       0.50000000       0.26184662 </v>
    <v>       0.25000000       0.25000000       0.26184662 </v>
    <v>       0.25000000       0.75000000       0.26184662 </v>
    <v>       0.75000000       0.25000000       0.26184662 </v>
    <v>       0.75000000       0.75000000       0.26184662 </v>
    <v>       0.00000000       0.25000000       0.32758887 </v>
    <v>       0.00000000       0.75000000       0.32758887 </v>
    <v>       0.50000000       0.25000000       0.32758887 </v>
    <v>       0.50000000       0.75000000       0.32758887 </v>
    <v>       0.25000000       0.00000000       0.32758887 </v>
    <v>       0.25000000       0.50000000       0.32758887 </v>
    <v>       0.75000000       0.00000000       0.32758887 </v>
    <v>       0.75000000       0.50000000       0.32758887 </v>
    <v>       0.00000000       0.00000000       0.39185763 </v>
    <v>       0.00000000       0.50000000       0.39185763 </v>
    <v>       0.50000000       0.00000000       0.39185763 </v>
    <v>       0.50000000       0.50000000       0.39185763 </v>
    <v>       0.25000000       0.25000000       0.39185763 </v>
    <v>       0.25000000       0.75000000       0.39185763 </v>
    <v>       0.75000000       0.25000000       0.39185763 </v>
    <v>       0.75000000       0.75000000       0.39185763 </v>
    <v>       0.00000000       0.25000000       0.45475490 </v>
    <v>       0.00000000       0.75000000       0.45475490 </v>
    <v>       0.50000000       0.25000000       0.45475490 </v>
    <v>       0.50000000       0.75000000       0.45475490 </v>
    <v>       0.25000000       0.00000000       0.45475490 </v>
    <v>       0.25000000       0.50000000       0.45475490 </v>
    <v>       0.75000000       0.00000000       0.45475490 </v>
    <v>       0.75000000       0.50000000       0.45475490 </v>
    <v>       0.50000000       0.75000000       0.50150658 </v>
    <v>       0.50000000       0.75000000       0.52843313 </v>
   </varray>
  </structure>
  <varray name="primitive_index" >
   <v type="int" >        1 </v>
   <v type="int" >        2 </v>
   <v type="int" >        3 </v>
   <v type="int" >        4 </v>
   <v type="int" >        5 </v>
   <v type="int" >        6 </v>
   <v type="int" >        7 </v>
   <v type="int" >        8 </v>
   <v type="int" >        9 </v>
   <v type="int" >       10 </v>
   <v type="int" >       11 </v>
   <v type="int" >       12 </v>
   <v type="int" >       13 </v>
   <v type="int" >       14 </v>
   <v type="int" >       15 </v>
   <v type="int" >       16 </v>
   <v type="int" >       17 </v>
   <v type="int" >       18 </v>
   <v type="int" >       19 </v>
   <v type="int" >       20 </v>
   <v type="int" >       21 </v>
   <v type="int" >       22 </v>
   <v type="int" >       23 </v>
   <v type="int" >       24 </v>
   <v type="int" >       25 </v>
   <v type="int" >       26 </v>
   <v type="int" >       27 </v>
   <v type="int" >       28 </v>
   <v type="int" >       29 </v>
   <v type="int" >       30 </v>
   <v type="int" >       31 </v>
   <v type="int" >       32 </v>
   <v type="int" >       33 </v>
   <v type="int" >       34 </v>
   <v type="int" >       35 </v>
   <v type="int" >       36 </v>
   <v type="int" >       37 </v>
   <v type="int" >       38 </v>
   <v type="int" >       39 </v>
   <v type="int" >       40 </v>
   <v type="int" >       41 </v>
   <v type="int" >       42 </v>
   <v type="int" >       43 </v>
   <v type="int" >       44 </v>
   <v type="int" >       45 </v>
   <v type="int" >       46 </v>
   <v type="int" >       47 </v>
   <v type="int" >       48 </v>
   <v type="int" >       49 </v>
   <v type="int" >       50 </v>
   <v type="int" >       51 </v>
   <v type="int" >       52 </v>
   <v type="int" >       53 </v>
   <v type="int" >       54 </v>
   <v type="int" >       55 </v>
   <v type="int" >       56 </v>
   <v type="int" >       57 </v>
   <v type="int" >       58 </v>
   <v type="int" >       59 </v>
   <v type="int" >       60 </v>
   <v type="int" >       61 </v>
   <v type="int" >       62 </v>
   <v type="int" >       63 </v>
   <v type="int" >       64 </v>
   <v type="int" >       65 </v>
   <v type="int" >       66 </v>
  </varray>
 </primitive_cell>
 <kpoints>
  <generation param="Monkhorst-Pack">
   <v type="int" name="divisions">       3        3        1 </v>
   <v name="usershift">      0.00000000       0.00000000       0.00000000 </v>
   <v name="genvec1">      0.33333333       0.00000000       0.00000000 </v>
   <v name="genvec2">      0.00000000       0.33333333       0.00000000 </v>
   <v name="genvec3">      0.00000000       0.00000000       1.00000000 </v>
   <v name="shift">      0.00000000       0.00000000       0.00000000 </v>
  </generation>
  <varray name="kpointlist" >
   <v>       0.00000000       0.00000000       0.00000000 </v>
   <v>       0.33333333       0.00000000       0.00000000 </v>
   <v>       0.33333333       0.33333333       0.00000000 </v>
  </varray>
  <varray name="weights" >
   <v>       0.11111111 </v>
   <v>       0.44444444 </v>
   <v>       0.44444444 </v>
  </varray>
 </kpoints>
 <parameters>
  <separator name="general" >
   <i type="string" name="SYSTEM">unknown system</i>
   <i type="logical" name="LCOMPAT"> F  </i>
  </separator>
  <separator name="electronic" >
   <i type="string" name="PREC">normal</i>
   <i name="ENMAX">    400.00000000</i>
   <i name="ENAUG">    586.98000000</i>
   <i name="EDIFF">      0.00020000</i>
   <i type="int" name="IALGO">    38</i>
   <i type="int" name="IWAVPR">    11</i>
   <i type="int" name="NBANDS">   456</i>
   <i type="int" name="NBANDSLOW">    -1</i>
   <i type="int" name="NBANDSHIGH">    -1</i>
   <i name="NELECT">    706.00000000</i>
   <i type="int" name="TURBO">     0</i>
   <i type="int" name="IRESTART">     0</i>
   <i type="int" name="NREBOOT">     0</i>
   <i type="int" name="NMIN">     0</i>
   <i name="EREF">      0.00000000</i>
   <separator name="electronic smearing" >
    <i type="int" name="ISMEAR">     1</i>
    <i name="SIGMA">      0.20000000</i>
    <i name="KSPACING">      0.50000000</i>
    <i type="logical" name="KGAMMA"> T  </i>
    <i type="logical" name="KBLOWUP"> T  </i>
   </separator>
   <separator name="electronic projectors" >
    <i type="logical" name="LREAL"> F  </i>
    <v name="ROPT">      0.00000000      0.00000000</v>
    <i type="int" name="LMAXPAW">  -100</i>
    <i type="int" name="LMAXMIX">     2</i>
    <i type="logical" name="NLSPLINE"> F  </i>
   </separator>
   <separator name="electronic startup" >
    <i type="int" name="ISTART">     0</i>
    <i type="int" name="ICHARG">     2</i>
    <i type="int" name="INIWAV">     1</i>
   </separator>
   <separator name="electronic spin" >
    <i type="int" name="ISPIN">     2</i>
    <i type="logical" name="LNONCOLLINEAR"> F  </i>
    <v name="MAGMOM">      1.00000000      1.00000000      1.00000000      1.00000000      1.00000000      1.00000000      1.00000000      1.00000000      1.00000000      1.00000000      1.00000000      1.00000000      1.00000000      1.00000000      1.00000000      1.00000000      1.00000000      1.00000000      1.00000000      1.00000000
      1.00000000      1.00000000      1.00000000      1.00000000      1.00000000      1.00000000      1.00000000      1.00000000      1.00000000      1.00000000      1.00000000      1.00000000      1.00000000      1.00000000      1.00000000      1.00000000      1.00000000      1.00000000      1.00000000      1.00000000
      1.00000000      1.00000000      1.00000000      1.00000000      1.00000000      1.00000000      1.00000000      1.00000000      1.00000000      1.00000000      1.00000000      1.00000000      1.00000000      1.00000000      1.00000000      1.00000000      1.00000000      1.00000000      1.00000000      1.00000000
      1.00000000      1.00000000      1.00000000      1.00000000      1.00000000      1.00000000</v>
    <i name="NUPDOWN">     -1.00000000</i>
    <i type="logical" name="LSORBIT"> F  </i>
    <v name="SAXIS">      0.00000000      0.00000000      1.00000000</v>
    <i type="logical" name="LSPIRAL"> F  </i>
    <v name="QSPIRAL">      0.00000000      0.00000000      0.00000000</v>
    <i type="logical" name="LZEROZ"> F  </i>
   </separator>
   <separator name="electronic exchange-correlation" >
    <i type="logical" name="LASPH"> F  </i>
    <i type="logical" name="LMETAGGA"> F  </i>
   </separator>
   <separator name="electronic convergence" >
    <i type="int" name="NELM">    60</i>
    <i type="int" name="NELMDL">    -5</i>
    <i type="int" name="NELMIN">     2</i>
    <i name="ENINI">    400.00000000</i>
    <separator name="electronic convergence detail" >
     <i type="logical" name="LDIAG"> T  </i>
     <i type="logical" name="LSUBROT"> F  </i>
     <i name="WEIMIN">      0.00100000</i>
     <i name="EBREAK">      0.00000011</i>
     <i name="DEPER">      0.30000000</i>
     <i type="int" name="NRMM">     4</i>
     <i name="TIME">      0.40000000</i>
    </separator>
   </separator>
   <separator name="electronic mixer" >
    <i name="AMIX">      0.40000000</i>
    <i name="BMIX">      1.00000000</i>
    <i name="AMIN">      0.10000000</i>
    <i name="AMIX_MAG">      1.60000000</i>
    <i name="BMIX_MAG">      1.00000000</i>
    <separator name="electronic mixer details" >
     <i type="int" name="IMIX">     4</i>
     <i type="logical" name="MIXFIRST"> F  </i>
     <i type="int" name="MAXMIX">   -45</i>
     <i name="WC">    100.00000000</i>
     <i type="int" name="INIMIX">     1</i>
     <i type="int" name="MIXPRE">     1</i>
     <i type="int" name="MREMOVE">     5</i>
    </separator>
   </separator>
   <separator name="electronic dipolcorrection" >
    <i type="logical" name="LDIPOL"> F  </i>
    <i type="logical" name="LMONO"> F  </i>
    <i type="int" name="IDIPOL">     0</i>
    <i name="EPSILON">      1.00000000</i>
    <v name="DIPOL">   -100.00000000   -100.00000000   -100.00000000</v>
    <i name="EFIELD">      0.00000000</i>
   </separator>
  </separator>
  <separator name="grids" >
   <i type="int" name="NGX">    36</i>
   <i type="int" name="NGY">    36</i>
   <i type="int" name="NGZ">   140</i>
   <i type="int" name="NGXF">    72</i>
   <i type="int" name="NGYF">    72</i>
   <i type="int" name="NGZF">   280</i>
   <i type="logical" name="ADDGRID"> F  </i>
  </separator>
  <separator name="ionic" >
   <i type="int" name="NSW">   800</i>
   <i type="int" name="IBRION">     2</i>
   <i type="int" name="MDALGO">     0</i>
   <i type="int" name="ISIF">     2</i>
   <i name="PSTRESS">      0.00000000</i>
   <i name="EDIFFG">     -0.03000000</i>
   <i type="int" name="NFREE">     1</i>
   <i name="POTIM">      0.50000000</i>
   <i name="SMASS">     -3.00000000</i>
   <i name="SCALEE">      1.00000000</i>
  </separator>
  <separator name="ionic md" >
   <i name="TEBEG">      0.00010000</i>
   <i name="TEEND">      0.00010000</i>
   <i type="int" name="NBLOCK">     1</i>
   <i type="int" name="KBLOCK">   800</i>
   <i type="int" name="NPACO">   256</i>
   <i name="APACO">     10.00000000</i>
  </separator>
  <separator name="symmetry" >
   <i type="int" name="ISYM">     1</i>
   <i name="SYMPREC">      0.00001000</i>
  </separator>
  <separator name="dos" >
   <i type="int" name="LORBIT">     0</i>
   <v name="RWIGS">     -1.00000000     -1.00000000</v>
   <i type="int" name="NEDOS">   301</i>
   <i name="EMIN">     10.00000000</i>
   <i name="EMAX">    -10.00000000</i>
   <i name="EFERMI">      0.00000000</i>
  </separator>
  <separator name="writing" >
   <i type="int" name="NWRITE">     2</i>
   <i type="logical" name="LWAVE"> F  </i>
   <i type="logical" name="LDOWNSAMPLE"> F  </i>
   <i type="logical" name="LCHARG"> F  </i>
   <i type="logical" name="LPARD"> F  </i>
   <i type="logical" name="LVTOT"> F  </i>
   <i type="logical" name="LVHAR"> F  </i>
   <i type="logical" name="LELF"> F  </i>
   <i type="logical" name="LOPTICS"> F  </i>
   <v name="STM">      0.00000000      0.00000000      0.00000000      0.00000000      0.00000000      0.00000000      0.00000000</v>
  </separator>
  <separator name="performance" >
   <i type="int" name="NPAR">     4</i>
   <i type="int" name="NSIM">     4</i>
   <i type="int" name="NBLK">    -1</i>
   <i type="logical" name="LPLANE"> T  </i>
   <i type="logical" name="LSCALAPACK"> T  </i>
   <i type="logical" name="LSCAAWARE"> F  </i>
   <i type="logical" name="LSCALU"> F  </i>
   <i type="logical" name="LASYNC"> F  </i>
   <i type="logical" name="LORBITALREAL"> F  </i>
  </separator>
  <separator name="miscellaneous" >
   <i type="int" name="IDIOT">     3</i>
   <i type="int" name="PHON_NSTRUCT">    -1</i>
   <i type="logical" name="LMUSIC"> F  </i>
   <v name="POMASS">     63.54600000      1.00000000</v>
   <v name="DARWINR">      0.00000000      0.00000000</v>
   <v name="DARWINV">      1.00000000      1.00000000</v>
   <i type="logical" name="LCORR"> T  </i>
  </separator>
  <i type="logical" name="GGA_COMPAT"> T  </i>
  <i type="logical" name="LBERRY"> F  </i>
  <i type="int" name="ICORELEVEL">     0</i>
  <i type="logical" name="LDAU"> F  </i>
  <i type="int" name="I_CONSTRAINED_M">     0</i>
  <separator name="electronic exchange-correlation" >
   <i type="string" name="GGA">PE</i>
   <i type="int" name="VOSKOWN">     0</i>
   <i type="logical" name="LHFCALC"> F  </i>
   <i type="string" name="PRECFOCK"></i>
   <i type="logical" name="LSYMGRAD"> F  </i>
   <i type="logical" name="LHFONE"> F  </i>
   <i type="logical" name="LRHFCALC"> F  </i>
   <i type="logical" name="LTHOMAS"> F  </i>
   <i type="logical" name="LMODELHF"> F  </i>
   <i type="logical" name="LFOCKACE"> F  </i>
   <i name="ENCUT4O">     -1.00000000</i>
   <i type="int" name="EXXOEP">     0</i>
   <i type="int" name="FOURORBIT">     0</i>
   <i name="AEXX">      0.00000000</i>
   <i name="HFALPHA">      0.00000000</i>
   <i name="MCALPHA">      0.00000000</i>
   <i name="ALDAX">      1.00000000</i>
   <i name="AGGAX">      1.00000000</i>
   <i name="ALDAC">      1.00000000</i>
   <i name="AGGAC">      1.00000000</i>
   <i type="int" name="NKREDX">     1</i>
   <i type="int" name="NKREDY">     1</i>
   <i type="int" name="NKREDZ">     1</i>
   <i type="logical" name="SHIFTRED"> F  </i>
   <i type="logical" name="ODDONLY"> F  </i>
   <i type="logical" name="EVENONLY"> F  </i>
   <i type="int" name="LMAXFOCK">     0</i>
   <i type="int" name="NMAXFOCKAE">     0</i>
   <i type="logical" name="LFOCKAEDFT"> F  </i>
   <i name="HFSCREEN">      0.00000000</i>
   <i name="HFSCREENC">      0.00000000</i>
   <i type="int" name="NBANDSGWLOW">     0</i>
  </separator>
  <separator name="vdW DFT" >
   <i type="logical" name="LUSE_VDW"> F  </i>
   <i name="Zab_VDW">     -0.84910000</i>
   <i name="PARAM1">      0.12340000</i>
   <i name="PARAM2">      1.00000000</i>
   <i name="PARAM3">      0.00000000</i>
  </separator>
  <separator name="model GW" >
   <i type="int" name="MODEL_GW">     0</i>
   <i name="MODEL_EPS0">     13.27512860</i>
   <i name="MODEL_ALPHA">      1.00000000</i>
  </separator>
  <separator name="linear response parameters" >
   <i type="logical" name="LEPSILON"> F  </i>
   <i type="logical" name="LRPA"> F  </i>
   <i type="logical" name="LNABLA"> F  </i>
   <i type="logical" name="LVEL"> F  </i>
   <i name="CSHIFT">      0.10000000</i>
   <i name="OMEGAMAX">     -1.00000000</i>
   <i name="DEG_THRESHOLD">      0.00200000</i>
   <i name="RTIME">     -0.10000000</i>
   <i name="WPLASMAI">      0.00000000</i>
   <v name="DFIELD">      0.00000000      0.00000000      0.00000000</v>
   <v name="WPLASMA">      0.00000000      0.00000000      0.00000000      0.00000000      0.00000000      0.00000000      0.00000000      0.00000000      0.00000000</v>
  </separator>
  <separator name="orbital magnetization" >
   <i type="logical" name="NUCIND"> F  </i>
   <v name="MAGPOS">      0.00000000      0.00000000      0.00000000</v>
   <i type="logical" name="LNICSALL"> T  </i>
   <i type="logical" name="ORBITALMAG"> F  </i>
   <i type="logical" name="LMAGBLOCH"> F  </i>
   <i type="logical" name="LCHIMAG"> F  </i>
   <i type="logical" name="LGAUGE"> T  </i>
   <i type="int" name="MAGATOM">     0</i>
   <v name="MAGDIPOL">      0.00000000      0.00000000      0.00000000</v>
   <v name="AVECCONST">      0.00000000      0.00000000      0.00000000</v>
  </separator>
  <separator name="response functions" >
   <i type="logical" name="LFINITE_TEMPERATURE"> F  </i>
   <i type="logical" name="LADDER"> F  </i>
   <i type="logical" name="LRPAFORCE"> F  </i>
   <i type="logical" name="LFXC"> F  </i>
   <i type="logical" name="LHARTREE"> T  </i>
   <i type="int" name="IBSE">     0</i>
   <v type="int" name="KPOINT">    -1     0     0     0</v>
   <i type="logical" name="LTCTC"> F  </i>
   <i type="logical" name="LTCTE"> F  </i>
   <i type="logical" name="LTETE"> F  </i>
   <i type="logical" name="LTRIPLET"> F  </i>
   <i type="logical" name="LFXCEPS"> F  </i>
   <i type="logical" name="LFXHEG"> F  </i>
   <i type="int" name="NATURALO">     2</i>
   <i type="logical" name="LHOLEGF"> F  </i>
   <i type="logical" name="L2ORDER"> F  </i>
   <i type="logical" name="LDMP1"> F  </i>
   <i type="logical" name="LMP2LT"> F  </i>
   <i type="logical" name="LSMP2LT"> F  </i>
   <i type="logical" name="LGWLF"> F  </i>
   <i name="ENCUTGW">     -2.00000000</i>
   <i name="ENCUTGWSOFT">     -2.00000000</i>
   <i name="ENCUTLF">     -1.00000000</i>
   <i type="logical" name="LESF_SPLINES"> F  </i>
   <i type="int" name="LMAXMP2">    -1</i>
   <i name="SCISSOR">      0.00000000</i>
   <i type="int" name="NOMEGA">     0</i>
   <i type="int" name="NOMEGAR">     0</i>
   <i type="int" name="NBANDSGW">    -1</i>
   <i type="int" name="NBANDSO">    -1</i>
   <i type="int" name="NBANDSV">    -1</i>
   <i type="int" name="NELMGW">     1</i>
   <i type="int" name="NELMHF">     1</i>
   <i type="int" name="DIM">     3</i>
   <i type="int" name="IESPILON">     4</i>
   <i type="int" name="ANTIRES">     0</i>
   <i name="OMEGAMAX">    -30.00000000</i>
   <i name="OMEGAMIN">    -30.00000000</i>
   <i name="OMEGATL">   -200.00000000</i>
   <i type="int" name="OMEGAGRID">     0</i>
   <i name="CSHIFT">     -0.10000000</i>
   <i type="logical" name="LSELFENERGY"> F  </i>
   <i type="logical" name="LSPECTRAL"> F  </i>
   <i type="logical" name="LSPECTRALGW"> F  </i>
   <i type="logical" name="LSINGLES"> F  </i>
   <i type="logical" name="LFERMIGW"> F  </i>
   <i type="logical" name="ODDONLYGW"> F  </i>
   <i type="logical" name="EVENONLYGW"> F  </i>
   <i type="int" name="NKREDLFX">     1</i>
   <i type="int" name="NKREDLFY">     1</i>
   <i type="int" name="NKREDLFZ">     1</i>
   <i type="int" name="MAXMEM">  2800</i>
   <i type="int" name="TELESCOPE">     0</i>
   <i type="int" name="NTAUPAR">    -1</i>
   <i type="int" name="NOMEGAPAR">    -1</i>
   <i name="DAMP_NEWTON">      0.80000001</i>
   <i name="LAMBDA">      1.00000000</i>
  </separator>
  <separator name="External order field" >
   <i name="OFIELD_KAPPA">      0.00000000</i>
   <v name="OFIELD_K">      0.00000000      0.00000000      0.00000000</v>
   <i name="OFIELD_Q6_NEAR">      0.00000000</i>
   <i name="OFIELD_Q6_FAR">      0.00000000</i>
   <i name="OFIELD_A">      0.00000000</i>
  </separator>
  <separator name="optional k-points parameters" >
   <i type="int" name="KPOINTS_OPT_MODE">     1</i>
   <i type="logical" name="LKPOINTS_OPT"> F  </i>
  </separator>
 </parameters>
 <atominfo>
  <atoms>      66 </atoms>
  <types>       2 </types>
  <array name="atoms" >
   <dimension dim="1">ion</dimension>
   <field type="string">element</field>
   <field type="int">atomtype</field>
   <set>
    <rc><c>Cu</c><c>   1</c></rc>
    <rc><c>Cu</c><c>   1</c></rc>
    <rc><c>Cu</c><c>   1</c></rc>
    <rc><c>Cu</c><c>   1</c></rc>
    <rc><c>Cu</c><c>   1</c></rc>
    <rc><c>Cu</c><c>   1</c></rc>
    <rc><c>Cu</c><c>   1</c></rc>
    <rc><c>Cu</c><c>   1</c></rc>
    <rc><c>Cu</c><c>   1</c></rc>
    <rc><c>Cu</c><c>   1</c></rc>
    <rc><c>Cu</c><c>   1</c></rc>
    <rc><c>Cu</c><c>   1</c></rc>
    <rc><c>Cu</c><c>   1</c></rc>
    <rc><c>Cu</c><c>   1</c></rc>
    <rc><c>Cu</c><c>   1</c></rc>
    <rc><c>Cu</c><c>   1</c></rc>
    <rc><c>Cu</c><c>   1</c></rc>
    <rc><c>Cu</c><c>   1</c></rc>
    <rc><c>Cu</c><c>   1</c></rc>
    <rc><c>Cu</c><c>   1</c></rc>
    <rc><c>Cu</c><c>   1</c></rc>
    <rc><c>Cu</c><c>   1</c></rc>
    <rc><c>Cu</c><c>   1</c></rc>
    <rc><c>Cu</c><c>   1</c></rc>
    <rc><c>Cu</c><c>   1</c></rc>
    <rc><c>Cu</c><c>   1</c></rc>
    <rc><c>Cu</c><c>   1</c></rc>
    <rc><c>Cu</c><c>   1</c></rc>
    <rc><c>Cu</c><c>   1</c></rc>
    <rc><c>Cu</c><c>   1</c></rc>
    <rc><c>Cu</c><c>   1</c></rc>
    <rc><c>Cu</c><c>   1</c></rc>
    <rc><c>Cu</c><c>   1</c></rc>
    <rc><c>Cu</c><c>   1</c></rc>
    <rc><c>Cu</c><c>   1</c></rc>
    <rc><c>Cu</c><c>   1</c></rc>
    <rc><c>Cu</c><c>   1</c></rc>
    <rc><c>Cu</c><c>   1</c></rc>
    <rc><c>Cu</c><c>   1</c></rc>
    <rc><c>Cu</c><c>   1</c></rc>
    <rc><c>Cu</c><c>   1</c></rc>
    <rc><c>Cu</c><c>   1</c></rc>
    <rc><c>Cu</c><c>   1</c></rc>
    <rc><c>Cu</c><c>   1</c></rc>
    <rc><c>Cu</c><c>   1</c></rc>
    <rc><c>Cu</c><c>   1</c></rc>
    <rc><c>Cu</c><c>   1</c></rc>
    <rc><c>Cu</c><c>   1</c></rc>
    <rc><c>Cu</c><c>   1</c></rc>
    <rc><c>Cu</c><c>   1</c></rc>
    <rc><c>Cu</c><c>   1</c></rc>
    <rc><c>Cu</c><c>   1</c></rc>
    <rc><c>Cu</c><c>   1</c></rc>
    <rc><c>Cu</c><c>   1</c></rc>
    <rc><c>Cu</c><c>   1</c></rc>
    <rc><c>Cu</c><c>   1</c></rc>
    <rc><c>Cu</c><c>   1</c></rc>
    <rc><c>Cu</c><c>   1</c></rc>
    <rc><c>Cu</c><c>   1</c></rc>
    <rc><c>Cu</c><c>   1</c></rc>
    <rc><c>Cu</c><c>   1</c></rc>
    <rc><c>Cu</c><c>   1</c></rc>
    <rc><c>Cu</c><c>   1</c></rc>
    <rc><c>Cu</c><c>   1</c></rc>
    <rc><c>H </c><c>   2</c></rc>
    <rc><c>H </c><c>   2</c></rc>
   </set>
  </array>
  <array name="atomtypes" >
   <dimension dim="1">type</dimension>
   <field type="int">atomspertype</field>
   <field type="string">element</field>
   <field>mass</field>
   <field>valence</field>
   <field type="string">pseudopotential</field>
   <set>
    <rc><c>  64</c><c>Cu</c><c>     63.54600000</c><c>     11.00000000</c><c>  PAW_PBE Cu 22Jun2005                  </c></rc>
    <rc><c>   2</c><c>H </c><c>      1.00000000</c><c>      1.00000000</c><c>  PAW_PBE H 15Jun2001                   </c></rc>
   </set>
  </array>
 </atominfo>
 <structure name="initialpos" >
  <crystal>
   <varray name="basis" >
    <v>       7.26000023       0.00000000       0.00000000 </v>
    <v>       0.00000000       7.26000023       0.00000000 </v>
    <v>       0.00000000       0.00000000      27.70499992 </v>
   </varray>
   <i name="volume">   1460.26414606 </i>
   <varray name="rec_basis" >
    <v>       0.13774104       0.00000000       0.00000000 </v>
    <v>       0.00000000       0.13774104       0.00000000 </v>
    <v>       0.00000000       0.00000000       0.03609457 </v>
   </varray>
  </crystal>
  <varray name="positions" >
   <v>       0.00000000       0.00000000       0.00000000 </v>
   <v>       0.00000000       0.50000000       0.00000000 </v>
   <v>       0.50000000       0.00000000       0.00000000 </v>
   <v>       0.50000000       0.50000000       0.00000000 </v>
   <v>       0.25000000       0.25000000       0.00000000 </v>
   <v>       0.25000000       0.75000000       0.00000000 </v>
   <v>       0.75000000       0.25000000       0.00000000 </v>
   <v>       0.75000000       0.75000000       0.00000000 </v>
   <v>       0.00000000       0.25000000       0.06551164 </v>
   <v>       0.00000000       0.75000000       0.06551164 </v>
   <v>       0.50000000       0.25000000       0.06551164 </v>
   <v>       0.50000000       0.75000000       0.06551164 </v>
   <v>       0.25000000       0.00000000       0.06551164 </v>
   <v>       0.25000000       0.50000000       0.06551164 </v>
   <v>       0.75000000       0.00000000       0.06551164 </v>
   <v>       0.75000000       0.50000000       0.06551164 </v>
   <v>       0.00000000       0.00000000       0.13164128 </v>
   <v>       0.00000000       0.50000000       0.13164128 </v>
   <v>       0.50000000       0.00000000       0.13164128 </v>
   <v>       0.50000000       0.50000000       0.13164128 </v>
   <v>       0.25000000       0.25000000       0.13164128 </v>
   <v>       0.25000000       0.75000000       0.13164128 </v>
   <v>       0.75000000       0.25000000       0.13164128 </v>
   <v>       0.75000000       0.75000000       0.13164128 </v>
   <v>       0.00000000       0.25000000       0.19677891 </v>
   <v>       0.00000000       0.75000000       0.19677891 </v>
   <v>       0.50000000       0.25000000       0.19677891 </v>
   <v>       0.50000000       0.75000000       0.19677891 </v>
   <v>       0.25000000       0.00000000       0.19677891 </v>
   <v>       0.25000000       0.50000000       0.19677891 </v>
   <v>       0.75000000       0.00000000       0.19677891 </v>
   <v>       0.75000000       0.50000000       0.19677891 </v>
   <v>       0.00000000       0.00000000       0.26184662 </v>
   <v>       0.00000000       0.50000000       0.26184662 </v>
   <v>       0.50000000       0.00000000       0.26184662 </v>
   <v>       0.50000000       0.50000000       0.26184662 </v>
   <v>       0.25000000       0.25000000       0.26184662 </v>
   <v>       0.25000000       0.75000000       0.26184662 </v>
   <v>       0.75000000       0.25000000       0.26184662 </v>
   <v>       0.75000000       0.75000000       0.26184662 </v>
   <v>       0.00000000       0.25000000       0.32758887 </v>
   <v>       0.00000000       0.75000000       0.32758887 </v>
   <v>       0.50000000       0.25000000       0.32758887 </v>
   <v>       0.50000000       0.75000000       0.32758887 </v>
   <v>       0.25000000       0.00000000       0.32758887 </v>
   <v>       0.25000000       0.50000000       0.32758887 </v>
   <v>       0.75000000       0.00000000       0.32758887 </v>
   <v>       0.75000000       0.50000000       0.32758887 </v>
   <v>       0.00000000       0.00000000       0.39185763 </v>
   <v>       0.00000000       0.50000000       0.39185763 </v>
   <v>       0.50000000       0.00000000       0.39185763 </v>
   <v>       0.50000000       0.50000000       0.39185763 </v>
   <v>       0.25000000       0.25000000       0.39185763 </v>
   <v>       0.25000000       0.75000000       0.39185763 </v>
   <v>       0.75000000       0.25000000       0.39185763 </v>
   <v>       0.75000000       0.75000000       0.39185763 </v>
   <v>       0.00000000       0.25000000       0.45475490 </v>
   <v>       0.00000000       0.75000000       0.45475490 </v>
   <v>       0.50000000       0.25000000       0.45475490 </v>
   <v>       0.50000000       0.75000000       0.45475490 </v>
   <v>       0.25000000       0.00000000       0.45475490 </v>
   <v>       0.25000000       0.50000000       0.45475490 </v>
   <v>       0.75000000       0.00000000       0.45475490 </v>
   <v>       0.75000000       0.50000000       0.45475490 </v>
   <v>       0.50000000       0.75000000       0.50150658 </v>
   <v>       0.50000000       0.75000000       0.52843313 </v>
  </varray>
 </structure>
 <calculation>
  <scstep>
   <time name="dav">   31.90   32.13</time>
   <time name="total">   32.03   32.26</time>
   <energy>
    <i name="alphaZ">   2059.53800561 </i>
    <i name="ewald"> 387461.18112789 </i>
    <i name="hartreedc">-474974.32309021 </i>
    <i name="XCdc">   2933.09330757 </i>
    <i name="pawpsdc">  78601.82840687 </i>
    <i name="pawaedc"> -85374.54502045 </i>
    <i name="eentropy">      0.02950383 </i>
    <i name="bandstr">   7092.26826958 </i>
    <i name="atom">  89046.24623812 </i>
    <i name="e_fr_energy">   6845.31674881 </i>
    <i name="e_wo_entrp">   6845.28724498 </i>
    <i name="e_0_energy">   6845.30691420 </i>
   </energy>
  </scstep>
  <scstep>
   <time name="dav">   31.59   31.81</time>
   <time name="total">   31.59   31.82</time>
   <energy>
    <i name="e_fr_energy">    959.98430896 </i>
    <i name="e_wo_entrp">    959.99383823 </i>
    <i name="e_0_energy">    959.98748538 </i>
   </energy>
  </scstep>
  <scstep>
   <time name="dav">   31.58   31.80</time>
   <time name="total">   31.58   31.80</time>
   <energy>
    <i name="e_fr_energy">   -179.59762334 </i>
    <i name="e_wo_entrp">   -179.69293031 </i>
    <i name="e_0_energy">   -179.62939233 </i>
   </energy>
  </scstep>
  <scstep>
   <time name="dav">   34.18   34.42</time>
   <time name="total">   34.18   34.43</time>
   <energy>
    <i name="e_fr_energy">   -271.41539973 </i>
    <i name="e_wo_entrp">   -271.54693991 </i>
    <i name="e_0_energy">   -271.45924646 </i>
   </energy>
  </scstep>
  <scstep>
   <time name="dav">   34.75   35.00</time>
   <time name="total">   35.53   35.78</time>
   <energy>
    <i name="e_fr_energy">   -273.78582017 </i>
    <i name="e_wo_entrp">   -273.91957477 </i>
    <i name="e_0_energy">   -273.83040504 </i>
   </energy>
  </scstep>
  <scstep>
   <time name="dav">   33.74   33.98</time>
   <time name="total">   34.60   34.84</time>
   <energy>
    <i name="e_fr_energy">   -223.47425834 </i>
    <i name="e_wo_entrp">   -223.49415879 </i>
    <i name="e_0_energy">   -223.48089182 </i>
   </energy>
  </scstep>
  <scstep>
   <time name="dav">   34.70   34.95</time>
   <time name="total">   35.53   35.78</time>
   <energy>
    <i name="e_fr_energy">   -196.69468942 </i>
    <i name="e_wo_entrp">   -196.78295572 </i>
    <i name="e_0_energy">   -196.72411152 </i>
   </energy>
  </scstep>
  <scstep>
   <time name="dav">   35.30   35.55</time>
   <time name="total">   36.17   36.43</time>
   <energy>
    <i name="e_fr_energy">   -197.26016316 </i>
    <i name="e_wo_entrp">   -197.26566378 </i>
    <i name="e_0_energy">   -197.26199670 </i>
   </energy>
  </scstep>
  <scstep>
   <time name="dav">   42.81   43.32</time>
   <time name="total">   43.65   44.16</time>
   <energy>
    <i name="e_fr_energy">   -193.10626237 </i>
    <i name="e_wo_entrp">   -193.19329787 </i>
    <i name="e_0_energy">   -193.13527421 </i>
   </energy>
  </scstep>
  <scstep>
   <time name="dav">   43.10   43.40</time>
   <time name="total">   43.97   44.28</time>
   <energy>
    <i name="e_fr_energy">   -194.27895458 </i>
    <i name="e_wo_entrp">   -194.34258812 </i>
    <i name="e_0_energy">   -194.30016576 </i>
   </energy>
  </scstep>
  <scstep>
   <time name="dav">   49.12   49.61</time>
   <time name="total">   50.00   50.50</time>
   <energy>
    <i name="e_fr_energy">   -195.00901702 </i>
    <i name="e_wo_entrp">   -195.05643096 </i>
    <i name="e_0_energy">   -195.02482167 </i>
   </energy>
  </scstep>
  <scstep>
   <time name="dav">   36.23   36.47</time>
   <time name="total">   37.08   37.33</time>
   <energy>
    <i name="e_fr_energy">   -201.17019264 </i>
    <i name="e_wo_entrp">   -201.20516407 </i>
    <i name="e_0_energy">   -201.18184978 </i>
   </energy>
  </scstep>
  <scstep>
   <time name="dav">   36.75   37.07</time>
   <time name="total">   37.61   37.93</time>
   <energy>
    <i name="e_fr_energy">   -204.73895809 </i>
    <i name="e_wo_entrp">   -204.75560136 </i>
    <i name="e_0_energy">   -204.74450584 </i>
   </energy>
  </scstep>
  <scstep>
   <time name="dav">   35.62   35.84</time>
   <time name="total">   36.46   36.69</time>
   <energy>
    <i name="e_fr_energy">   -212.56617894 </i>
    <i name="e_wo_entrp">   -212.59800307 </i>
    <i name="e_0_energy">   -212.57678698 </i>
   </energy>
  </scstep>
  <scstep>
   <time name="dav">   39.35   39.66</time>
   <time name="total">   40.21   40.54</time>
   <energy>
    <i name="e_fr_energy">   -217.68366355 </i>
    <i name="e_wo_entrp">   -217.70505507 </i>
    <i name="e_0_energy">   -217.69079405 </i>
   </energy>
  </scstep>
  <scstep>
   <time name="dav">   34.31   34.54</time>
   <time name="total">   35.15   35.39</time>
   <energy>
    <i name="e_fr_energy">   -223.34063461 </i>
    <i name="e_wo_entrp">   -223.32408639 </i>
    <i name="e_0_energy">   -223.33511853 </i>
   </energy>
  </scstep>
  <scstep>
   <time name="dav">   36.23   36.46</time>
   <time name="total">   37.08   37.31</time>
   <energy>
    <i name="e_fr_energy">   -225.40061103 </i>
    <i name="e_wo_entrp">   -225.35814079 </i>
    <i name="e_0_energy">   -225.38645429 </i>
   </energy>
  </scstep>
  <scstep>
   <time name="dav">   34.21   34.46</time>
   <time name="total">   35.04   35.31</time>
   <energy>
    <i name="e_fr_energy">   -226.62870746 </i>
    <i name="e_wo_entrp">   -226.56305568 </i>
    <i name="e_0_energy">   -226.60682354 </i>
   </energy>
  </scstep>
  <scstep>
   <time name="dav">   39.82   40.08</time>
   <time name="total">   40.69   40.95</time>
   <energy>
    <i name="e_fr_energy">   -228.90995846 </i>
    <i name="e_wo_entrp">   -228.78409838 </i>
    <i name="e_0_energy">   -228.86800510 </i>
   </energy>
  </scstep>
  <scstep>
   <time name="dav">   35.96   36.32</time>
   <time name="total">   36.83   37.20</time>
   <energy>
    <i name="e_fr_energy">   -229.92606056 </i>
    <i name="e_wo_entrp">   -229.77863504 </i>
    <i name="e_0_energy">   -229.87691872 </i>
   </energy>
  </scstep>
  <scstep>
   <time name="dav">   44.30   44.72</time>
   <time name="total">   45.15   45.59</time>
   <energy>
    <i name="e_fr_energy">   -231.32140764 </i>
    <i name="e_wo_entrp">   -231.14527495 </i>
    <i name="e_0_energy">   -231.26269674 </i>
   </energy>
  </scstep>
  <scstep>
   <time name="dav">   43.77   44.17</time>
   <time name="total">   45.16   45.66</time>
   <energy>
    <i name="e_fr_energy">   -232.14928839 </i>
    <i name="e_wo_entrp">   -231.95098067 </i>
    <i name="e_0_energy">   -232.08318582 </i>
   </energy>
  </scstep>
  <scstep>
   <time name="dav">   40.51   40.81</time>
   <time name="total">   41.36   41.66</time>
   <energy>
    <i name="e_fr_energy">   -232.78422870 </i>
    <i name="e_wo_entrp">   -232.57685154 </i>
    <i name="e_0_energy">   -232.71510298 </i>
   </energy>
  </scstep>
  <scstep>
   <time name="dav">   37.53   37.77</time>
   <time name="total">   38.39   38.63</time>
   <energy>
    <i name="e_fr_energy">   -233.12902547 </i>
    <i name="e_wo_entrp">   -232.92088203 </i>
    <i name="e_0_energy">   -233.05964432 </i>
   </energy>
  </scstep>
  <scstep>
   <time name="dav">   35.28   35.50</time>
   <time name="total">   36.11   36.34</time>
   <energy>
    <i name="e_fr_energy">   -233.41156920 </i>
    <i name="e_wo_entrp">   -233.20501613 </i>
    <i name="e_0_energy">   -233.34271818 </i>
   </energy>
  </scstep>
  <scstep>
   <time name="dav">   39.67   39.92</time>
   <time name="total">   40.53   40.79</time>
   <energy>
    <i name="e_fr_energy">   -233.72291599 </i>
    <i name="e_wo_entrp">   -233.51540080 </i>
    <i name="e_0_energy">   -233.65374426 </i>
   </energy>
  </scstep>
  <scstep>
   <time name="dav">   35.39   35.63</time>
   <time name="total">   36.24   36.48</time>
   <energy>
    <i name="e_fr_energy">   -233.90975665 </i>
    <i name="e_wo_entrp">   -233.70246177 </i>
    <i name="e_0_energy">   -233.84065835 </i>
   </energy>
  </scstep>
  <scstep>
   <time name="dav">   34.69   34.91</time>
   <time name="total">   35.56   35.79</time>
   <energy>
    <i name="e_fr_energy">   -234.03259363 </i>
    <i name="e_wo_entrp">   -233.82573732 </i>
    <i name="e_0_energy">   -233.96364153 </i>
   </energy>
  </scstep>
  <scstep>
   <time name="dav">   34.99   35.37</time>
   <time name="total">   35.85   36.23</time>
   <energy>
    <i name="e_fr_energy">   -234.08870119 </i>
    <i name="e_wo_entrp">   -233.88209589 </i>
    <i name="e_0_energy">   -234.01983276 </i>
   </energy>
  </scstep>
  <scstep>
   <time name="dav">   26.92   27.09</time>
   <time name="total">   27.78   27.96</time>
   <energy>
    <i name="e_fr_energy">   -234.09899043 </i>
    <i name="e_wo_entrp">   -233.89197735 </i>
    <i name="e_0_energy">   -234.02998607 </i>
   </energy>
  </scstep>
  <scstep>
   <time name="dav">   23.78   23.93</time>
   <time name="total">   24.66   24.82</time>
   <energy>
    <i name="e_fr_energy">   -234.10187547 </i>
    <i name="e_wo_entrp">   -233.89499837 </i>
    <i name="e_0_energy">   -234.03291644 </i>
   </energy>
  </scstep>
  <scstep>
   <time name="dav">   25.26   25.69</time>
   <time name="total">   26.10   26.54</time>
   <energy>
    <i name="e_fr_energy">   -234.10256881 </i>
    <i name="e_wo_entrp">   -233.89585673 </i>
    <i name="e_0_energy">   -234.03366478 </i>
   </energy>
  </scstep>
  <scstep>
   <time name="dav">   24.42   24.69</time>
   <time name="total">   25.28   25.56</time>
   <energy>
    <i name="e_fr_energy">   -234.10304708 </i>
    <i name="e_wo_entrp">   -233.89618223 </i>
    <i name="e_0_energy">   -234.03409213 </i>
   </energy>
  </scstep>
  <scstep>
   <time name="dav">   23.71   23.98</time>
   <time name="total">   24.54   24.82</time>
   <energy>
    <i name="e_fr_energy">   -234.10335918 </i>
    <i name="e_wo_entrp">   -233.89654882 </i>
    <i name="e_0_energy">   -234.03442239 </i>
   </energy>
  </scstep>
  <scstep>
   <time name="dav">   23.48   23.63</time>
   <time name="total">   24.35   24.51</time>
   <energy>
    <i name="e_fr_energy">   -234.10408455 </i>
    <i name="e_wo_entrp">   -233.89726125 </i>
    <i name="e_0_energy">   -234.03514345 </i>
   </energy>
  </scstep>
  <scstep>
   <time name="dav">   23.33   23.48</time>
   <time name="total">   24.18   24.33</time>
   <energy>
    <i name="e_fr_energy">   -234.10475233 </i>
    <i name="e_wo_entrp">   -233.89788742 </i>
    <i name="e_0_energy">   -234.03579736 </i>
   </energy>
  </scstep>
  <scstep>
   <time name="dav">   23.58   23.73</time>
   <time name="total">   24.44   24.60</time>
   <energy>
    <i name="e_fr_energy">   -234.10526296 </i>
    <i name="e_wo_entrp">   -233.89841744 </i>
    <i name="e_0_energy">   -234.03631445 </i>
   </energy>
  </scstep>
  <scstep>
   <time name="dav">   23.32   23.47</time>
   <time name="total">   23.44   23.60</time>
   <energy>
    <i name="alphaZ">   2059.53800561 </i>
    <i name="ewald"> 387461.18112789 </i>
    <i name="hartreedc">-474019.72967977 </i>
    <i name="XCdc">   2859.06101597 </i>
    <i name="pawpsdc">  83760.23788305 </i>
    <i name="pawaedc"> -90653.71409955 </i>
    <i name="eentropy">     -0.20684136 </i>
    <i name="bandstr">   -746.71908583 </i>
    <i name="atom">  89046.24623812 </i>
    <i name="e_fr_energy">   -234.10543589 </i>
    <i name="e_wo_entrp">   -233.89859453 </i>
    <i name="e_0_energy">   -234.03648877 </i>
   </energy>
  </scstep>
  <structure>
   <crystal>
    <varray name="basis" >
     <v>       7.26000023       0.00000000       0.00000000 </v>
     <v>       0.00000000       7.26000023       0.00000000 </v>
     <v>       0.00000000       0.00000000      27.70499992 </v>
    </varray>
    <i name="volume">   1460.26414606 </i>
    <varray name="rec_basis" >
     <v>       0.13774104       0.00000000       0.00000000 </v>
     <v>       0.00000000       0.13774104       0.00000000 </v>
     <v>       0.00000000       0.00000000       0.03609457 </v>
    </varray>
   </crystal>
   <varray name="positions" >
    <v>       0.00000000       0.00000000       0.00000000 </v>
    <v>       0.00000000       0.50000000       0.00000000 </v>
    <v>       0.50000000       0.00000000       0.00000000 </v>
    <v>       0.50000000       0.50000000       0.00000000 </v>
    <v>       0.25000000       0.25000000       0.00000000 </v>
    <v>       0.25000000       0.75000000       0.00000000 </v>
    <v>       0.75000000       0.25000000       0.00000000 </v>
    <v>       0.75000000       0.75000000       0.00000000 </v>
    <v>       0.00000000       0.25000000       0.06551164 </v>
    <v>       0.00000000       0.75000000       0.06551164 </v>
    <v>       0.50000000       0.25000000       0.06551164 </v>
    <v>       0.50000000       0.75000000       0.06551164 </v>
    <v>       0.25000000       0.00000000       0.06551164 </v>
    <v>       0.25000000       0.50000000       0.06551164 </v>
    <v>       0.75000000       0.00000000       0.06551164 </v>
    <v>       0.75000000       0.50000000       0.06551164 </v>
    <v>       0.00000000       0.00000000       0.13164128 </v>
    <v>       0.00000000       0.50000000       0.13164128 </v>
    <v>       0.50000000       0.00000000       0.13164128 </v>
    <v>       0.50000000       0.50000000       0.13164128 </v>
    <v>       0.25000000       0.25000000       0.13164128 </v>
    <v>       0.25000000       0.75000000       0.13164128 </v>
    <v>       0.75000000       0.25000000       0.13164128 </v>
    <v>       0.75000000       0.75000000       0.13164128 </v>
    <v>       0.00000000       0.25000000       0.19677891 </v>
    <v>       0.00000000       0.75000000       0.19677891 </v>
    <v>       0.50000000       0.25000000       0.19677891 </v>
    <v>       0.50000000       0.75000000       0.19677891 </v>
    <v>       0.25000000       0.00000000       0.19677891 </v>
    <v>       0.25000000       0.50000000       0.19677891 </v>
    <v>       0.75000000       0.00000000       0.19677891 </v>
    <v>       0.75000000       0.50000000       0.19677891 </v>
    <v>       0.00000000       0.00000000       0.26184662 </v>
    <v>       0.00000000       0.50000000       0.26184662 </v>
    <v>       0.50000000       0.00000000       0.26184662 </v>
    <v>       0.50000000       0.50000000       0.26184662 </v>
    <v>       0.25000000       0.25000000       0.26184662 </v>
    <v>       0.25000000       0.75000000       0.26184662 </v>
    <v>       0.75000000       0.25000000       0.26184662 </v>
    <v>       0.75000000       0.75000000       0.26184662 </v>
    <v>       0.00000000       0.25000000       0.32758887 </v>
    <v>       0.00000000       0.75000000       0.32758887 </v>
    <v>       0.50000000       0.25000000       0.32758887 </v>
    <v>       0.50000000       0.75000000       0.32758887 </v>
    <v>       0.25000000       0.00000000       0.32758887 </v>
    <v>       0.25000000       0.50000000       0.32758887 </v>
    <v>       0.75000000       0.00000000       0.32758887 </v>
    <v>       0.75000000       0.50000000       0.32758887 </v>
    <v>       0.00000000       0.00000000       0.39185763 </v>
    <v>       0.00000000       0.50000000       0.39185763 </v>
    <v>       0.50000000       0.00000000       0.39185763 </v>
    <v>       0.50000000       0.50000000       0.39185763 </v>
    <v>       0.25000000       0.25000000       0.39185763 </v>
    <v>       0.25000000       0.75000000       0.39185763 </v>
    <v>       0.75000000       0.25000000       0.39185763 </v>
    <v>       0.75000000       0.75000000       0.39185763 </v>
    <v>       0.00000000       0.25000000       0.45475490 </v>
    <v>       0.00000000       0.75000000       0.45475490 </v>
    <v>       0.50000000       0.25000000       0.45475490 </v>
    <v>       0.50000000       0.75000000       0.45475490 </v>
    <v>       0.25000000       0.00000000       0.45475490 </v>
    <v>       0.25000000       0.50000000       0.45475490 </v>
    <v>       0.75000000       0.00000000       0.45475490 </v>
    <v>       0.75000000       0.50000000       0.45475490 </v>
    <v>       0.50000000       0.75000000       0.50150658 </v>
    <v>       0.50000000       0.75000000       0.52843313 </v>
   </varray>
  </structure>
  <varray name="forces" >
   <v>       0.00000000      -0.01406324       0.31143630 </v>
   <v>       0.00000000       0.01406324       0.31143630 </v>
   <v>       0.00000000       0.01552781       0.31792024 </v>
   <v>       0.00000000      -0.01552781       0.31792024 </v>
   <v>       0.01406324      -0.00000000       0.31143630 </v>
   <v>      -0.01552781      -0.00000000       0.31792024 </v>
   <v>      -0.01406324      -0.00000000       0.31143630 </v>
   <v>       0.01552781      -0.00000000       0.31792024 </v>
   <v>       0.00000000      -0.00000000      -0.06270052 </v>
   <v>       0.00000000      -0.00000000      -0.06713549 </v>
   <v>       0.00000000      -0.00000000      -0.06713549 </v>
   <v>       0.00000000      -0.00000000      -0.04667316 </v>
   <v>       0.00360220      -0.00360220      -0.06864123 </v>
   <v>       0.00360220       0.00360220      -0.06864123 </v>
   <v>      -0.00360220      -0.00360220      -0.06864123 </v>
   <v>      -0.00360220       0.00360220      -0.06864123 </v>
   <v>       0.00000000      -0.01299214      -0.04982696 </v>
   <v>       0.00000000       0.01299214      -0.04982696 </v>
   <v>       0.00000000       0.00377744      -0.05984837 </v>
   <v>       0.00000000      -0.00377744      -0.05984837 </v>
   <v>       0.01299214      -0.00000000      -0.04982696 </v>
   <v>      -0.00377744      -0.00000000      -0.05984837 </v>
   <v>      -0.01299214      -0.00000000      -0.04982696 </v>
   <v>       0.00377744      -0.00000000      -0.05984837 </v>
   <v>       0.00000000      -0.00000000       0.01424611 </v>
   <v>       0.00000000      -0.00000000       0.06674650 </v>
   <v>       0.00000000      -0.00000000       0.06674650 </v>
   <v>       0.00000000      -0.00000000       0.02155522 </v>
   <v>       0.01290203      -0.01290203       0.02239260 </v>
   <v>       0.01290203       0.01290203       0.02239260 </v>
   <v>      -0.01290203      -0.01290203       0.02239260 </v>
   <v>      -0.01290203       0.01290203       0.02239260 </v>
   <v>       0.00000000       0.01022191      -0.00531062 </v>
   <v>       0.00000000      -0.01022191      -0.00531062 </v>
   <v>       0.00000000      -0.00164967       0.03733511 </v>
   <v>       0.00000000       0.00164967       0.03733511 </v>
   <v>      -0.01022191      -0.00000000      -0.00531062 </v>
   <v>       0.00164967      -0.00000000       0.03733511 </v>
   <v>       0.01022191      -0.00000000      -0.00531062 </v>
   <v>      -0.00164967      -0.00000000       0.03733511 </v>
   <v>       0.00000000      -0.00000000      -0.16675927 </v>
   <v>       0.00000000      -0.00000000      -0.21268746 </v>
   <v>       0.00000000      -0.00000000      -0.21268746 </v>
   <v>       0.00000000      -0.00000000      -0.18838793 </v>
   <v>      -0.00884607       0.00884607      -0.21937683 </v>
   <v>      -0.00884607      -0.00884607      -0.21937683 </v>
   <v>       0.00884607       0.00884607      -0.21937683 </v>
   <v>       0.00884607      -0.00884607      -0.21937683 </v>
   <v>       0.00000000      -0.01237703       0.00238564 </v>
   <v>       0.00000000       0.01237703       0.00238564 </v>
   <v>       0.00000000       0.01406975      -0.03546013 </v>
   <v>       0.00000000      -0.01406975      -0.03546013 </v>
   <v>       0.01237703      -0.00000000       0.00238564 </v>
   <v>      -0.01406975      -0.00000000      -0.03546013 </v>
   <v>      -0.01237703      -0.00000000       0.00238564 </v>
   <v>       0.01406975      -0.00000000      -0.03546013 </v>
   <v>       0.00000000      -0.00000000      -0.00739968 </v>
   <v>       0.00000000      -0.00000000      -0.06333527 </v>
   <v>       0.00000000      -0.00000000      -0.06333527 </v>
   <v>       0.00000000      -0.00000000      -5.21254904 </v>
   <v>      -0.09773719       0.09773719      -0.10691414 </v>
   <v>      -0.09773719      -0.09773719      -0.10691414 </v>
   <v>       0.09773719       0.09773719      -0.10691414 </v>
   <v>       0.09773719      -0.09773719      -0.10691414 </v>
   <v>       0.00000000      -0.00000000       4.14097060 </v>
   <v>       0.00000000      -0.00000000       1.47615468 </v>
  </varray>
  <varray name="stress" >
   <v>     -44.99686077       0.00000000       0.00000000 </v>
   <v>       0.00000000     -44.99686077       0.00000000 </v>
   <v>       0.00000000      -0.00000000     -16.42277260 </v>
  </varray>
  <energy>
   <i name="e_fr_energy">   -260.55580323 </i>
   <i name="e_wo_entrp">   -260.34896187 </i>
   <i name="e_0_energy">   -260.48685611 </i>
  </energy>
  <time name="totalsc"> 1397.67 1408.80</time>
 </calculation>
 <calculation>
  <scstep>
   <time name="dav">   34.44   34.68</time>
   <time name="total">   35.30   35.54</time>
   <energy>
    <i name="alphaZ">   2059.53800561 </i>
    <i name="ewald"> 389567.14575866 </i>
    <i name="hartreedc">-476125.78932354 </i>
    <i name="XCdc">   2859.45138882 </i>
    <i name="pawpsdc">  83760.08212789 </i>
    <i name="pawaedc"> -90653.55476042 </i>
    <i name="eentropy">     -0.21995313 </i>
    <i name="bandstr">   -745.41122391 </i>
    <i name="atom">  89046.24623812 </i>
    <i name="e_fr_energy">   -232.51174191 </i>
    <i name="e_wo_entrp">   -232.29178878 </i>
    <i name="e_0_energy">   -232.43842420 </i>
   </energy>
  </scstep>
  <scstep>
   <time name="dav">   42.91   43.24</time>
   <time name="total">   43.76   44.10</time>
   <energy>
    <i name="e_fr_energy">   -234.42654051 </i>
    <i name="e_wo_entrp">   -234.20054090 </i>
    <i name="e_0_energy">   -234.35120731 </i>
   </energy>
  </scstep>
  <scstep>
   <time name="dav">   34.65   34.87</time>
   <time name="total">   35.51   35.73</time>
   <energy>
    <i name="e_fr_energy">   -234.45037338 </i>
    <i name="e_wo_entrp">   -234.23040058 </i>
    <i name="e_0_energy">   -234.37704911 </i>
   </energy>
  </scstep>
  <scstep>
   <time name="dav">   38.22   38.47</time>
   <time name="total">   39.07   39.32</time>
   <energy>
    <i name="e_fr_energy">   -234.46159766 </i>
    <i name="e_wo_entrp">   -234.23830466 </i>
    <i name="e_0_energy">   -234.38716666 </i>
   </energy>
  </scstep>
  <scstep>
   <time name="dav">   37.47   37.71</time>
   <time name="total">   38.31   38.56</time>
   <energy>
    <i name="e_fr_energy">   -234.51234007 </i>
    <i name="e_wo_entrp">   -234.31331391 </i>
    <i name="e_0_energy">   -234.44599802 </i>
   </energy>
  </scstep>
  <scstep>
   <time name="dav">   38.92   39.16</time>
   <time name="total">   39.78   40.03</time>
   <energy>
    <i name="e_fr_energy">   -234.45548599 </i>
    <i name="e_wo_entrp">   -234.23843454 </i>
    <i name="e_0_energy">   -234.38313551 </i>
   </energy>
  </scstep>
  <scstep>
   <time name="dav">   49.58   49.88</time>
   <time name="total">   50.44   50.75</time>
   <energy>
    <i name="e_fr_energy">   -234.41330947 </i>
    <i name="e_wo_entrp">   -234.19588709 </i>
    <i name="e_0_energy">   -234.34083534 </i>
   </energy>
  </scstep>
  <scstep>
   <time name="dav">   39.40   39.68</time>
   <time name="total">   40.27   40.56</time>
   <energy>
    <i name="e_fr_energy">   -234.41462899 </i>
    <i name="e_wo_entrp">   -234.19626135 </i>
    <i name="e_0_energy">   -234.34183978 </i>
   </energy>
  </scstep>
  <scstep>
   <time name="dav">   33.64   33.87</time>
   <time name="total">   34.50   34.74</time>
   <energy>
    <i name="e_fr_energy">   -234.41597403 </i>
    <i name="e_wo_entrp">   -234.19689743 </i>
    <i name="e_0_energy">   -234.34294849 </i>
   </energy>
  </scstep>
  <scstep>
   <time name="dav">   34.07   34.36</time>
   <time name="total">   34.92   35.22</time>
   <energy>
    <i name="e_fr_energy">   -234.41604522 </i>
    <i name="e_wo_entrp">   -234.19608695 </i>
    <i name="e_0_energy">   -234.34272580 </i>
   </energy>
  </scstep>
  <scstep>
   <time name="dav">   32.87   33.07</time>
   <time name="total">   33.74   33.95</time>
   <energy>
    <i name="e_fr_energy">   -234.41619598 </i>
    <i name="e_wo_entrp">   -234.19667424 </i>
    <i name="e_0_energy">   -234.34302206 </i>
   </energy>
  </scstep>
  <scstep>
   <time name="dav">   25.07   25.23</time>
   <time name="total">   25.20   25.36</time>
   <energy>
    <i name="alphaZ">   2059.53800561 </i>
    <i name="ewald"> 389567.14575866 </i>
    <i name="hartreedc">-476116.62223280 </i>
    <i name="XCdc">   2859.50810991 </i>
    <i name="pawpsdc">  83796.66278615 </i>
    <i name="pawaedc"> -90690.84272285 </i>
    <i name="eentropy">     -0.21953124 </i>
    <i name="bandstr">   -755.83264373 </i>
    <i name="atom">  89046.24623812 </i>
    <i name="e_fr_energy">   -234.41623219 </i>
    <i name="e_wo_entrp">   -234.19670094 </i>
    <i name="e_0_energy">   -234.34305510 </i>
   </energy>
  </scstep>
  <structure>
   <crystal>
    <varray name="basis" >
     <v>       7.26000023       0.00000000       0.00000000 </v>
     <v>       0.00000000       7.26000023       0.00000000 </v>
     <v>       0.00000000       0.00000000      27.70499992 </v>
    </varray>
    <i name="volume">   1460.26414606 </i>
    <varray name="rec_basis" >
     <v>       0.13774104       0.00000000       0.00000000 </v>
     <v>       0.00000000       0.13774104       0.00000000 </v>
     <v>       0.00000000       0.00000000       0.03609457 </v>
    </varray>
   </crystal>
   <varray name="positions" >
    <v>       0.00000000      -0.00009345       0.00054230 </v>
    <v>       0.00000000       0.50009345       0.00054230 </v>
    <v>       0.50000000       0.00010318       0.00055359 </v>
    <v>       0.50000000       0.49989682       0.00055359 </v>
    <v>       0.25009345       0.25000000       0.00054230 </v>
    <v>       0.24989682       0.75000000       0.00055359 </v>
    <v>       0.74990655       0.25000000       0.00054230 </v>
    <v>       0.75010318       0.75000000       0.00055359 </v>
    <v>       0.00000000       0.25000000       0.06540246 </v>
    <v>       0.00000000       0.75000000       0.06539474 </v>
    <v>       0.50000000       0.25000000       0.06539474 </v>
    <v>       0.50000000       0.75000000       0.06543037 </v>
    <v>       0.25002394      -0.00002394       0.06539212 </v>
    <v>       0.25002394       0.50002394       0.06539212 </v>
    <v>       0.74997606      -0.00002394       0.06539212 </v>
    <v>       0.74997606       0.50002394       0.06539212 </v>
    <v>       0.00000000      -0.00008633       0.13155452 </v>
    <v>       0.00000000       0.50008633       0.13155452 </v>
    <v>       0.50000000       0.00002510       0.13153707 </v>
    <v>       0.50000000       0.49997490       0.13153707 </v>
    <v>       0.25008633       0.25000000       0.13155452 </v>
    <v>       0.24997490       0.75000000       0.13153707 </v>
    <v>       0.74991367       0.25000000       0.13155452 </v>
    <v>       0.75002510       0.75000000       0.13153707 </v>
    <v>       0.00000000       0.25000000       0.19680372 </v>
    <v>       0.00000000       0.75000000       0.19689514 </v>
    <v>       0.50000000       0.25000000       0.19689514 </v>
    <v>       0.50000000       0.75000000       0.19681645 </v>
    <v>       0.25008573      -0.00008573       0.19681791 </v>
    <v>       0.25008573       0.50008573       0.19681791 </v>
    <v>       0.74991427      -0.00008573       0.19681791 </v>
    <v>       0.74991427       0.50008573       0.19681791 </v>
    <v>       0.00000000       0.00006792       0.26183738 </v>
    <v>       0.00000000       0.49993208       0.26183738 </v>
    <v>       0.50000000      -0.00001096       0.26191164 </v>
    <v>       0.50000000       0.50001096       0.26191164 </v>
    <v>       0.24993208       0.25000000       0.26183738 </v>
    <v>       0.25001096       0.75000000       0.26191164 </v>
    <v>       0.75006792       0.25000000       0.26183738 </v>
    <v>       0.74998904       0.75000000       0.26191164 </v>
    <v>       0.00000000       0.25000000       0.32729849 </v>
    <v>       0.00000000       0.75000000       0.32721852 </v>
    <v>       0.50000000       0.25000000       0.32721852 </v>
    <v>       0.50000000       0.75000000       0.32726083 </v>
    <v>       0.24994122       0.00005878       0.32720687 </v>
    <v>       0.24994122       0.49994122       0.32720687 </v>
    <v>       0.75005878       0.00005878       0.32720687 </v>
    <v>       0.75005878       0.49994122       0.32720687 </v>
    <v>       0.00000000      -0.00008225       0.39186178 </v>
    <v>       0.00000000       0.50008225       0.39186178 </v>
    <v>       0.50000000       0.00009349       0.39179588 </v>
    <v>       0.50000000       0.49990651       0.39179588 </v>
    <v>       0.25008225       0.25000000       0.39186178 </v>
    <v>       0.24990651       0.75000000       0.39179588 </v>
    <v>       0.74991775       0.25000000       0.39186178 </v>
    <v>       0.75009349       0.75000000       0.39179588 </v>
    <v>       0.00000000       0.25000000       0.45474201 </v>
    <v>       0.00000000       0.75000000       0.45464461 </v>
    <v>       0.50000000       0.25000000       0.45464461 </v>
    <v>       0.50000000       0.75000000       0.44567830 </v>
    <v>       0.24935054       0.00064946       0.45456873 </v>
    <v>       0.24935054       0.49935054       0.45456873 </v>
    <v>       0.75064946       0.00064946       0.45456873 </v>
    <v>       0.75064946       0.49935054       0.45456873 </v>
    <v>       0.50000000       0.75000000       0.50871724 </v>
    <v>       0.50000000       0.75000000       0.53100355 </v>
   </varray>
  </structure>
  <varray name="forces" >
   <v>       0.00000000      -0.00051488       0.24153331 </v>
   <v>       0.00000000       0.00051488       0.24153331 </v>
   <v>       0.00000000       0.00582185       0.25023025 </v>
   <v>       0.00000000      -0.00582185       0.25023025 </v>
   <v>       0.00051488       0.00000000       0.24153331 </v>
   <v>      -0.00582185       0.00000000       0.25023025 </v>
   <v>      -0.00051488       0.00000000       0.24153331 </v>
   <v>       0.00582185       0.00000000       0.25023025 </v>
   <v>       0.00000000      -0.00000000      -0.00374927 </v>
   <v>       0.00000000       0.00000000      -0.00576542 </v>
   <v>       0.00000000      -0.00000000      -0.00576542 </v>
   <v>       0.00000000       0.00000000      -0.00256315 </v>
   <v>       0.00026928      -0.00026928      -0.00672604 </v>
   <v>       0.00026928       0.00026928      -0.00672604 </v>
   <v>      -0.00026928      -0.00026928      -0.00672604 </v>
   <v>      -0.00026928       0.00026928      -0.00672604 </v>
   <v>       0.00000000      -0.00667789      -0.02756319 </v>
   <v>       0.00000000       0.00667789      -0.02756319 </v>
   <v>       0.00000000       0.00414028      -0.03187836 </v>
   <v>       0.00000000      -0.00414028      -0.03187836 </v>
   <v>       0.00667789       0.00000000      -0.02756319 </v>
   <v>      -0.00414028       0.00000000      -0.03187836 </v>
   <v>      -0.00667789       0.00000000      -0.02756319 </v>
   <v>       0.00414028       0.00000000      -0.03187836 </v>
   <v>       0.00000000       0.00000000       0.00471516 </v>
   <v>       0.00000000       0.00000000       0.02248654 </v>
   <v>       0.00000000       0.00000000       0.02248654 </v>
   <v>       0.00000000       0.00000000      -0.00142848 </v>
   <v>       0.00726683      -0.00726683       0.00491528 </v>
   <v>       0.00726683       0.00726683       0.00491528 </v>
   <v>      -0.00726683      -0.00726683       0.00491528 </v>
   <v>      -0.00726683       0.00726683       0.00491528 </v>
   <v>       0.00000000       0.01052348      -0.02451440 </v>
   <v>       0.00000000      -0.01052348      -0.02451440 </v>
   <v>       0.00000000      -0.00224601       0.00038959 </v>
   <v>       0.00000000       0.00224601       0.00038959 </v>
   <v>      -0.01052348       0.00000000      -0.02451440 </v>
   <v>       0.00224601       0.00000000       0.00038959 </v>
   <v>       0.01052348       0.00000000      -0.02451440 </v>
   <v>      -0.00224601       0.00000000       0.00038959 </v>
   <v>       0.00000000       0.00000000      -0.11619936 </v>
   <v>       0.00000000      -0.00000000      -0.14477713 </v>
   <v>       0.00000000       0.00000000      -0.14477713 </v>
   <v>       0.00000000       0.00000000      -0.15925545 </v>
   <v>      -0.01308572       0.01308572      -0.14950233 </v>
   <v>      -0.01308572      -0.01308572      -0.14950233 </v>
   <v>       0.01308572       0.01308572      -0.14950233 </v>
   <v>       0.01308572      -0.01308572      -0.14950233 </v>
   <v>       0.00000000      -0.01124232      -0.05554262 </v>
   <v>       0.00000000       0.01124232      -0.05554262 </v>
   <v>       0.00000000       0.45051341      -0.38625108 </v>
   <v>       0.00000000      -0.45051341      -0.38625108 </v>
   <v>       0.01124232       0.00000000      -0.05554262 </v>
   <v>      -0.45051341       0.00000000      -0.38625108 </v>
   <v>      -0.01124232       0.00000000      -0.05554262 </v>
   <v>       0.45051341       0.00000000      -0.38625108 </v>
   <v>       0.00000000       0.00000000       0.01685544 </v>
   <v>       0.00000000      -0.00000000      -0.05332549 </v>
   <v>       0.00000000       0.00000000      -0.05332549 </v>
   <v>       0.00000000       0.00000000       0.87568986 </v>
   <v>      -0.05909793       0.05909793      -0.09975097 </v>
   <v>      -0.05909793      -0.05909793      -0.09975097 </v>
   <v>       0.05909793       0.05909793      -0.09975097 </v>
   <v>       0.05909793      -0.05909793      -0.09975097 </v>
   <v>       0.00000000       0.00000000      -7.10157746 </v>
   <v>       0.00000000       0.00000000       7.98891792 </v>
  </varray>
  <varray name="stress" >
   <v>     -42.87712841       0.00000000       0.00000000 </v>
   <v>       0.00000000     -42.87712841       0.00000000 </v>
   <v>       0.00000000       0.00000000     -15.87424527 </v>
  </varray>
  <energy>
   <i name="e_fr_energy">   -260.91588897 </i>
   <i name="e_wo_entrp">   -260.69635772 </i>
   <i name="e_0_energy">   -260.84271188 </i>
  </energy>
  <time name="totalsc">  523.66  527.21</time>
 </calculation>
 <calculation>
  <scstep>
   <time name="dav">   35.24   35.48</time>
   <time name="total">   36.09   36.35</time>
   <energy>
    <i name="alphaZ">   2059.53800561 </i>
    <i name="ewald"> 388654.65830348 </i>
    <i name="hartreedc">-475206.33641293 </i>
    <i name="XCdc">   2859.34395079 </i>
    <i name="pawpsdc">  83795.11664783 </i>
    <i name="pawaedc"> -90689.29221371 </i>
    <i name="eentropy">     -0.21087395 </i>
    <i name="bandstr">   -753.59390188 </i>
    <i name="atom">  89046.24623812 </i>
    <i name="e_fr_energy">   -234.53025664 </i>
    <i name="e_wo_entrp">   -234.31938269 </i>
    <i name="e_0_energy">   -234.45996532 </i>
   </energy>
  </scstep>
  <scstep>
   <time name="dav">   41.12   41.39</time>
   <time name="total">   41.97   42.25</time>
   <energy>
    <i name="e_fr_energy">   -234.66940829 </i>
    <i name="e_wo_entrp">   -234.45704128 </i>
    <i name="e_0_energy">   -234.59861929 </i>
   </energy>
  </scstep>
  <scstep>
   <time name="dav">   36.03   36.30</time>
   <time name="total">   36.89   37.17</time>
   <energy>
    <i name="e_fr_energy">   -234.68660726 </i>
    <i name="e_wo_entrp">   -234.47102021 </i>
    <i name="e_0_energy">   -234.61474491 </i>
   </energy>
  </scstep>
  <scstep>
   <time name="dav">   39.82   40.17</time>
   <time name="total">   41.29   41.77</time>
   <energy>
    <i name="e_fr_energy">   -234.67967103 </i>
    <i name="e_wo_entrp">   -234.47509079 </i>
    <i name="e_0_energy">   -234.61147761 </i>
   </energy>
  </scstep>
  <scstep>
   <time name="dav">   47.45   47.75</time>
   <time name="total">   48.33   48.64</time>
   <energy>
    <i name="e_fr_energy">   -234.65909056 </i>
    <i name="e_wo_entrp">   -234.44377238 </i>
    <i name="e_0_energy">   -234.58731783 </i>
   </energy>
  </scstep>
  <scstep>
   <time name="dav">   47.95   48.26</time>
   <time name="total">   48.81   49.13</time>
   <energy>
    <i name="e_fr_energy">   -234.66263704 </i>
    <i name="e_wo_entrp">   -234.44836075 </i>
    <i name="e_0_energy">   -234.59121161 </i>
   </energy>
  </scstep>
  <scstep>
   <time name="dav">   37.02   37.31</time>
   <time name="total">   37.88   38.18</time>
   <energy>
    <i name="e_fr_energy">   -234.65746521 </i>
    <i name="e_wo_entrp">   -234.44238836 </i>
    <i name="e_0_energy">   -234.58577293 </i>
   </energy>
  </scstep>
  <scstep>
   <time name="dav">   33.55   33.77</time>
   <time name="total">   34.39   34.61</time>
   <energy>
    <i name="e_fr_energy">   -234.65804427 </i>
    <i name="e_wo_entrp">   -234.44323745 </i>
    <i name="e_0_energy">   -234.58644200 </i>
   </energy>
  </scstep>
  <scstep>
   <time name="dav">   31.59   31.79</time>
   <time name="total">   31.72   31.93</time>
   <energy>
    <i name="alphaZ">   2059.53800561 </i>
    <i name="ewald"> 388654.65830348 </i>
    <i name="hartreedc">-475213.33670942 </i>
    <i name="XCdc">   2859.24789933 </i>
    <i name="pawpsdc">  83765.84088067 </i>
    <i name="pawaedc"> -90659.49651510 </i>
    <i name="eentropy">     -0.21483719 </i>
    <i name="bandstr">   -747.14141200 </i>
    <i name="atom">  89046.24623812 </i>
    <i name="e_fr_energy">   -234.65814650 </i>
    <i name="e_wo_entrp">   -234.44330931 </i>
    <i name="e_0_energy">   -234.58653410 </i>
   </energy>
  </scstep>
  <structure>
   <crystal>
    <varray name="basis" >
     <v>       7.26000023       0.00000000       0.00000000 </v>
     <v>       0.00000000       7.26000023       0.00000000 </v>
     <v>       0.00000000       0.00000000      27.70499992 </v>
    </varray>
    <i name="volume">   1460.26414606 </i>
    <varray name="rec_basis" >
     <v>       0.13774104       0.00000000       0.00000000 </v>
     <v>       0.00000000       0.13774104       0.00000000 </v>
     <v>       0.00000000       0.00000000       0.03609457 </v>
    </varray>
   </crystal>
   <varray name="positions" >
    <v>       0.00000000      -0.00005306       0.00030791 </v>
    <v>       0.00000000       0.50005306       0.00030791 </v>
    <v>       0.50000000       0.00005859       0.00031432 </v>
    <v>       0.50000000       0.49994141       0.00031432 </v>
    <v>       0.25005306       0.25000000       0.00030791 </v>
    <v>       0.24994141       0.75000000       0.00031432 </v>
    <v>       0.74994694       0.25000000       0.00030791 </v>
    <v>       0.75005859       0.75000000       0.00031432 </v>
    <v>       0.00000000       0.25000000       0.06544965 </v>
    <v>       0.00000000       0.75000000       0.06544527 </v>
    <v>       0.50000000       0.25000000       0.06544527 </v>
    <v>       0.50000000       0.75000000       0.06546550 </v>
    <v>       0.25001359      -0.00001359       0.06544378 </v>
    <v>       0.25001359       0.50001359       0.06544378 </v>
    <v>       0.74998641      -0.00001359       0.06544378 </v>
    <v>       0.74998641       0.50001359       0.06544378 </v>
    <v>       0.00000000      -0.00004902       0.13159202 </v>
    <v>       0.00000000       0.50004902       0.13159202 </v>
    <v>       0.50000000       0.00001425       0.13158211 </v>
    <v>       0.50000000       0.49998575       0.13158211 </v>
    <v>       0.25004902       0.25000000       0.13159202 </v>
    <v>       0.24998575       0.75000000       0.13158211 </v>
    <v>       0.74995098       0.25000000       0.13159202 </v>
    <v>       0.75001425       0.75000000       0.13158211 </v>
    <v>       0.00000000       0.25000000       0.19679300 </v>
    <v>       0.00000000       0.75000000       0.19684491 </v>
    <v>       0.50000000       0.25000000       0.19684491 </v>
    <v>       0.50000000       0.75000000       0.19680023 </v>
    <v>       0.25004868      -0.00004868       0.19680105 </v>
    <v>       0.25004868       0.50004868       0.19680105 </v>
    <v>       0.74995132      -0.00004868       0.19680105 </v>
    <v>       0.74995132       0.50004868       0.19680105 </v>
    <v>       0.00000000       0.00003857       0.26184137 </v>
    <v>       0.00000000       0.49996143       0.26184137 </v>
    <v>       0.50000000      -0.00000622       0.26188354 </v>
    <v>       0.50000000       0.50000622       0.26188354 </v>
    <v>       0.24996143       0.25000000       0.26184137 </v>
    <v>       0.25000622       0.75000000       0.26188354 </v>
    <v>       0.75003857       0.25000000       0.26184137 </v>
    <v>       0.74999378       0.75000000       0.26188354 </v>
    <v>       0.00000000       0.25000000       0.32742400 </v>
    <v>       0.00000000       0.75000000       0.32737859 </v>
    <v>       0.50000000       0.25000000       0.32737859 </v>
    <v>       0.50000000       0.75000000       0.32740261 </v>
    <v>       0.24996662       0.00003338       0.32737198 </v>
    <v>       0.24996662       0.49996662       0.32737198 </v>
    <v>       0.75003338       0.00003338       0.32737198 </v>
    <v>       0.75003338       0.49996662       0.32737198 </v>
    <v>       0.00000000      -0.00004670       0.39185998 </v>
    <v>       0.00000000       0.50004670       0.39185998 </v>
    <v>       0.50000000       0.00005308       0.39182257 </v>
    <v>       0.50000000       0.49994692       0.39182257 </v>
    <v>       0.25004670       0.25000000       0.39185998 </v>
    <v>       0.24994692       0.75000000       0.39182257 </v>
    <v>       0.74995330       0.25000000       0.39185998 </v>
    <v>       0.75005308       0.75000000       0.39182257 </v>
    <v>       0.00000000       0.25000000       0.45474758 </v>
    <v>       0.00000000       0.75000000       0.45469228 </v>
    <v>       0.50000000       0.25000000       0.45469228 </v>
    <v>       0.50000000       0.75000000       0.44960133 </v>
    <v>       0.24963124       0.00036876       0.45464919 </v>
    <v>       0.24963124       0.49963124       0.45464919 </v>
    <v>       0.75036876       0.00036876       0.45464919 </v>
    <v>       0.75036876       0.49963124       0.45464919 </v>
    <v>       0.50000000       0.75000000       0.50560069 </v>
    <v>       0.50000000       0.75000000       0.52989258 </v>
   </varray>
  </structure>
  <varray name="forces" >
   <v>      -0.00000000      -0.00640730       0.27175769 </v>
   <v>      -0.00000000       0.00640730       0.27175769 </v>
   <v>      -0.00000000       0.01055493       0.27991937 </v>
   <v>      -0.00000000      -0.01055493       0.27991937 </v>
   <v>       0.00640730      -0.00000000       0.27175769 </v>
   <v>      -0.01055493       0.00000000       0.27991937 </v>
   <v>      -0.00640730       0.00000000       0.27175769 </v>
   <v>       0.01055493      -0.00000000       0.27991937 </v>
   <v>      -0.00000000      -0.00000000      -0.02961417 </v>
   <v>      -0.00000000       0.00000000      -0.03279527 </v>
   <v>      -0.00000000       0.00000000      -0.03279527 </v>
   <v>      -0.00000000       0.00000000      -0.02280213 </v>
   <v>       0.00187779      -0.00187779      -0.03449178 </v>
   <v>       0.00187779       0.00187779      -0.03449178 </v>
   <v>      -0.00187779      -0.00187779      -0.03449178 </v>
   <v>      -0.00187779       0.00187779      -0.03449178 </v>
   <v>      -0.00000000      -0.00955349      -0.03742540 </v>
   <v>      -0.00000000       0.00955349      -0.03742540 </v>
   <v>      -0.00000000       0.00414210      -0.04406198 </v>
   <v>      -0.00000000      -0.00414210      -0.04406198 </v>
   <v>       0.00955349       0.00000000      -0.03742540 </v>
   <v>      -0.00414210       0.00000000      -0.04406198 </v>
   <v>      -0.00955349       0.00000000      -0.03742540 </v>
   <v>       0.00414210       0.00000000      -0.04406198 </v>
   <v>      -0.00000000       0.00000000       0.00914239 </v>
   <v>      -0.00000000      -0.00000000       0.04406352 </v>
   <v>      -0.00000000      -0.00000000       0.04406352 </v>
   <v>      -0.00000000      -0.00000000       0.01010799 </v>
   <v>       0.01015650      -0.01015650       0.01312310 </v>
   <v>       0.01015650       0.01015650       0.01312310 </v>
   <v>      -0.01015650      -0.01015650       0.01312310 </v>
   <v>      -0.01015650       0.01015650       0.01312310 </v>
   <v>      -0.00000000       0.01056597      -0.01617319 </v>
   <v>      -0.00000000      -0.01056597      -0.01617319 </v>
   <v>      -0.00000000      -0.00195221       0.01823875 </v>
   <v>      -0.00000000       0.00195221       0.01823875 </v>
   <v>      -0.01056597       0.00000000      -0.01617319 </v>
   <v>       0.00195221      -0.00000000       0.01823875 </v>
   <v>       0.01056597       0.00000000      -0.01617319 </v>
   <v>      -0.00195221      -0.00000000       0.01823875 </v>
   <v>      -0.00000000       0.00000000      -0.13781187 </v>
   <v>      -0.00000000       0.00000000      -0.17363016 </v>
   <v>      -0.00000000      -0.00000000      -0.17363016 </v>
   <v>      -0.00000000       0.00000000      -0.17869710 </v>
   <v>      -0.01020669       0.01020669      -0.18120183 </v>
   <v>      -0.01020669      -0.01020669      -0.18120183 </v>
   <v>       0.01020669       0.01020669      -0.18120183 </v>
   <v>       0.01020669      -0.01020669      -0.18120183 </v>
   <v>      -0.00000000      -0.01181417      -0.03113698 </v>
   <v>      -0.00000000       0.01181417      -0.03113698 </v>
   <v>      -0.00000000       0.21786427      -0.20996294 </v>
   <v>      -0.00000000      -0.21786427      -0.20996294 </v>
   <v>       0.01181417      -0.00000000      -0.03113698 </v>
   <v>      -0.21786427      -0.00000000      -0.20996294 </v>
   <v>      -0.01181417       0.00000000      -0.03113698 </v>
   <v>       0.21786427      -0.00000000      -0.20996294 </v>
   <v>      -0.00000000       0.00000000       0.00643664 </v>
   <v>      -0.00000000       0.00000000      -0.05803123 </v>
   <v>      -0.00000000      -0.00000000      -0.05803123 </v>
   <v>      -0.00000000       0.00000000      -0.69120928 </v>
   <v>      -0.07943754       0.07943754      -0.10585035 </v>
   <v>      -0.07943754      -0.07943754      -0.10585035 </v>
   <v>       0.07943754       0.07943754      -0.10585035 </v>
   <v>       0.07943754      -0.07943754      -0.10585035 </v>
   <v>      -0.00000000       0.00000000      -2.54721076 </v>
   <v>      -0.00000000      -0.00000000       4.33150674 </v>
  </varray>
  <varray name="stress" >
   <v>     -44.16396434       0.00000000       0.00000000 </v>
   <v>       0.00000000     -44.16396434       0.00000000 </v>
   <v>       0.00000000      -0.00000000     -18.22937530 </v>
  </varray>
  <energy>
   <i name="e_fr_energy">   -261.13521971 </i>
   <i name="e_wo_entrp">   -260.92038252 </i>
   <i name="e_0_energy">   -261.06360731 </i>
  </energy>
  <time name="totalsc">  430.33  433.55</time>
 </calculation>
 <calculation>
  <scstep>
   <time name="dav">   36.63   37.01</time>
   <time name="total">   37.48   37.86</time>
   <energy>
    <i name="alphaZ">   2059.53800561 </i>
    <i name="ewald"> 390750.75360398 </i>
    <i name="hartreedc">-477310.27054698 </i>
    <i name="XCdc">   2859.50524315 </i>
    <i name="pawpsdc">  83764.84702539 </i>
    <i name="pawaedc"> -90658.46445287 </i>
    <i name="eentropy">     -0.22119420 </i>
    <i name="bandstr">   -746.15402857 </i>
    <i name="atom">  89046.24623812 </i>
    <i name="e_fr_energy">   -234.22010638 </i>
    <i name="e_wo_entrp">   -233.99891217 </i>
    <i name="e_0_energy">   -234.14637498 </i>
   </energy>
  </scstep>
  <scstep>
   <time name="dav">   45.90   46.21</time>
   <time name="total">   46.76   47.07</time>
   <energy>
    <i name="e_fr_energy">   -234.71950067 </i>
    <i name="e_wo_entrp">   -234.49356493 </i>
    <i name="e_0_energy">   -234.64418875 </i>
   </energy>
  </scstep>
  <scstep>
   <time name="dav">   34.66   34.89</time>
   <time name="total">   35.52   35.75</time>
   <energy>
    <i name="e_fr_energy">   -234.69082759 </i>
    <i name="e_wo_entrp">   -234.46529217 </i>
    <i name="e_0_energy">   -234.61564912 </i>
   </energy>
  </scstep>
  <scstep>
[...]
       <r>    12.8949     0.0000   456.0000 </r>
       <r>    12.9712     0.0000   456.0000 </r>
       <r>    13.0474     0.0000   456.0000 </r>
       <r>    13.1237     0.0000   456.0000 </r>
       <r>    13.1999     0.0000   456.0000 </r>
       <r>    13.2762     0.0000   456.0000 </r>
       <r>    13.3524     0.0000   456.0000 </r>
      </set>
      <set comment="spin 2">
       <r>    -9.5230     0.0000     0.0000 </r>
       <r>    -9.4467     0.0000     0.0000 </r>
       <r>    -9.3705     0.0000     0.0000 </r>
       <r>    -9.2942     0.0000     0.0000 </r>
       <r>    -9.2180     0.0000     0.0000 </r>
       <r>    -9.1417    -0.0000    -0.0000 </r>
       <r>    -9.0655    -0.0000    -0.0000 </r>
       <r>    -8.9892    -0.0000    -0.0000 </r>
       <r>    -8.9130    -0.0000    -0.0000 </r>
       <r>    -8.8367    -0.0000    -0.0000 </r>
       <r>    -8.7605    -0.0000    -0.0000 </r>
       <r>    -8.6842    -0.0000    -0.0000 </r>
       <r>    -8.6079    -0.0000    -0.0000 </r>
       <r>    -8.5317    -0.0000    -0.0000 </r>
       <r>    -8.4554    -0.0000    -0.0000 </r>
       <r>    -8.3792    -0.0000    -0.0000 </r>
       <r>    -8.3029    -0.0000    -0.0000 </r>
       <r>    -8.2267    -0.0000    -0.0000 </r>
       <r>    -8.1504    -0.0001    -0.0000 </r>
       <r>    -8.0742    -0.0004    -0.0000 </r>
       <r>    -7.9979    -0.0024    -0.0002 </r>
       <r>    -7.9217    -0.0090    -0.0009 </r>
       <r>    -7.8454    -0.0210    -0.0025 </r>
       <r>    -7.7692    -0.0198    -0.0040 </r>
       <r>    -7.6929     0.0436    -0.0007 </r>
       <r>    -7.6167     0.1937     0.0141 </r>
       <r>    -7.5404     0.3391     0.0399 </r>
       <r>    -7.4642     0.3557     0.0670 </r>
       <r>    -7.3879     0.3605     0.0945 </r>
       <r>    -7.3117     0.6833     0.1466 </r>
       <r>    -7.2354     1.3203     0.2473 </r>
       <r>    -7.1592     1.7307     0.3793 </r>
       <r>    -7.0829     1.6053     0.5017 </r>
       <r>    -7.0067     1.4223     0.6101 </r>
       <r>    -6.9304     1.6706     0.7375 </r>
       <r>    -6.8542     2.0700     0.8954 </r>
       <r>    -6.7779     2.1755     1.0612 </r>
       <r>    -6.7017     2.0659     1.2188 </r>
       <r>    -6.6254     1.8610     1.3607 </r>
       <r>    -6.5492     1.4349     1.4701 </r>
       <r>    -6.4729     1.0844     1.5528 </r>
       <r>    -6.3967     1.4812     1.6657 </r>
       <r>    -6.3204     2.5492     1.8601 </r>
       <r>    -6.2442     3.2483     2.1078 </r>
       <r>    -6.1679     2.9129     2.3299 </r>
       <r>    -6.0917     2.2787     2.5036 </r>
       <r>    -6.0154     2.6094     2.7026 </r>
       <r>    -5.9392     3.9646     3.0049 </r>
       <r>    -5.8629     5.0522     3.3902 </r>
       <r>    -5.7867     4.8935     3.7633 </r>
       <r>    -5.7104     3.8834     4.0594 </r>
       <r>    -5.6342     3.1713     4.3012 </r>
       <r>    -5.5579     3.5271     4.5702 </r>
       <r>    -5.4816     4.5214     4.9149 </r>
       <r>    -5.4054     4.7424     5.2766 </r>
       <r>    -5.3291     3.4404     5.5389 </r>
       <r>    -5.2529     1.6522     5.6649 </r>
       <r>    -5.1766     0.9806     5.7397 </r>
       <r>    -5.1004     1.7158     5.8705 </r>
       <r>    -5.0241     2.8806     6.0901 </r>
       <r>    -4.9479     3.8527     6.3839 </r>
       <r>    -4.8716     5.0898     6.7720 </r>
       <r>    -4.7954     7.0112     7.3066 </r>
       <r>    -4.7191     9.1042     8.0008 </r>
       <r>    -4.6429    10.6083     8.8097 </r>
       <r>    -4.5666    11.0433     9.6518 </r>
       <r>    -4.4904     9.9927    10.4137 </r>
       <r>    -4.4141     7.5853    10.9921 </r>
       <r>    -4.3379     4.9921    11.3728 </r>
       <r>    -4.2616     3.6601    11.6519 </r>
       <r>    -4.1854     4.0710    11.9623 </r>
       <r>    -4.1091     5.3165    12.3677 </r>
       <r>    -4.0329     6.3107    12.8489 </r>
       <r>    -3.9566     7.1759    13.3961 </r>
       <r>    -3.8804     8.4074    14.0371 </r>
       <r>    -3.8041     9.7677    14.7819 </r>
       <r>    -3.7279    11.1265    15.6303 </r>
       <r>    -3.6516    12.6397    16.5941 </r>
       <r>    -3.5754    13.7193    17.6402 </r>
       <r>    -3.4991    13.5892    18.6764 </r>
       <r>    -3.4229    12.4147    19.6231 </r>
       <r>    -3.3466    11.1364    20.4722 </r>
       <r>    -3.2704    11.3903    21.3408 </r>
       <r>    -3.1941    15.4424    22.5183 </r>
       <r>    -3.1179    24.0561    24.3526 </r>
       <r>    -3.0416    33.7080    26.9229 </r>
       <r>    -2.9654    38.2972    29.8431 </r>
       <r>    -2.8891    35.9123    32.5814 </r>
       <r>    -2.8129    31.9977    35.0213 </r>
       <r>    -2.7366    32.9631    37.5348 </r>
       <r>    -2.6604    38.7475    40.4893 </r>
       <r>    -2.5841    45.2422    43.9391 </r>
       <r>    -2.5078    52.0801    47.9103 </r>
       <r>    -2.4316    62.6261    52.6856 </r>
       <r>    -2.3553    75.4353    58.4376 </r>
       <r>    -2.2791    81.4724    64.6500 </r>
       <r>    -2.2028    74.4524    70.3271 </r>
       <r>    -2.1266    60.4109    74.9335 </r>
       <r>    -2.0503    51.6370    78.8709 </r>
       <r>    -1.9741    53.6156    82.9591 </r>
       <r>    -1.8978    62.1885    87.7011 </r>
       <r>    -1.8216    70.3876    93.0682 </r>
       <r>    -1.7453    74.1598    98.7230 </r>
       <r>    -1.6691    74.0973   104.3730 </r>
       <r>    -1.5928    74.6207   110.0629 </r>
       <r>    -1.5166    80.0551   116.1672 </r>
       <r>    -1.4403    90.2456   123.0486 </r>
       <r>    -1.3641   100.5781   130.7178 </r>
       <r>    -1.2878   106.7820   138.8600 </r>
       <r>    -1.2116   109.3421   147.1975 </r>
       <r>    -1.1353   110.8556   155.6504 </r>
       <r>    -1.0591   110.2469   164.0568 </r>
       <r>    -0.9828   105.3736   172.0917 </r>
       <r>    -0.9066    98.6807   179.6162 </r>
       <r>    -0.8303    93.8995   186.7762 </r>
       <r>    -0.7541    92.5602   193.8340 </r>
       <r>    -0.6778    96.7027   201.2077 </r>
       <r>    -0.6016   106.5991   209.3360 </r>
       <r>    -0.5253   116.2248   218.1983 </r>
       <r>    -0.4491   119.1117   227.2807 </r>
       <r>    -0.3728   116.5909   236.1709 </r>
       <r>    -0.2966   114.3958   244.8937 </r>
       <r>    -0.2203   114.4489   253.6206 </r>
       <r>    -0.1441   115.7664   262.4479 </r>
       <r>    -0.0678   120.9141   271.6678 </r>
       <r>     0.0084   134.4562   281.9202 </r>
       <r>     0.0847   153.1613   293.5990 </r>
       <r>     0.1609   163.4635   306.0633 </r>
       <r>     0.2372   152.6773   317.7051 </r>
       <r>     0.3134   120.3545   326.8823 </r>
       <r>     0.3897    78.5924   332.8751 </r>
       <r>     0.4659    43.2776   336.1750 </r>
       <r>     0.5422    22.9320   337.9236 </r>
       <r>     0.6185    15.1748   339.0807 </r>
       <r>     0.6947    13.6298   340.1200 </r>
       <r>     0.7710    14.1085   341.1958 </r>
       <r>     0.8472    14.7151   342.3178 </r>
       <r>     0.9235    15.1931   343.4763 </r>
       <r>     0.9997    15.9047   344.6891 </r>
       <r>     1.0760    15.7266   345.8883 </r>
       <r>     1.1522    13.1546   346.8913 </r>
       <r>     1.2285     9.0716   347.5830 </r>
       <r>     1.3047     5.6535   348.0141 </r>
       <r>     1.3810     3.6913   348.2956 </r>
       <r>     1.4572     2.7077   348.5021 </r>
       <r>     1.5335     2.5166   348.6940 </r>
       <r>     1.6097     3.7941   348.9833 </r>
       <r>     1.6860     7.4963   349.5549 </r>
       <r>     1.7622    13.7298   350.6018 </r>
       <r>     1.8385    20.6109   352.1734 </r>
       <r>     1.9147    24.1748   354.0167 </r>
       <r>     1.9910    21.1093   355.6263 </r>
       <r>     2.0672    12.7470   356.5983 </r>
       <r>     2.1435     4.6890   356.9559 </r>
       <r>     2.2197     1.5732   357.0758 </r>
       <r>     2.2960     3.2893   357.3266 </r>
       <r>     2.3722     6.2133   357.8004 </r>
       <r>     2.4485     7.4627   358.3695 </r>
       <r>     2.5247     7.4958   358.9410 </r>
       <r>     2.6010     8.1738   359.5643 </r>
       <r>     2.6772     9.8360   360.3143 </r>
       <r>     2.7535    11.2888   361.1751 </r>
       <r>     2.8297    11.0767   362.0197 </r>
       <r>     2.9060     8.8405   362.6938 </r>
       <r>     2.9822     6.6702   363.2024 </r>
       <r>     3.0585     7.6812   363.7881 </r>
       <r>     3.1347    12.1519   364.7147 </r>
       <r>     3.2110    16.6055   365.9809 </r>
       <r>     3.2872    17.3100   367.3008 </r>
       <r>     3.3635    13.6338   368.3404 </r>
       <r>     3.4397     7.9413   368.9459 </r>
       <r>     3.5160     3.3386   369.2005 </r>
       <r>     3.5923     1.9631   369.3502 </r>
       <r>     3.6685     4.2588   369.6749 </r>
       <r>     3.7448     8.4799   370.3215 </r>
       <r>     3.8210    11.3840   371.1896 </r>
       <r>     3.8973    10.7649   372.0104 </r>
       <r>     3.9735     7.4873   372.5813 </r>
       <r>     4.0498     4.7109   372.9405 </r>
       <r>     4.1260     4.7004   373.2990 </r>
       <r>     4.2023     6.3732   373.7849 </r>
       <r>     4.2785     7.1054   374.3267 </r>
       <r>     4.3548     6.3887   374.8139 </r>
       <r>     4.4310     5.5918   375.2402 </r>
       <r>     4.5073     5.5922   375.6667 </r>
       <r>     4.5835     6.9332   376.1953 </r>
       <r>     4.6598     9.9196   376.9517 </r>
       <r>     4.7360    12.8844   377.9341 </r>
       <r>     4.8123    13.1654   378.9380 </r>
       <r>     4.8885    10.6300   379.7486 </r>
       <r>     4.9648     7.8663   380.3484 </r>
       <r>     5.0410     6.9352   380.8772 </r>
       <r>     5.1173     7.6243   381.4586 </r>
       <r>     5.1935     8.5387   382.1097 </r>
       <r>     5.2698     8.8683   382.7859 </r>
       <r>     5.3460     9.1728   383.4853 </r>
       <r>     5.4223    10.3238   384.2725 </r>
       <r>     5.4985    11.5056   385.1498 </r>
       <r>     5.5748    10.7278   385.9678 </r>
       <r>     5.6510     7.8875   386.5693 </r>
       <r>     5.7273     5.3024   386.9736 </r>
       <r>     5.8035     4.8375   387.3425 </r>
       <r>     5.8798     6.2084   387.8159 </r>
       <r>     5.9560     8.0960   388.4332 </r>
       <r>     6.0323     9.5534   389.1616 </r>
       <r>     6.1085    10.0592   389.9287 </r>
       <r>     6.1848     9.5117   390.6539 </r>
       <r>     6.2610     8.9238   391.3344 </r>
       <r>     6.3373     9.9512   392.0932 </r>
       <r>     6.4135    12.8473   393.0728 </r>
       <r>     6.4898    15.6194   394.2638 </r>
       <r>     6.5660    16.0381   395.4867 </r>
       <r>     6.6423    14.3335   396.5797 </r>
       <r>     6.7186    13.0695   397.5763 </r>
       <r>     6.7948    13.7563   398.6252 </r>
       <r>     6.8711    14.5114   399.7317 </r>
       <r>     6.9473    12.4793   400.6833 </r>
       <r>     7.0236     7.9404   401.2887 </r>
       <r>     7.0998     4.4015   401.6244 </r>
       <r>     7.1761     4.6375   401.9780 </r>
       <r>     7.2523     7.7280   402.5672 </r>
       <r>     7.3286    10.4277   403.3624 </r>
       <r>     7.4048    10.9286   404.1957 </r>
       <r>     7.4811    10.3367   404.9839 </r>
       <r>     7.5573    10.4986   405.7844 </r>
       <r>     7.6336    11.8490   406.6879 </r>
       <r>     7.7098    13.9681   407.7530 </r>
       <r>     7.7861    16.7090   409.0271 </r>
       <r>     7.8623    19.2970   410.4985 </r>
       <r>     7.9386    19.4170   411.9791 </r>
       <r>     8.0148    15.4873   413.1600 </r>
       <r>     8.0911     9.5147   413.8855 </r>
       <r>     8.1673     6.1802   414.3567 </r>
       <r>     8.2436     8.7547   415.0243 </r>
       <r>     8.3198    15.2430   416.1866 </r>
       <r>     8.3961    19.2281   417.6528 </r>
       <r>     8.4723    16.6461   418.9221 </r>
       <r>     8.5486    10.4861   419.7216 </r>
       <r>     8.6248     6.4973   420.2171 </r>
       <r>     8.7011     6.6560   420.7246 </r>
       <r>     8.7773     9.3416   421.4369 </r>
       <r>     8.8536    12.8956   422.4202 </r>
       <r>     8.9298    16.0390   423.6432 </r>
       <r>     9.0061    17.2349   424.9574 </r>
       <r>     9.0823    16.3428   426.2035 </r>
       <r>     9.1586    15.2386   427.3655 </r>
       <r>     9.2348    15.2622   428.5293 </r>
       <r>     9.3111    15.7194   429.7279 </r>
       <r>     9.3873    15.5471   430.9134 </r>
       <r>     9.4636    14.7817   432.0405 </r>
       <r>     9.5398    14.0224   433.1097 </r>
       <r>     9.6161    13.5310   434.1415 </r>
       <r>     9.6923    13.3937   435.1628 </r>
       <r>     9.7686    13.9004   436.2227 </r>
       <r>     9.8449    14.7581   437.3480 </r>
       <r>     9.9211    14.8016   438.4767 </r>
       <r>     9.9974    13.4159   439.4996 </r>
       <r>    10.0736    11.3498   440.3651 </r>
       <r>    10.1499    10.2663   441.1479 </r>
       <r>    10.2261    11.9006   442.0553 </r>
       <r>    10.3024    16.3940   443.3054 </r>
       <r>    10.3786    21.2274   444.9240 </r>
       <r>    10.4549    22.9325   446.6726 </r>
       <r>    10.5311    20.1947   448.2125 </r>
       <r>    10.6074    14.9845   449.3551 </r>
       <r>    10.6836    10.3819   450.1467 </r>
       <r>    10.7599     7.8797   450.7476 </r>
       <r>    10.8361     7.5949   451.3267 </r>
       <r>    10.9124     9.4891   452.0502 </r>
       <r>    10.9886    12.2622   452.9853 </r>
       <r>    11.0649    12.8881   453.9680 </r>
       <r>    11.1411     9.9786   454.7289 </r>
       <r>    11.2174     5.9535   455.1828 </r>
       <r>    11.2936     3.7537   455.4691 </r>
       <r>    11.3699     3.2532   455.7171 </r>
       <r>    11.4461     2.6075   455.9159 </r>
       <r>    11.5224     1.3096   456.0158 </r>
       <r>    11.5986     0.2155   456.0322 </r>
       <r>    11.6749    -0.1833   456.0183 </r>
       <r>    11.7511    -0.1572   456.0063 </r>
       <r>    11.8274    -0.0630   456.0015 </r>
       <r>    11.9036    -0.0161   456.0002 </r>
       <r>    11.9799    -0.0028   456.0000 </r>
       <r>    12.0561    -0.0004   456.0000 </r>
       <r>    12.1324    -0.0000   456.0000 </r>
       <r>    12.2086    -0.0000   456.0000 </r>
       <r>    12.2849    -0.0000   456.0000 </r>
       <r>    12.3611    -0.0000   456.0000 </r>
       <r>    12.4374    -0.0000   456.0000 </r>
       <r>    12.5136    -0.0000   456.0000 </r>
       <r>    12.5899    -0.0000   456.0000 </r>
       <r>    12.6661     0.0000   456.0000 </r>
       <r>    12.7424     0.0000   456.0000 </r>
       <r>    12.8187     0.0000   456.0000 </r>
       <r>    12.8949     0.0000   456.0000 </r>
       <r>    12.9712     0.0000   456.0000 </r>
       <r>    13.0474     0.0000   456.0000 </r>
       <r>    13.1237     0.0000   456.0000 </r>
       <r>    13.1999     0.0000   456.0000 </r>
       <r>    13.2762     0.0000   456.0000 </r>
       <r>    13.3524     0.0000   456.0000 </r>
      </set>
     </set>
    </array>
   </total>
  </dos>
 </calculation>
 <structure name="finalpos" >
  <crystal>
   <varray name="basis" >
    <v>       7.26000023       0.00000000       0.00000000 </v>
    <v>       0.00000000       7.26000023       0.00000000 </v>
    <v>       0.00000000       0.00000000      27.70499992 </v>
   </varray>
   <i name="volume">   1460.26414606 </i>
   <varray name="rec_basis" >
    <v>       0.13774104       0.00000000       0.00000000 </v>
    <v>       0.00000000       0.13774104       0.00000000 </v>
    <v>       0.00000000       0.00000000       0.03609457 </v>
   </varray>
  </crystal>
  <varray name="positions" >
   <v>      -0.00000000      -0.00011304       0.00731245 </v>
   <v>      -0.00000000       0.50011304       0.00731245 </v>
   <v>       0.50000000       0.00008787       0.00731695 </v>
   <v>       0.50000000       0.49991213       0.00731695 </v>
   <v>       0.25011304       0.25000000       0.00731245 </v>
   <v>       0.24991213       0.75000000       0.00731695 </v>
   <v>       0.74988696       0.25000000       0.00731245 </v>
   <v>       0.75008787       0.75000000       0.00731695 </v>
   <v>      -0.00000000       0.25000000       0.06970125 </v>
   <v>      -0.00000000       0.75000000       0.06970658 </v>
   <v>       0.50000000       0.25000000       0.06970658 </v>
   <v>       0.50000000       0.75000000       0.06972080 </v>
   <v>       0.25002708      -0.00002708       0.06969860 </v>
   <v>       0.25002708       0.50002708       0.06969860 </v>
   <v>       0.74997292      -0.00002708       0.06969860 </v>
   <v>       0.74997292       0.50002708       0.06969860 </v>
   <v>      -0.00000000      -0.00009881       0.13350248 </v>
   <v>      -0.00000000       0.50009881       0.13350248 </v>
   <v>       0.50000000       0.00004177       0.13348512 </v>
   <v>       0.50000000       0.49995823       0.13348512 </v>
   <v>       0.25009881       0.25000000       0.13350248 </v>
   <v>       0.24995823       0.75000000       0.13348512 </v>
   <v>       0.74990119       0.25000000       0.13350248 </v>
   <v>       0.75004177       0.75000000       0.13348512 </v>
   <v>      -0.00000000       0.25000000       0.19648305 </v>
   <v>      -0.00000000       0.75000000       0.19667901 </v>
   <v>       0.50000000       0.25000000       0.19667901 </v>
   <v>       0.50000000       0.75000000       0.19650377 </v>
   <v>       0.25010918      -0.00010918       0.19657338 </v>
   <v>       0.25010918       0.50010918       0.19657338 </v>
   <v>       0.74989082      -0.00010918       0.19657338 </v>
   <v>       0.74989082       0.50010918       0.19657338 </v>
   <v>      -0.00000000       0.00006268       0.25926294 </v>
   <v>      -0.00000000       0.49993732       0.25926294 </v>
   <v>       0.50000000      -0.00012086       0.25932986 </v>
   <v>       0.50000000       0.50012086       0.25932986 </v>
   <v>       0.24993732       0.25000000       0.25926294 </v>
   <v>       0.25012086       0.75000000       0.25932986 </v>
   <v>       0.75006268       0.25000000       0.25926294 </v>
   <v>       0.74987914       0.75000000       0.25932986 </v>
   <v>      -0.00000000       0.25000000       0.32232810 </v>
   <v>      -0.00000000       0.75000000       0.32227734 </v>
   <v>       0.50000000       0.25000000       0.32227734 </v>
   <v>       0.50000000       0.75000000       0.32232113 </v>
   <v>       0.24995306       0.00004694       0.32227021 </v>
   <v>       0.24995306       0.49995306       0.32227021 </v>
   <v>       0.75004694       0.00004694       0.32227021 </v>
   <v>       0.75004694       0.49995306       0.32227021 </v>
   <v>      -0.00000000      -0.00003652       0.38603111 </v>
   <v>      -0.00000000       0.50003652       0.38603111 </v>
   <v>       0.50000000       0.00008601       0.38604053 </v>
   <v>       0.50000000       0.49991399       0.38604053 </v>
   <v>       0.25003652       0.25000000       0.38603111 </v>
   <v>       0.24991399       0.75000000       0.38604053 </v>
   <v>       0.74996348       0.25000000       0.38603111 </v>
   <v>       0.75008601       0.75000000       0.38604053 </v>
   <v>      -0.00000000       0.25000000       0.44842133 </v>
   <v>      -0.00000000       0.75000000       0.44843381 </v>
   <v>       0.50000000       0.25000000       0.44843381 </v>
   <v>       0.50000000       0.75000000       0.44824158 </v>
   <v>       0.24980959       0.00019041       0.44830357 </v>
   <v>       0.24980959       0.49980959       0.44830357 </v>
   <v>       0.75019041       0.00019041       0.44830357 </v>
   <v>       0.75019041       0.49980959       0.44830357 </v>
   <v>       0.50000000       0.75000000       0.52894376 </v>
   <v>       0.50000000       0.75000000       0.55641145 </v>
  </varray>
 </structure>
</modeling>
