unknown system                          
           1
     7.260000    0.000000    0.000000
     0.000000    7.260000    0.000000
     0.000000    0.000000   27.705000
   Cu   H 
    64     2
Direct configuration=     1
   0.00000000  0.00000000  0.00000000
   0.00000000  0.50000000  0.00000000
   0.50000000  0.00000000  0.00000000
   0.50000000  0.50000000  0.00000000
   0.25000000  0.25000000  0.00000000
   0.25000000  0.75000000  0.00000000
   0.75000000  0.25000000  0.00000000
   0.75000000  0.75000000  0.00000000
   0.00000000  0.25000000  0.06551164
   0.00000000  0.75000000  0.06551164
   0.50000000  0.25000000  0.06551164
   0.50000000  0.75000000  0.06551164
   0.25000000  0.00000000  0.06551164
   0.25000000  0.50000000  0.06551164
   0.75000000  0.00000000  0.06551164
   0.75000000  0.50000000  0.06551164
   0.00000000  0.00000000  0.13164128
   0.00000000  0.50000000  0.13164128
   0.50000000  0.00000000  0.13164128
   0.50000000  0.50000000  0.13164128
   0.25000000  0.25000000  0.13164128
   0.25000000  0.75000000  0.13164128
   0.75000000  0.25000000  0.13164128
   0.75000000  0.75000000  0.13164128
   0.00000000  0.25000000  0.19677891
   0.00000000  0.75000000  0.19677891
   0.50000000  0.25000000  0.19677891
   0.50000000  0.75000000  0.19677891
   0.25000000  0.00000000  0.19677891
   0.25000000  0.50000000  0.19677891
   0.75000000  0.00000000  0.19677891
   0.75000000  0.50000000  0.19677891
   0.00000000  0.00000000  0.26184662
   0.00000000  0.50000000  0.26184662
   0.50000000  0.00000000  0.26184662
   0.50000000  0.50000000  0.26184662
   0.25000000  0.25000000  0.26184662
   0.25000000  0.75000000  0.26184662
   0.75000000  0.25000000  0.26184662
   0.75000000  0.75000000  0.26184662
   0.00000000  0.25000000  0.32758887
   0.00000000  0.75000000  0.32758887
   0.50000000  0.25000000  0.32758887
   0.50000000  0.75000000  0.32758887
   0.25000000  0.00000000  0.32758887
   0.25000000  0.50000000  0.32758887
   0.75000000  0.00000000  0.32758887
   0.75000000  0.50000000  0.32758887
   0.00000000  0.00000000  0.39185763
   0.00000000  0.50000000  0.39185763
   0.50000000  0.00000000  0.39185763
   0.50000000  0.50000000  0.39185763
   0.25000000  0.25000000  0.39185763
   0.25000000  0.75000000  0.39185763
   0.75000000  0.25000000  0.39185763
   0.75000000  0.75000000  0.39185763
   0.00000000  0.25000000  0.45475490
   0.00000000  0.75000000  0.45475490
   0.50000000  0.25000000  0.45475490
   0.50000000  0.75000000  0.45475490
   0.25000000  0.00000000  0.45475490
   0.25000000  0.50000000  0.45475490
   0.75000000  0.00000000  0.45475490
   0.75000000  0.50000000  0.45475490
   0.50000000  0.75000000  0.50150658
   0.50000000  0.75000000  0.52843313
Direct configuration=     2
   0.00000000 -0.00009345  0.00054230
   0.00000000  0.50009345  0.00054230
   0.50000000  0.00010318  0.00055359
   0.50000000  0.49989682  0.00055359
   0.25009345  0.25000000  0.00054230
   0.24989682  0.75000000  0.00055359
   0.74990655  0.25000000  0.00054230
   0.75010318  0.75000000  0.00055359
   0.00000000  0.25000000  0.06540246
   0.00000000  0.75000000  0.06539474
   0.50000000  0.25000000  0.06539474
   0.50000000  0.75000000  0.06543037
   0.25002394 -0.00002394  0.06539212
   0.25002394  0.50002394  0.06539212
   0.74997606 -0.00002394  0.06539212
   0.74997606  0.50002394  0.06539212
   0.00000000 -0.00008633  0.13155452
   0.00000000  0.50008633  0.13155452
   0.50000000  0.00002510  0.13153707
   0.50000000  0.49997490  0.13153707
   0.25008633  0.25000000  0.13155452
   0.24997490  0.75000000  0.13153707
   0.74991367  0.25000000  0.13155452
   0.75002510  0.75000000  0.13153707
   0.00000000  0.25000000  0.19680372
   0.00000000  0.75000000  0.19689514
   0.50000000  0.25000000  0.19689514
   0.50000000  0.75000000  0.19681645
   0.25008573 -0.00008573  0.19681791
   0.25008573  0.50008573  0.19681791
   0.74991427 -0.00008573  0.19681791
   0.74991427  0.50008573  0.19681791
   0.00000000  0.00006792  0.26183738
   0.00000000  0.49993208  0.26183738
   0.50000000 -0.00001096  0.26191164
   0.50000000  0.50001096  0.26191164
   0.24993208  0.25000000  0.26183738
   0.25001096  0.75000000  0.26191164
   0.75006792  0.25000000  0.26183738
   0.74998904  0.75000000  0.26191164
   0.00000000  0.25000000  0.32729849
   0.00000000  0.75000000  0.32721852
   0.50000000  0.25000000  0.32721852
   0.50000000  0.75000000  0.32726083
   0.24994122  0.00005878  0.32720687
   0.24994122  0.49994122  0.32720687
   0.75005878  0.00005878  0.32720687
   0.75005878  0.49994122  0.32720687
   0.00000000 -0.00008225  0.39186178
   0.00000000  0.50008225  0.39186178
   0.50000000  0.00009349  0.39179588
   0.50000000  0.49990651  0.39179588
   0.25008225  0.25000000  0.39186178
   0.24990651  0.75000000  0.39179588
   0.74991775  0.25000000  0.39186178
   0.75009349  0.75000000  0.39179588
   0.00000000  0.25000000  0.45474201
   0.00000000  0.75000000  0.45464461
   0.50000000  0.25000000  0.45464461
   0.50000000  0.75000000  0.44567830
   0.24935054  0.00064946  0.45456873
   0.24935054  0.49935054  0.45456873
   0.75064946  0.00064946  0.45456873
   0.75064946  0.49935054  0.45456873
   0.50000000  0.75000000  0.50871724
   0.50000000  0.75000000  0.53100355
Direct configuration=     3
   0.00000000 -0.00005306  0.00030791
   0.00000000  0.50005306  0.00030791
   0.50000000  0.00005859  0.00031432
   0.50000000  0.49994141  0.00031432
   0.25005306  0.25000000  0.00030791
   0.24994141  0.75000000  0.00031432
   0.74994694  0.25000000  0.00030791
   0.75005859  0.75000000  0.00031432
   0.00000000  0.25000000  0.06544965
   0.00000000  0.75000000  0.06544527
   0.50000000  0.25000000  0.06544527
   0.50000000  0.75000000  0.06546550
   0.25001359 -0.00001359  0.06544378
   0.25001359  0.50001359  0.06544378
   0.74998641 -0.00001359  0.06544378
   0.74998641  0.50001359  0.06544378
   0.00000000 -0.00004902  0.13159202
   0.00000000  0.50004902  0.13159202
   0.50000000  0.00001425  0.13158211
   0.50000000  0.49998575  0.13158211
   0.25004902  0.25000000  0.13159202
   0.24998575  0.75000000  0.13158211
   0.74995098  0.25000000  0.13159202
   0.75001425  0.75000000  0.13158211
   0.00000000  0.25000000  0.19679300
   0.00000000  0.75000000  0.19684491
   0.50000000  0.25000000  0.19684491
   0.50000000  0.75000000  0.19680023
   0.25004868 -0.00004868  0.19680105
   0.25004868  0.50004868  0.19680105
   0.74995132 -0.00004868  0.19680105
   0.74995132  0.50004868  0.19680105
   0.00000000  0.00003857  0.26184137
   0.00000000  0.49996143  0.26184137
   0.50000000 -0.00000622  0.26188354
   0.50000000  0.50000622  0.26188354
   0.24996143  0.25000000  0.26184137
   0.25000622  0.75000000  0.26188354
   0.75003857  0.25000000  0.26184137
   0.74999378  0.75000000  0.26188354
   0.00000000  0.25000000  0.32742400
   0.00000000  0.75000000  0.32737859
   0.50000000  0.25000000  0.32737859
   0.50000000  0.75000000  0.32740261
   0.24996662  0.00003338  0.32737198
   0.24996662  0.49996662  0.32737198
   0.75003338  0.00003338  0.32737198
   0.75003338  0.49996662  0.32737198
   0.00000000 -0.00004670  0.39185998
   0.00000000  0.50004670  0.39185998
   0.50000000  0.00005308  0.39182257
   0.50000000  0.49994692  0.39182257
   0.25004670  0.25000000  0.39185998
   0.24994692  0.75000000  0.39182257
   0.74995330  0.25000000  0.39185998
   0.75005308  0.75000000  0.39182257
   0.00000000  0.25000000  0.45474758
   0.00000000  0.75000000  0.45469228
   0.50000000  0.25000000  0.45469228
   0.50000000  0.75000000  0.44960133
   0.24963124  0.00036876  0.45464919
   0.24963124  0.49963124  0.45464919
   0.75036876  0.00036876  0.45464919
   0.75036876  0.49963124  0.45464919
   0.50000000  0.75000000  0.50560069
   0.50000000  0.75000000  0.52989258
Direct configuration=     4
   0.00000000 -0.00013913  0.00101400
   0.00000000  0.50013913  0.00101400
   0.50000000  0.00017475  0.00103910
   0.50000000  0.49982525  0.00103910
   0.25013913  0.25000000  0.00101400
   0.24982525  0.75000000  0.00103910
   0.74986087  0.25000000  0.00101400
   0.75017475  0.75000000  0.00103910
   0.00000000  0.25000000  0.06534742
   0.00000000  0.75000000  0.06533408
   0.50000000  0.25000000  0.06533408
   0.50000000  0.75000000  0.06538819
   0.25003707 -0.00003707  0.06532857
   0.25003707  0.50003707  0.06532857
   0.74996293 -0.00003707  0.06532857
   0.74996293  0.50003707  0.06532857
   0.00000000 -0.00015060  0.13148868
   0.00000000  0.50015060  0.13148868
   0.50000000  0.00005207  0.13145940
   0.50000000  0.49994793  0.13145940
   0.25015060  0.25000000  0.13148868
   0.24994793  0.75000000  0.13145940
   0.74984940  0.25000000  0.13148868
   0.75005207  0.75000000  0.13145940
   0.00000000  0.25000000  0.19682007
   0.00000000  0.75000000  0.19697368
   0.50000000  0.25000000  0.19697368
   0.50000000  0.75000000  0.19683525
   0.25015362 -0.00015362  0.19684162
   0.25015362  0.50015362  0.19684162
   0.74984638 -0.00015362  0.19684162
   0.74984638  0.50015362  0.19684162
   0.00000000  0.00013700  0.26181098
   0.00000000  0.49986300  0.26181098
   0.50000000 -0.00002361  0.26194537
   0.50000000  0.50002361  0.26194537
   0.24986300  0.25000000  0.26181098
   0.25002361  0.75000000  0.26194537
   0.75013700  0.25000000  0.26181098
   0.74997639  0.75000000  0.26194537
   0.00000000  0.25000000  0.32705817
   0.00000000  0.75000000  0.32691541
   0.50000000  0.25000000  0.32691541
   0.50000000  0.75000000  0.32695273
   0.24987499  0.00012501  0.32689087
   0.24987499  0.49987499  0.32689087
   0.75012501  0.00012501  0.32689087
   0.75012501  0.49987499  0.32689087
   0.00000000 -0.00015994  0.39181255
   0.00000000  0.50015994  0.39181255
   0.50000000  0.00142285  0.39145739
   0.50000000  0.49857715  0.39145739
   0.25015994  0.25000000  0.39181255
   0.24857715  0.75000000  0.39145739
   0.74984006  0.25000000  0.39181255
   0.75142285  0.75000000  0.39145739
   0.00000000  0.25000000  0.45475131
   0.00000000  0.75000000  0.45454428
   0.50000000  0.25000000  0.45454428
   0.50000000  0.75000000  0.44391938
   0.24882113  0.00117887  0.45438682
   0.24882113  0.49882113  0.45438682
   0.75117887  0.00117887  0.45438682
   0.75117887  0.49882113  0.45438682
   0.50000000  0.75000000  0.50518901
   0.50000000  0.75000000  0.53808073
Direct configuration=     5
   0.00000000 -0.00009737  0.00067143
   0.00000000  0.50009737  0.00067143
   0.50000000  0.00011839  0.00068746
   0.50000000  0.49988161  0.00068746
   0.25009737  0.25000000  0.00067143
   0.24988161  0.75000000  0.00068746
   0.74990263  0.25000000  0.00067143
   0.75011839  0.75000000  0.00068746
   0.00000000  0.25000000  0.06539702
   0.00000000  0.75000000  0.06538802
   0.50000000  0.25000000  0.06538802
   0.50000000  0.75000000  0.06542570
   0.25002568 -0.00002568  0.06538446
   0.25002568  0.50002568  0.06538446
   0.74997432 -0.00002568  0.06538446
   0.74997432  0.50002568  0.06538446
   0.00000000 -0.00010132  0.13153882
   0.00000000  0.50010132  0.13153882
   0.50000000  0.00003372  0.13151894
   0.50000000  0.49996628  0.13151894
   0.25010132  0.25000000  0.13153882
   0.24996628  0.75000000  0.13151894
   0.74989868  0.25000000  0.13153882
   0.75003372  0.75000000  0.13151894
   0.00000000  0.25000000  0.19680693
   0.00000000  0.75000000  0.19691120
   0.50000000  0.25000000  0.19691120
   0.50000000  0.75000000  0.19681826
   0.25010270 -0.00010270  0.19682194
   0.25010270  0.50010270  0.19682194
   0.74989730 -0.00010270  0.19682194
   0.74989730  0.50010270  0.19682194
   0.00000000  0.00008924  0.26182573
   0.00000000  0.49991076  0.26182573
   0.50000000 -0.00001517  0.26191537
   0.50000000  0.50001517  0.26191537
   0.24991076  0.25000000  0.26182573
   0.25001517  0.75000000  0.26191537
   0.75008924  0.25000000  0.26182573
   0.74998483  0.75000000  0.26191537
   0.00000000  0.25000000  0.32723566
   0.00000000  0.75000000  0.32714013
   0.50000000  0.25000000  0.32714013
   0.50000000  0.75000000  0.32717100
   0.24991945  0.00008055  0.32712429
   0.24991945  0.49991945  0.32712429
   0.75008055  0.00008055  0.32712429
   0.75008055  0.49991945  0.32712429
   0.00000000 -0.00010500  0.39183556
   0.00000000  0.50010500  0.39183556
   0.50000000  0.00075828  0.39163456
   0.50000000  0.49924172  0.39163456
   0.25010500  0.25000000  0.39183556
   0.24924172  0.75000000  0.39163456
   0.74989500  0.25000000  0.39183556
   0.75075828  0.75000000  0.39163456
   0.00000000  0.25000000  0.45474950
   0.00000000  0.75000000  0.45461609
   0.50000000  0.25000000  0.45461609
   0.50000000  0.75000000  0.44667610
   0.24921417  0.00078583  0.45451411
   0.24921417  0.49921417  0.45451411
   0.75078583  0.00078583  0.45451411
   0.75078583  0.49921417  0.45451411
   0.50000000  0.75000000  0.50538875
   0.50000000  0.75000000  0.53410807
Direct configuration=     6
  -0.00000000 -0.00012883  0.00116789
  -0.00000000  0.50012883  0.00116789
   0.50000000  0.00017157  0.00119940
   0.50000000  0.49982843  0.00119940
   0.25012883  0.25000000  0.00116789
   0.24982843  0.75000000  0.00119940
   0.74987117  0.25000000  0.00116789
   0.75017157  0.75000000  0.00119940
  -0.00000000  0.25000000  0.06538419
  -0.00000000  0.75000000  0.06537022
   0.50000000  0.25000000  0.06537022
   0.50000000  0.75000000  0.06542181
   0.25003190 -0.00003190  0.06536535
   0.25003190  0.50003190  0.06536535
   0.74996810 -0.00003190  0.06536535
   0.74996810  0.50003190  0.06536535
  -0.00000000 -0.00016607  0.13148257
  -0.00000000  0.50016607  0.13148257
   0.50000000  0.00005787  0.13144953
   0.50000000  0.49994213  0.13144953
   0.25016607  0.25000000  0.13148257
   0.24994213  0.75000000  0.13144953
   0.74983393  0.25000000  0.13148257
   0.75005787  0.75000000  0.13144953
  -0.00000000  0.25000000  0.19681198
  -0.00000000  0.75000000  0.19697269
   0.50000000  0.25000000  0.19697269
   0.50000000  0.75000000  0.19682237
   0.25017107 -0.00017107  0.19683852
   0.25017107  0.50017107  0.19683852
   0.74982893 -0.00017107  0.19683852
   0.74982893  0.50017107  0.19683852
  -0.00000000  0.00016290  0.26177414
  -0.00000000  0.49983710  0.26177414
   0.50000000 -0.00003548  0.26192067
   0.50000000  0.50003548  0.26192067
   0.24983710  0.25000000  0.26177414
   0.25003548  0.75000000  0.26192067
   0.75016290  0.25000000  0.26177414
   0.74996452  0.75000000  0.26192067
  -0.00000000  0.25000000  0.32700175
  -0.00000000  0.75000000  0.32681270
   0.50000000  0.25000000  0.32681270
   0.50000000  0.75000000  0.32687401
   0.24981380  0.00018620  0.32680946
   0.24981380  0.49981380  0.32680946
   0.75018620  0.00018620  0.32680946
   0.75018620  0.49981380  0.32680946
  -0.00000000 -0.00013456  0.39174072
  -0.00000000  0.50013456  0.39174072
   0.50000000  0.00287861  0.39108993
   0.50000000  0.49712139  0.39108993
   0.25013456  0.25000000  0.39174072
   0.24712139  0.75000000  0.39108993
   0.74986544  0.25000000  0.39174072
   0.75287861  0.75000000  0.39108993
  -0.00000000  0.25000000  0.45476208
  -0.00000000  0.75000000  0.45449990
   0.50000000  0.25000000  0.45449990
   0.50000000  0.75000000  0.44579662
   0.24878199  0.00121801  0.45431424
   0.24878199  0.49878199  0.45431424
   0.75121801  0.00121801  0.45431424
   0.75121801  0.49878199  0.45431424
   0.50000000  0.75000000  0.50729410
   0.50000000  0.75000000  0.53568896
Direct configuration=     7
  -0.00000000 -0.00018881  0.00211460
  -0.00000000  0.50018881  0.00211460
   0.50000000  0.00027297  0.00217564
   0.50000000  0.49972703  0.00217564
   0.25018881  0.25000000  0.00211460
   0.24972703  0.75000000  0.00217564
   0.74981119  0.25000000  0.00211460
   0.75027297  0.75000000  0.00217564
  -0.00000000  0.25000000  0.06535971
  -0.00000000  0.75000000  0.06533627
   0.50000000  0.25000000  0.06533627
   0.50000000  0.75000000  0.06541439
   0.25004377 -0.00004377  0.06532891
   0.25004377  0.50004377  0.06532891
   0.74995623 -0.00004377  0.06532891
   0.74995623  0.50004377  0.06532891
  -0.00000000 -0.00028954  0.13137532
  -0.00000000  0.50028954  0.13137532
   0.50000000  0.00010391  0.13131717
   0.50000000  0.49989609  0.13131717
   0.25028954  0.25000000  0.13137532
   0.24989609  0.75000000  0.13131717
   0.74971046  0.25000000  0.13137532
   0.75010391  0.75000000  0.13131717
  -0.00000000  0.25000000  0.19682160
  -0.00000000  0.75000000  0.19708995
   0.50000000  0.25000000  0.19708995
   0.50000000  0.75000000  0.19683020
   0.25030143 -0.00030143  0.19687015
   0.25030143  0.50030143  0.19687015
   0.74969857 -0.00030143  0.19687015
   0.74969857  0.50030143  0.19687015
  -0.00000000  0.00030335  0.26167576
  -0.00000000  0.49969665  0.26167576
   0.50000000 -0.00007420  0.26193076
   0.50000000  0.50007420  0.26193076
   0.24969665  0.25000000  0.26167576
   0.25007420  0.75000000  0.26193076
   0.75030335  0.25000000  0.26167576
   0.74992580  0.75000000  0.26193076
  -0.00000000  0.25000000  0.32655570
  -0.00000000  0.75000000  0.32618830
   0.50000000  0.25000000  0.32618830
   0.50000000  0.75000000  0.32630767
   0.24961233  0.00038767  0.32620910
   0.24961233  0.49961233  0.32620910
   0.75038767  0.00038767  0.32620910
   0.75038767  0.49961233  0.32620910
  -0.00000000 -0.00019092  0.39155986
  -0.00000000  0.50019092  0.39155986
   0.50000000  0.00692194  0.39005135
   0.50000000  0.49307806  0.39005135
   0.25019092  0.25000000  0.39155986
   0.24307806  0.75000000  0.39005135
   0.74980908  0.25000000  0.39155986
   0.75692194  0.75000000  0.39005135
  -0.00000000  0.25000000  0.45478606
  -0.00000000  0.75000000  0.45427836
   0.50000000  0.25000000  0.45427836
   0.50000000  0.75000000  0.44411951
   0.24795785  0.00204215  0.45393308
   0.24795785  0.49795785  0.45393308
   0.75204215  0.00204215  0.45393308
   0.75204215  0.49795785  0.45393308
   0.50000000  0.75000000  0.51092749
   0.50000000  0.75000000  0.53870361
Direct configuration=     8
  -0.00000000 -0.00021526  0.00253212
  -0.00000000  0.50021526  0.00253212
   0.50000000  0.00031769  0.00260619
   0.50000000  0.49968231  0.00260619
   0.25021526  0.25000000  0.00253212
   0.24968231  0.75000000  0.00260619
   0.74978474  0.25000000  0.00253212
   0.75031769  0.75000000  0.00260619
  -0.00000000  0.25000000  0.06534892
  -0.00000000  0.75000000  0.06532130
   0.50000000  0.25000000  0.06532130
   0.50000000  0.75000000  0.06541112
   0.25004900 -0.00004900  0.06531284
   0.25004900  0.50004900  0.06531284
   0.74995100 -0.00004900  0.06531284
   0.74995100  0.50004900  0.06531284
  -0.00000000 -0.00034400  0.13132802
  -0.00000000  0.50034400  0.13132802
   0.50000000  0.00012421  0.13125880
   0.50000000  0.49987579  0.13125880
   0.25034400  0.25000000  0.13132802
   0.24987579  0.75000000  0.13125880
   0.74965600  0.25000000  0.13132802
   0.75012421  0.75000000  0.13125880
  -0.00000000  0.25000000  0.19682584
  -0.00000000  0.75000000  0.19714166
   0.50000000  0.25000000  0.19714166
   0.50000000  0.75000000  0.19683366
   0.25035893 -0.00035893  0.19688410
   0.25035893  0.50035893  0.19688410
   0.74964107 -0.00035893  0.19688410
   0.74964107  0.50035893  0.19688410
  -0.00000000  0.00036529  0.26163237
  -0.00000000  0.49963471  0.26163237
   0.50000000 -0.00009128  0.26193522
   0.50000000  0.50009128  0.26193522
   0.24963471  0.25000000  0.26163237
   0.25009128  0.75000000  0.26193522
   0.75036529  0.25000000  0.26163237
   0.74990872  0.75000000  0.26193522
  -0.00000000  0.25000000  0.32635898
  -0.00000000  0.75000000  0.32591293
   0.50000000  0.25000000  0.32591293
   0.50000000  0.75000000  0.32605790
   0.24952348  0.00047652  0.32594433
   0.24952348  0.49952348  0.32594433
   0.75047652  0.00047652  0.32594433
   0.75047652  0.49952348  0.32594433
  -0.00000000 -0.00021578  0.39148010
  -0.00000000  0.50021578  0.39148010
   0.50000000  0.00870514  0.38959331
   0.50000000  0.49129486  0.38959331
   0.25021578  0.25000000  0.39148010
   0.24129486  0.75000000  0.38959331
   0.74978422  0.25000000  0.39148010
   0.75870514  0.75000000  0.38959331
  -0.00000000  0.25000000  0.45479663
  -0.00000000  0.75000000  0.45418065
   0.50000000  0.25000000  0.45418065
   0.50000000  0.75000000  0.44337987
   0.24759439  0.00240561  0.45376498
   0.24759439  0.49759439  0.45376498
   0.75240561  0.00240561  0.45376498
   0.75240561  0.49759439  0.45376498
   0.50000000  0.75000000  0.51252990
   0.50000000  0.75000000  0.54003314
Direct configuration=     9
  -0.00000000 -0.00017035  0.00288131
  -0.00000000  0.50017035  0.00288131
   0.50000000  0.00027713  0.00296676
   0.50000000  0.49972287  0.00296676
   0.25017035  0.25000000  0.00288131
   0.24972287  0.75000000  0.00296676
   0.74982965  0.25000000  0.00288131
   0.75027713  0.75000000  0.00296676
  -0.00000000  0.25000000  0.06575651
  -0.00000000  0.75000000  0.06572639
   0.50000000  0.25000000  0.06572639
   0.50000000  0.75000000  0.06578842
   0.25000857 -0.00000857  0.06571937
   0.25000857  0.50000857  0.06571937
   0.74999143 -0.00000857  0.06571937
   0.74999143  0.50000857  0.06571937
  -0.00000000 -0.00035154  0.13140095
  -0.00000000  0.50035154  0.13140095
   0.50000000  0.00016291  0.13132012
   0.50000000  0.49983708  0.13132012
   0.25035154  0.25000000  0.13140095
   0.24983709  0.75000000  0.13132012
   0.74964846  0.25000000  0.13140095
   0.75016291  0.75000000  0.13132012
  -0.00000000  0.25000000  0.19668163
  -0.00000000  0.75000000  0.19704322
   0.50000000  0.25000000  0.19704322
   0.50000000  0.75000000  0.19673091
   0.25038997 -0.00038997  0.19678868
   0.25038997  0.50038997  0.19678868
   0.74961003 -0.00038997  0.19678868
   0.74961003  0.50038997  0.19678868
  -0.00000000  0.00039009  0.26136579
  -0.00000000  0.49960991  0.26136579
   0.50000000 -0.00013874  0.26167626
   0.50000000  0.50013874  0.26167626
   0.24960991  0.25000000  0.26136579
   0.25013874  0.75000000  0.26167626
   0.75039009  0.25000000  0.26136579
   0.74986126  0.75000000  0.26167626
  -0.00000000  0.25000000  0.32628620
  -0.00000000  0.75000000  0.32530535
   0.50000000  0.25000000  0.32530535
   0.50000000  0.75000000  0.32613450
   0.24913774  0.00086226  0.32569741
   0.24913774  0.49913774  0.32569741
   0.75086226  0.00086226  0.32569741
   0.75086226  0.49913774  0.32569741
  -0.00000000  0.00085645  0.39108431
  -0.00000000  0.49914355  0.39108431
   0.50000000  0.00861920  0.38916585
   0.50000000  0.49138080  0.38916585
   0.24914355  0.25000000  0.39108431
   0.24138080  0.75000000  0.38916585
   0.75085645  0.25000000  0.39108431
   0.75861920  0.75000000  0.38916585
  -0.00000000  0.25000000  0.45469429
  -0.00000000  0.75000000  0.45408003
   0.50000000  0.25000000  0.45408003
   0.50000000  0.75000000  0.44446050
   0.24823311  0.00176689  0.45338208
   0.24823311  0.49823311  0.45338208
   0.75176689  0.00176689  0.45338208
   0.75176689  0.49823311  0.45338208
   0.50000000  0.75000000  0.51360740
   0.50000000  0.75000000  0.54153259
Direct configuration=    10
  -0.00000000 -0.00004668  0.00384275
  -0.00000000  0.50004668  0.00384275
   0.50000000  0.00016545  0.00395958
   0.50000000  0.49983455  0.00395958
   0.25004668  0.25000000  0.00384275
   0.24983455  0.75000000  0.00395958
   0.74995332  0.25000000  0.00384275
   0.75016544  0.75000000  0.00395958
  -0.00000000  0.25000000  0.06687880
  -0.00000000  0.75000000  0.06684179
   0.50000000  0.25000000  0.06684179
   0.50000000  0.75000000  0.06682730
   0.24989726  0.00010274  0.06683870
   0.24989726  0.49989726  0.06683870
   0.75010274  0.00010274  0.06683870
   0.75010274  0.49989726  0.06683870
  -0.00000000 -0.00037232  0.13160176
  -0.00000000  0.50037232  0.13160176
   0.50000000  0.00026948  0.13148897
   0.50000000  0.49973052  0.13148897
   0.25037232  0.25000000  0.13160176
   0.24973052  0.75000000  0.13148897
   0.74962768  0.25000000  0.13160176
   0.75026948  0.75000000  0.13148897
  -0.00000000  0.25000000  0.19628455
  -0.00000000  0.75000000  0.19677217
   0.50000000  0.25000000  0.19677217
   0.50000000  0.75000000  0.19644801
   0.25047543 -0.00047543  0.19652594
   0.25047543  0.50047543  0.19652594
   0.74952457 -0.00047543  0.19652594
   0.74952457  0.50047543  0.19652594
  -0.00000000  0.00045836  0.26063179
  -0.00000000  0.49954164  0.26063179
   0.50000000 -0.00026942  0.26096325
   0.50000000  0.50026942  0.26096325
   0.24954164  0.25000000  0.26063179
   0.25026942  0.75000000  0.26096325
   0.75045836  0.25000000  0.26063179
   0.74973058  0.75000000  0.26096325
  -0.00000000  0.25000000  0.32608579
  -0.00000000  0.75000000  0.32363241
   0.50000000  0.25000000  0.32363241
   0.50000000  0.75000000  0.32634543
   0.24807563  0.00192437  0.32501756
   0.24807563  0.49807563  0.32501756
   0.75192437  0.00192437  0.32501756
   0.75192437  0.49807563  0.32501756
  -0.00000000  0.00380874  0.38999453
  -0.00000000  0.49619126  0.38999453
   0.50000000  0.00838259  0.38798890
   0.50000000  0.49161741  0.38798890
   0.24619126  0.25000000  0.38999453
   0.24161741  0.75000000  0.38798890
   0.75380874  0.25000000  0.38999453
   0.75838259  0.75000000  0.38798890
  -0.00000000  0.25000000  0.45441250
  -0.00000000  0.75000000  0.45380301
   0.50000000  0.25000000  0.45380301
   0.50000000  0.75000000  0.44743592
   0.24999176  0.00000824  0.45232779
   0.24999176  0.49999176  0.45232779
   0.75000824  0.00000824  0.45232779
   0.75000824  0.49999176  0.45232779
   0.50000000  0.75000000  0.51657419
   0.50000000  0.75000000  0.54566121
Direct configuration=    11
  -0.00000000 -0.00002490  0.00409795
  -0.00000000  0.50002490  0.00409795
   0.50000000  0.00014313  0.00421548
   0.50000000  0.49985687  0.00421548
   0.25002490  0.25000000  0.00409795
   0.24985687  0.75000000  0.00421548
   0.74997510  0.25000000  0.00409795
   0.75014313  0.75000000  0.00421548
  -0.00000000  0.25000000  0.06717614
  -0.00000000  0.75000000  0.06712874
   0.50000000  0.25000000  0.06712874
   0.50000000  0.75000000  0.06711414
   0.24987350  0.00012650  0.06713269
   0.24987350  0.49987350  0.06713269
   0.75012650  0.00012650  0.06713269
   0.75012650  0.49987350  0.06713269
  -0.00000000 -0.00036007  0.13172882
  -0.00000000  0.50036007  0.13172882
   0.50000000  0.00026127  0.13160912
   0.50000000  0.49973873  0.13160912
   0.25036007  0.25000000  0.13172882
   0.24973873  0.75000000  0.13160912
   0.74963993  0.25000000  0.13172882
   0.75026127  0.75000000  0.13160912
  -0.00000000  0.25000000  0.19617473
  -0.00000000  0.75000000  0.19666836
   0.50000000  0.25000000  0.19666836
   0.50000000  0.75000000  0.19636617
   0.25047839 -0.00047839  0.19643771
   0.25047839  0.50047839  0.19643771
   0.74952161 -0.00047839  0.19643771
   0.74952161  0.50047839  0.19643771
  -0.00000000  0.00061835  0.26040611
  -0.00000000  0.49938165  0.26040611
   0.50000000 -0.00050991  0.26076865
   0.50000000  0.50050991  0.26076865
   0.24938165  0.25000000  0.26040611
   0.25050991  0.75000000  0.26076865
   0.75061835  0.25000000  0.26040611
   0.74949009  0.75000000  0.26076865
  -0.00000000  0.25000000  0.32580473
  -0.00000000  0.75000000  0.32332423
   0.50000000  0.25000000  0.32332423
   0.50000000  0.75000000  0.32624600
   0.24798686  0.00201314  0.32479089
   0.24798686  0.49798686  0.32479089
   0.75201314  0.00201314  0.32479089
   0.75201314  0.49798686  0.32479089
  -0.00000000  0.00383392  0.38974770
  -0.00000000  0.49616608  0.38974770
   0.50000000  0.00774290  0.38785315
   0.50000000  0.49225710  0.38785315
   0.24616608  0.25000000  0.38974770
   0.24225710  0.75000000  0.38785315
   0.75383392  0.25000000  0.38974770
   0.75774290  0.75000000  0.38785315
  -0.00000000  0.25000000  0.45427356
  -0.00000000  0.75000000  0.45355866
   0.50000000  0.25000000  0.45355866
   0.50000000  0.75000000  0.44807367
   0.25048512 -0.00048512  0.45200193
   0.25048512  0.50048512  0.45200193
   0.74951488 -0.00048512  0.45200193
   0.74951488  0.50048512  0.45200193
   0.50000000  0.75000000  0.51803311
   0.50000000  0.75000000  0.54599543
Direct configuration=    12
  -0.00000000 -0.00000673  0.00431089
  -0.00000000  0.50000673  0.00431089
   0.50000000  0.00012451  0.00442900
   0.50000000  0.49987549  0.00442900
   0.25000673  0.25000000  0.00431089
   0.24987549  0.75000000  0.00442900
   0.74999327  0.25000000  0.00431089
   0.75012451  0.75000000  0.00442900
  -0.00000000  0.25000000  0.06742424
  -0.00000000  0.75000000  0.06736817
   0.50000000  0.25000000  0.06736817
   0.50000000  0.75000000  0.06735347
   0.24985367  0.00014633  0.06737799
   0.24985367  0.49985367  0.06737799
   0.75014633  0.00014633  0.06737799
   0.75014633  0.49985367  0.06737799
  -0.00000000 -0.00034986  0.13183483
  -0.00000000  0.50034986  0.13183483
   0.50000000  0.00025442  0.13170937
   0.50000000  0.49974558  0.13170937
   0.25034986  0.25000000  0.13183483
   0.24974558  0.75000000  0.13170937
   0.74965014  0.25000000  0.13183483
   0.75025442  0.75000000  0.13170937
  -0.00000000  0.25000000  0.19608311
  -0.00000000  0.75000000  0.19658175
   0.50000000  0.25000000  0.19658175
   0.50000000  0.75000000  0.19629790
   0.25048085 -0.00048085  0.19636410
   0.25048085  0.50048085  0.19636410
   0.74951915 -0.00048085  0.19636410
   0.74951915  0.50048085  0.19636410
  -0.00000000  0.00075184  0.26021781
  -0.00000000  0.49924816  0.26021781
   0.50000000 -0.00071057  0.26060629
   0.50000000  0.50071057  0.26060629
   0.24924816  0.25000000  0.26021781
   0.25071057  0.75000000  0.26060629
   0.75075184  0.25000000  0.26021781
   0.74928943  0.75000000  0.26060629
  -0.00000000  0.25000000  0.32557022
  -0.00000000  0.75000000  0.32306710
   0.50000000  0.25000000  0.32306710
   0.50000000  0.75000000  0.32616304
   0.24791280  0.00208720  0.32460177
   0.24791280  0.49791280  0.32460177
   0.75208720  0.00208720  0.32460177
   0.75208720  0.49791280  0.32460177
  -0.00000000  0.00385494  0.38954175