 145 145   0   0
  0.2265927E+02  0.1089000E-08  0.1089000E-08  0.2770500E-08  0.5000000E-15
  1.000000000000000E-004
  CAR 
 unknown system                          
     13.01692383    -16.94670542  301      1.63796718      1.00000000
    -16.947  0.0000E+00  0.0000E+00  0.0000E+00  0.0000E+00
    -16.847  0.0000E+00  0.0000E+00  0.0000E+00  0.0000E+00
    -16.747  0.0000E+00  0.0000E+00  0.0000E+00  0.0000E+00
    -16.647  0.0000E+00  0.0000E+00  0.0000E+00  0.0000E+00
    -16.547 -0.4352E-29 -0.4352E-29 -0.4346E-30 -0.4347E-30
    -16.447 -0.9406E-26 -0.9407E-26 -0.9399E-27 -0.9400E-27
    -16.347 -0.1229E-22 -0.1229E-22 -0.1229E-23 -0.1229E-23
    -16.248 -0.9705E-20 -0.9706E-20 -0.9706E-21 -0.9707E-21
    -16.148 -0.4624E-17 -0.4624E-17 -0.4628E-18 -0.4628E-18
    -16.048 -0.1285E-14 -0.1285E-14 -0.1288E-15 -0.1288E-15
    -15.948 -0.2205E-12 -0.2205E-12 -0.2215E-13 -0.2215E-13
    -15.848 -0.2265E-10 -0.2265E-10 -0.2285E-11 -0.2285E-11
    -15.748 -0.1387E-08 -0.1387E-08 -0.1408E-09 -0.1408E-09
    -15.648 -0.5024E-07 -0.5024E-07 -0.5159E-08 -0.5159E-08
    -15.548 -0.1062E-05 -0.1062E-05 -0.1113E-06 -0.1113E-06
    -15.449 -0.1279E-04 -0.1279E-04 -0.1389E-05 -0.1389E-05
    -15.349 -0.8302E-04 -0.8302E-04 -0.9681E-05 -0.9681E-05
    -15.249 -0.2433E-03 -0.2433E-03 -0.3398E-04 -0.3398E-04
    -15.149  0.1192E-04  0.1193E-04 -0.3279E-04 -0.3279E-04
    -15.049  0.1875E-02  0.1875E-02  0.1545E-03  0.1545E-03
    -14.949  0.4581E-02  0.4581E-02  0.6121E-03  0.6121E-03
    -14.849  0.4672E-02  0.4672E-02  0.1079E-02  0.1079E-02
    -14.749  0.2011E-02  0.2011E-02  0.1280E-02  0.1280E-02
    -14.649  0.5753E-04  0.5752E-04  0.1285E-02  0.1285E-02
    -14.550 -0.2490E-03 -0.2490E-03  0.1260E-02  0.1260E-02
    -14.450 -0.8936E-04 -0.8936E-04  0.1252E-02  0.1252E-02
    -14.350 -0.1423E-04 -0.1423E-04  0.1250E-02  0.1250E-02
    -14.250 -0.1216E-05 -0.1216E-05  0.1250E-02  0.1250E-02
    -14.150 -0.5908E-07 -0.5908E-07  0.1250E-02  0.1250E-02
    -14.050 -0.1674E-08 -0.1674E-08  0.1250E-02  0.1250E-02
    -13.950 -0.2805E-10 -0.2804E-10  0.1250E-02  0.1250E-02
    -13.850 -0.2799E-12 -0.2799E-12  0.1250E-02  0.1250E-02
    -13.751 -0.1673E-14 -0.1673E-14  0.1250E-02  0.1250E-02
    -13.651 -0.5558E-17 -0.5558E-17  0.1250E-02  0.1250E-02
    -13.551  0.0000E+00  0.0000E+00  0.1250E-02  0.1250E-02
    -13.451  0.0000E+00  0.0000E+00  0.1250E-02  0.1250E-02
    -13.351  0.0000E+00  0.0000E+00  0.1250E-02  0.1250E-02
    -13.251  0.0000E+00  0.0000E+00  0.1250E-02  0.1250E-02
    -13.151  0.0000E+00  0.0000E+00  0.1250E-02  0.1250E-02
    -13.051  0.0000E+00  0.0000E+00  0.1250E-02  0.1250E-02
    -12.952  0.0000E+00  0.0000E+00  0.1250E-02  0.1250E-02
    -12.852  0.0000E+00  0.0000E+00  0.1250E-02  0.1250E-02
    -12.752  0.0000E+00  0.0000E+00  0.1250E-02  0.1250E-02
    -12.652  0.0000E+00  0.0000E+00  0.1250E-02  0.1250E-02
    -12.552  0.0000E+00  0.0000E+00  0.1250E-02  0.1250E-02
    -12.452  0.0000E+00  0.0000E+00  0.1250E-02  0.1250E-02
    -12.352  0.0000E+00  0.0000E+00  0.1250E-02  0.1250E-02
    -12.252  0.0000E+00  0.0000E+00  0.1250E-02  0.1250E-02
    -12.153  0.0000E+00  0.0000E+00  0.1250E-02  0.1250E-02
    -12.053  0.0000E+00  0.0000E+00  0.1250E-02  0.1250E-02
    -11.953  0.0000E+00  0.0000E+00  0.1250E-02  0.1250E-02
    -11.853  0.0000E+00  0.0000E+00  0.1250E-02  0.1250E-02
    -11.753  0.0000E+00  0.0000E+00  0.1250E-02  0.1250E-02
    -11.653  0.0000E+00  0.0000E+00  0.1250E-02  0.1250E-02
    -11.553  0.0000E+00  0.0000E+00  0.1250E-02  0.1250E-02
    -11.453  0.0000E+00  0.0000E+00  0.1250E-02  0.1250E-02
    -11.353  0.0000E+00  0.0000E+00  0.1250E-02  0.1250E-02
    -11.254  0.0000E+00  0.0000E+00  0.1250E-02  0.1250E-02
    -11.154  0.0000E+00  0.0000E+00  0.1250E-02  0.1250E-02
    -11.054  0.0000E+00  0.0000E+00  0.1250E-02  0.1250E-02
    -10.954  0.0000E+00  0.0000E+00  0.1250E-02  0.1250E-02
    -10.854  0.0000E+00  0.0000E+00  0.1250E-02  0.1250E-02
    -10.754  0.0000E+00  0.0000E+00  0.1250E-02  0.1250E-02
    -10.654  0.0000E+00  0.0000E+00  0.1250E-02  0.1250E-02
    -10.554  0.0000E+00  0.0000E+00  0.1250E-02  0.1250E-02
    -10.455  0.0000E+00  0.0000E+00  0.1250E-02  0.1250E-02
    -10.355  0.0000E+00  0.0000E+00  0.1250E-02  0.1250E-02
    -10.255  0.0000E+00  0.0000E+00  0.1250E-02  0.1250E-02
    -10.155  0.0000E+00  0.0000E+00  0.1250E-02  0.1250E-02
    -10.055  0.0000E+00  0.0000E+00  0.1250E-02  0.1250E-02
     -9.955  0.0000E+00  0.0000E+00  0.1250E-02  0.1250E-02
     -9.855  0.0000E+00  0.0000E+00  0.1250E-02  0.1250E-02
     -9.755  0.0000E+00  0.0000E+00  0.1250E-02  0.1250E-02
     -9.656  0.0000E+00  0.0000E+00  0.1250E-02  0.1250E-02
     -9.556  0.0000E+00  0.0000E+00  0.1250E-02  0.1250E-02
     -9.456  0.0000E+00  0.0000E+00  0.1250E-02  0.1250E-02
     -9.356  0.0000E+00  0.0000E+00  0.1250E-02  0.1250E-02
     -9.256 -0.3918E-32 -0.3919E-32  0.1250E-02  0.1250E-02
     -9.156 -0.1143E-28 -0.1143E-28  0.1250E-02  0.1250E-02
     -9.056 -0.2017E-25 -0.2017E-25  0.1250E-02  0.1250E-02
     -8.956 -0.2150E-22 -0.2150E-22  0.1250E-02  0.1250E-02
     -8.857 -0.1385E-19 -0.1385E-19  0.1250E-02  0.1250E-02
     -8.757 -0.5224E-17 -0.5225E-17  0.1250E-02  0.1250E-02
     -8.657 -0.1215E-14 -0.1215E-14  0.1250E-02  0.1250E-02
     -8.557 -0.1697E-12 -0.1698E-12  0.1250E-02  0.1250E-02
     -8.457 -0.1420E-10 -0.1420E-10  0.1250E-02  0.1250E-02
     -8.357 -0.7078E-09 -0.7079E-09  0.1250E-02  0.1250E-02
     -8.257 -0.2092E-07 -0.2092E-07  0.1250E-02  0.1250E-02
     -8.157 -0.3634E-06 -0.3634E-06  0.1250E-02  0.1250E-02
     -8.057 -0.3664E-05 -0.3664E-05  0.1250E-02  0.1250E-02
     -7.958 -0.2091E-04 -0.2091E-04  0.1248E-02  0.1248E-02
     -7.858 -0.6277E-04 -0.6277E-04  0.1241E-02  0.1241E-02
     -7.758 -0.5967E-04 -0.5967E-04  0.1235E-02  0.1235E-02
     -7.658  0.2483E-03  0.2483E-03  0.1260E-02  0.1260E-02
     -7.558  0.1195E-02  0.1195E-02  0.1379E-02  0.1379E-02
     -7.458  0.2638E-02  0.2638E-02  0.1643E-02  0.1643E-02
     -7.358  0.3555E-02  0.3555E-02  0.1998E-02  0.1998E-02
     -7.258  0.2975E-02  0.2975E-02  0.2295E-02  0.2295E-02
     -7.159  0.1702E-02  0.1702E-02  0.2465E-02  0.2465E-02
     -7.059  0.2231E-02  0.2231E-02  0.2688E-02  0.2688E-02
     -6.959  0.5436E-02  0.5436E-02  0.3231E-02  0.3231E-02
     -6.859  0.8449E-02  0.8449E-02  0.4075E-02  0.4075E-02
     -6.759  0.7748E-02  0.7748E-02  0.4849E-02  0.4849E-02
     -6.659  0.4169E-02  0.4169E-02  0.5265E-02  0.5265E-02
     -6.559  0.2138E-02  0.2138E-02  0.5479E-02  0.5479E-02
     -6.459  0.4161E-02  0.4161E-02  0.5894E-02  0.5894E-02
     -6.360  0.8353E-02  0.8353E-02  0.6728E-02  0.6728E-02
     -6.260  0.1106E-01  0.1106E-01  0.7833E-02  0.7833E-02
     -6.160  0.1036E-01  0.1036E-01  0.8867E-02  0.8867E-02
     -6.060  0.7552E-02  0.7552E-02  0.9621E-02  0.9621E-02
     -5.960  0.6072E-02  0.6072E-02  0.1023E-01  0.1023E-01
     -5.860  0.7605E-02  0.7605E-02  0.1099E-01  0.1099E-01
     -5.760  0.1052E-01  0.1052E-01  0.1204E-01  0.1204E-01
     -5.660  0.1240E-01  0.1240E-01  0.1328E-01  0.1328E-01
     -5.561  0.1169E-01  0.1169E-01  0.1444E-01  0.1444E-01
     -5.461  0.9035E-02  0.9035E-02  0.1535E-01  0.1535E-01
     -5.361  0.8364E-02  0.8364E-02  0.1618E-01  0.1618E-01
     -5.261  0.1118E-01  0.1118E-01  0.1730E-01  0.1730E-01
     -5.161  0.1263E-01  0.1263E-01  0.1856E-01  0.1856E-01
     -5.061  0.1182E-01  0.1182E-01  0.1974E-01  0.1974E-01
     -4.961  0.1403E-01  0.1403E-01  0.2114E-01  0.2114E-01
     -4.861  0.1748E-01  0.1748E-01  0.2289E-01  0.2289E-01
     -4.761  0.1655E-01  0.1655E-01  0.2454E-01  0.2454E-01
     -4.662  0.1422E-01  0.1422E-01  0.2596E-01  0.2596E-01
     -4.562  0.1454E-01  0.1454E-01  0.2741E-01  0.2741E-01
     -4.462  0.1558E-01  0.1558E-01  0.2897E-01  0.2897E-01
     -4.362  0.1564E-01  0.1564E-01  0.3053E-01  0.3053E-01
     -4.262  0.1557E-01  0.1557E-01  0.3209E-01  0.3209E-01
     -4.162  0.1747E-01  0.1747E-01  0.3383E-01  0.3383E-01
     -4.062  0.2274E-01  0.2274E-01  0.3610E-01  0.3610E-01
     -3.962  0.2799E-01  0.2799E-01  0.3890E-01  0.3890E-01
     -3.863  0.2777E-01  0.2777E-01  0.4167E-01  0.4167E-01
     -3.763  0.2396E-01  0.2396E-01  0.4406E-01  0.4406E-01
     -3.663  0.2417E-01  0.2417E-01  0.4648E-01  0.4648E-01
     -3.563  0.3044E-01  0.3044E-01  0.4952E-01  0.4952E-01
     -3.463  0.4057E-01  0.4057E-01  0.5357E-01  0.5357E-01
     -3.363  0.5361E-01  0.5361E-01  0.5892E-01  0.5892E-01
     -3.263  0.6514E-01  0.6514E-01  0.6543E-01  0.6543E-01
     -3.163  0.7398E-01  0.7398E-01  0.7282E-01  0.7282E-01
     -3.064  0.8176E-01  0.8176E-01  0.8099E-01  0.8099E-01
     -2.964  0.8758E-01  0.8758E-01  0.8973E-01  0.8973E-01
     -2.864  0.9660E-01  0.9660E-01  0.9938E-01  0.9938E-01
     -2.764  0.1141E+00  0.1141E+00  0.1108E+00  0.1108E+00
     -2.664  0.1347E+00  0.1347E+00  0.1242E+00  0.1242E+00
     -2.564  0.1586E+00  0.1586E+00  0.1401E+00  0.1401E+00
     -2.464  0.1878E+00  0.1878E+00  0.1588E+00  0.1588E+00
     -2.364  0.2070E+00  0.2070E+00  0.1795E+00  0.1795E+00
     -2.265  0.2033E+00  0.2033E+00  0.1998E+00  0.1998E+00
     -2.165  0.1826E+00  0.1826E+00  0.2180E+00  0.2181E+00
     -2.065  0.1661E+00  0.1661E+00  0.2346E+00  0.2346E+00
     -1.965  0.1704E+00  0.1704E+00  0.2517E+00  0.2517E+00
     -1.865  0.1924E+00  0.1924E+00  0.2709E+00  0.2709E+00
     -1.765  0.2166E+00  0.2166E+00  0.2925E+00  0.2925E+00
     -1.665  0.2307E+00  0.2307E+00  0.3156E+00  0.3156E+00
     -1.565  0.2471E+00  0.2471E+00  0.3402E+00  0.3402E+00
     -1.465  0.2771E+00  0.2771E+00  0.3679E+00  0.3679E+00
     -1.366  0.3059E+00  0.3059E+00  0.3985E+00  0.3985E+00
     -1.266  0.3212E+00  0.3212E+00  0.4305E+00  0.4305E+00
     -1.166  0.3205E+00  0.3205E+00  0.4625E+00  0.4625E+00
     -1.066  0.3005E+00  0.3005E+00  0.4926E+00  0.4926E+00
     -0.966  0.2740E+00  0.2740E+00  0.5199E+00  0.5199E+00
     -0.866  0.2648E+00  0.2648E+00  0.5464E+00  0.5464E+00
     -0.766  0.2847E+00  0.2847E+00  0.5748E+00  0.5748E+00
     -0.666  0.3200E+00  0.3200E+00  0.6068E+00  0.6068E+00
     -0.567  0.3392E+00  0.3392E+00  0.6406E+00  0.6406E+00
     -0.467  0.3323E+00  0.3323E+00  0.6738E+00  0.6738E+00
     -0.367  0.3217E+00  0.3217E+00  0.7060E+00  0.7060E+00
     -0.267  0.3267E+00  0.3267E+00  0.7386E+00  0.7386E+00
     -0.167  0.3573E+00  0.3573E+00  0.7743E+00  0.7743E+00
     -0.067  0.4134E+00  0.4134E+00  0.8156E+00  0.8156E+00
      0.033  0.4546E+00  0.4546E+00  0.8610E+00  0.8610E+00
      0.133  0.4182E+00  0.4182E+00  0.9027E+00  0.9027E+00
      0.232  0.2935E+00  0.2935E+00  0.9320E+00  0.9320E+00
      0.332  0.1470E+00  0.1470E+00  0.9467E+00  0.9467E+00
      0.432  0.5645E-01  0.5645E-01  0.9524E+00  0.9524E+00
      0.532  0.3333E-01  0.3333E-01  0.9557E+00  0.9557E+00
      0.632  0.3804E-01  0.3804E-01  0.9595E+00  0.9595E+00
      0.732  0.4139E-01  0.4139E-01  0.9636E+00  0.9636E+00
      0.832  0.3762E-01  0.3762E-01  0.9674E+00  0.9674E+00
      0.932  0.3120E-01  0.3120E-01  0.9705E+00  0.9705E+00
      1.031  0.2576E-01  0.2576E-01  0.9731E+00  0.9731E+00
      1.131  0.2279E-01  0.2279E-01  0.9753E+00  0.9753E+00
      1.231  0.2719E-01  0.2719E-01  0.9781E+00  0.9781E+00
      1.331  0.3977E-01  0.3978E-01  0.9820E+00  0.9820E+00
      1.431  0.4679E-01  0.4679E-01  0.9867E+00  0.9867E+00
      1.531  0.4017E-01  0.4017E-01  0.9907E+00  0.9907E+00
      1.631  0.2863E-01  0.2863E-01  0.9936E+00  0.9936E+00
      1.731  0.2062E-01  0.2062E-01  0.9956E+00  0.9956E+00
      1.831  0.1901E-01  0.1901E-01  0.9975E+00  0.9975E+00
      1.930  0.2006E-01  0.2006E-01  0.9995E+00  0.9995E+00
      2.030  0.1997E-01  0.1997E-01  0.1002E+01  0.1002E+01
      2.130  0.2337E-01  0.2337E-01  0.1004E+01  0.1004E+01
      2.230  0.3020E-01  0.3020E-01  0.1007E+01  0.1007E+01
      2.330  0.3351E-01  0.3351E-01  0.1010E+01  0.1010E+01
      2.430  0.3226E-01  0.3226E-01  0.1013E+01  0.1013E+01
      2.530  0.3027E-01  0.3027E-01  0.1016E+01  0.1016E+01
      2.630  0.3116E-01  0.3116E-01  0.1020E+01  0.1020E+01
      2.729  0.3351E-01  0.3351E-01  0.1023E+01  0.1023E+01
      2.829  0.3120E-01  0.3120E-01  0.1026E+01  0.1026E+01
      2.929  0.2534E-01  0.2534E-01  0.1029E+01  0.1029E+01
      3.029  0.2039E-01  0.2039E-01  0.1031E+01  0.1031E+01
      3.129  0.1378E-01  0.1378E-01  0.1032E+01  0.1032E+01
      3.229  0.7380E-02  0.7380E-02  0.1033E+01  0.1033E+01
      3.329  0.1137E-01  0.1137E-01  0.1034E+01  0.1034E+01
      3.429  0.2609E-01  0.2609E-01  0.1036E+01  0.1036E+01
      3.528  0.3924E-01  0.3924E-01  0.1040E+01  0.1040E+01
      3.628  0.4177E-01  0.4177E-01  0.1045E+01  0.1045E+01
      3.728  0.3402E-01  0.3402E-01  0.1048E+01  0.1048E+01
      3.828  0.2370E-01  0.2370E-01  0.1050E+01  0.1050E+01
      3.928  0.2039E-01  0.2039E-01  0.1052E+01  0.1052E+01
      4.028  0.2278E-01  0.2278E-01  0.1055E+01  0.1055E+01
      4.128  0.2234E-01  0.2234E-01  0.1057E+01  0.1057E+01
      4.228  0.1923E-01  0.1923E-01  0.1059E+01  0.1059E+01
      4.327  0.1779E-01  0.1779E-01  0.1061E+01  0.1061E+01
      4.427  0.1704E-01  0.1704E-01  0.1062E+01  0.1062E+01
      4.527  0.1671E-01  0.1671E-01  0.1064E+01  0.1064E+01
      4.627  0.1909E-01  0.1909E-01  0.1066E+01  0.1066E+01
      4.727  0.2043E-01  0.2043E-01  0.1068E+01  0.1068E+01
      4.827  0.1756E-01  0.1756E-01  0.1070E+01  0.1070E+01
      4.927  0.1698E-01  0.1698E-01  0.1071E+01  0.1071E+01
      5.027  0.2131E-01  0.2131E-01  0.1073E+01  0.1073E+01
      5.127  0.2706E-01  0.2706E-01  0.1076E+01  0.1076E+01
      5.226  0.3373E-01  0.3373E-01  0.1080E+01  0.1080E+01
      5.326  0.3668E-01  0.3668E-01  0.1083E+01  0.1083E+01
      5.426  0.3060E-01  0.3060E-01  0.1086E+01  0.1086E+01
      5.526  0.2103E-01  0.2103E-01  0.1088E+01  0.1088E+01
      5.626  0.1899E-01  0.1899E-01  0.1090E+01  0.1090E+01
      5.726  0.2678E-01  0.2678E-01  0.1093E+01  0.1093E+01
      5.826  0.3282E-01  0.3281E-01  0.1096E+01  0.1096E+01
      5.926  0.2899E-01  0.2899E-01  0.1099E+01  0.1099E+01
      6.025  0.2199E-01  0.2200E-01  0.1101E+01  0.1101E+01
      6.125  0.1799E-01  0.1802E-01  0.1103E+01  0.1103E+01
      6.225  0.1720E-01  0.1726E-01  0.1105E+01  0.1105E+01
      6.325  0.2026E-01  0.2030E-01  0.1107E+01  0.1107E+01
      6.425  0.2589E-01  0.2590E-01  0.1109E+01  0.1109E+01
      6.525  0.3225E-01  0.3224E-01  0.1113E+01  0.1113E+01
      6.625  0.3944E-01  0.3947E-01  0.1117E+01  0.1117E+01
      6.725  0.4588E-01  0.4595E-01  0.1121E+01  0.1121E+01
      6.824  0.4683E-01  0.4685E-01  0.1126E+01  0.1126E+01
      6.924  0.3890E-01  0.3884E-01  0.1130E+01  0.1130E+01
      7.024  0.2749E-01  0.2745E-01  0.1132E+01  0.1132E+01
      7.124  0.2309E-01  0.2310E-01  0.1135E+01  0.1135E+01
      7.224  0.2588E-01  0.2589E-01  0.1137E+01  0.1137E+01
      7.324  0.2932E-01  0.2930E-01  0.1140E+01  0.1140E+01
      7.424  0.3292E-01  0.3297E-01  0.1144E+01  0.1144E+01
      7.524  0.3593E-01  0.3608E-01  0.1147E+01  0.1147E+01
      7.623  0.3480E-01  0.3489E-01  0.1151E+01  0.1151E+01
      7.723  0.3215E-01  0.3212E-01  0.1154E+01  0.1154E+01
      7.823  0.3211E-01  0.3204E-01  0.1157E+01  0.1157E+01
      7.923  0.3207E-01  0.3204E-01  0.1160E+01  0.1160E+01
      8.023  0.3171E-01  0.3173E-01  0.1163E+01  0.1163E+01
      8.123  0.3541E-01  0.3545E-01  0.1167E+01  0.1167E+01
      8.223  0.3988E-01  0.3988E-01  0.1171E+01  0.1171E+01
      8.323  0.3641E-01  0.3634E-01  0.1175E+01  0.1175E+01
      8.423  0.2594E-01  0.2586E-01  0.1177E+01  0.1177E+01
      8.522  0.2123E-01  0.2128E-01  0.1179E+01  0.1179E+01
      8.622  0.2988E-01  0.3005E-01  0.1182E+01  0.1182E+01
      8.722  0.4229E-01  0.4244E-01  0.1187E+01  0.1187E+01
      8.822  0.4842E-01  0.4849E-01  0.1191E+01  0.1191E+01
      8.922  0.4909E-01  0.4905E-01  0.1196E+01  0.1196E+01
      9.022  0.4435E-01  0.4420E-01  0.1201E+01  0.1201E+01
      9.122  0.3532E-01  0.3520E-01  0.1204E+01  0.1204E+01
      9.222  0.3178E-01  0.3183E-01  0.1207E+01  0.1207E+01
      9.321  0.3807E-01  0.3811E-01  0.1211E+01  0.1211E+01
      9.421  0.4213E-01  0.4199E-01  0.1215E+01  0.1215E+01
      9.521  0.3466E-01  0.3448E-01  0.1219E+01  0.1219E+01
      9.621  0.2587E-01  0.2593E-01  0.1221E+01  0.1221E+01
      9.721  0.3023E-01  0.3054E-01  0.1224E+01  0.1225E+01
      9.821  0.4431E-01  0.4463E-01  0.1229E+01  0.1229E+01
      9.921  0.5274E-01  0.5283E-01  0.1234E+01  0.1234E+01
     10.021  0.4924E-01  0.4904E-01  0.1239E+01  0.1239E+01
     10.120  0.4113E-01  0.4086E-01  0.1243E+01  0.1243E+01
     10.220  0.4185E-01  0.4180E-01  0.1247E+01  0.1247E+01
     10.320  0.5237E-01  0.5250E-01  0.1253E+01  0.1253E+01
     10.420  0.5520E-01  0.5523E-01  0.1258E+01  0.1258E+01
     10.520  0.4714E-01  0.4705E-01  0.1263E+01  0.1263E+01
     10.620  0.4304E-01  0.4298E-01  0.1267E+01  0.1267E+01
     10.720  0.4611E-01  0.4614E-01  0.1272E+01  0.1272E+01
     10.820  0.4903E-01  0.4908E-01  0.1277E+01  0.1277E+01
     10.919  0.4486E-01  0.4479E-01  0.1281E+01  0.1281E+01
     11.019  0.2975E-01  0.2956E-01  0.1284E+01  0.1284E+01
     11.119  0.1110E-01  0.1093E-01  0.1285E+01  0.1285E+01
     11.219  0.4764E-03  0.4189E-03  0.1285E+01  0.1285E+01
     11.319 -0.1449E-02 -0.1445E-02  0.1285E+01  0.1285E+01
     11.419 -0.6406E-03 -0.6320E-03  0.1285E+01  0.1285E+01
     11.519 -0.1307E-03 -0.1282E-03  0.1285E+01  0.1285E+01
     11.619 -0.1481E-04 -0.1446E-04  0.1285E+01  0.1285E+01
     11.718 -0.9790E-06 -0.9529E-06  0.1285E+01  0.1285E+01
     11.818 -0.3849E-07 -0.3740E-07  0.1285E+01  0.1285E+01
     11.918 -0.9083E-09 -0.8825E-09  0.1285E+01  0.1285E+01
     12.018 -0.1293E-10 -0.1258E-10  0.1285E+01  0.1285E+01
     12.118 -0.1113E-12 -0.1085E-12  0.1285E+01  0.1285E+01
     12.218 -0.5808E-15 -0.5691E-15  0.1285E+01  0.1285E+01
     12.318 -0.9263E-18 -0.1235E-17  0.1285E+01  0.1285E+01
     12.418  0.0000E+00  0.0000E+00  0.1285E+01  0.1285E+01
     12.518  0.0000E+00  0.0000E+00  0.1285E+01  0.1285E+01
     12.617  0.0000E+00  0.0000E+00  0.1285E+01  0.1285E+01
     12.717  0.0000E+00  0.0000E+00  0.1285E+01  0.1285E+01
     12.817  0.0000E+00  0.0000E+00  0.1285E+01  0.1285E+01
     12.917  0.0000E+00  0.0000E+00  0.1285E+01  0.1285E+01
     13.017  0.0000E+00  0.0000E+00  0.1285E+01  0.1285E+01
