  145  145  800    2
  0.2265927E+02  0.1089000E-08  0.1089000E-08  0.2770500E-08  0.5000000E-15
  1.000000000000000E-004
  CAR 
 unknown system                          
   1590      3   1028
 
  0.0000000E+00  0.0000000E+00  0.0000000E+00  0.1111111E+00
      1        -14.946704      -14.946705   1.000000   1.000000
      2         -7.596011       -7.596013   1.000000   1.000000
      3         -7.003575       -7.003576   1.000000   1.000000
      4         -6.309651       -6.309653   1.000000   1.000000
      5         -6.305504       -6.305505   1.000000   1.000000
      6         -6.305504       -6.305505   1.000000   1.000000
      7         -6.305497       -6.305499   1.000000   1.000000
      8         -6.190398       -6.190400   1.000000   1.000000
      9         -5.752990       -5.752991   1.000000   1.000000
     10         -5.752088       -5.752090   1.000000   1.000000
     11         -5.748013       -5.748015   1.000000   1.000000
     12         -5.748013       -5.748015   1.000000   1.000000
     13         -5.152006       -5.152007   1.000000   1.000000
     14         -5.149280       -5.149281   1.000000   1.000000
     15         -5.149280       -5.149281   1.000000   1.000000
     16         -5.147587       -5.147588   1.000000   1.000000
     17         -5.139725       -5.139726   1.000000   1.000000
     18         -5.009915       -5.009916   1.000000   1.000000
     19         -5.001952       -5.001953   1.000000   1.000000
     20         -5.001952       -5.001953   1.000000   1.000000
     21         -5.001321       -5.001322   1.000000   1.000000
     22         -4.704003       -4.704004   1.000000   1.000000
     23         -4.698782       -4.698783   1.000000   1.000000
     24         -4.698782       -4.698783   1.000000   1.000000
     25         -4.694267       -4.694268   1.000000   1.000000
     26         -4.165953       -4.165954   1.000000   1.000000
     27         -4.159376       -4.159377   1.000000   1.000000
     28         -4.159376       -4.159377   1.000000   1.000000
     29         -4.155635       -4.155636   1.000000   1.000000
     30         -4.080322       -4.080324   1.000000   1.000000
     31         -4.075026       -4.075028   1.000000   1.000000
     32         -4.075026       -4.075028   1.000000   1.000000
     33         -4.071694       -4.071696   1.000000   1.000000
     34         -4.034833       -4.034834   1.000000   1.000000
     35         -3.604892       -3.604893   1.000000   1.000000
     36         -3.599728       -3.599729   1.000000   1.000000
     37         -3.595965       -3.595966   1.000000   1.000000
     38         -3.595965       -3.595966   1.000000   1.000000
     39         -3.595055       -3.595056   1.000000   1.000000
     40         -3.592888       -3.592889   1.000000   1.000000
     41         -3.592888       -3.592889   1.000000   1.000000
     42         -3.592148       -3.592149   1.000000   1.000000
     43         -3.369489       -3.369490   1.000000   1.000000
     44         -3.225947       -3.225948   1.000000   1.000000
     45         -3.203154       -3.203154   1.000000   1.000000
     46         -3.201712       -3.201713   1.000000   1.000000
     47         -3.196644       -3.196645   1.000000   1.000000
     48         -3.192475       -3.192476   1.000000   1.000000
     49         -3.192475       -3.192476   1.000000   1.000000
     50         -3.165324       -3.165325   1.000000   1.000000
     51         -3.160356       -3.160357   1.000000   1.000000
     52         -3.160356       -3.160357   1.000000   1.000000
     53         -3.156356       -3.156358   1.000000   1.000000
     54         -3.138994       -3.138995   1.000000   1.000000
     55         -3.101879       -3.101880   1.000000   1.000000
     56         -3.101001       -3.101001   1.000000   1.000000
     57         -3.099309       -3.099310   1.000000   1.000000
     58         -3.099309       -3.099310   1.000000   1.000000
     59         -3.075860       -3.075861   1.000000   1.000000
     60         -3.075502       -3.075503   1.000000   1.000000
     61         -3.075502       -3.075503   1.000000   1.000000
     62         -3.075373       -3.075374   1.000000   1.000000
     63         -3.073283       -3.073284   1.000000   1.000000
     64         -3.073082       -3.073083   1.000000   1.000000
     65         -3.073082       -3.073083   1.000000   1.000000
     66         -3.072434       -3.072435   1.000000   1.000000
     67         -3.041134       -3.041135   1.000000   1.000000
     68         -3.008977       -3.008978   1.000000   1.000000
     69         -3.008698       -3.008699   1.000000   1.000000
     70         -3.008698       -3.008699   1.000000   1.000000
     71         -3.006600       -3.006601   1.000000   1.000000
     72         -2.951451       -2.951451   1.000000   1.000000
     73         -2.951451       -2.951451   1.000000   1.000000
     74         -2.949875       -2.949875   1.000000   1.000000
     75         -2.949753       -2.949753   1.000000   1.000000
     76         -2.935834       -2.935835   1.000000   1.000000
     77         -2.935834       -2.935835   1.000000   1.000000
     78         -2.933687       -2.933688   1.000000   1.000000
     79         -2.926596       -2.926597   1.000000   1.000000
     80         -2.913784       -2.913785   1.000000   1.000000
     81         -2.897924       -2.897924   1.000000   1.000000
     82         -2.805358       -2.805359   1.000000   1.000000
     83         -2.777262       -2.777262   1.000000   1.000000
     84         -2.777262       -2.777262   1.000000   1.000000
     85         -2.777022       -2.777022   1.000000   1.000000
     86         -2.776642       -2.776642   1.000000   1.000000
     87         -2.774026       -2.774027   1.000000   1.000000
     88         -2.757874       -2.757875   1.000000   1.000000
     89         -2.755099       -2.755099   1.000000   1.000000
     90         -2.755099       -2.755099   1.000000   1.000000
     91         -2.754185       -2.754186   1.000000   1.000000
     92         -2.752653       -2.752654   1.000000   1.000000
     93         -2.752653       -2.752654   1.000000   1.000000
     94         -2.752647       -2.752648   1.000000   1.000000
     95         -2.752020       -2.752021   1.000000   1.000000
     96         -2.752020       -2.752021   1.000000   1.000000
     97         -2.730725       -2.730726   1.000000   1.000000
     98         -2.728730       -2.728731   1.000000   1.000000
     99         -2.728730       -2.728731   1.000000   1.000000
    100         -2.724748       -2.724749   1.000000   1.000000
    101         -2.706846       -2.706846   1.000000   1.000000
    102         -2.700415       -2.700416   1.000000   1.000000
    103         -2.696679       -2.696680   1.000000   1.000000
    104         -2.696679       -2.696680   1.000000   1.000000
    105         -2.674352       -2.674353   1.000000   1.000000
    106         -2.625766       -2.625767   1.000000   1.000000
    107         -2.614863       -2.614864   1.000000   1.000000
    108         -2.575708       -2.575708   1.000000   1.000000
    109         -2.554639       -2.554640   1.000000   1.000000
    110         -2.554639       -2.554640   1.000000   1.000000
    111         -2.519156       -2.519157   1.000000   1.000000
    112         -2.509951       -2.509952   1.000000   1.000000
    113         -2.509951       -2.509952   1.000000   1.000000
    114         -2.506731       -2.506732   1.000000   1.000000
    115         -2.498871       -2.498872   1.000000   1.000000
    116         -2.498871       -2.498872   1.000000   1.000000
    117         -2.492843       -2.492844   1.000000   1.000000
    118         -2.477769       -2.477769   1.000000   1.000000
    119         -2.476352       -2.476352   1.000000   1.000000
    120         -2.473789       -2.473789   1.000000   1.000000
    121         -2.473789       -2.473789   1.000000   1.000000
    122         -2.448806       -2.448806   1.000000   1.000000
    123         -2.448806       -2.448806   1.000000   1.000000
    124         -2.440919       -2.440919   1.000000   1.000000
    125         -2.438486       -2.438486   1.000000   1.000000
    126         -2.438369       -2.438369   1.000000   1.000000
    127         -2.437060       -2.437061   1.000000   1.000000
    128         -2.437060       -2.437061   1.000000   1.000000
    129         -2.420218       -2.420218   1.000000   1.000000
    130         -2.413912       -2.413912   1.000000   1.000000
    131         -2.412241       -2.412242   1.000000   1.000000
    132         -2.412241       -2.412242   1.000000   1.000000
    133         -2.408335       -2.408335   1.000000   1.000000
    134         -2.406477       -2.406477   1.000000   1.000000
    135         -2.404026       -2.404027   1.000000   1.000000
    136         -2.404026       -2.404027   1.000000   1.000000
    137         -2.403682       -2.403682   1.000000   1.000000
    138         -2.402668       -2.402669   1.000000   1.000000
    139         -2.402668       -2.402669   1.000000   1.000000
    140         -2.402288       -2.402288   1.000000   1.000000
    141         -2.402071       -2.402071   1.000000   1.000000
    142         -2.385257       -2.385258   1.000000   1.000000
    143         -2.373696       -2.373697   1.000000   1.000000
    144         -2.373696       -2.373697   1.000000   1.000000
    145         -2.369750       -2.369751   1.000000   1.000000
    146         -2.361389       -2.361389   1.000000   1.000000
    147         -2.361389       -2.361389   1.000000   1.000000
    148         -2.360622       -2.360622   1.000000   1.000000
    149         -2.360457       -2.360457   1.000000   1.000000
    150         -2.352281       -2.352281   1.000000   1.000000
    151         -2.352281       -2.352281   1.000000   1.000000
    152         -2.351925       -2.351925   1.000000   1.000000
    153         -2.350033       -2.350034   1.000000   1.000000
    154         -2.336668       -2.336668   1.000000   1.000000
    155         -2.302254       -2.302255   1.000000   1.000000
    156         -2.302254       -2.302255   1.000000   1.000000
    157         -2.298872       -2.298872   1.000000   1.000000
    158         -2.297102       -2.297102   1.000000   1.000000
    159         -2.291956       -2.291957   1.000000   1.000000
    160         -2.291956       -2.291957   1.000000   1.000000
    161         -2.274918       -2.274918   1.000000   1.000000
    162         -2.274122       -2.274122   1.000000   1.000000
    163         -2.269414       -2.269415   1.000000   1.000000
    164         -2.269414       -2.269415   1.000000   1.000000
    165         -2.268190       -2.268191   1.000000   1.000000
    166         -2.267618       -2.267618   1.000000   1.000000
    167         -2.264181       -2.264181   1.000000   1.000000
    168         -2.264181       -2.264181   1.000000   1.000000
    169         -2.257437       -2.257438   1.000000   1.000000
    170         -2.256116       -2.256117   1.000000   1.000000
    171         -2.251754       -2.251754   1.000000   1.000000
    172         -2.251754       -2.251754   1.000000   1.000000
    173         -2.245795       -2.245796   1.000000   1.000000
    174         -2.213203       -2.213203   1.000000   1.000000
    175         -2.213203       -2.213203   1.000000   1.000000
    176         -2.210261       -2.210262   1.000000   1.000000
    177         -2.178647       -2.178648   1.000000   1.000000
    178         -2.168972       -2.168973   1.000000   1.000000
    179         -2.155905       -2.155906   1.000000   1.000000
    180         -2.155905       -2.155906   1.000000   1.000000
    181         -2.124189       -2.124189   1.000000   1.000000
    182         -2.108914       -2.108914   1.000000   1.000000
    183         -2.108914       -2.108914   1.000000   1.000000
    184         -2.105982       -2.105983   1.000000   1.000000
    185         -2.095899       -2.095900   1.000000   1.000000
    186         -2.092763       -2.092763   1.000000   1.000000
    187         -2.088442       -2.088443   1.000000   1.000000
    188         -2.088442       -2.088443   1.000000   1.000000
    189         -2.069046       -2.069047   1.000000   1.000000
    190         -2.064845       -2.064845   1.000000   1.000000
    191         -2.062277       -2.062278   1.000000   1.000000
    192         -2.049024       -2.049024   1.000000   1.000000
    193         -2.047373       -2.047373   1.000000   1.000000
    194         -2.047373       -2.047373   1.000000   1.000000
    195         -2.031237       -2.031238   1.000000   1.000000
    196         -2.026859       -2.026860   1.000000   1.000000
    197         -2.026859       -2.026860   1.000000   1.000000
    198         -2.026795       -2.026796   1.000000   1.000000
    199         -2.026214       -2.026214   1.000000   1.000000
    200         -2.001551       -2.001551   1.000000   1.000000
    201         -1.986458       -1.986459   1.000000   1.000000
    202         -1.986458       -1.986459   1.000000   1.000000
    203         -1.943317       -1.943317   1.000000   1.000000
    204         -1.943317       -1.943317   1.000000   1.000000
    205         -1.942903       -1.942903   1.000000   1.000000
    206         -1.936499       -1.936499   1.000000   1.000000
    207         -1.934331       -1.934332   1.000000   1.000000
    208         -1.931137       -1.931137   1.000000   1.000000
    209         -1.931137       -1.931137   1.000000   1.000000
    210         -1.914789       -1.914789   1.000000   1.000000
    211         -1.890373       -1.890373   1.000000   1.000000
    212         -1.877555       -1.877555   1.000000   1.000000
    213         -1.877555       -1.877555   1.000000   1.000000
    214         -1.865966       -1.865966   1.000000   1.000000
    215         -1.865966       -1.865966   1.000000   1.000000
    216         -1.865420       -1.865420   1.000000   1.000000
    217         -1.856120       -1.856121   1.000000   1.000000
    218         -1.855505       -1.855506   1.000000   1.000000
    219         -1.838617       -1.838617   1.000000   1.000000
    220         -1.838617       -1.838617   1.000000   1.000000
    221         -1.838533       -1.838534   1.000000   1.000000
    222         -1.833784       -1.833784   1.000000   1.000000
    223         -1.833784       -1.833784   1.000000   1.000000
    224         -1.831964       -1.831964   1.000000   1.000000
    225         -1.821900       -1.821901   1.000000   1.000000
    226         -1.820151       -1.820152   1.000000   1.000000
    227         -1.819535       -1.819535   1.000000   1.000000
    228         -1.818767       -1.818768   1.000000   1.000000
    229         -1.818767       -1.818768   1.000000   1.000000
    230         -1.811325       -1.811326   1.000000   1.000000
    231         -1.778863       -1.778864   1.000000   1.000000
    232         -1.771169       -1.771170   1.000000   1.000000
    233         -1.771169       -1.771170   1.000000   1.000000
    234         -1.751839       -1.751840   1.000000   1.000000
    235         -1.751839       -1.751840   1.000000   1.000000
    236         -1.751780       -1.751780   1.000000   1.000000
    237         -1.750353       -1.750353   1.000000   1.000000
    238         -1.749451       -1.749452   1.000000   1.000000
    239         -1.746451       -1.746451   1.000000   1.000000
    240         -1.741407       -1.741407   1.000000   1.000000
    241         -1.733707       -1.733707   1.000000   1.000000
    242         -1.733707       -1.733707   1.000000   1.000000
    243         -1.732937       -1.732938   1.000000   1.000000
    244         -1.731228       -1.731228   1.000000   1.000000
    245         -1.725997       -1.725997   1.000000   1.000000
    246         -1.725889       -1.725889   1.000000   1.000000
    247         -1.725889       -1.725889   1.000000   1.000000
    248         -1.725545       -1.725545   1.000000   1.000000
    249         -1.708722       -1.708722   1.000000   1.000000
    250         -1.708722       -1.708722   1.000000   1.000000
    251         -1.698354       -1.698355   1.000000   1.000000
    252         -1.671122       -1.671122   1.000000   1.000000
    253         -1.671122       -1.671122   1.000000   1.000000
    254         -1.648114       -1.648115   1.000000   1.000000
    255         -1.644836       -1.644837   1.000000   1.000000
    256         -1.644836       -1.644837   1.000000   1.000000
    257         -1.641240       -1.641240   1.000000   1.000000
    258         -1.641240       -1.641240   1.000000   1.000000
    259         -1.640979       -1.640979   1.000000   1.000000
    260         -1.640349       -1.640350   1.000000   1.000000
    261         -1.625319       -1.625319   1.000000   1.000000
    262         -1.578054       -1.578054   1.000000   1.000000
    263         -1.577385       -1.577386   1.000000   1.000000
    264         -1.567731       -1.567732   1.000000   1.000000
    265         -1.567731       -1.567732   1.000000   1.000000
    266         -1.566226       -1.566226   1.000000   1.000000
    267         -1.562913       -1.562914   1.000000   1.000000
    268         -1.562913       -1.562914   1.000000   1.000000
    269         -1.562037       -1.562037   1.000000   1.000000
    270         -1.557447       -1.557448   1.000000   1.000000
    271         -1.550923       -1.550924   1.000000   1.000000
    272         -1.548779       -1.548779   1.000000   1.000000
    273         -1.548545       -1.548545   1.000000   1.000000
    274         -1.548545       -1.548545   1.000000   1.000000
    275         -1.536421       -1.536421   1.000000   1.000000
    276         -1.534866       -1.534866   1.000000   1.000000
    277         -1.534866       -1.534866   1.000000   1.000000
    278         -1.527009       -1.527010   1.000000   1.000000
    279         -1.522986       -1.522986   1.000000   1.000000
    280         -1.502380       -1.502380   1.000000   1.000000
    281         -1.502380       -1.502380   1.000000   1.000000
    282         -1.497460       -1.497461   1.000000   1.000000
    283         -1.495931       -1.495931   1.000000   1.000000
    284         -1.495882       -1.495883   1.000000   1.000000
    285         -1.491663       -1.491664   1.000000   1.000000
    286         -1.481781       -1.481781   1.000000   1.000000
    287         -1.481781       -1.481781   1.000000   1.000000
    288         -1.478125       -1.478126   1.000000   1.000000
    289         -1.478125       -1.478126   1.000000   1.000000
    290         -1.476744       -1.476744   1.000000   1.000000
    291         -1.464335       -1.464335   1.000000   1.000000
    292         -1.463347       -1.463347   1.000000   1.000000
    293         -1.446140       -1.446140   1.000000   1.000000
    294         -1.446140       -1.446140   1.000000   1.000000
    295         -1.431862       -1.431862   1.000000   1.000000
    296         -1.416485       -1.416485   1.000000   1.000000
    297         -1.416485       -1.416485   1.000000   1.000000
    298         -1.416055       -1.416055   1.000000   1.000000
    299         -1.397668       -1.397669   1.000000   1.000000
    300         -1.391000       -1.391000   1.000000   1.000000
    301         -1.391000       -1.391000   1.000000   1.000000
    302         -1.387055       -1.387056   1.000000   1.000000
    303         -1.381782       -1.381783   1.000000   1.000000
    304         -1.381782       -1.381783   1.000000   1.000000
    305         -1.372326       -1.372326   1.000000   1.000000
    306         -1.368025       -1.368026   1.000000   1.000000
    307         -1.368025       -1.368026   1.000000   1.000000
    308         -1.362737       -1.362737   1.000000   1.000000
    309         -1.362509       -1.362509   1.000000   1.000000
    310         -1.362509       -1.362509   1.000000   1.000000
    311         -1.362287       -1.362288   1.000000   1.000000
    312         -1.358372       -1.358373   1.000000   1.000000
    313         -1.358372       -1.358373   1.000000   1.000000
    314         -1.350727       -1.350727   1.000000   1.000000
    315         -1.343376       -1.343376   1.000000   1.000000
    316         -1.342386       -1.342386   1.000000   1.000000
    317         -1.340480       -1.340481   1.000000   1.000000
    318         -1.335412       -1.335412   1.000000   1.000000
    319         -1.335412       -1.335412   1.000000   1.000000
    320         -1.334458       -1.334458   1.000000   1.000000
    321         -1.333648       -1.333649   1.000000   1.000000
    322         -1.331969       -1.331969   1.000000   1.000000
    323         -1.331969       -1.331969   1.000000   1.000000
    324         -1.331796       -1.331796   1.000000   1.000000
    325         -1.330773       -1.330774   1.000000   1.000000
    326         -1.330773       -1.330774   1.000000   1.000000
    327         -1.329080       -1.329081   1.000000   1.000000
    328         -1.327396       -1.327396   1.000000   1.000000
    329         -1.325558       -1.325559   1.000000   1.000000
    330         -1.324472       -1.324473   1.000000   1.000000
    331         -1.324472       -1.324473   1.000000   1.000000
    332         -1.292792       -1.292792   1.000000   1.000000
    333         -1.291201       -1.291201   1.000000   1.000000
    334         -1.291201       -1.291201   1.000000   1.000000
    335         -1.291032       -1.291032   1.000000   1.000000
    336         -1.289108       -1.289108   1.000000   1.000000
    337         -1.287051       -1.287051   1.000000   1.000000
    338         -1.287051       -1.287051   1.000000   1.000000
    339         -1.285183       -1.285183   1.000000   1.000000
    340         -1.281752       -1.281753   1.000000   1.000000
    341         -1.276815       -1.276816   1.000000   1.000000
    342         -1.276736       -1.276737   1.000000   1.000000
    343         -1.276736       -1.276737   1.000000   1.000000
    344         -1.275267       -1.275267   1.000000   1.000000
    345         -1.272412       -1.272413   1.000000   1.000000
    346         -1.271084       -1.271084   1.000000   1.000000
    347         -1.252444       -1.252445   1.000000   1.000000
    348         -1.252444       -1.252445   1.000000   1.000000
    349         -1.239043       -1.239043   1.000000   1.000000
    350         -1.234367       -1.234367   1.000000   1.000000
    351         -1.231110       -1.231110   1.000000   1.000000
    352         -1.231110       -1.231110   1.000000   1.000000
    353         -1.229050       -1.229051   1.000000   1.000000
    354         -1.228846       -1.228846   1.000000   1.000000
    355         -1.228803       -1.228804   1.000000   1.000000
    356         -1.228803       -1.228804   1.000000   1.000000
    357         -1.226280       -1.226280   1.000000   1.000000
    358         -1.219909       -1.219910   1.000000   1.000000
    359         -1.212028       -1.212028   1.000000   1.000000
    360         -1.211878       -1.211879   1.000000   1.000000
    361         -1.211588       -1.211588   1.000000   1.000000
    362         -1.211588       -1.211588   1.000000   1.000000
    363         -1.206387       -1.206387   1.000000   1.000000
    364         -1.206387       -1.206387   1.000000   1.000000
    365         -1.198187       -1.198188   1.000000   1.000000
    366         -1.196215       -1.196215   1.000000   1.000000
    367         -1.196215       -1.196215   1.000000   1.000000
    368         -1.189310       -1.189310   1.000000   1.000000
    369         -1.187220       -1.187221   1.000000   1.000000
    370         -1.187220       -1.187221   1.000000   1.000000
    371         -1.186475       -1.186475   1.000000   1.000000
    372         -1.184567       -1.184568   1.000000   1.000000
    373         -1.184470       -1.184471   1.000000   1.000000
    374         -1.183263       -1.183263   1.000000   1.000000
    375         -1.183194       -1.183195   1.000000   1.000000
    376         -1.182167       -1.182167   1.000000   1.000000
    377         -1.182167       -1.182167   1.000000   1.000000
    378         -1.181186       -1.181187   1.000000   1.000000
    379         -1.181186       -1.181187   1.000000   1.000000
    380         -1.162714       -1.162715   1.000000   1.000000
    381         -1.158123       -1.158123   1.000000   1.000000
    382         -1.158123       -1.158123   1.000000   1.000000
    383         -1.153666       -1.153666   1.000000   1.000000
    384         -1.146552       -1.146553   1.000000   1.000000
    385         -1.144853       -1.144854   1.000000   1.000000
    386         -1.144853       -1.144854   1.000000   1.000000
    387         -1.135354       -1.135354   1.000000   1.000000
    388         -1.129298       -1.129298   1.000000   1.000000
    389         -1.129298       -1.129298   1.000000   1.000000
    390         -1.126045       -1.126046   1.000000   1.000000
    391         -1.114048       -1.114048   1.000000   1.000000
    392         -1.109001       -1.109002   1.000000   1.000000
    393         -1.108417       -1.108417   1.000000   1.000000
    394         -1.108417       -1.108417   1.000000   1.000000
    395         -1.104569       -1.104569   1.000000   1.000000
    396         -1.033106       -1.033107   1.000000   1.000000
    397         -1.022585       -1.022586   1.000000   1.000000
    398         -1.022585       -1.022586   1.000000   1.000000
    399         -1.019495       -1.019495   1.000000   1.000000
    400         -1.018082       -1.018083   1.000000   1.000000
    401         -1.018082       -1.018083   1.000000   1.000000
    402         -1.016475       -1.016475   1.000000   1.000000
    403         -1.015480       -1.015481   1.000000   1.000000
    404         -1.000440       -1.000440   1.000000   1.000000
    405         -1.000440       -1.000440   1.000000   1.000000
    406         -0.998754       -0.998754   1.000000   1.000000
    407         -0.998721       -0.998721   1.000000   1.000000
    408         -0.990069       -0.990069   1.000000   1.000000
    409         -0.983593       -0.983594   1.000000   1.000000
    410         -0.983546       -0.983546   1.000000   1.000000
    411         -0.983546       -0.983546   1.000000   1.000000
    412         -0.983277       -0.983278   1.000000   1.000000
    413         -0.978539       -0.978539   1.000000   1.000000
    414         -0.978538       -0.978539   1.000000   1.000000
    415         -0.977980       -0.977980   1.000000   1.000000
    416         -0.977506       -0.977506   1.000000   1.000000
    417         -0.977081       -0.977082   1.000000   1.000000
    418         -0.977081       -0.977082   1.000000   1.000000
    419         -0.972295       -0.972295   1.000000   1.000000
    420         -0.972295       -0.972295   1.000000   1.000000
    421         -0.966120       -0.966120   1.000000   1.000000
    422         -0.966120       -0.966120   1.000000   1.000000
    423         -0.962661       -0.962661   1.000000   1.000000
    424         -0.946447       -0.946447   1.000000   1.000000
    425         -0.937986       -0.937986   1.000000   1.000000
    426         -0.931999       -0.931999   1.000000   1.000000
    427         -0.931999       -0.931999   1.000000   1.000000
    428         -0.930527       -0.930527   1.000000   1.000000
    429         -0.919997       -0.919997   1.000000   1.000000
    430         -0.919451       -0.919451   1.000000   1.000000
    431         -0.913762       -0.913763   1.000000   1.000000
    432         -0.913762       -0.913763   1.000000   1.000000
    433         -0.909208       -0.909208   1.000000   1.000000
    434         -0.906372       -0.906372   1.000000   1.000000
    435         -0.905222       -0.905222   1.000000   1.000000
    436         -0.905222       -0.905222   1.000000   1.000000
    437         -0.897320       -0.897320   1.000000   1.000000
    438         -0.891124       -0.891124   1.000000   1.000000
    439         -0.889180       -0.889180   1.000000   1.000000
    440         -0.889180       -0.889180   1.000000   1.000000
    441         -0.886973       -0.886973   1.000000   1.000000
    442         -0.886270       -0.886270   1.000000   1.000000
    443         -0.883796       -0.883796   1.000000   1.000000
    444         -0.874951       -0.874952   1.000000   1.000000
    445         -0.874951       -0.874952   1.000000   1.000000
    446         -0.872995       -0.872995   1.000000   1.000000
    447         -0.869364       -0.869364   1.000000   1.000000
    448         -0.869364       -0.869364   1.000000   1.000000
    449         -0.868333       -0.868333   1.000000   1.000000
    450         -0.858977       -0.858978   1.000000   1.000000
    451         -0.858977       -0.858978   1.000000   1.000000
    452         -0.839120       -0.839120   1.000000   1.000000
    453         -0.824249       -0.824249   1.000000   1.000000
    454         -0.822670       -0.822670   1.000000   1.000000
    455         -0.822015       -0.822015   1.000000   1.000000
    456         -0.822015       -0.822015   1.000000   1.000000
    457         -0.815698       -0.815699   1.000000   1.000000
    458         -0.805673       -0.805673   1.000000   1.000000
    459         -0.805673       -0.805673   1.000000   1.000000
    460         -0.789876       -0.789877   1.000000   1.000000
    461         -0.776907       -0.776907   1.000000   1.000000
    462         -0.771056       -0.771056   1.000000   1.000000
    463         -0.763310       -0.763310   1.000000   1.000000
    464         -0.763310       -0.763310   1.000000   1.000000