unknown system                          
           1
    10.890000    0.000000    0.000000
     0.000000   10.890000    0.000000
     0.000000    0.000000   27.705000
   Cu   O 
   144     1
Direct configuration=     1
   0.00000000  0.00000000  0.00000000
   0.00000000  0.33333333  0.00000000
   0.00000000  0.66666667  0.00000000
   0.33333333  0.00000000  0.00000000
   0.33333333  0.33333333  0.00000000
   0.33333333  0.66666667  0.00000000
   0.66666667  0.00000000  0.00000000
   0.66666667  0.33333333  0.00000000
   0.66666667  0.66666667  0.00000000
   0.16666667  0.16666667  0.00000000
   0.16666667  0.50000000  0.00000000
   0.16666667  0.83333333  0.00000000
   0.50000000  0.16666667  0.00000000
   0.50000000  0.50000000  0.00000000
   0.50000000  0.83333333  0.00000000
   0.83333333  0.16666667  0.00000000
   0.83333333  0.50000000  0.00000000
   0.83333333  0.83333333  0.00000000
   0.00000000  0.16666667  0.06551164
   0.00000000  0.50000000  0.06551164
   0.00000000  0.83333333  0.06551164
   0.33333333  0.16666667  0.06551164
   0.33333333  0.50000000  0.06551164
   0.33333333  0.83333333  0.06551164
   0.66666667  0.16666667  0.06551164
   0.66666667  0.50000000  0.06551164
   0.66666667  0.83333333  0.06551164
   0.16666667  0.00000000  0.06551164
   0.16666667  0.33333333  0.06551164
   0.16666667  0.66666667  0.06551164
   0.50000000  0.00000000  0.06551164
   0.50000000  0.33333333  0.06551164
   0.50000000  0.66666667  0.06551164
   0.83333333  0.00000000  0.06551164
   0.83333333  0.33333333  0.06551164
   0.83333333  0.66666667  0.06551164
   0.00000000  0.00000000  0.13119553
   0.00000000  0.33333333  0.13119553
   0.00000000  0.66666667  0.13119553
   0.33333333  0.00000000  0.13119553
   0.33333333  0.33333333  0.13119553
   0.33333333  0.66666667  0.13119553
   0.66666667  0.00000000  0.13119553
   0.66666667  0.33333333  0.13119553
   0.66666667  0.66666667  0.13119553
   0.16666667  0.16666667  0.13119553
   0.16666667  0.50000000  0.13119553
   0.16666667  0.83333333  0.13119553
   0.50000000  0.16666667  0.13119553
   0.50000000  0.50000000  0.13119553
   0.50000000  0.83333333  0.13119553
   0.83333333  0.16666667  0.13119553
   0.83333333  0.50000000  0.13119553
   0.83333333  0.83333333  0.13119553
   0.00000000  0.16666667  0.19620680
   0.00000000  0.50000000  0.19620680
   0.00000000  0.83333333  0.19620680
   0.33333333  0.16666667  0.19620680
   0.33333333  0.50000000  0.19620680
   0.33333333  0.83333333  0.19620680
   0.66666667  0.16666667  0.19620680
   0.66666667  0.50000000  0.19620680
   0.66666667  0.83333333  0.19620680
   0.16666667  0.00000000  0.19620680
   0.16666667  0.33333333  0.19620680
   0.16666667  0.66666667  0.19620680
   0.50000000  0.00000000  0.19620680
   0.50000000  0.33333333  0.19620680
   0.50000000  0.66666667  0.19620680
   0.83333333  0.00000000  0.19620680
   0.83333333  0.33333333  0.19620680
   0.83333333  0.66666667  0.19620680
   0.00000000  0.00000000  0.25873860
   0.00000000  0.33333333  0.25873860
   0.00000000  0.66666667  0.25873860
   0.33333333  0.00000000  0.25873860
   0.33333333  0.33333333  0.25873860
   0.33333333  0.66666667  0.25873860
   0.66666667  0.00000000  0.25873860
   0.66666667  0.33333333  0.25873860
   0.66666667  0.66666667  0.25873860
   0.16666667  0.16666667  0.25873860
   0.16666667  0.50000000  0.25873860
   0.16666667  0.83333333  0.25873860
   0.50000000  0.16666667  0.25873860
   0.50000000  0.50000000  0.25873860
   0.50000000  0.83333333  0.25873860
   0.83333333  0.16666667  0.25873860
   0.83333333  0.50000000  0.25873860
   0.83333333  0.83333333  0.25873860
   0.00000000  0.16666667  0.32119954
   0.00000000  0.50000000  0.32119954
   0.00000000  0.83333333  0.32119954
   0.33333333  0.16666667  0.32119954
   0.33333333  0.50000000  0.32119954
   0.33333333  0.83333333  0.32119954
   0.66666667  0.16666667  0.32119954
   0.66666667  0.50000000  0.32119954
   0.66666667  0.83333333  0.32119954
   0.16666667  0.00000000  0.32119954
   0.16666667  0.33333333  0.32119954
   0.16666667  0.66666667  0.32119954
   0.50000000  0.00000000  0.32119954
   0.50000000  0.33333333  0.32119954
   0.50000000  0.66666667  0.32119954
   0.83333333  0.00000000  0.32119954
   0.83333333  0.33333333  0.32119954
   0.83333333  0.66666667  0.32119954
   0.00000000  0.00000000  0.38476372
   0.00000000  0.33333333  0.38476372
   0.00000000  0.66666667  0.38476372
   0.33333333  0.00000000  0.38476372
   0.33333333  0.33333333  0.38476372
   0.33333333  0.66666667  0.38476372
   0.66666667  0.00000000  0.38476372
   0.66666667  0.33333333  0.38476372
   0.66666667  0.66666667  0.38476372
   0.16666667  0.16666667  0.38476372
   0.16666667  0.50000000  0.38476372
   0.16666667  0.83333333  0.38476372
   0.50000000  0.16666667  0.38476372
   0.50000000  0.50000000  0.38476372
   0.50000000  0.83333333  0.38476372
   0.83333333  0.16666667  0.38476372
   0.83333333  0.50000000  0.38476372
   0.83333333  0.83333333  0.38476372
   0.00000000  0.16666667  0.44736473
   0.00000000  0.50000000  0.44736473
   0.00000000  0.83333333  0.44736473
   0.33333333  0.16666667  0.44736473
   0.33333333  0.50000000  0.44736473
   0.33333333  0.83333333  0.44736473
   0.66666667  0.16666667  0.44736473
   0.66666667  0.50000000  0.44736473
   0.66666667  0.83333333  0.44736473
   0.16666667  0.00000000  0.44736473
   0.16666667  0.33333333  0.44736473
   0.16666667  0.66666667  0.44736473
   0.50000000  0.00000000  0.44736473
   0.50000000  0.33333333  0.44736473
   0.50000000  0.66666667  0.44736473
   0.83333333  0.00000000  0.44736473
   0.83333333  0.33333333  0.44736473
   0.83333333  0.66666667  0.44736473
   0.33333333  0.50000000  0.50150658
Direct configuration=     2
   0.00000000  0.00000000  0.00000000
   0.00000000  0.33333333  0.00000000
   0.00000000  0.66666667  0.00000000
   0.33333333  0.00000000  0.00000000
   0.33333333  0.33333333  0.00000000
   0.33333333  0.66666667  0.00000000
   0.66666667  0.00000000  0.00000000
   0.66666667  0.33333333  0.00000000
   0.66666667  0.66666667  0.00000000
   0.16666667  0.16666667  0.00000000
   0.16666667  0.50000000  0.00000000
   0.16666667  0.83333333  0.00000000
   0.50000000  0.16666667  0.00000000
   0.50000000  0.50000000  0.00000000
   0.50000000  0.83333333  0.00000000
   0.83333333  0.16666667  0.00000000
   0.83333333  0.50000000  0.00000000
   0.83333333  0.83333333  0.00000000
   0.00000000  0.16666667  0.06551164
   0.00000000  0.50000000  0.06551164
   0.00000000  0.83333333  0.06551164
   0.33333333  0.16666667  0.06551164
   0.33333333  0.50000000  0.06551164
   0.33333333  0.83333333  0.06551164
   0.66666667  0.16666667  0.06551164
   0.66666667  0.50000000  0.06551164
   0.66666667  0.83333333  0.06551164
   0.16666667  0.00000000  0.06551164
   0.16666667  0.33333333  0.06551164
   0.16666667  0.66666667  0.06551164
   0.50000000  0.00000000  0.06551164
   0.50000000  0.33333333  0.06551164
   0.50000000  0.66666667  0.06551164
   0.83333333  0.00000000  0.06551164
   0.83333333  0.33333333  0.06551164
   0.83333333  0.66666667  0.06551164
   0.00000000  0.00000000  0.13119553
   0.00000000  0.33333333  0.13119553
   0.00000000  0.66666667  0.13119553
   0.33333333  0.00000000  0.13119553
   0.33333333  0.33333333  0.13119553
   0.33333333  0.66666667  0.13119553
   0.66666667  0.00000000  0.13119553
   0.66666667  0.33333333  0.13119553
   0.66666667  0.66666667  0.13119553
   0.16666667  0.16666667  0.13119553
   0.16666667  0.50000000  0.13119553
   0.16666667  0.83333333  0.13119553
   0.50000000  0.16666667  0.13119553
   0.50000000  0.50000000  0.13119553
   0.50000000  0.83333333  0.13119553
   0.83333333  0.16666667  0.13119553
   0.83333333  0.50000000  0.13119553
   0.83333333  0.83333333  0.13119553
   0.00001380  0.16668046  0.19573805
   0.00005300  0.50000000  0.19572612
   0.00001380  0.83331954  0.19573805
   0.33333333  0.16671967  0.19572612
   0.33333333  0.50000000  0.19572681
   0.33333333  0.83328033  0.19572612
   0.66665287  0.16668046  0.19573805
   0.66661367  0.50000000  0.19572612
   0.66665287  0.83331954  0.19573805
   0.16662535 -0.00000000  0.19577009
   0.16669665  0.33336331  0.19572957
   0.16669665  0.66663669  0.19572957
   0.50004131  0.00000000  0.19577009
   0.49997002  0.33336331  0.19572957
   0.49997002  0.66663669  0.19572957
   0.83333333  0.00000000  0.19571491
   0.83333333  0.33329202  0.19577009
   0.83333333  0.66670798  0.19577009
   0.00002107 -0.00000000  0.25866941
  -0.00000984  0.33338422  0.25871017
  -0.00000984  0.66661578  0.25871017
   0.33333333  0.00000000  0.25865418
   0.33333333  0.33333923  0.25870888
   0.33333333  0.66666077  0.25870888
   0.66664560  0.00000000  0.25866941
   0.66667651  0.33338422  0.25871017
   0.66667651  0.66661578  0.25871017
   0.16671755  0.16665682  0.25871017
   0.16667256  0.50000000  0.25870888
   0.16671755  0.83334318  0.25871017
   0.49994912  0.16665682  0.25871017
   0.49999411  0.50000000  0.25870888
   0.49994912  0.83334318  0.25871017
   0.83333333  0.16668773  0.25866941
   0.83333333  0.50000000  0.25865418
   0.83333333  0.83331227  0.25866941
  -0.00003824  0.16662843  0.32127297
  -0.00000810  0.50000000  0.32126272
  -0.00003824  0.83337157  0.32127297
   0.33333333  0.16665856  0.32126272
   0.33333333  0.50000000  0.32148510
   0.33333333  0.83334144  0.32126272
   0.66670490  0.16662843  0.32127297
   0.66667477  0.50000000  0.32126272
   0.66670490  0.83337157  0.32127297
   0.16657496 -0.00000000  0.32131168
   0.16659158  0.33325825  0.32129552
   0.16659158  0.66674175  0.32129552
   0.50009171 -0.00000000  0.32131168
   0.50007509  0.33325825  0.32129552
   0.50007509  0.66674175  0.32129552
   0.83333333 -0.00000000  0.32130830
   0.83333333  0.33324162  0.32131168
   0.83333333  0.66675838  0.32131168
  -0.00001395 -0.00000000  0.38478431
   0.00010576  0.33341341  0.38487722
   0.00010576  0.66658659  0.38487722
   0.33333333  0.00000000  0.38480541
   0.33333333  0.33325780  0.38446324
   0.33333333  0.66674220  0.38446324
   0.66668061  0.00000000  0.38478431
   0.66656091  0.33341341  0.38487722
   0.66656091  0.66658659  0.38487722
   0.16674675  0.16677243  0.38487722
   0.16659113  0.50000000  0.38446324
   0.16674675  0.83322757  0.38487722
   0.49991992  0.16677243  0.38487722
   0.50007554  0.50000000  0.38446324
   0.49991992  0.83322757  0.38487722
   0.83333333  0.16665272  0.38478431
   0.83333333  0.50000000  0.38480541
   0.83333333  0.83334728  0.38478431
   0.00007659  0.16674326  0.44734306
  -0.00064131  0.50000000  0.44726197
   0.00007659  0.83325674  0.44734306
   0.33333333  0.16602535  0.44726197
   0.33333333  0.50000000  0.43103653
   0.33333333  0.83397465  0.44726197
   0.66659008  0.16674326  0.44734306
   0.66730798  0.50000000  0.44726197
   0.66659008  0.83325674  0.44734306
   0.16661758  0.00000000  0.44737981
   0.16635866  0.33302532  0.44744735
   0.16635866  0.66697468  0.44744735
   0.50004909 -0.00000000  0.44737981
   0.50030801  0.33302532  0.44744735
   0.50030801  0.66697468  0.44744735
   0.83333333  0.00000000  0.44732878
   0.83333333  0.33328424  0.44737981
   0.83333333  0.66671576  0.44737981
   0.33333333  0.50000000  0.51846809
Direct configuration=     3
   0.00000000  0.00000000  0.00000000
   0.00000000  0.33333333  0.00000000
   0.00000000  0.66666667  0.00000000
   0.33333333  0.00000000  0.00000000
   0.33333333  0.33333333  0.00000000
   0.33333333  0.66666667  0.00000000
   0.66666667  0.00000000  0.00000000
   0.66666667  0.33333333  0.00000000
   0.66666667  0.66666667  0.00000000
   0.16666667  0.16666667  0.00000000
   0.16666667  0.50000000  0.00000000
   0.16666667  0.83333333  0.00000000
   0.50000000  0.16666667  0.00000000
   0.50000000  0.50000000  0.00000000
   0.50000000  0.83333333  0.00000000
   0.83333333  0.16666667  0.00000000
   0.83333333  0.50000000  0.00000000
   0.83333333  0.83333333  0.00000000
   0.00000000  0.16666667  0.06551164
   0.00000000  0.50000000  0.06551164
   0.00000000  0.83333333  0.06551164
   0.33333333  0.16666667  0.06551164
   0.33333333  0.50000000  0.06551164
   0.33333333  0.83333333  0.06551164
   0.66666667  0.16666667  0.06551164
   0.66666667  0.50000000  0.06551164
   0.66666667  0.83333333  0.06551164
   0.16666667  0.00000000  0.06551164
   0.16666667  0.33333333  0.06551164
   0.16666667  0.66666667  0.06551164
   0.50000000  0.00000000  0.06551164
   0.50000000  0.33333333  0.06551164
   0.50000000  0.66666667  0.06551164
   0.83333333  0.00000000  0.06551164
   0.83333333  0.33333333  0.06551164
   0.83333333  0.66666667  0.06551164
   0.00000000  0.00000000  0.13119553
   0.00000000  0.33333333  0.13119553
   0.00000000  0.66666667  0.13119553
   0.33333333  0.00000000  0.13119553
   0.33333333  0.33333333  0.13119553
   0.33333333  0.66666667  0.13119553
   0.66666667  0.00000000  0.13119553
   0.66666667  0.33333333  0.13119553
   0.66666667  0.66666667  0.13119553
   0.16666667  0.16666667  0.13119553
   0.16666667  0.50000000  0.13119553
   0.16666667  0.83333333  0.13119553
   0.50000000  0.16666667  0.13119553
   0.50000000  0.50000000  0.13119553
   0.50000000  0.83333333  0.13119553
   0.83333333  0.16666667  0.13119553
   0.83333333  0.50000000  0.13119553
   0.83333333  0.83333333  0.13119553
   0.00000989  0.16667655  0.19587093
   0.00003797  0.50000000  0.19586239
   0.00000989  0.83332345  0.19587093
   0.33333333  0.16670464  0.19586239
   0.33333333  0.50000000  0.19586288
   0.33333333  0.83329536  0.19586239
   0.66665678  0.16667655  0.19587093
   0.66662869  0.50000000  0.19586239
   0.66665678  0.83332345  0.19587093
   0.16663707 -0.00000000  0.19589389
   0.16668815  0.33335481  0.19586486
   0.16668815  0.66664519  0.19586486
   0.50002960  0.00000000  0.19589389
   0.49997852  0.33335481  0.19586486
   0.49997852  0.66664519  0.19586486
   0.83333333  0.00000000  0.19585436
   0.83333333  0.33330373  0.19589389
   0.83333333  0.66669627  0.19589389
   0.00001509 -0.00000000  0.25868903
  -0.00000705  0.33336979  0.25871823
  -0.00000705  0.66663021  0.25871823
   0.33333333  0.00000000  0.25867812
   0.33333333  0.33333756  0.25871731
   0.33333333  0.66666244  0.25871731
   0.66665157  0.00000000  0.25868903
   0.66667372  0.33336979  0.25871823
   0.66667372  0.66663021  0.25871823
   0.16670313  0.16665961  0.25871823
   0.16667089  0.50000000  0.25871731
   0.16670313  0.83334039  0.25871823
   0.49996354  0.16665961  0.25871823
   0.49999578  0.50000000  0.25871731
   0.49996354  0.83334039  0.25871823
   0.83333333  0.16668176  0.25868903
   0.83333333  0.50000000  0.25867812
   0.83333333  0.83331824  0.25868903
  -0.00002740  0.16663927  0.32125216
  -0.00000581  0.50000000  0.32124481
  -0.00002740  0.83336073  0.32125216
   0.33333333  0.16666086  0.32124481
   0.33333333  0.50000000  0.32140415
   0.33333333  0.83333914  0.32124481
   0.66669406  0.16663927  0.32125216
   0.66667247  0.50000000  0.32124481
   0.66669406  0.83336073  0.32125216
   0.16660096 -0.00000000  0.32127989
   0.16661287  0.33327953  0.32126831
   0.16661287  0.66672047  0.32126831
   0.50006571 -0.00000000  0.32127989
   0.50005380  0.33327953  0.32126831
   0.50005380  0.66672047  0.32126831
   0.83333333 -0.00000000  0.32127747
   0.83333333  0.33326762  0.32127989
   0.83333333  0.66673238  0.32127989
  -0.00000999 -0.00000000  0.38477847
   0.00007578  0.33339071  0.38484504
   0.00007578  0.66660929  0.38484504
   0.33333333  0.00000000  0.38479359
   0.33333333  0.33327921  0.38454842
   0.33333333  0.66672079  0.38454842
   0.66667666  0.00000000  0.38477847
   0.66659089  0.33339071  0.38484504
   0.66659089  0.66660929  0.38484504
   0.16672405  0.16674244  0.38484504
   0.16661254  0.50000000  0.38454842
   0.16672405  0.83325756  0.38484504
   0.49994262  0.16674244  0.38484504
   0.50005412  0.50000000  0.38454842
   0.49994262  0.83325756  0.38484504
   0.83333333  0.16665667  0.38477847
   0.83333333  0.50000000  0.38479359
   0.83333333  0.83334333  0.38477847
   0.00005488  0.16672154  0.44734920
  -0.00045950  0.50000000  0.44729110
   0.00005488  0.83327846  0.44734920
   0.33333333  0.16620716  0.44729110
   0.33333333  0.50000000  0.43566552
   0.33333333  0.83379284  0.44729110
   0.66661179  0.16672154  0.44734920
   0.66712617  0.50000000  0.44729110
   0.66661179  0.83327846  0.44734920
   0.16663149  0.00000000  0.44737554
   0.16644598  0.33311264  0.44742393
   0.16644598  0.66688736  0.44742393
   0.50003517 -0.00000000  0.44737554
   0.50022069  0.33311264  0.44742393
   0.50022069  0.66688736  0.44742393
   0.83333333  0.00000000  0.44733897
   0.83333333  0.33329816  0.44737554
   0.83333333  0.66670184  0.44737554
   0.33333333  0.50000000  0.51365956
Direct configuration=     4
   0.00000000  0.00000000  0.00000000
   0.00000000  0.33333333  0.00000000
   0.00000000  0.66666667  0.00000000
   0.33333333  0.00000000  0.00000000
   0.33333333  0.33333333  0.00000000
   0.33333333  0.66666667  0.00000000
   0.66666667  0.00000000  0.00000000
   0.66666667  0.33333333  0.00000000
   0.66666667  0.66666667  0.00000000
   0.16666667  0.16666667  0.00000000
   0.16666667  0.50000000  0.00000000
   0.16666667  0.83333333  0.00000000
   0.50000000  0.16666667  0.00000000
   0.50000000  0.50000000  0.00000000
   0.50000000  0.83333333  0.00000000
   0.83333333  0.16666667  0.00000000
   0.83333333  0.50000000  0.00000000
   0.83333333  0.83333333  0.00000000
   0.00000000  0.16666667  0.06551164
   0.00000000  0.50000000  0.06551164
   0.00000000  0.83333333  0.06551164
   0.33333333  0.16666667  0.06551164
   0.33333333  0.50000000  0.06551164
   0.33333333  0.83333333  0.06551164
   0.66666667  0.16666667  0.06551164
   0.66666667  0.50000000  0.06551164
   0.66666667  0.83333333  0.06551164
   0.16666667  0.00000000  0.06551164
   0.16666667  0.33333333  0.06551164
   0.16666667  0.66666667  0.06551164
   0.50000000  0.00000000  0.06551164
   0.50000000  0.33333333  0.06551164
   0.50000000  0.66666667  0.06551164
   0.83333333  0.00000000  0.06551164
   0.83333333  0.33333333  0.06551164
   0.83333333  0.66666667  0.06551164
   0.00000000  0.00000000  0.13119553
   0.00000000  0.33333333  0.13119553
   0.00000000  0.66666667  0.13119553
   0.33333333  0.00000000  0.13119553
   0.33333333  0.33333333  0.13119553
   0.33333333  0.66666667  0.13119553
   0.66666667  0.00000000  0.13119553
   0.66666667  0.33333333  0.13119553
   0.66666667  0.66666667  0.13119553
   0.16666667  0.16666667  0.13119553
   0.16666667  0.50000000  0.13119553
   0.16666667  0.83333333  0.13119553
   0.50000000  0.16666667  0.13119553
   0.50000000  0.50000000  0.13119553
   0.50000000  0.83333333  0.13119553
   0.83333333  0.16666667  0.13119553
   0.83333333  0.50000000  0.13119553
   0.83333333  0.83333333  0.13119553
   0.00000719  0.16667386  0.19596240
   0.00002763  0.50000000  0.19595618
   0.00000719  0.83332614  0.19596240
   0.33333333  0.16669430  0.19595618
   0.33333333  0.50000000  0.19595654
   0.33333333  0.83330570  0.19595618
   0.66665947  0.16667386  0.19596240
   0.66663903  0.50000000  0.19595618
   0.66665947  0.83332614  0.19596240
   0.16664513 -0.00000000  0.19597910
   0.16668230  0.33334896  0.19595798
   0.16668230  0.66665104  0.19595798
   0.50002154  0.00000000  0.19597910
   0.49998437  0.33334896  0.19595798
   0.49998437  0.66665104  0.19595798
   0.83333333  0.00000000  0.19595034
   0.83333333  0.33331179  0.19597910
   0.83333333  0.66668821  0.19597910
   0.00001098 -0.00000000  0.25870253
  -0.00000513  0.33335986  0.25872377
  -0.00000513  0.66664014  0.25872377
   0.33333333  0.00000000  0.25869459
   0.33333333  0.33333641  0.25872311
   0.33333333  0.66666359  0.25872311
   0.66665568  0.00000000  0.25870253
   0.66667180  0.33335986  0.25872377
   0.66667180  0.66664014  0.25872377
   0.16669320  0.16666153  0.25872377
   0.16666974  0.50000000  0.25872311
   0.16669320  0.83333847  0.25872377
   0.49997347  0.16666153  0.25872377
   0.49999693  0.50000000  0.25872311
   0.49997347  0.83333847  0.25872377
   0.83333333  0.16667765  0.25870253
   0.83333333  0.50000000  0.25869459
   0.83333333  0.83332235  0.25870253
  -0.00001994  0.16664673  0.32123783
  -0.00000423  0.50000000  0.32123248
  -0.00001994  0.83335327  0.32123783
   0.33333333  0.16666244  0.32123248
   0.33333333  0.50000000  0.32134843
   0.33333333  0.83333756  0.32123248
   0.66668660  0.16664673  0.32123783
   0.66667089  0.50000000  0.32123248
   0.66668660  0.83335327  0.32123783
   0.16661885 -0.00000000  0.32125801
   0.16662752  0.33329418  0.32124958
   0.16662752  0.66670582  0.32124958
   0.50004782 -0.00000000  0.32125801
   0.50003915  0.33329418  0.32124958
   0.50003915  0.66670582  0.32124958
   0.83333333 -0.00000000  0.32125625
   0.83333333  0.33328552  0.32125801
   0.83333333  0.66671448  0.32125801
  -0.00000727 -0.00000000  0.38477445
   0.00005514  0.33337509  0.38482289
   0.00005514  0.66662491  0.38482289
   0.33333333  0.00000000  0.38478545
   0.33333333  0.33329395  0.38460705
   0.33333333  0.66670605  0.38460705
   0.66667394  0.00000000  0.38477445
   0.66661153  0.33337509  0.38482289
   0.66661153  0.66662491  0.38482289
   0.16670842  0.16672181  0.38482289
   0.16662728  0.50000000  0.38460705
   0.16670842  0.83327819  0.38482289
   0.49995825  0.16672181  0.38482289
   0.50003938  0.50000000  0.38460705
   0.49995825  0.83327819  0.38482289
   0.83333333  0.16665939  0.38477445
   0.83333333  0.50000000  0.38478545
   0.83333333  0.83334061  0.38477445
   0.00003993  0.16670660  0.44735343
  -0.00033437  0.50000000  0.44731115
   0.00003993  0.83329340  0.44735343
   0.33333333  0.16633230  0.44731115
   0.33333333  0.50000000  0.43885150
   0.33333333  0.83366770  0.44731115
   0.66662673  0.16670660  0.44735343
   0.66700103  0.50000000  0.44731115
   0.66662673  0.83329340  0.44735343
   0.16664107  0.00000000  0.44737259
   0.16650608  0.33317274  0.44740781
   0.16650608  0.66682726  0.44740781
   0.50002559 -0.00000000  0.44737259
   0.50016059  0.33317274  0.44740781
   0.50016059  0.66682726  0.44740781
   0.83333333  0.00000000  0.44734599
   0.83333333  0.33330774  0.44737259
   0.83333333  0.66669226  0.44737259
   0.33333333  0.50000000  0.51035000
Direct configuration=     5
   0.00000000  0.00000000  0.00000000
   0.00000000  0.33333333  0.00000000
   0.00000000  0.66666667  0.00000000
   0.33333333  0.00000000  0.00000000
   0.33333333  0.33333333  0.00000000
   0.33333333  0.66666667  0.00000000
   0.66666667  0.00000000  0.00000000
   0.66666667  0.33333333  0.00000000
   0.66666667  0.66666667  0.00000000
   0.16666667  0.16666667  0.00000000
   0.16666667  0.50000000  0.00000000
   0.16666667  0.83333333  0.00000000
   0.50000000  0.16666667  0.00000000
   0.50000000  0.50000000  0.00000000
   0.50000000  0.83333333  0.00000000
   0.83333333  0.16666667  0.00000000
   0.83333333  0.50000000  0.00000000
   0.83333333  0.83333333  0.00000000
   0.00000000  0.16666667  0.06551164
   0.00000000  0.50000000  0.06551164
   0.00000000  0.83333333  0.06551164
   0.33333333  0.16666667  0.06551164
   0.33333333  0.50000000  0.06551164
   0.33333333  0.83333333  0.06551164
   0.66666667  0.16666667  0.06551164
   0.66666667  0.50000000  0.06551164
   0.66666667  0.83333333  0.06551164
   0.16666667  0.00000000  0.06551164
   0.16666667  0.33333333  0.06551164
   0.16666667  0.66666667  0.06551164
   0.50000000  0.00000000  0.06551164
   0.50000000  0.33333333  0.06551164
   0.50000000  0.66666667  0.06551164
   0.83333333  0.00000000  0.06551164
   0.83333333  0.33333333  0.06551164
   0.83333333  0.66666667  0.06551164
   0.00000000  0.00000000  0.13119553
   0.00000000  0.33333333  0.13119553
   0.00000000  0.66666667  0.13119553
   0.33333333  0.00000000  0.13119553
   0.33333333  0.33333333  0.13119553
   0.33333333  0.66666667  0.13119553
   0.66666667  0.00000000  0.13119553
   0.66666667  0.33333333  0.13119553
   0.66666667  0.66666667  0.13119553
   0.16666667  0.16666667  0.13119553
   0.16666667  0.50000000  0.13119553
   0.16666667  0.83333333  0.13119553
   0.50000000  0.16666667  0.13119553
   0.50000000  0.50000000  0.13119553
   0.50000000  0.83333333  0.13119553
   0.83333333  0.16666667  0.13119553
   0.83333333  0.50000000  0.13119553
   0.83333333  0.83333333  0.13119553
   0.00000360  0.16667026  0.19608460
   0.00001382  0.50000000  0.19608149
   0.00000360  0.83332974  0.19608460
   0.33333333  0.16668048  0.19608149
   0.33333333  0.50000000  0.19608167
   0.33333333  0.83331952  0.19608149
   0.66666307  0.16667026  0.19608460
   0.66665285  0.50000000  0.19608149
   0.66666307  0.83332974  0.19608460
   0.16665590 -0.00000000  0.19609295
   0.16667448  0.33334115  0.19608239
   0.16667448  0.66665885  0.19608239
   0.50001077  0.00000000  0.19609295
   0.49999218  0.33334115  0.19608239
   0.49999218  0.66665885  0.19608239
   0.83333333  0.00000000  0.19607857
   0.83333333  0.33332256  0.19609295
   0.83333333  0.66667744  0.19609295
   0.00000549 -0.00000000  0.25872056
  -0.00000257  0.33334660  0.25873119
  -0.00000257  0.66665340  0.25873119
   0.33333333  0.00000000  0.25871659
   0.33333333  0.33333487  0.25873085
   0.33333333  0.66666513  0.25873085
   0.66666118  0.00000000  0.25872056
   0.66666923  0.33334660  0.25873119
   0.66666923  0.66665340  0.25873119
   0.16667993  0.16666410  0.25873119
   0.16666820  0.50000000  0.25873085
   0.16667993  0.83333590  0.25873119
   0.49998673  0.16666410  0.25873119
   0.49999846  0.50000000  0.25873085
   0.49998673  0.83333590  0.25873119
   0.83333333  0.16667216  0.25872056
   0.83333333  0.50000000  0.25871659
   0.83333333  0.83332784  0.25872056
  -0.00000997  0.16665670  0.32121869
  -0.00000211  0.50000000  0.32121601
  -0.00000997  0.83334330  0.32121869
   0.33333333  0.16666455  0.32121601
   0.33333333  0.50000000  0.32127399
   0.33333333  0.83333545  0.32121601
   0.66667663  0.16665670  0.32121869
   0.66666878  0.50000000  0.32121601
   0.66667663  0.83334330  0.32121869
   0.16664276 -0.00000000  0.32122878
   0.16664709  0.33331376  0.32122456
   0.16664709  0.66668624  0.32122456
   0.50002391 -0.00000000  0.32122878
   0.50001957  0.33331376  0.32122456
   0.50001957  0.66668624  0.32122456
   0.83333333 -0.00000000  0.32122790
   0.83333333  0.33330943  0.32122878
   0.83333333  0.66669057  0.32122878
  -0.00000364 -0.00000000  0.38476908
   0.00002757  0.33335421  0.38479330
   0.00002757  0.66664579  0.38479330
   0.33333333  0.00000000  0.38477459
   0.33333333  0.33331364  0.38468538
   0.33333333  0.66668636  0.38468538
   0.66667030  0.00000000  0.38476908
   0.66663910  0.33335421  0.38479330
   0.66663910  0.66664579  0.38479330
   0.16668754  0.16669424  0.38479330
   0.16664697  0.50000000  0.38468538
   0.16668754  0.83330576  0.38479330
   0.49997912  0.16669424  0.38479330
   0.50001969  0.50000000  0.38468538
   0.49997912  0.83330576  0.38479330
   0.83333333  0.16666303  0.38476908
   0.83333333  0.50000000  0.38477459
   0.83333333  0.83333697  0.38476908
   0.00001997  0.16668663  0.44735908
  -0.00016718  0.50000000  0.44733794
   0.00001997  0.83331337  0.44735908
   0.33333333  0.16649948  0.44733794
   0.33333333  0.50000000  0.44310812
   0.33333333  0.83350052  0.44733794
   0.66664670  0.16668663  0.44735908
   0.66683385  0.50000000  0.44733794
   0.66664670  0.83331337  0.44735908
   0.16665387  0.00000000  0.44736866
   0.16658637  0.33325304  0.44738627
   0.16658637  0.66674696  0.44738627
   0.50001280 -0.00000000  0.44736866
   0.50008030  0.33325304  0.44738627
   0.50008030  0.66674696  0.44738627
   0.83333333  0.00000000  0.44735536
   0.83333333  0.33332054  0.44736866
   0.83333333  0.66667946  0.44736866
   0.33333333  0.50000000  0.50592829
Direct configuration=     6
   0.00000000  0.00000000  0.00000000
   0.00000000  0.33333333  0.00000000
   0.00000000  0.66666667  0.00000000
   0.33333333  0.00000000  0.00000000
   0.33333333  0.33333333  0.00000000
   0.33333333  0.66666667  0.00000000
   0.66666667  0.00000000  0.00000000
   0.66666667  0.33333333  0.00000000
   0.66666667  0.66666667  0.00000000
   0.16666667  0.16666667  0.00000000
   0.16666667  0.50000000  0.00000000
   0.16666667  0.83333333  0.00000000
   0.50000000  0.16666667  0.00000000
   0.50000000  0.50000000  0.00000000
   0.50000000  0.83333333  0.00000000
   0.83333333  0.16666667  0.00000000
   0.83333333  0.50000000  0.00000000
   0.83333333  0.83333333  0.00000000
   0.00000000  0.16666667  0.06551164
   0.00000000  0.50000000  0.06551164
   0.00000000  0.83333333  0.06551164
   0.33333333  0.16666667  0.06551164
   0.33333333  0.50000000  0.06551164
   0.33333333  0.83333333  0.06551164
   0.66666667  0.16666667  0.06551164
   0.66666667  0.50000000  0.06551164
   0.66666667  0.83333333  0.06551164
   0.16666667  0.00000000  0.06551164
   0.16666667  0.33333333  0.06551164
   0.16666667  0.66666667  0.06551164
   0.50000000  0.00000000  0.06551164
   0.50000000  0.33333333  0.06551164
   0.50000000  0.66666667  0.06551164
   0.83333333  0.00000000  0.06551164
   0.83333333  0.33333333  0.06551164
   0.83333333  0.66666667  0.06551164
   0.00000000  0.00000000  0.13119553
   0.00000000  0.33333333  0.13119553
   0.00000000  0.66666667  0.13119553
   0.33333333  0.00000000  0.13119553
   0.33333333  0.33333333  0.13119553
   0.33333333  0.66666667  0.13119553
   0.66666667  0.00000000  0.13119553
   0.66666667  0.33333333  0.13119553
   0.66666667  0.66666667  0.13119553
   0.16666667  0.16666667  0.13119553
   0.16666667  0.50000000  0.13119553
   0.16666667  0.83333333  0.13119553
   0.50000000  0.16666667  0.13119553
   0.50000000  0.50000000  0.13119553
   0.50000000  0.83333333  0.13119553
   0.83333333  0.16666667  0.13119553
   0.83333333  0.50000000  0.13119553
   0.83333333  0.83333333  0.13119553
   0.00000322  0.16666988  0.19609747