  10  10   0   0
  0.2234684E+02  0.3630000E-09  0.2566798E-09  0.2398379E-08  0.5000000E-15
  1.000000000000000E-004
  CAR 
 unknown system                          
     11.90909936    -10.13686627  301      0.75333756      1.00000000
    -10.137  0.0000E+00  0.0000E+00  0.0000E+00  0.0000E+00
    -10.063  0.0000E+00  0.0000E+00  0.0000E+00  0.0000E+00
     -9.990  0.0000E+00  0.0000E+00  0.0000E+00  0.0000E+00
     -9.916  0.0000E+00  0.0000E+00  0.0000E+00  0.0000E+00
     -9.843  0.0000E+00  0.0000E+00  0.0000E+00  0.0000E+00
     -9.769 -0.5021E-31 -0.5021E-31 -0.3690E-32 -0.3690E-32
     -9.696 -0.1683E-28 -0.1683E-28 -0.1240E-29 -0.1240E-29
     -9.622 -0.4305E-26 -0.4305E-26 -0.3176E-27 -0.3176E-27
     -9.549 -0.8382E-24 -0.8382E-24 -0.6192E-25 -0.6192E-25
     -9.475 -0.1242E-21 -0.1242E-21 -0.9190E-23 -0.9190E-23
     -9.402 -0.1400E-19 -0.1400E-19 -0.1038E-20 -0.1038E-20
     -9.329 -0.1200E-17 -0.1200E-17 -0.8922E-19 -0.8922E-19
     -9.255 -0.7562E-16 -0.7562E-16 -0.5646E-17 -0.5646E-17
     -9.182 -0.3723E-14 -0.3723E-14 -0.2792E-15 -0.2792E-15
     -9.108 -0.1387E-12 -0.1387E-12 -0.1048E-13 -0.1048E-13
     -9.035 -0.3910E-11 -0.3910E-11 -0.2978E-12 -0.2978E-12
     -8.961 -0.8315E-10 -0.8315E-10 -0.6408E-11 -0.6408E-11
     -8.888 -0.1329E-08 -0.1329E-08 -0.1041E-09 -0.1041E-09
     -8.814 -0.1591E-07 -0.1591E-07 -0.1273E-08 -0.1273E-08
     -8.741 -0.1415E-06 -0.1415E-06 -0.1167E-07 -0.1167E-07
     -8.667 -0.9251E-06 -0.9251E-06 -0.7966E-07 -0.7966E-07
     -8.594 -0.4355E-05 -0.4355E-05 -0.3997E-06 -0.3997E-06
     -8.520 -0.1416E-04 -0.1416E-04 -0.1441E-05 -0.1441E-05
     -8.447 -0.2844E-04 -0.2844E-04 -0.3531E-05 -0.3531E-05
     -8.373 -0.1839E-04 -0.1839E-04 -0.4882E-05 -0.4882E-05
     -8.300  0.7856E-04  0.7856E-04  0.8907E-06  0.8907E-06
     -8.226  0.2913E-03  0.2913E-03  0.2230E-04  0.2230E-04
     -8.153  0.5152E-03  0.5152E-03  0.6015E-04  0.6015E-04
     -8.079  0.5667E-03  0.5667E-03  0.1018E-03  0.1018E-03
     -8.006  0.3977E-03  0.3977E-03  0.1310E-03  0.1310E-03
     -7.932  0.1587E-03  0.1587E-03  0.1427E-03  0.1427E-03
     -7.859  0.8990E-05  0.8990E-05  0.1433E-03  0.1433E-03
     -7.785 -0.3042E-04 -0.3042E-04  0.1411E-03  0.1411E-03
     -7.712 -0.2155E-04 -0.2155E-04  0.1395E-03  0.1395E-03
     -7.638 -0.1221E-04 -0.1221E-04  0.1386E-03  0.1386E-03
     -7.565 -0.1660E-04 -0.1660E-04  0.1374E-03  0.1374E-03
     -7.491 -0.2929E-04 -0.2929E-04  0.1353E-03  0.1353E-03
     -7.418 -0.1763E-04 -0.1763E-04  0.1340E-03  0.1340E-03
     -7.344  0.7997E-04  0.7997E-04  0.1398E-03  0.1398E-03
     -7.271  0.2824E-03  0.2824E-03  0.1606E-03  0.1606E-03
     -7.197  0.4750E-03  0.4750E-03  0.1955E-03  0.1955E-03
     -7.124  0.5061E-03  0.5061E-03  0.2327E-03  0.2327E-03
     -7.050  0.4403E-03  0.4403E-03  0.2650E-03  0.2650E-03
     -6.977  0.5443E-03  0.5443E-03  0.3050E-03  0.3050E-03
     -6.903  0.8813E-03  0.8813E-03  0.3698E-03  0.3698E-03
     -6.830  0.1118E-02  0.1118E-02  0.4520E-03  0.4520E-03
     -6.756  0.9403E-03  0.9403E-03  0.5211E-03  0.5211E-03
     -6.683  0.4689E-03  0.4689E-03  0.5556E-03  0.5556E-03
     -6.610  0.6920E-04  0.6920E-04  0.5606E-03  0.5606E-03
     -6.536 -0.6005E-04 -0.6005E-04  0.5562E-03  0.5562E-03
     -6.463  0.5454E-04  0.5454E-04  0.5602E-03  0.5602E-03
     -6.389  0.3044E-03  0.3044E-03  0.5826E-03  0.5826E-03
     -6.316  0.5841E-03  0.5841E-03  0.6255E-03  0.6255E-03
     -6.242  0.8499E-03  0.8499E-03  0.6880E-03  0.6880E-03
     -6.169  0.1078E-02  0.1078E-02  0.7672E-03  0.7672E-03
     -6.095  0.1144E-02  0.1144E-02  0.8513E-03  0.8513E-03
     -6.022  0.9842E-03  0.9842E-03  0.9236E-03  0.9236E-03
     -5.948  0.8573E-03  0.8573E-03  0.9866E-03  0.9866E-03
     -5.875  0.1096E-02  0.1096E-02  0.1067E-02  0.1067E-02
     -5.801  0.1616E-02  0.1616E-02  0.1186E-02  0.1186E-02
     -5.728  0.1991E-02  0.1991E-02  0.1332E-02  0.1332E-02
     -5.654  0.1927E-02  0.1927E-02  0.1474E-02  0.1474E-02
     -5.581  0.1468E-02  0.1468E-02  0.1582E-02  0.1582E-02
     -5.507  0.8435E-03  0.8435E-03  0.1644E-02  0.1644E-02
     -5.434  0.2931E-03  0.2931E-03  0.1665E-02  0.1665E-02
     -5.360 -0.9102E-05 -0.9102E-05  0.1665E-02  0.1665E-02
     -5.287  0.2245E-04  0.2245E-04  0.1666E-02  0.1666E-02
     -5.213  0.3333E-03  0.3333E-03  0.1691E-02  0.1691E-02
     -5.140  0.7526E-03  0.7526E-03  0.1746E-02  0.1746E-02
     -5.066  0.1306E-02  0.1306E-02  0.1842E-02  0.1842E-02
     -4.993  0.2429E-02  0.2429E-02  0.2020E-02  0.2020E-02
     -4.919  0.4301E-02  0.4301E-02  0.2336E-02  0.2336E-02
     -4.846  0.5967E-02  0.5967E-02  0.2775E-02  0.2775E-02
     -4.772  0.5974E-02  0.5974E-02  0.3214E-02  0.3214E-02
     -4.699  0.4104E-02  0.4104E-02  0.3516E-02  0.3516E-02
     -4.625  0.1699E-02  0.1699E-02  0.3641E-02  0.3641E-02
     -4.552  0.1045E-03  0.1045E-03  0.3648E-02  0.3648E-02
     -4.478 -0.4775E-03 -0.4775E-03  0.3613E-02  0.3613E-02
     -4.405 -0.4588E-03 -0.4588E-03  0.3579E-02  0.3579E-02
     -4.331  0.1145E-03  0.1145E-03  0.3588E-02  0.3588E-02
     -4.258  0.1581E-02  0.1581E-02  0.3704E-02  0.3704E-02
     -4.184  0.3747E-02  0.3747E-02  0.3979E-02  0.3979E-02
     -4.111  0.5380E-02  0.5380E-02  0.4375E-02  0.4375E-02
     -4.037  0.5252E-02  0.5252E-02  0.4761E-02  0.4761E-02
     -3.964  0.3621E-02  0.3621E-02  0.5027E-02  0.5027E-02
     -3.891  0.2033E-02  0.2033E-02  0.5176E-02  0.5176E-02
     -3.817  0.1628E-02  0.1628E-02  0.5296E-02  0.5296E-02
     -3.744  0.2243E-02  0.2243E-02  0.5461E-02  0.5461E-02
     -3.670  0.3219E-02  0.3219E-02  0.5697E-02  0.5697E-02
     -3.597  0.4333E-02  0.4333E-02  0.6016E-02  0.6016E-02
     -3.523  0.5568E-02  0.5568E-02  0.6425E-02  0.6425E-02
     -3.450  0.6609E-02  0.6609E-02  0.6910E-02  0.6910E-02
     -3.376  0.7203E-02  0.7203E-02  0.7440E-02  0.7440E-02
     -3.303  0.7697E-02  0.7697E-02  0.8005E-02  0.8005E-02
     -3.229  0.8592E-02  0.8592E-02  0.8637E-02  0.8637E-02
     -3.156  0.9827E-02  0.9827E-02  0.9359E-02  0.9359E-02
     -3.082  0.1099E-01  0.1099E-01  0.1017E-01  0.1017E-01
     -3.009  0.1176E-01  0.1176E-01  0.1103E-01  0.1103E-01
     -2.935  0.1166E-01  0.1166E-01  0.1189E-01  0.1189E-01
     -2.862  0.1038E-01  0.1038E-01  0.1265E-01  0.1265E-01
     -2.788  0.8610E-02  0.8610E-02  0.1328E-01  0.1328E-01
     -2.715  0.7930E-02  0.7930E-02  0.1387E-01  0.1387E-01
     -2.641  0.8994E-02  0.8994E-02  0.1453E-01  0.1453E-01
     -2.568  0.1063E-01  0.1063E-01  0.1531E-01  0.1531E-01
     -2.494  0.1161E-01  0.1161E-01  0.1616E-01  0.1616E-01
     -2.421  0.1238E-01  0.1238E-01  0.1707E-01  0.1707E-01
     -2.347  0.1366E-01  0.1366E-01  0.1808E-01  0.1808E-01
     -2.274  0.1471E-01  0.1471E-01  0.1916E-01  0.1916E-01
     -2.200  0.1480E-01  0.1480E-01  0.2024E-01  0.2024E-01
     -2.127  0.1528E-01  0.1528E-01  0.2137E-01  0.2137E-01
     -2.053  0.1771E-01  0.1771E-01  0.2267E-01  0.2267E-01
     -1.980  0.2077E-01  0.2077E-01  0.2419E-01  0.2419E-01
     -1.906  0.2146E-01  0.2146E-01  0.2577E-01  0.2577E-01
     -1.833  0.1921E-01  0.1921E-01  0.2718E-01  0.2718E-01
     -1.759  0.1649E-01  0.1649E-01  0.2839E-01  0.2839E-01
     -1.686  0.1531E-01  0.1531E-01  0.2952E-01  0.2952E-01
     -1.612  0.1500E-01  0.1500E-01  0.3062E-01  0.3062E-01
     -1.539  0.1373E-01  0.1373E-01  0.3163E-01  0.3163E-01
     -1.465  0.1136E-01  0.1136E-01  0.3247E-01  0.3247E-01
     -1.392  0.9959E-02  0.9959E-02  0.3320E-01  0.3320E-01
     -1.318  0.1153E-01  0.1153E-01  0.3405E-01  0.3405E-01
     -1.245  0.1609E-01  0.1609E-01  0.3523E-01  0.3523E-01
     -1.172  0.2180E-01  0.2180E-01  0.3683E-01  0.3683E-01
     -1.098  0.2589E-01  0.2589E-01  0.3873E-01  0.3873E-01
     -1.025  0.2616E-01  0.2616E-01  0.4065E-01  0.4065E-01
     -0.951  0.2307E-01  0.2307E-01  0.4235E-01  0.4235E-01
     -0.878  0.2002E-01  0.2002E-01  0.4382E-01  0.4382E-01
     -0.804  0.1982E-01  0.1982E-01  0.4528E-01  0.4528E-01
     -0.731  0.2172E-01  0.2172E-01  0.4687E-01  0.4687E-01
     -0.657  0.2308E-01  0.2308E-01  0.4857E-01  0.4857E-01
     -0.584  0.2254E-01  0.2254E-01  0.5023E-01  0.5023E-01
     -0.510  0.2018E-01  0.2018E-01  0.5171E-01  0.5171E-01
     -0.437  0.1643E-01  0.1643E-01  0.5292E-01  0.5292E-01
     -0.363  0.1208E-01  0.1208E-01  0.5380E-01  0.5380E-01
     -0.290  0.8191E-02  0.8191E-02  0.5441E-01  0.5441E-01
     -0.216  0.5319E-02  0.5319E-02  0.5480E-01  0.5480E-01
     -0.143  0.3220E-02  0.3220E-02  0.5503E-01  0.5503E-01
     -0.069  0.1552E-02  0.1552E-02  0.5515E-01  0.5515E-01
      0.004  0.3701E-03  0.3701E-03  0.5518E-01  0.5518E-01
      0.078 -0.2020E-03 -0.2020E-03  0.5516E-01  0.5516E-01
      0.151 -0.3176E-03 -0.3176E-03  0.5514E-01  0.5514E-01
      0.225 -0.1811E-03 -0.1811E-03  0.5512E-01  0.5512E-01
      0.298  0.2271E-03  0.2271E-03  0.5514E-01  0.5514E-01
      0.372  0.9773E-03  0.9773E-03  0.5521E-01  0.5521E-01
      0.445  0.1889E-02  0.1889E-02  0.5535E-01  0.5535E-01
      0.519  0.2654E-02  0.2654E-02  0.5555E-01  0.5555E-01
      0.592  0.3141E-02  0.3141E-02  0.5578E-01  0.5578E-01
      0.666  0.3253E-02  0.3253E-02  0.5602E-01  0.5602E-01
      0.739  0.2758E-02  0.2758E-02  0.5622E-01  0.5622E-01
      0.813  0.1726E-02  0.1726E-02  0.5635E-01  0.5635E-01
      0.886  0.7865E-03  0.7865E-03  0.5640E-01  0.5640E-01
      0.960  0.5193E-03  0.5193E-03  0.5644E-01  0.5644E-01
      1.033  0.7974E-03  0.7974E-03  0.5650E-01  0.5650E-01
      1.107  0.1001E-02  0.1001E-02  0.5657E-01  0.5657E-01
      1.180  0.7964E-03  0.7964E-03  0.5663E-01  0.5663E-01
      1.254  0.4782E-03  0.4782E-03  0.5667E-01  0.5667E-01
      1.327  0.4808E-03  0.4808E-03  0.5670E-01  0.5670E-01
      1.401  0.7868E-03  0.7868E-03  0.5676E-01  0.5676E-01
      1.474  0.1076E-02  0.1076E-02  0.5684E-01  0.5684E-01
      1.547  0.1325E-02  0.1325E-02  0.5694E-01  0.5694E-01
      1.621  0.1768E-02  0.1768E-02  0.5707E-01  0.5707E-01
      1.694  0.2206E-02  0.2206E-02  0.5723E-01  0.5723E-01
      1.768  0.2038E-02  0.2038E-02  0.5738E-01  0.5738E-01
      1.841  0.1209E-02  0.1209E-02  0.5747E-01  0.5747E-01
      1.915  0.4999E-03  0.4999E-03  0.5750E-01  0.5750E-01
      1.988  0.6464E-03  0.6464E-03  0.5755E-01  0.5755E-01
      2.062  0.1494E-02  0.1494E-02  0.5766E-01  0.5766E-01
      2.135  0.2137E-02  0.2137E-02  0.5782E-01  0.5782E-01
      2.209  0.1942E-02  0.1942E-02  0.5796E-01  0.5796E-01
      2.282  0.1275E-02  0.1275E-02  0.5806E-01  0.5806E-01
      2.356  0.9474E-03  0.9474E-03  0.5812E-01  0.5812E-01
      2.429  0.1213E-02  0.1213E-02  0.5821E-01  0.5821E-01
      2.503  0.1774E-02  0.1774E-02  0.5834E-01  0.5834E-01
      2.576  0.2365E-02  0.2365E-02  0.5852E-01  0.5852E-01
      2.650  0.2812E-02  0.2812E-02  0.5872E-01  0.5872E-01
      2.723  0.2874E-02  0.2874E-02  0.5894E-01  0.5894E-01
      2.797  0.2520E-02  0.2520E-02  0.5912E-01  0.5912E-01
      2.870  0.2066E-02  0.2066E-02  0.5927E-01  0.5927E-01
      2.944  0.1811E-02  0.1811E-02  0.5941E-01  0.5941E-01
      3.017  0.1699E-02  0.1699E-02  0.5953E-01  0.5953E-01
      3.091  0.1445E-02  0.1445E-02  0.5964E-01  0.5964E-01
      3.164  0.9301E-03  0.9301E-03  0.5971E-01  0.5971E-01
      3.238  0.3669E-03  0.3669E-03  0.5973E-01  0.5973E-01
      3.311  0.1977E-04  0.1977E-04  0.5973E-01  0.5973E-01
      3.385 -0.7765E-04 -0.7765E-04  0.5973E-01  0.5973E-01
      3.458 -0.6020E-04 -0.6020E-04  0.5972E-01  0.5972E-01
      3.532 -0.4628E-04 -0.4628E-04  0.5972E-01  0.5972E-01
      3.605 -0.8678E-04 -0.8678E-04  0.5971E-01  0.5971E-01
      3.679 -0.1727E-03 -0.1727E-03  0.5970E-01  0.5970E-01
      3.752 -0.1560E-03 -0.1560E-03  0.5969E-01  0.5969E-01
      3.826  0.3175E-03  0.3175E-03  0.5971E-01  0.5971E-01
      3.899  0.1530E-02  0.1530E-02  0.5983E-01  0.5983E-01
      3.973  0.3121E-02  0.3121E-02  0.6006E-01  0.6006E-01
      4.046  0.4107E-02  0.4107E-02  0.6036E-01  0.6036E-01
      4.120  0.3926E-02  0.3926E-02  0.6065E-01  0.6065E-01
      4.193  0.3183E-02  0.3183E-02  0.6088E-01  0.6088E-01
      4.266  0.2792E-02  0.2792E-02  0.6108E-01  0.6108E-01
      4.340  0.2771E-02  0.2771E-02  0.6129E-01  0.6129E-01
      4.413  0.2506E-02  0.2506E-02  0.6147E-01  0.6147E-01
      4.487  0.1814E-02  0.1814E-02  0.6161E-01  0.6161E-01
      4.560  0.1095E-02  0.1095E-02  0.6169E-01  0.6169E-01
      4.634  0.6581E-03  0.6581E-03  0.6173E-01  0.6173E-01
      4.707  0.4185E-03  0.4185E-03  0.6177E-01  0.6177E-01
      4.781  0.2771E-03  0.2772E-03  0.6179E-01  0.6179E-01
      4.854  0.4256E-03  0.4256E-03  0.6182E-01  0.6182E-01
      4.928  0.1046E-02  0.1046E-02  0.6189E-01  0.6189E-01
      5.001  0.1831E-02  0.1831E-02  0.6203E-01  0.6203E-01
      5.075  0.2123E-02  0.2123E-02  0.6218E-01  0.6218E-01
      5.148  0.1620E-02  0.1620E-02  0.6230E-01  0.6230E-01
      5.222  0.6986E-03  0.6986E-03  0.6235E-01  0.6235E-01
      5.295 -0.4019E-04 -0.4021E-04  0.6235E-01  0.6235E-01
      5.369 -0.2005E-03 -0.2005E-03  0.6234E-01  0.6234E-01
      5.442  0.4743E-03  0.4743E-03  0.6237E-01  0.6237E-01
      5.516  0.2031E-02  0.2031E-02  0.6252E-01  0.6252E-01
      5.589  0.3828E-02  0.3828E-02  0.6280E-01  0.6280E-01
      5.663  0.4647E-02  0.4647E-02  0.6314E-01  0.6314E-01
      5.736  0.3885E-02  0.3885E-02  0.6343E-01  0.6343E-01
      5.810  0.2379E-02  0.2379E-02  0.6360E-01  0.6360E-01
      5.883  0.1534E-02  0.1534E-02  0.6372E-01  0.6372E-01
      5.957  0.1845E-02  0.1845E-02  0.6385E-01  0.6385E-01
      6.030  0.2625E-02  0.2625E-02  0.6405E-01  0.6405E-01
      6.104  0.2902E-02  0.2902E-02  0.6426E-01  0.6426E-01
      6.177  0.2401E-02  0.2401E-02  0.6444E-01  0.6444E-01
      6.251  0.1748E-02  0.1748E-02  0.6456E-01  0.6456E-01
      6.324  0.1729E-02  0.1729E-02  0.6469E-01  0.6469E-01
      6.398  0.2410E-02  0.2410E-02  0.6487E-01  0.6487E-01
      6.471  0.3248E-02  0.3248E-02  0.6511E-01  0.6511E-01
      6.545  0.3906E-02  0.3906E-02  0.6539E-01  0.6539E-01
      6.618  0.4448E-02  0.4448E-02  0.6572E-01  0.6572E-01
      6.692  0.4722E-02  0.4722E-02  0.6607E-01  0.6607E-01
      6.765  0.4193E-02  0.4193E-02  0.6638E-01  0.6638E-01
      6.839  0.2761E-02  0.2761E-02  0.6658E-01  0.6658E-01
      6.912  0.1332E-02  0.1332E-02  0.6668E-01  0.6668E-01
      6.986  0.1016E-02  0.1016E-02  0.6675E-01  0.6675E-01
      7.059  0.1887E-02  0.1887E-02  0.6689E-01  0.6689E-01
      7.132  0.2873E-02  0.2873E-02  0.6710E-01  0.6710E-01
      7.206  0.2901E-02  0.2901E-02  0.6731E-01  0.6731E-01
      7.279  0.2011E-02  0.2011E-02  0.6746E-01  0.6746E-01
      7.353  0.1136E-02  0.1136E-02  0.6755E-01  0.6755E-01
      7.426  0.8782E-03  0.8782E-03  0.6761E-01  0.6761E-01
      7.500  0.9983E-03  0.9983E-03  0.6768E-01  0.6768E-01
      7.573  0.1089E-02  0.1089E-02  0.6776E-01  0.6776E-01
      7.647  0.1144E-02  0.1144E-02  0.6785E-01  0.6785E-01
      7.720  0.1372E-02  0.1372E-02  0.6795E-01  0.6795E-01
      7.794  0.2052E-02  0.2052E-02  0.6810E-01  0.6810E-01
      7.867  0.3535E-02  0.3535E-02  0.6836E-01  0.6836E-01
      7.941  0.5654E-02  0.5654E-02  0.6877E-01  0.6877E-01
      8.014  0.7199E-02  0.7199E-02  0.6930E-01  0.6930E-01
      8.088  0.6852E-02  0.6852E-02  0.6981E-01  0.6981E-01
      8.161  0.4849E-02  0.4849E-02  0.7016E-01  0.7016E-01
      8.235  0.2900E-02  0.2900E-02  0.7038E-01  0.7038E-01
      8.308  0.2177E-02  0.2177E-02  0.7054E-01  0.7054E-01
      8.382  0.2200E-02  0.2200E-02  0.7070E-01  0.7070E-01
      8.455  0.2062E-02  0.2062E-02  0.7085E-01  0.7085E-01
      8.529  0.1747E-02  0.1747E-02  0.7098E-01  0.7098E-01
      8.602  0.1697E-02  0.1697E-02  0.7110E-01  0.7110E-01
      8.676  0.1923E-02  0.1923E-02  0.7124E-01  0.7124E-01
      8.749  0.2199E-02  0.2199E-02  0.7141E-01  0.7141E-01
      8.823  0.2499E-02  0.2499E-02  0.7159E-01  0.7159E-01
      8.896  0.2683E-02  0.2682E-02  0.7179E-01  0.7179E-01
      8.970  0.2326E-02  0.2327E-02  0.7196E-01  0.7196E-01
      9.043  0.1345E-02  0.1345E-02  0.7206E-01  0.7206E-01
      9.117  0.2842E-03  0.2845E-03  0.7208E-01  0.7208E-01
      9.190 -0.1918E-03 -0.1918E-03  0.7206E-01  0.7206E-01
      9.264  0.2967E-03  0.2966E-03  0.7208E-01  0.7208E-01
      9.337  0.1795E-02  0.1795E-02  0.7222E-01  0.7222E-01
      9.411  0.3845E-02  0.3845E-02  0.7250E-01  0.7250E-01
      9.484  0.5581E-02  0.5581E-02  0.7291E-01  0.7291E-01
      9.558  0.6366E-02  0.6366E-02  0.7338E-01  0.7338E-01
      9.631  0.6105E-02  0.6105E-02  0.7383E-01  0.7383E-01
      9.705  0.5060E-02  0.5060E-02  0.7420E-01  0.7420E-01
      9.778  0.3784E-02  0.3784E-02  0.7448E-01  0.7448E-01
      9.851  0.2849E-02  0.2849E-02  0.7468E-01  0.7468E-01
      9.925  0.2236E-02  0.2236E-02  0.7485E-01  0.7485E-01
      9.998  0.1528E-02  0.1528E-02  0.7496E-01  0.7496E-01
     10.072  0.6963E-03  0.6964E-03  0.7501E-01  0.7501E-01
     10.145  0.9743E-04  0.9747E-04  0.7502E-01  0.7502E-01
     10.219 -0.1135E-03 -0.1135E-03  0.7501E-01  0.7501E-01
     10.292 -0.9784E-04 -0.9785E-04  0.7500E-01  0.7500E-01
     10.366 -0.4218E-04 -0.4218E-04  0.7500E-01  0.7500E-01
     10.439 -0.1196E-04 -0.1196E-04  0.7500E-01  0.7500E-01
     10.513 -0.2399E-05 -0.2399E-05  0.7500E-01  0.7500E-01
     10.586 -0.3510E-06 -0.3511E-06  0.7500E-01  0.7500E-01
     10.660 -0.3807E-07 -0.3808E-07  0.7500E-01  0.7500E-01
     10.733 -0.3088E-08 -0.3089E-08  0.7500E-01  0.7500E-01
     10.807 -0.1885E-09 -0.1885E-09  0.7500E-01  0.7500E-01
     10.880 -0.8683E-11 -0.8686E-11  0.7500E-01  0.7500E-01
     10.954 -0.3029E-12 -0.3030E-12  0.7500E-01  0.7500E-01
     11.027 -0.8010E-14 -0.8012E-14  0.7500E-01  0.7500E-01
     11.101 -0.1612E-15 -0.1612E-15  0.7500E-01  0.7500E-01
     11.174 -0.2518E-17 -0.2518E-17  0.7500E-01  0.7500E-01
     11.248  0.0000E+00  0.0000E+00  0.7500E-01  0.7500E-01
     11.321  0.0000E+00  0.0000E+00  0.7500E-01  0.7500E-01
     11.395  0.0000E+00  0.0000E+00  0.7500E-01  0.7500E-01
     11.468  0.0000E+00  0.0000E+00  0.7500E-01  0.7500E-01
     11.542  0.0000E+00  0.0000E+00  0.7500E-01  0.7500E-01
     11.615  0.0000E+00  0.0000E+00  0.7500E-01  0.7500E-01
     11.689  0.0000E+00  0.0000E+00  0.7500E-01  0.7500E-01
     11.762  0.0000E+00  0.0000E+00  0.7500E-01  0.7500E-01
     11.836  0.0000E+00  0.0000E+00  0.7500E-01  0.7500E-01
     11.909  0.0000E+00  0.0000E+00  0.7500E-01  0.7500E-01
