 vasp.6.3.2 27Jun22 (build Aug 17 2022 15:43:34) complex                        
  
 executed on           tv2STDVTST date 2025.02.04  13:47:02
 running   20 mpi-ranks, with    1 threads/rank
 distrk:  each k-point on   20 cores,    1 groups
 distr:  one band on NCORE=   5 cores,    4 groups


--------------------------------------------------------------------------------------------------------


 -----------------------------------------------------------------------------
|                                                                             |
|           W    W    AA    RRRRR   N    N  II  N    N   GGGG   !!!           |
|           W    W   A  A   R    R  NN   N  II  NN   N  G    G  !!!           |
|           W    W  A    A  R    R  N N  N  II  N N  N  G       !!!           |
|           W WW W  AAAAAA  RRRRR   N  N N  II  N  N N  G  GGG   !            |
|           WW  WW  A    A  R   R   N   NN  II  N   NN  G    G                |
|           W    W  A    A  R    R  N    N  II  N    N   GGGG   !!!           |
|                                                                             |
|     Found issues when parsing the INCAR file                                |
|     In line 61: Tagname --- R W I G S contains invalid characters.          |
|     Please check if the interpretation in the OUTCAR file is correct.       |
|                                                                             |
 -----------------------------------------------------------------------------

 INCAR:
    = \=\=\=\=\=\=\=\=\=\=\=\=\=\=\=\=\=\=\=\=\=\=\=\=\=\=\=\=\=\=\=\=\=\=\=\=\=\=\=\=\=\=\=\=\=\=\=\=\=\=\=\=\=\=\=\=\=\=\=\=\=\=\=\=\=\=\=\=\=\=\=\=
    = \=\=\=\=\=\=\=\=\=\=\=\=\=\=\=\=\=\=\=\=\=\=\=\=\=\=\=\=\=\=\=\=\=\=\=\=\=\=\=\=\=\=\=\=\=\=\=\=\=\=\=\=\=\=\=\=\=\=\=\=\=\=\=\=\=\=\=\=\=\=\=\=
   ISTART = 0
   ICHARG = 2
   IPIPOL = 3
   IVDW = 11
    = \=\=\=\=\=\=\=\=\=\=\=\=\=\=\=\=\=\=\=\=\=\=\=\=\=\=\=\=\=\=\=\=\=\=\=\=\=\=\=\=\=\=\=\=\=\=\=\=\=\=\=\=\=\=\=\=\=\=\=\=\=\=\=\=\=\=\=\=\=\=\=\=
    = \=\=\=\=\=\=\=\=\=\=\=\=\=\=\=\=\=\=\=\=\=\=\=\=\=\=\=\=\=\=\=\=\=\=\=\=\=\=\=\=\=\=\=\=\=\=\=\=\=\=\=\=\=\=\=\=\=\=\=\=\=\=\=\=\=\=\=\=\=\=\=\=
   ISPIN = 2
    = \=\=\=\=\=\=\=\=\=\=\=\=\=\=\=\=\=\=\=\=\=\=\=\=\=\=\=\=\=\=\=\=\=\=\=\=\=\=\=\=\=\=\=\=\=\=\=\=\=\=\=\=\=\=\=\=\=\=\=\=\=\=\=\=\=\=\=\=\=\=\=\=
    = \=\=\=\=\=\=\=\=\=\=\=\=\=\=\=\=\=\=\=\=\=\=\=\=\=\=\=\=\=\=\=\=\=\=\=\=\=\=\=\=\=\=\=\=\=\=\=\=\=\=\=\=\=\=\=\=\=\=\=\=\=\=\=\=\=\=\=\=\=\=\=\=
   ENCUT = 400
   PREC = Normal
   EDIFF = 2E-04
   GGA = PE
   ISMEAR = 1
   SIGMA = 0.2
   LREAL = .FALSE.
    = \=\=\=\=\=\=\=\=\=\=\=\=\=\=\=\=\=\=\=\=\=\=\=\=\=\=\=\=\=\=\=\=\=\=\=\=\=\=\=\=\=\=\=\=\=\=\=\=\=\=\=\=\=\=\=\=\=\=\=\=\=\=\=\=\=\=\=\=\=\=\=\=
    = \=\=\=\=\=\=\=\=\=\=\=\=\=\=\=\=\=\=\=\=\=\=\=\=\=\=\=\=\=\=\=\=\=\=\=\=\=\=\=\=\=\=\=\=\=\=\=\=\=\=\=\=\=\=\=\=\=\=\=\=\=\=\=\=\=\=\=\=\=\=\=\=
   ISYM = 1
   NSW = 800
   IBRION = 2
   POTIM = 0.5
   ISIF = 2
   EDIFFG = -.03
    = \=\=\=\=\=\=\=\=\=\=\=\=\=\=\=\=\=\=\=\=\=\=\=\=\=\=\=\=\=\=\=\=\=\=\=\=\=\=\=\=\=\=\=\=\=\=\=\=\=\=\=\=\=\=\=\=\=\=\=\=\=\=\=\=\=\=\=\=\=\=\=\=
    = \=\=\=\=\=\=\=\=\=\=\=\=\=\=\=\=\=\=\=\=\=\=\=\=\=\=\=\=\=\=\=\=\=\=\=\=\=\=\=\=\=\=\=\=\=\=\=\=\=\=\=\=\=\=\=\=\=\=\=\=\=\=\=\=\=\=\=\=\=\=\=\=
   NPAR = 4
   LWAVE = .FALSE.
   LCHARG = .FALSE.

 POTCAR:    PAW_PBE Cu 22Jun2005                  
 POTCAR:    PAW_PBE H 15Jun2001                   
 -----------------------------------------------------------------------------
|                                                                             |
|           W    W    AA    RRRRR   N    N  II  N    N   GGGG   !!!           |
|           W    W   A  A   R    R  NN   N  II  NN   N  G    G  !!!           |
|           W    W  A    A  R    R  N N  N  II  N N  N  G       !!!           |
|           W WW W  AAAAAA  RRRRR   N  N N  II  N  N N  G  GGG   !            |
|           WW  WW  A    A  R   R   N   NN  II  N   NN  G    G                |
|           W    W  A    A  R    R  N    N  II  N    N   GGGG   !!!           |
|                                                                             |
|     You use a magnetic or noncollinear calculation, but did not specify     |
|     the initial magnetic moment with the MAGMOM tag. Note that a            |
|     default of 1 will be used for all atoms. This ferromagnetic setup       |
|     may break the symmetry of the crystal, in particular it may rule        |
|     out finding an antiferromagnetic solution. Thence, we recommend         |
|     setting the initial magnetic moment manually or verifying carefully     |
|     that this magnetic setup is desired.                                    |
|                                                                             |
 -----------------------------------------------------------------------------

 POTCAR:    PAW_PBE Cu 22Jun2005                  
   SHA256 =  0e71e558f37a4e8407882b4609ceaae59938afaad9ced71dfe8490308a0ab630 Cu/POTCAR             
   COPYR  = (c) Copyright 22Jun2005 Georg Kresse                                                    
   COPYR  = This file is part of the software VASP. Any use, copying, and all other rights are regul
   COPYR  = If you do not have a valid VASP license, you may not use, copy or distribute this file. 
   VRHFIN =Cu: d10 p1                                                                               
   LEXCH  = PE                                                                                      
   EATOM  =  1390.9808 eV,  102.2342 Ry                                                             
                                                                                                    
   TITEL  = PAW_PBE Cu 22Jun2005                                                                    
   LULTRA =        F    use ultrasoft PP ?                                                          
   IUNSCR =        1    unscreen: 0-lin 1-nonlin 2-no                                               
   RPACOR =    2.000    partial core radius                                                         
   POMASS =   63.546; ZVAL   =   11.000    mass and valenz                                          
   RCORE  =    2.300    outmost cutoff radius                                                       
   RWIGS  =    2.200; RWIGS  =    1.164    wigner-seitz radius (au A)                               
   ENMAX  =  295.446; ENMIN  =  221.585 eV                                                          
   ICORE  =        3    local potential                                                             
   LCOR   =        T    correct aug charges                                                         
   LPAW   =        T    paw PP                                                                      
   EAUG   =  586.980                                                                                
   DEXC   =    0.000                                                                                
   RMAX   =    2.344    core radius for proj-oper                                                   
   RAUG   =    1.300    factor for augmentation sphere                                              
   RDEP   =    2.302    radius for radial grids                                                     
   RDEPT  =    1.771    core radius for aug-charge                                                  
                                                                                                    
   Atomic configuration                                                                             
    9 entries                                                                                       
     n  l   j            E        occ.                                                              
     1  0  0.50     -8850.2468   2.0000                                                             
     2  0  0.50     -1062.3498   2.0000                                                             
     2  1  1.50      -916.8226   6.0000                                                             
     3  0  0.50      -114.6929   2.0000                                                             
     3  1  1.50       -72.1325   6.0000                                                             
     3  2  2.50        -5.0394  10.0000                                                             
     4  0  0.50        -4.6097   1.0000                                                             
     4  1  0.50        -4.0817   0.0000                                                             
     4  3  2.50        -1.3606   0.0000                                                             
   Description                                                                                      
     l       E           TYP  RCUT    TYP  RCUT                                                     
     2     -5.0393973     23  2.200                                                                 
     2     10.8846608     23  2.200                                                                 
     0     -4.6097109     23  2.200                                                                 
     0      8.2520465     23  2.200                                                                 
     1     -2.7211652     23  2.200                                                                 
     1     21.7055443     23  2.200                                                                 
     3      2.7211652     23  2.300                                                                 
  local pseudopotential read in
  partial core-charges read in
  partial kinetic energy density read in
  atomic valenz-charges read in
  non local Contribution for L=           2  read in
    real space projection operators read in
  non local Contribution for L=           2  read in
    real space projection operators read in
  non local Contribution for L=           0  read in
    real space projection operators read in
  non local Contribution for L=           0  read in
    real space projection operators read in
  non local Contribution for L=           1  read in
    real space projection operators read in
  non local Contribution for L=           1  read in
    real space projection operators read in
    PAW grid and wavefunctions read in
 
   number of l-projection  operators is LMAX  =           6
   number of lm-projection operators is LMMAX =          18
 
 POTCAR:    PAW_PBE H 15Jun2001                   
   SHA256 =  030f79b5d3ab3cf0e668861823c8fb652ff669f3e15e46930bd03bfd63a607b6 H/POTCAR              
   COPYR  = (c) Copyright 15Jun2001 Georg Kresse                                                    
   COPYR  = This file is part of the software VASP. Any use, copying, and all other rights are regul
   COPYR  = If you do not have a valid VASP license, you may not use, copy or distribute this file. 
   VRHFIN =H: ultrasoft test                                                                        
   LEXCH  = PE                                                                                      
   EATOM  =    12.4884 eV,    0.9179 Ry                                                             
                                                                                                    
   TITEL  = PAW_PBE H 15Jun2001                                                                     
   LULTRA =        F    use ultrasoft PP ?                                                          
   IUNSCR =        0    unscreen: 0-lin 1-nonlin 2-no                                               
   RPACOR =    0.000    partial core radius                                                         
   POMASS =    1.000; ZVAL   =    1.000    mass and valenz                                          
   RCORE  =    1.100    outmost cutoff radius                                                       
   RWIGS  =    0.700; RWIGS  =    0.370    wigner-seitz radius (au A)                               
   ENMAX  =  250.000; ENMIN  =  200.000 eV                                                          
   RCLOC  =    0.701    cutoff for local pot                                                        
   LCOR   =        T    correct aug charges                                                         
   LPAW   =        T    paw PP                                                                      
   EAUG   =  400.000                                                                                
   RMAX   =    1.123    core radius for proj-oper                                                   
   RAUG   =    1.200    factor for augmentation sphere                                              
   RDEP   =    1.112    radius for radial grids                                                     
   RDEPT  =    0.926    core radius for aug-charge                                                  
                                                                                                    
   Atomic configuration                                                                             
    2 entries                                                                                       
     n  l   j            E        occ.                                                              
     1  0  0.50        -6.4927   1.0000                                                             
     2  1  0.50        -3.4015   0.0000                                                             
   Description                                                                                      
     l       E           TYP  RCUT    TYP  RCUT                                                     
     0     -6.4927494     23  1.100                                                                 
     0      6.8029130     23  1.100                                                                 
     1     -4.0817478     23  1.100                                                                 
  local pseudopotential read in
  atomic valenz-charges read in
  non local Contribution for L=           0  read in
    real space projection operators read in
  non local Contribution for L=           0  read in
    real space projection operators read in
  non local Contribution for L=           1  read in
    real space projection operators read in
    PAW grid and wavefunctions read in
 
   number of l-projection  operators is LMAX  =           3
   number of lm-projection operators is LMMAX =           5
 
  PAW_PBE Cu 22Jun2005                  :
 energy of atom  1       EATOM=-1390.9808
 kinetic energy error for atom=    0.0232 (will be added to EATOM!!)
  PAW_PBE H 15Jun2001                   :
 energy of atom  2       EATOM=  -12.4884
 kinetic energy error for atom=    0.0098 (will be added to EATOM!!)
 
 
 POSCAR: FCC Cu
  positions in cartesian coordinates
  No initial velocities read in
 exchange correlation table for  LEXCH =        8
   RHO(1)=    0.500       N(1)  =     2000
   RHO(2)=  100.500       N(2)  =     4000

 VTST: version 4.2, (08/11/21)

 CHAIN: initializing optimizer
 
 OPT: Using VASP Conjugate-Gradient optimizer
 CHAIN: Read ICHAIN            0
 
 POSCAR: FCC Cu
  positions in cartesian coordinates
  No initial velocities read in
 


--------------------------------------------------------------------------------------------------------


 ion  position               nearest neighbor table
   1  0.000  0.000  0.000-   3 2.51   2 2.57   2 2.57   2 2.57   2 2.57
   2  0.500  0.500  0.054-   4 2.50   3 2.54   3 2.54   3 2.54   3 2.54   1 2.57   1 2.57   1 2.57
                             1 2.57
   3  0.000  0.000  0.105-   1 2.51   2 2.54   2 2.54   2 2.54   2 2.54   5 2.54   4 2.56   4 2.56
                             4 2.56   4 2.56
   4  0.500  0.500  0.158-   2 2.50   6 2.52   5 2.56   5 2.56   5 2.56   5 2.56   3 2.56   3 2.56
                             3 2.56   3 2.56
   5  0.000  0.000  0.211-   3 2.54   6 2.55   6 2.55   6 2.55   6 2.55   7 2.55   4 2.56   4 2.56
                             4 2.56   4 2.56
   6  0.500  0.500  0.263-   8 2.44   4 2.52   5 2.55   5 2.55   5 2.55   5 2.55   7 2.58   7 2.58
                             7 2.58   7 2.58
   7  0.000  0.000  0.317-   8 2.50   8 2.50   8 2.50   8 2.50   5 2.55   6 2.58   6 2.58   6 2.58
                             6 2.58
   8  0.500  0.500  0.365-   6 2.44   7 2.50   7 2.50   7 2.50   7 2.50
   9  1.000  0.000  0.427-  10 0.75
  10  1.000  0.000  0.458-   9 0.75
 
  LATTYP: Found a simple orthorhombic cell.
 ALAT       =     2.5667977333
 B/A-ratio  =     1.4142135422
 C/A-ratio  =     9.3438571494
  
  Lattice vectors:
  
 A1 = (   0.0000000000,  -2.5667977333,   0.0000000000)
 A2 = (   3.6300001144,   0.0000000000,   0.0000000000)
 A3 = (   0.0000000000,   0.0000000000,  23.9837913513)


Analysis of symmetry for initial positions (statically):
=====================================================================
 Subroutine PRICEL returns:
 Original cell was already a primitive cell.
 

 Routine SETGRP: Setting up the symmetry group for a 
 simple orthorhombic supercell.


 Subroutine GETGRP returns: Found  4 space group operations
 (whereof  4 operations were pure point group operations)
 out of a pool of  8 trial point group operations.


The static configuration has the point symmetry C_2v.


Analysis of symmetry for dynamics (positions and initial velocities):
=====================================================================
 Subroutine PRICEL returns:
 Original cell was already a primitive cell.
 

 Routine SETGRP: Setting up the symmetry group for a 
 simple orthorhombic supercell.


 Subroutine GETGRP returns: Found  4 space group operations
 (whereof  4 operations were pure point group operations)
 out of a pool of  8 trial point group operations.


The dynamic configuration has the point symmetry C_2v.


Analysis of structural, dynamic, and magnetic symmetry:
=====================================================================
 Subroutine PRICEL returns:
 Original cell was already a primitive cell.
 

 Routine SETGRP: Setting up the symmetry group for a 
 simple orthorhombic supercell.


 Subroutine GETGRP returns: Found  4 space group operations
 (whereof  4 operations were pure point group operations)
 out of a pool of  8 trial point group operations.


The overall configuration has the point symmetry C_2v.


 Subroutine INISYM returns: Found  4 space group operations
 (whereof  4 operations are pure point group operations),
 and found     1 'primitive' translations


----------------------------------------------------------------------------------------

                                     Primitive cell                                     

  volume of cell :     223.4684

  direct lattice vectors                    reciprocal lattice vectors
     3.630000114  0.000000000  0.000000000     0.275482085  0.000000000  0.000000000
     0.000000000  2.566797733  0.000000000     0.000000000  0.389590495  0.000000000
     0.000000000  0.000000000 23.983791351     0.000000000  0.000000000  0.041694826

  length of vectors
     3.630000114  2.566797733 23.983791351     0.275482085  0.389590495  0.041694826

  position of ions in fractional coordinates (direct lattice)
     0.000000000  0.000000000  0.000000000
     0.500000000  0.500000000  0.053511090
     0.000000000  0.000000000  0.104681476
     0.500000000  0.500000000  0.157929955
     0.000000000  0.000000000  0.210708991
     0.500000000  0.500000000  0.262890478
     0.000000000  0.000000000  0.317115916
     0.500000000  0.500000000  0.364675901
     1.000000000  0.000000000  0.426907920
     1.000000000  0.000000000  0.458012260

  ion indices of the primitive-cell ions
   primitive index   ion index
                 1           1
                 2           2
                 3           3
                 4           4
                 5           5
                 6           6
                 7           7
                 8           8
                 9           9
                10          10

----------------------------------------------------------------------------------------

 
 
 KPOINTS: Auto-mesh                               

Automatic generation of k-mesh.
 Grid dimensions read from file:
 generate k-points for:    3    3    1

 Generating k-lattice:

  Cartesian coordinates                     Fractional coordinates (reciprocal lattice)
     0.091827362  0.000000000  0.000000000     0.333333333  0.000000000  0.000000000
     0.000000000  0.129863498  0.000000000     0.000000000  0.333333333  0.000000000
     0.000000000  0.000000000  0.041694826     0.000000000  0.000000000  1.000000000

  Length of vectors
     0.091827362  0.129863498  0.041694826

  Shift w.r.t. Gamma in fractional coordinates (k-lattice)
     0.000000000  0.000000000  0.000000000

 
 Subroutine IBZKPT returns following result:
 ===========================================
 
 Found      4 irreducible k-points:
 
 Following reciprocal coordinates:
            Coordinates               Weight
  0.000000  0.000000  0.000000      1.000000
  0.333333  0.000000  0.000000      2.000000
  0.000000  0.333333  0.000000      2.000000
  0.333333  0.333333  0.000000      4.000000
 
 Following cartesian coordinates:
            Coordinates               Weight
  0.000000  0.000000  0.000000      1.000000
  0.091827  0.000000  0.000000      2.000000
  0.000000  0.129863  0.000000      2.000000
  0.091827  0.129863  0.000000      4.000000
 


--------------------------------------------------------------------------------------------------------




 Dimension of arrays:
   k-points           NKPTS =      4   k-points in BZ     NKDIM =      4   number of bands    NBANDS=     60
   number of dos      NEDOS =    301   number of ions     NIONS =     10
   non local maximal  LDIM  =      6   non local SUM 2l+1 LMDIM =     18
   total plane-waves  NPLWV =  30240
   max r-space proj   IRMAX =      1   max aug-charges    IRDMAX=   4119
   dimension x,y,z NGX =    18 NGY =   14 NGZ =  120
   dimension x,y,z NGXF=    36 NGYF=   28 NGZF=  240
   support grid    NGXF=    36 NGYF=   28 NGZF=  240
   ions per type =               8   2
   NGX,Y,Z   is equivalent  to a cutoff of   8.24,  9.07,  8.32 a.u.
   NGXF,Y,Z  is equivalent  to a cutoff of  16.49, 18.13, 16.64 a.u.

 SYSTEM =  unknown system                          
 POSCAR =  FCC Cu                                  

 Startparameter for this run:
   NWRITE =      2    write-flag & timer
   PREC   = normal    normal or accurate (medium, high low for compatibility)
   ISTART =      0    job   : 0-new  1-cont  2-samecut
   ICHARG =      2    charge: 1-file 2-atom 10-const
   ISPIN  =      2    spin polarized calculation?
   LNONCOLLINEAR =      F non collinear calculations
   LSORBIT =      F    spin-orbit coupling
   INIWAV =      1    electr: 0-lowe 1-rand  2-diag
   LASPH  =      F    aspherical Exc in radial PAW
 Electronic Relaxation 1
   ENCUT  =  400.0 eV  29.40 Ry    5.42 a.u.   5.92  4.19 39.11*2*pi/ulx,y,z
   ENINI  =  400.0     initial cutoff
   ENAUG  =  587.0 eV  augmentation charge cutoff
   NELM   =     60;   NELMIN=  2; NELMDL= -5     # of ELM steps 
   EDIFF  = 0.2E-03   stopping-criterion for ELM
   LREAL  =      F    real-space projection
   NLSPLINE    = F    spline interpolate recip. space projectors
   LCOMPAT=      F    compatible to vasp.4.4
   GGA_COMPAT  = T    GGA compatible to vasp.4.4-vasp.4.6
   LMAXPAW     = -100 max onsite density
   LMAXMIX     =    2 max onsite mixed and CHGCAR
   VOSKOWN=      0    Vosko Wilk Nusair interpolation
   ROPT   =    0.00000   0.00000
 Ionic relaxation
   EDIFFG = -.3E-01   stopping-criterion for IOM
   NSW    =    800    number of steps for IOM
   NBLOCK =      1;   KBLOCK =    800    inner block; outer block 
   IBRION =      2    ionic relax: 0-MD 1-quasi-New 2-CG
   NFREE  =      1    steps in history (QN), initial steepest desc. (CG)
   ISIF   =      2    stress and relaxation
   IWAVPR =     11    prediction:  0-non 1-charg 2-wave 3-comb
   ISYM   =      1    0-nonsym 1-usesym 2-fastsym
   LCORR  =      T    Harris-Foulkes like correction to forces

   POTIM  = 0.5000    time-step for ionic-motion
   TEIN   =    0.0    initial temperature
   TEBEG  =    0.0;   TEEND  =   0.0 temperature during run
   SMASS  =  -3.00    Nose mass-parameter (am)
   estimated Nose-frequenzy (Omega)   =  0.10E-29 period in steps = 0.13E+47 mass=  -0.301E-27a.u.
   SCALEE = 1.0000    scale energy and forces
   NPACO  =    256;   APACO  = 10.0  distance and # of slots for P.C.
   PSTRESS=    0.0 pullay stress

  Mass of Ions in am
   POMASS =  63.55  1.00
  Ionic Valenz
   ZVAL   =  11.00  1.00
  Atomic Wigner-Seitz radii
   RWIGS  =  -1.00 -1.00
  virtual crystal weights 
   VCA    =   1.00  1.00
   NELECT =      90.0000    total number of electrons
   NUPDOWN=      -1.0000    fix difference up-down

 DOS related values:
   EMIN   =  10.00;   EMAX   =-10.00  energy-range for DOS
   EFERMI =   0.00
   ISMEAR =     1;   SIGMA  =   0.20  broadening in eV -4-tet -1-fermi 0-gaus

 Electronic relaxation 2 (details)
   IALGO  =     38    algorithm
   LDIAG  =      T    sub-space diagonalisation (order eigenvalues)
   LSUBROT=      F    optimize rotation matrix (better conditioning)
   TURBO    =      0    0=normal 1=particle mesh
   IRESTART =      0    0=no restart 2=restart with 2 vectors
   NREBOOT  =      0    no. of reboots
   NMIN     =      0    reboot dimension
   EREF     =   0.00    reference energy to select bands
   IMIX   =      4    mixing-type and parameters
     AMIX     =   0.40;   BMIX     =  1.00
     AMIX_MAG =   1.60;   BMIX_MAG =  1.00
     AMIN     =   0.10
     WC   =   100.;   INIMIX=   1;  MIXPRE=   1;  MAXMIX= -45

 Intra band minimization:
   WEIMIN = 0.0010     energy-eigenvalue tresh-hold
   EBREAK =  0.83E-06  absolut break condition
   DEPER  =   0.30     relativ break condition  

   TIME   =   0.40     timestep for ELM

  volume/ion in A,a.u.               =      22.35       150.80
  Fermi-wavevector in a.u.,A,eV,Ry     =   1.208974  2.284630 19.886522  1.461618
  Thomas-Fermi vector in A             =   2.344566
 
 Write flags
   LWAVE        =      F    write WAVECAR
   LDOWNSAMPLE  =      F    k-point downsampling of WAVECAR
   LCHARG       =      F    write CHGCAR
   LVTOT        =      F    write LOCPOT, total local potential
   LVHAR        =      F    write LOCPOT, Hartree potential only
   LELF         =      F    write electronic localiz. function (ELF)
   LORBIT       =      0    0 simple, 1 ext, 2 COOP (PROOUT), +10 PAW based schemes


 Dipole corrections
   LMONO  =      F    monopole corrections only (constant potential shift)
   LDIPOL =      F    correct potential (dipole corrections)
   IDIPOL =      0    1-x, 2-y, 3-z, 4-all directions 
   EPSILON=  1.0000000 bulk dielectric constant

 Exchange correlation treatment:
   GGA     =    PE    GGA type
   LEXCH   =     8    internal setting for exchange type
   LIBXC   =     F    Libxc                    
   VOSKOWN =     0    Vosko Wilk Nusair interpolation
   LHFCALC =     F    Hartree Fock is set to
   LHFONE  =     F    Hartree Fock one center treatment
   AEXX    =    0.0000 exact exchange contribution

 Linear response parameters
   LEPSILON=     F    determine dielectric tensor
   LRPA    =     F    only Hartree local field effects (RPA)
   LNABLA  =     F    use nabla operator in PAW spheres
   LVEL    =     F    velocity operator in full k-point grid
   CSHIFT  =0.1000    complex shift for real part using Kramers Kronig
   OMEGAMAX=  -1.0    maximum frequency
   DEG_THRESHOLD= 0.2000000E-02 threshold for treating states as degnerate
   RTIME   =   -0.100 relaxation time in fs
  (WPLASMAI=    0.000 imaginary part of plasma frequency in eV, 0.658/RTIME)
   DFIELD  = 0.0000000 0.0000000 0.0000000 field for delta impulse in time
 
  Optional k-point grid parameters
   LKPOINTS_OPT  =     F    use optional k-point grid
   KPOINTS_OPT_MODE=     1    mode for optional k-point grid
 
 Orbital magnetization related:
   ORBITALMAG=     F  switch on orbital magnetization
   LCHIMAG   =     F  perturbation theory with respect to B field
   DQ        =  0.001000  dq finite difference perturbation B field
   LLRAUG    =     F  two centre corrections for induced B field



--------------------------------------------------------------------------------------------------------


 conjugate gradient relaxation of ions
 charge density and potential will be updated during run
 spin polarized calculation
 Variant of blocked Davidson
 Davidson routine will perform the subspace rotation
 perform sub-space diagonalisation
    after iterative eigenvector-optimisation
 modified Broyden-mixing scheme, WC =      100.0
 initial mixing is a Kerker type mixing with AMIX =  0.4000 and BMIX =      1.0000
 Hartree-type preconditioning will be used
 using additional bands           15
 reciprocal scheme for non local part
 use partial core corrections
 calculate Harris-corrections to forces 
   (improved forces if not selfconsistent)
 use gradient corrections 
 use of overlap-Matrix (Vanderbilt PP)
 Methfessel and Paxton  Order N= 1 SIGMA  =   0.20


--------------------------------------------------------------------------------------------------------


  energy-cutoff  :      400.00
  volume of cell :      223.47
      direct lattice vectors                 reciprocal lattice vectors
     3.630000114  0.000000000  0.000000000     0.275482085  0.000000000  0.000000000
     0.000000000  2.566797733  0.000000000     0.000000000  0.389590495  0.000000000
     0.000000000  0.000000000 23.983791351     0.000000000  0.000000000  0.041694826

  length of vectors
     3.630000114  2.566797733 23.983791351     0.275482085  0.389590495  0.041694826


 
 k-points in units of 2pi/SCALE and weight: Auto-mesh                               
   0.00000000  0.00000000  0.00000000       0.111
   0.09182736  0.00000000  0.00000000       0.222
   0.00000000  0.12986350  0.00000000       0.222
   0.09182736  0.12986350  0.00000000       0.444
 
 k-points in reciprocal lattice and weights: Auto-mesh                               
   0.00000000  0.00000000  0.00000000       0.111
   0.33333333  0.00000000  0.00000000       0.222
   0.00000000  0.33333333  0.00000000       0.222
   0.33333333  0.33333333  0.00000000       0.444
 
 position of ions in fractional coordinates (direct lattice) 
   0.00000000  0.00000000  0.00000000
   0.50000000  0.50000000  0.05351109
   0.00000000  0.00000000  0.10468148
   0.50000000  0.50000000  0.15792996
   0.00000000  0.00000000  0.21070899
   0.50000000  0.50000000  0.26289048
   0.00000000  0.00000000  0.31711592
   0.50000000  0.50000000  0.36467590
   1.00000000  0.00000000  0.42690792
   1.00000000  0.00000000  0.45801226
 
 position of ions in cartesian coordinates  (Angst):
   0.00000000  0.00000000  0.00000000
   1.81500006  1.28339887  1.28339883
   0.00000000  0.00000000  2.51065868
   1.81500006  1.28339887  3.78775910
   0.00000000  0.00000000  5.05360047
   1.81500006  1.28339887  6.30511038
   0.00000000  0.00000000  7.60564196
   1.81500006  1.28339887  8.74631073
   3.63000011  0.00000000 10.23887049
   3.63000011  0.00000000 10.98487049
 


--------------------------------------------------------------------------------------------------------


 k-point   1 :   0.0000 0.0000 0.0000  plane waves:    4037
 k-point   2 :   0.3333 0.0000 0.0000  plane waves:    4064
 k-point   3 :   0.0000 0.3333 0.0000  plane waves:    4032
 k-point   4 :   0.3333 0.3333 0.0000  plane waves:    4072

 maximum and minimum number of plane-waves per node :       827      778

 maximum number of plane-waves:      4072
 maximum index in each direction: 
   IXMAX=    5   IYMAX=    4   IZMAX=   39
   IXMIN=   -6   IYMIN=   -4   IZMIN=  -39


 parallel 3D FFT for wavefunctions:
    minimum data exchange during FFTs selected (reduces bandwidth)
 parallel 3D FFT for charge:
    minimum data exchange during FFTs selected (reduces bandwidth)


 total amount of memory used by VASP MPI-rank0    35069. kBytes
=======================================================================

   base      :      30000. kBytes
   nonl-proj :       1086. kBytes
   fftplans  :        642. kBytes
   grid      :       1621. kBytes
   one-center:         62. kBytes
   wavefun   :       1658. kBytes
 
     INWAV:  cpu time      0.0000: real time      0.0005
 Broyden mixing: mesh for mixing (old mesh)
   NGX = 11   NGY =  9   NGZ = 79
  (NGX  = 36   NGY  = 28   NGZ  =240)
  gives a total of   7821 points

 initial charge density was supplied:
 charge density of overlapping atoms calculated
 number of electron      90.0000000 magnetization      10.0000000
 keeping initial charge density in first step


--------------------------------------------------------------------------------------------------------


 Maximum index for augmentation-charges          309 (set IRDMAX)


--------------------------------------------------------------------------------------------------------


 First call to EWALD:  gamma=   0.292
 Maximum number of real-space cells 4x 6x 1
 Maximum number of reciprocal cells 2x 1x 9

    FEWALD:  cpu time      0.0019: real time      0.0019


--------------------------------------- Iteration      1(   1)  ---------------------------------------


    POTLOK:  cpu time      0.0193: real time      0.0195
    SETDIJ:  cpu time      0.0065: real time      0.0066
     EDDAV:  cpu time      0.3154: real time      0.3184
       DOS:  cpu time      0.0012: real time      0.0012
    --------------------------------------------
      LOOP:  cpu time      0.3425: real time      0.3457

 eigenvalue-minimisations  :   960
 total energy-change (2. order) : 0.7700565E+03  (-0.3320710E+04)
 number of electron      90.0000000 magnetization      10.0000000
 augmentation part       90.0000000 magnetization      10.0000000

 Free energy of the ion-electron system (eV)
  ---------------------------------------------------
  alpha Z        PSCENC =       216.17040255
  Ewald energy   TEWEN  =     42195.66351772
  -Hartree energ DENC   =    -53019.71432655
  -exchange      EXHF   =         0.00000000
  -V(xc)+E(xc)   XCENC  =       371.18471824
  PAW double counting   =      9828.36862813   -10674.97285505
  entropy T*S    EENTRO =         0.00590863
  eigenvalues    EBANDS =       700.73207235
  atomic energy  EATOM  =     11152.61838693
  Solvation  Ediel_sol  =         0.00000000
  ---------------------------------------------------
  free energy    TOTEN  =       770.05645296 eV

  energy without entropy =      770.05054432  energy(sigma->0) =      770.05448341


--------------------------------------------------------------------------------------------------------




--------------------------------------- Iteration      1(   2)  ---------------------------------------


     EDDAV:  cpu time      0.3044: real time      0.3074
       DOS:  cpu time      0.0009: real time      0.0009
    --------------------------------------------
      LOOP:  cpu time      0.3053: real time      0.3082

 eigenvalue-minimisations  :   960
 total energy-change (2. order) :-0.7118035E+03  (-0.6842717E+03)
 number of electron      90.0000000 magnetization      10.0000000
 augmentation part       90.0000000 magnetization      10.0000000

 Free energy of the ion-electron system (eV)
  ---------------------------------------------------
  alpha Z        PSCENC =       216.17040255
  Ewald energy   TEWEN  =     42195.66351772
  -Hartree energ DENC   =    -53019.71432655
  -exchange      EXHF   =         0.00000000
  -V(xc)+E(xc)   XCENC  =       371.18471824
  PAW double counting   =      9828.36862813   -10674.97285505
  entropy T*S    EENTRO =        -0.01800092
  eigenvalues    EBANDS =       -11.04752982
  atomic energy  EATOM  =     11152.61838693
  Solvation  Ediel_sol  =         0.00000000
  ---------------------------------------------------
  free energy    TOTEN  =        58.25294122 eV

  energy without entropy =       58.27094214  energy(sigma->0) =       58.25894153


--------------------------------------------------------------------------------------------------------




--------------------------------------- Iteration      1(   3)  ---------------------------------------


     EDDAV:  cpu time      0.3059: real time      0.3085
       DOS:  cpu time      0.0009: real time      0.0009
    --------------------------------------------
      LOOP:  cpu time      0.3068: real time      0.3094

 eigenvalue-minimisations  :   980
 total energy-change (2. order) :-0.8902789E+02  (-0.8266892E+02)
 number of electron      90.0000000 magnetization      10.0000000
 augmentation part       90.0000000 magnetization      10.0000000

 Free energy of the ion-electron system (eV)
  ---------------------------------------------------
  alpha Z        PSCENC =       216.17040255
  Ewald energy   TEWEN  =     42195.66351772
  -Hartree energ DENC   =    -53019.71432655
  -exchange      EXHF   =         0.00000000
  -V(xc)+E(xc)   XCENC  =       371.18471824
  PAW double counting   =      9828.36862813   -10674.97285505
  entropy T*S    EENTRO =         0.00334301
  eigenvalues    EBANDS =      -100.09675931
  atomic energy  EATOM  =     11152.61838693
  Solvation  Ediel_sol  =         0.00000000
  ---------------------------------------------------
  free energy    TOTEN  =       -30.77494433 eV

  energy without entropy =      -30.77828734  energy(sigma->0) =      -30.77605867


--------------------------------------------------------------------------------------------------------




--------------------------------------- Iteration      1(   4)  ---------------------------------------


     EDDAV:  cpu time      0.3495: real time      0.3537
       DOS:  cpu time      0.0009: real time      0.0009
    --------------------------------------------
      LOOP:  cpu time      0.3504: real time      0.3546

 eigenvalue-minimisations  :  1100
 total energy-change (2. order) :-0.3664702E+01  (-0.3636537E+01)
 number of electron      90.0000000 magnetization      10.0000000
 augmentation part       90.0000000 magnetization      10.0000000

 Free energy of the ion-electron system (eV)
  ---------------------------------------------------
  alpha Z        PSCENC =       216.17040255
  Ewald energy   TEWEN  =     42195.66351772
  -Hartree energ DENC   =    -53019.71432655
  -exchange      EXHF   =         0.00000000
  -V(xc)+E(xc)   XCENC  =       371.18471824
  PAW double counting   =      9828.36862813   -10674.97285505
  entropy T*S    EENTRO =         0.00111464
  eigenvalues    EBANDS =      -103.75923334
  atomic energy  EATOM  =     11152.61838693
  Solvation  Ediel_sol  =         0.00000000
  ---------------------------------------------------
  free energy    TOTEN  =       -34.43964673 eV

  energy without entropy =      -34.44076137  energy(sigma->0) =      -34.44001827


--------------------------------------------------------------------------------------------------------




--------------------------------------- Iteration      1(   5)  ---------------------------------------


     EDDAV:  cpu time      0.3352: real time      0.3381
       DOS:  cpu time      0.0009: real time      0.0009
    CHARGE:  cpu time      0.0546: real time      0.0549
    MIXING:  cpu time      0.0006: real time      0.0006
    --------------------------------------------
      LOOP:  cpu time      0.3913: real time      0.3944

 eigenvalue-minimisations  :  1104
 total energy-change (2. order) :-0.8306956E-01  (-0.8301146E-01)
 number of electron      90.0000819 magnetization       9.1044567
 augmentation part       52.3247844 magnetization       8.7593997

 Broyden mixing:
  rms(total) = 0.26887E+01    rms(broyden)= 0.26885E+01
  rms(prec ) = 0.27697E+01
  weight for this iteration     100.00

 Free energy of the ion-electron system (eV)
  ---------------------------------------------------
  alpha Z        PSCENC =       216.17040255
  Ewald energy   TEWEN  =     42195.66351772
  -Hartree energ DENC   =    -53019.71432655
  -exchange      EXHF   =         0.00000000
  -V(xc)+E(xc)   XCENC  =       371.18471824
  PAW double counting   =      9828.36862813   -10674.97285505
  entropy T*S    EENTRO =         0.00108210
  eigenvalues    EBANDS =      -103.84227036
  atomic energy  EATOM  =     11152.61838693
  Solvation  Ediel_sol  =         0.00000000
  ---------------------------------------------------
  free energy    TOTEN  =       -34.52271629 eV

  energy without entropy =      -34.52379839  energy(sigma->0) =      -34.52307699


--------------------------------------------------------------------------------------------------------




--------------------------------------- Iteration      1(   6)  ---------------------------------------


    POTLOK:  cpu time      0.0176: real time      0.0178
    SETDIJ:  cpu time      0.0058: real time      0.0059
     EDDAV:  cpu time      0.3242: real time      0.3271
       DOS:  cpu time      0.0010: real time      0.0010
    CHARGE:  cpu time      0.0523: real time      0.0526
    MIXING:  cpu time      0.0008: real time      0.0008
    --------------------------------------------
      LOOP:  cpu time      0.4019: real time      0.4052

 eigenvalue-minimisations  :  1060
 total energy-change (2. order) : 0.4789476E+01  (-0.9135950E+01)
 number of electron      90.0000910 magnetization       8.5305681
 augmentation part       58.4717092 magnetization       6.4938670

 Broyden mixing:
  rms(total) = 0.13363E+01    rms(broyden)= 0.13360E+01
  rms(prec ) = 0.14104E+01
  weight for this iteration     100.00

 eigenvalues of (default mixing * dielectric matrix)
  average eigenvalue GAMMA=   0.8052
  0.8052

 Free energy of the ion-electron system (eV)
  ---------------------------------------------------
  alpha Z        PSCENC =       216.17040255
  Ewald energy   TEWEN  =     42195.66351772
  -Hartree energ DENC   =    -52835.10957489
  -exchange      EXHF   =         0.00000000
  -V(xc)+E(xc)   XCENC  =       364.57060669
  PAW double counting   =      9980.95027954   -10786.62608784
  entropy T*S    EENTRO =        -0.01335614
  eigenvalues    EBANDS =      -317.95741442
  atomic energy  EATOM  =     11152.61838693
  Solvation  Ediel_sol  =         0.00000000
  ---------------------------------------------------
  free energy    TOTEN  =       -29.73323987 eV

  energy without entropy =      -29.71988373  energy(sigma->0) =      -29.72878783


--------------------------------------------------------------------------------------------------------




--------------------------------------- Iteration      1(   7)  ---------------------------------------


    POTLOK:  cpu time      0.0163: real time      0.0166
    SETDIJ:  cpu time      0.0058: real time      0.0058
     EDDAV:  cpu time      0.3491: real time      0.3519
       DOS:  cpu time      0.0009: real time      0.0009
    CHARGE:  cpu time      0.0502: real time      0.0504
    MIXING:  cpu time      0.0007: real time      0.0007
    --------------------------------------------
      LOOP:  cpu time      0.4231: real time      0.4265

 eigenvalue-minimisations  :  1164
 total energy-change (2. order) : 0.2579795E+01  (-0.2417015E+01)
 number of electron      90.0000883 magnetization       8.1130129
 augmentation part       56.4411781 magnetization       6.0984466

 Broyden mixing:
  rms(total) = 0.86163E+00    rms(broyden)= 0.86147E+00
  rms(prec ) = 0.94118E+00
  weight for this iteration     100.00

 eigenvalues of (default mixing * dielectric matrix)
  average eigenvalue GAMMA=   0.7526
  0.9224  0.5827

 Free energy of the ion-electron system (eV)
  ---------------------------------------------------
  alpha Z        PSCENC =       216.17040255
  Ewald energy   TEWEN  =     42195.66351772
  -Hartree energ DENC   =    -52940.05957187
  -exchange      EXHF   =         0.00000000
  -V(xc)+E(xc)   XCENC  =       368.39556264
  PAW double counting   =     10193.43934524   -11036.95000193
  entropy T*S    EENTRO =        -0.02278111
  eigenvalues    EBANDS =      -176.40830551
  atomic energy  EATOM  =     11152.61838693
  Solvation  Ediel_sol  =         0.00000000
  ---------------------------------------------------
  free energy    TOTEN  =       -27.15344535 eV

  energy without entropy =      -27.13066424  energy(sigma->0) =      -27.14585164


--------------------------------------------------------------------------------------------------------




--------------------------------------- Iteration      1(   8)  ---------------------------------------


    POTLOK:  cpu time      0.0163: real time      0.0165
    SETDIJ:  cpu time      0.0057: real time      0.0057
     EDDAV:  cpu time      0.3689: real time      0.3719
       DOS:  cpu time      0.0009: real time      0.0009
    CHARGE:  cpu time      0.0533: real time      0.0535
    MIXING:  cpu time      0.0007: real time      0.0007
    --------------------------------------------
      LOOP:  cpu time      0.4458: real time      0.4493

 eigenvalue-minimisations  :  1256
 total energy-change (2. order) : 0.4589858E+00  (-0.9660855E+00)
 number of electron      90.0000877 magnetization       7.3562315
 augmentation part       56.1411359 magnetization       5.2434834

 Broyden mixing:
  rms(total) = 0.73902E+00    rms(broyden)= 0.73890E+00
  rms(prec ) = 0.80956E+00
  weight for this iteration     100.00

 eigenvalues of (default mixing * dielectric matrix)
  average eigenvalue GAMMA=   0.7142
  1.1148  0.6691  0.3586

 Free energy of the ion-electron system (eV)
  ---------------------------------------------------
  alpha Z        PSCENC =       216.17040255
  Ewald energy   TEWEN  =     42195.66351772
  -Hartree energ DENC   =    -52937.29083447
  -exchange      EXHF   =         0.00000000
  -V(xc)+E(xc)   XCENC  =       368.68367031
  PAW double counting   =     10276.01730431   -11126.72113804
  entropy T*S    EENTRO =        -0.01115157
  eigenvalues    EBANDS =      -171.82461733
  atomic energy  EATOM  =     11152.61838693
  Solvation  Ediel_sol  =         0.00000000
  ---------------------------------------------------
  free energy    TOTEN  =       -26.69445959 eV

  energy without entropy =      -26.68330803  energy(sigma->0) =      -26.69074241


--------------------------------------------------------------------------------------------------------




--------------------------------------- Iteration      1(   9)  ---------------------------------------


    POTLOK:  cpu time      0.0162: real time      0.0164
    SETDIJ:  cpu time      0.0055: real time      0.0056
     EDDAV:  cpu time      0.4646: real time      0.4690
       DOS:  cpu time      0.0009: real time      0.0009
    CHARGE:  cpu time      0.0504: real time      0.0506
    MIXING:  cpu time      0.0008: real time      0.0008
    --------------------------------------------
      LOOP:  cpu time      0.5384: real time      0.5433

 eigenvalue-minimisations  :  1648
 total energy-change (2. order) : 0.5534827E+00  (-0.4879854E+00)
 number of electron      90.0000876 magnetization       6.4184386
 augmentation part       56.1214292 magnetization       4.4581321

 Broyden mixing:
  rms(total) = 0.61134E+00    rms(broyden)= 0.61128E+00
  rms(prec ) = 0.63675E+00
  weight for this iteration     100.00

 eigenvalues of (default mixing * dielectric matrix)
  average eigenvalue GAMMA=   0.7722
  1.2644  0.7613  0.7613  0.3017

 Free energy of the ion-electron system (eV)
  ---------------------------------------------------
  alpha Z        PSCENC =       216.17040255
  Ewald energy   TEWEN  =     42195.66351772
  -Hartree energ DENC   =    -52935.93022912
  -exchange      EXHF   =         0.00000000
  -V(xc)+E(xc)   XCENC  =       368.57635850
  PAW double counting   =     10403.03617975   -11261.50235007
  entropy T*S    EENTRO =        -0.01441917
  eigenvalues    EBANDS =      -164.75882402
  atomic energy  EATOM  =     11152.61838693
  Solvation  Ediel_sol  =         0.00000000
  ---------------------------------------------------
  free energy    TOTEN  =       -26.14097693 eV

  energy without entropy =      -26.12655777  energy(sigma->0) =      -26.13617054


--------------------------------------------------------------------------------------------------------




--------------------------------------- Iteration      1(  10)  ---------------------------------------


    POTLOK:  cpu time      0.0162: real time      0.0164
    SETDIJ:  cpu time      0.0056: real time      0.0056
     EDDAV:  cpu time      0.4009: real time      0.4041
       DOS:  cpu time      0.0009: real time      0.0009
    CHARGE:  cpu time      0.0533: real time      0.0535
    MIXING:  cpu time      0.0010: real time      0.0011
    --------------------------------------------
      LOOP:  cpu time      0.4780: real time      0.4816

 eigenvalue-minimisations  :  1328
 total energy-change (2. order) :-0.7860398E+00  (-0.1946315E+00)
 number of electron      90.0000876 magnetization       5.1607280
 augmentation part       56.1733415 magnetization       3.3047888

 Broyden mixing:
  rms(total) = 0.51484E+00    rms(broyden)= 0.51482E+00
  rms(prec ) = 0.51881E+00
  weight for this iteration     100.00

 eigenvalues of (default mixing * dielectric matrix)
  average eigenvalue GAMMA=   0.8996
  1.7274  1.2371  0.7277  0.5152  0.2908

 Free energy of the ion-electron system (eV)
  ---------------------------------------------------
  alpha Z        PSCENC =       216.17040255
  Ewald energy   TEWEN  =     42195.66351772
  -Hartree energ DENC   =    -52947.89488969
  -exchange      EXHF   =         0.00000000
  -V(xc)+E(xc)   XCENC  =       367.58173659
  PAW double counting   =     10512.24960954   -11375.08706706
  entropy T*S    EENTRO =        -0.00755245
  eigenvalues    EBANDS =      -148.22116082
  atomic energy  EATOM  =     11152.61838693
  Solvation  Ediel_sol  =         0.00000000
  ---------------------------------------------------
  free energy    TOTEN  =       -26.92701670 eV

  energy without entropy =      -26.91946425  energy(sigma->0) =      -26.92449922


--------------------------------------------------------------------------------------------------------




--------------------------------------- Iteration      1(  11)  ---------------------------------------


    POTLOK:  cpu time      0.0169: real time      0.0172
    SETDIJ:  cpu time      0.0059: real time      0.0059
     EDDAV:  cpu time      0.3671: real time      0.3704
       DOS:  cpu time      0.0009: real time      0.0010
    CHARGE:  cpu time      0.0525: real time      0.0528
    MIXING:  cpu time      0.0008: real time      0.0008
    --------------------------------------------
      LOOP:  cpu time      0.4442: real time      0.4480

 eigenvalue-minimisations  :  1252
 total energy-change (2. order) :-0.1481314E+01  (-0.1109653E+00)
 number of electron      90.0000878 magnetization       3.9384854
 augmentation part       56.3379482 magnetization       2.3599803

 Broyden mixing:
  rms(total) = 0.42394E+00    rms(broyden)= 0.42392E+00
  rms(prec ) = 0.42700E+00
  weight for this iteration     100.00

 eigenvalues of (default mixing * dielectric matrix)
  average eigenvalue GAMMA=   1.0476
  2.8827  1.1522  0.7425  0.7425  0.4760  0.2900

 Free energy of the ion-electron system (eV)
  ---------------------------------------------------
  alpha Z        PSCENC =       216.17040255
  Ewald energy   TEWEN  =     42195.66351772
  -Hartree energ DENC   =    -52952.09284209
  -exchange      EXHF   =         0.00000000
  -V(xc)+E(xc)   XCENC  =       366.37970210
  PAW double counting   =     10589.77683442   -11454.59863486
  entropy T*S    EENTRO =        -0.01106654
  eigenvalues    EBANDS =      -142.31463125
  atomic energy  EATOM  =     11152.61838693
  Solvation  Ediel_sol  =         0.00000000
  ---------------------------------------------------
  free energy    TOTEN  =       -28.40833103 eV

  energy without entropy =      -28.39726448  energy(sigma->0) =      -28.40464218


--------------------------------------------------------------------------------------------------------




--------------------------------------- Iteration      1(  12)  ---------------------------------------


    POTLOK:  cpu time      0.0163: real time      0.0165
    SETDIJ:  cpu time      0.0056: real time      0.0057
     EDDAV:  cpu time      0.3706: real time      0.3735
       DOS:  cpu time      0.0009: real time      0.0009
    CHARGE:  cpu time      0.0522: real time      0.0524
    MIXING:  cpu time      0.0010: real time      0.0010
    --------------------------------------------
      LOOP:  cpu time      0.4466: real time      0.4499

 eigenvalue-minimisations  :  1268
 total energy-change (2. order) :-0.1182617E+01  (-0.6639896E-01)
 number of electron      90.0000876 magnetization       1.8964349
 augmentation part       56.2550607 magnetization       0.5766816

 Broyden mixing:
  rms(total) = 0.34026E+00    rms(broyden)= 0.34025E+00
  rms(prec ) = 0.34663E+00
  weight for this iteration     100.00

 eigenvalues of (default mixing * dielectric matrix)
  average eigenvalue GAMMA=   1.3707
  4.8107  1.6599  0.9345  0.8002  0.2915  0.6102  0.4881

 Free energy of the ion-electron system (eV)
  ---------------------------------------------------
  alpha Z        PSCENC =       216.17040255
  Ewald energy   TEWEN  =     42195.66351772
  -Hartree energ DENC   =    -52966.01857391
  -exchange      EXHF   =         0.00000000
  -V(xc)+E(xc)   XCENC  =       365.80750270
  PAW double counting   =     10621.26261916   -11488.34903976
  entropy T*S    EENTRO =        -0.01153842
  eigenvalues    EBANDS =      -126.73422528
  atomic energy  EATOM  =     11152.61838693
  Solvation  Ediel_sol  =         0.00000000
  ---------------------------------------------------
  free energy    TOTEN  =       -29.59094831 eV

  energy without entropy =      -29.57940989  energy(sigma->0) =      -29.58710217


--------------------------------------------------------------------------------------------------------




--------------------------------------- Iteration      1(  13)  ---------------------------------------


    POTLOK:  cpu time      0.0161: real time      0.0163
    SETDIJ:  cpu time      0.0057: real time      0.0057
     EDDAV:  cpu time      0.3695: real time      0.3729
       DOS:  cpu time      0.0009: real time      0.0009
    CHARGE:  cpu time      0.0518: real time      0.0520
    MIXING:  cpu time      0.0011: real time      0.0011
    --------------------------------------------
      LOOP:  cpu time      0.4450: real time      0.4489

 eigenvalue-minimisations  :  1264
 total energy-change (2. order) :-0.2618804E+01  (-0.1870694E+00)
 number of electron      90.0000875 magnetization       0.9415276
 augmentation part       56.1247869 magnetization      -0.0289101

 Broyden mixing:
  rms(total) = 0.21497E+00    rms(broyden)= 0.21493E+00
  rms(prec ) = 0.23627E+00
  weight for this iteration     100.00

 eigenvalues of (default mixing * dielectric matrix)
  average eigenvalue GAMMA=   1.6668
  7.4150  2.2241  0.8279  0.8279  0.7863  0.2915  0.5173  0.4442

 Free energy of the ion-electron system (eV)
  ---------------------------------------------------
  alpha Z        PSCENC =       216.17040255
  Ewald energy   TEWEN  =     42195.66351772
  -Hartree energ DENC   =    -52970.73624682
  -exchange      EXHF   =         0.00000000
  -V(xc)+E(xc)   XCENC  =       364.35807279
  PAW double counting   =     10576.63453617   -11442.49007732
  entropy T*S    EENTRO =        -0.01221862
  eigenvalues    EBANDS =      -124.41612522
  atomic energy  EATOM  =     11152.61838693
  Solvation  Ediel_sol  =         0.00000000
  ---------------------------------------------------
  free energy    TOTEN  =       -32.20975181 eV

  energy without entropy =      -32.19753320  energy(sigma->0) =      -32.20567894


--------------------------------------------------------------------------------------------------------




--------------------------------------- Iteration      1(  14)  ---------------------------------------


    POTLOK:  cpu time      0.0163: real time      0.0165
    SETDIJ:  cpu time      0.0056: real time      0.0056
     EDDAV:  cpu time      0.3770: real time      0.3800
       DOS:  cpu time      0.0009: real time      0.0009
    CHARGE:  cpu time      0.0502: real time      0.0504
    MIXING:  cpu time      0.0010: real time      0.0010
    --------------------------------------------
      LOOP:  cpu time      0.4509: real time      0.4545

 eigenvalue-minimisations  :  1284
 total energy-change (2. order) :-0.1737647E+01  (-0.2023120E+00)
 number of electron      90.0000874 magnetization       0.5884226
 augmentation part       56.1301670 magnetization       0.0801447

 Broyden mixing:
  rms(total) = 0.11106E+00    rms(broyden)= 0.11099E+00
  rms(prec ) = 0.12276E+00
  weight for this iteration     100.00

 eigenvalues of (default mixing * dielectric matrix)
  average eigenvalue GAMMA=   1.7460
  8.9775  2.2447  0.9553  0.8160  0.8160  0.7009  0.2911  0.4590  0.4536

 Free energy of the ion-electron system (eV)
  ---------------------------------------------------
  alpha Z        PSCENC =       216.17040255
  Ewald energy   TEWEN  =     42195.66351772
  -Hartree energ DENC   =    -52973.10069193
  -exchange      EXHF   =         0.00000000
  -V(xc)+E(xc)   XCENC  =       363.14213545
  PAW double counting   =     10516.82124311   -11378.99567759
  entropy T*S    EENTRO =        -0.00993558
  eigenvalues    EBANDS =      -126.25677960
  atomic energy  EATOM  =     11152.61838693
  Solvation  Ediel_sol  =         0.00000000
  ---------------------------------------------------
  free energy    TOTEN  =       -33.94739895 eV

  energy without entropy =      -33.93746337  energy(sigma->0) =      -33.94408709


--------------------------------------------------------------------------------------------------------




--------------------------------------- Iteration      1(  15)  ---------------------------------------


    POTLOK:  cpu time      0.0160: real time      0.0163
    SETDIJ:  cpu time      0.0056: real time      0.0056
     EDDAV:  cpu time      0.3361: real time      0.3390
       DOS:  cpu time      0.0009: real time      0.0009
    CHARGE:  cpu time      0.0494: real time      0.0496
    MIXING:  cpu time      0.0012: real time      0.0012
    --------------------------------------------
      LOOP:  cpu time      0.4093: real time      0.4127

 eigenvalue-minimisations  :  1120
 total energy-change (2. order) :-0.5576250E+00  (-0.7443169E-01)
 number of electron      90.0000874 magnetization       0.4622476
 augmentation part       56.2089216 magnetization       0.1803911

 Broyden mixing:
  rms(total) = 0.70501E-01    rms(broyden)= 0.70456E-01
  rms(prec ) = 0.77008E-01
  weight for this iteration     100.00

 eigenvalues of (default mixing * dielectric matrix)
  average eigenvalue GAMMA=   1.7183
  9.5840  2.3033  0.9512  0.9512  0.8021  0.8021  0.2912  0.5898  0.4682  0.4399

 Free energy of the ion-electron system (eV)
  ---------------------------------------------------
  alpha Z        PSCENC =       216.17040255
  Ewald energy   TEWEN  =     42195.66351772
  -Hartree energ DENC   =    -52966.87834306
  -exchange      EXHF   =         0.00000000
  -V(xc)+E(xc)   XCENC  =       362.72868604
  PAW double counting   =     10513.44355751   -11374.87497709
  entropy T*S    EENTRO =        -0.00228324
  eigenvalues    EBANDS =      -133.37397125
  atomic energy  EATOM  =     11152.61838693
  Solvation  Ediel_sol  =         0.00000000
  ---------------------------------------------------
  free energy    TOTEN  =       -34.50502390 eV

  energy without entropy =      -34.50274065  energy(sigma->0) =      -34.50426282


--------------------------------------------------------------------------------------------------------




--------------------------------------- Iteration      1(  16)  ---------------------------------------


    POTLOK:  cpu time      0.0160: real time      0.0162
    SETDIJ:  cpu time      0.0055: real time      0.0056
     EDDAV:  cpu time      0.3617: real time      0.3645
       DOS:  cpu time      0.0010: real time      0.0010
    CHARGE:  cpu time      0.0535: real time      0.0537
    MIXING:  cpu time      0.0015: real time      0.0015
    --------------------------------------------
      LOOP:  cpu time      0.4391: real time      0.4424

 eigenvalue-minimisations  :  1180
 total energy-change (2. order) :-0.1828168E+00  (-0.1375025E-01)
 number of electron      90.0000875 magnetization       0.3349159
 augmentation part       56.2191946 magnetization       0.1411844

 Broyden mixing:
  rms(total) = 0.52294E-01    rms(broyden)= 0.52274E-01
  rms(prec ) = 0.56332E-01
  weight for this iteration     100.00

 eigenvalues of (default mixing * dielectric matrix)
  average eigenvalue GAMMA=   1.7496
 10.2362  2.3493  1.2543  1.2543  0.8530  0.8530  0.6968  0.2912  0.5649  0.4518
  0.4411

 Free energy of the ion-electron system (eV)
  ---------------------------------------------------
  alpha Z        PSCENC =       216.17040255
  Ewald energy   TEWEN  =     42195.66351772
  -Hartree energ DENC   =    -52963.24134273
  -exchange      EXHF   =         0.00000000
  -V(xc)+E(xc)   XCENC  =       362.59782843
  PAW double counting   =     10508.16926397   -11369.33325335
  entropy T*S    EENTRO =         0.00070238
  eigenvalues    EBANDS =      -137.33334660
  atomic energy  EATOM  =     11152.61838693
  Solvation  Ediel_sol  =         0.00000000
  ---------------------------------------------------
  free energy    TOTEN  =       -34.68784071 eV

  energy without entropy =      -34.68854309  energy(sigma->0) =      -34.68807483


--------------------------------------------------------------------------------------------------------




--------------------------------------- Iteration      1(  17)  ---------------------------------------


    POTLOK:  cpu time      0.0173: real time      0.0175
    SETDIJ:  cpu time      0.0057: real time      0.0059
     EDDAV:  cpu time      0.3581: real time      0.3612
       DOS:  cpu time      0.0009: real time      0.0009
    CHARGE:  cpu time      0.0506: real time      0.0508
    MIXING:  cpu time      0.0013: real time      0.0013
    --------------------------------------------
      LOOP:  cpu time      0.4339: real time      0.4377

 eigenvalue-minimisations  :  1208
 total energy-change (2. order) :-0.1654047E+00  (-0.1157880E-01)
 number of electron      90.0000874 magnetization       0.2435508
 augmentation part       56.2145003 magnetization       0.1362704

 Broyden mixing:
  rms(total) = 0.39599E-01    rms(broyden)= 0.39583E-01
  rms(prec ) = 0.41802E-01
  weight for this iteration     100.00

 eigenvalues of (default mixing * dielectric matrix)
  average eigenvalue GAMMA=   1.7405
 10.7072  2.1720  2.1720  1.0219  1.0219  0.7517  0.7517  0.6816  0.2912  0.4538
  0.4538  0.4066

 Free energy of the ion-electron system (eV)
  ---------------------------------------------------
  alpha Z        PSCENC =       216.17040255
  Ewald energy   TEWEN  =     42195.66351772
  -Hartree energ DENC   =    -52956.12575438
  -exchange      EXHF   =         0.00000000
  -V(xc)+E(xc)   XCENC  =       362.48830583
  PAW double counting   =     10502.22570460   -11363.38100129
  entropy T*S    EENTRO =         0.00196093
  eigenvalues    EBANDS =      -144.51476829
  atomic energy  EATOM  =     11152.61838693
  Solvation  Ediel_sol  =         0.00000000
  ---------------------------------------------------
  free energy    TOTEN  =       -34.85324540 eV

  energy without entropy =      -34.85520633  energy(sigma->0) =      -34.85389904


--------------------------------------------------------------------------------------------------------




--------------------------------------- Iteration      1(  18)  ---------------------------------------


    POTLOK:  cpu time      0.0160: real time      0.0162
    SETDIJ:  cpu time      0.0056: real time      0.0057
     EDDAV:  cpu time      0.3553: real time      0.3582
       DOS:  cpu time      0.0009: real time      0.0009
    CHARGE:  cpu time      0.0492: real time      0.0495
    MIXING:  cpu time      0.0013: real time      0.0013
    --------------------------------------------
      LOOP:  cpu time      0.4284: real time      0.4319

 eigenvalue-minimisations  :  1200
 total energy-change (2. order) :-0.4480364E-01  (-0.3941542E-02)
 number of electron      90.0000874 magnetization       0.2041636
 augmentation part       56.1992519 magnetization       0.1304897

 Broyden mixing:
  rms(total) = 0.23972E-01    rms(broyden)= 0.23963E-01
  rms(prec ) = 0.25813E-01
  weight for this iteration     100.00

 eigenvalues of (default mixing * dielectric matrix)
  average eigenvalue GAMMA=   1.7450
 10.9241  2.3490  2.3490  1.2108  1.2108  0.8201  0.8201  0.7185  0.6697  0.2912
  0.4662  0.4488  0.4064

 Free energy of the ion-electron system (eV)
  ---------------------------------------------------
  alpha Z        PSCENC =       216.17040255
  Ewald energy   TEWEN  =     42195.66351772
  -Hartree energ DENC   =    -52951.89288397
  -exchange      EXHF   =         0.00000000
  -V(xc)+E(xc)   XCENC  =       362.46914990
  PAW double counting   =     10508.03698382   -11369.84131286
  entropy T*S    EENTRO =         0.00149481
  eigenvalues    EBANDS =      -148.12378795
  atomic energy  EATOM  =     11152.61838693
  Solvation  Ediel_sol  =         0.00000000
  ---------------------------------------------------
  free energy    TOTEN  =       -34.89804904 eV

  energy without entropy =      -34.89954385  energy(sigma->0) =      -34.89854731


--------------------------------------------------------------------------------------------------------




--------------------------------------- Iteration      1(  19)  ---------------------------------------


    POTLOK:  cpu time      0.0160: real time      0.0162
    SETDIJ:  cpu time      0.0055: real time      0.0055
     EDDAV:  cpu time      0.3444: real time      0.3471
       DOS:  cpu time      0.0009: real time      0.0009
    CHARGE:  cpu time      0.0490: real time      0.0493
    MIXING:  cpu time      0.0015: real time      0.0015
    --------------------------------------------
      LOOP:  cpu time      0.4174: real time      0.4205

 eigenvalue-minimisations  :  1156
 total energy-change (2. order) :-0.6875131E-01  (-0.2278015E-02)
 number of electron      90.0000874 magnetization       0.1728627
 augmentation part       56.1985313 magnetization       0.1213239

 Broyden mixing:
  rms(total) = 0.18518E-01    rms(broyden)= 0.18514E-01
  rms(prec ) = 0.19754E-01
  weight for this iteration     100.00

 eigenvalues of (default mixing * dielectric matrix)
  average eigenvalue GAMMA=   1.7280
 11.0668  2.9992  2.2813  1.3959  1.0757  0.8572  0.8572  0.7357  0.7357  0.2912
  0.5633  0.4794  0.4477  0.4056

 Free energy of the ion-electron system (eV)
  ---------------------------------------------------
  alpha Z        PSCENC =       216.17040255
  Ewald energy   TEWEN  =     42195.66351772
  -Hartree energ DENC   =    -52947.45803184
  -exchange      EXHF   =         0.00000000
  -V(xc)+E(xc)   XCENC  =       362.39654754
  PAW double counting   =     10502.37962504   -11363.96084903
  entropy T*S    EENTRO =         0.00042801
  eigenvalues    EBANDS =      -152.77682727
  atomic energy  EATOM  =     11152.61838693
  Solvation  Ediel_sol  =         0.00000000
  ---------------------------------------------------
  free energy    TOTEN  =       -34.96680035 eV

  energy without entropy =      -34.96722835  energy(sigma->0) =      -34.96694302


--------------------------------------------------------------------------------------------------------




--------------------------------------- Iteration      1(  20)  ---------------------------------------


    POTLOK:  cpu time      0.0161: real time      0.0163
    SETDIJ:  cpu time      0.0056: real time      0.0056
     EDDAV:  cpu time      0.3414: real time      0.3444
       DOS:  cpu time      0.0009: real time      0.0009
    CHARGE:  cpu time      0.0488: real time      0.0490
    MIXING:  cpu time      0.0016: real time      0.0016
    --------------------------------------------
      LOOP:  cpu time      0.4143: real time      0.4178

 eigenvalue-minimisations  :  1136
 total energy-change (2. order) :-0.3633139E-01  (-0.5335569E-03)
 number of electron      90.0000874 magnetization       0.1322046
 augmentation part       56.2029548 magnetization       0.0919231

 Broyden mixing:
  rms(total) = 0.15163E-01    rms(broyden)= 0.15161E-01
  rms(prec ) = 0.16049E-01
  weight for this iteration     100.00

 eigenvalues of (default mixing * dielectric matrix)
  average eigenvalue GAMMA=   1.6964
 11.1261  3.2026  2.4019  1.2635  1.2635  0.9021  0.9021  0.8281  0.8281  0.6352
  0.2912  0.4812  0.4568  0.4568  0.4063

 Free energy of the ion-electron system (eV)
  ---------------------------------------------------
  alpha Z        PSCENC =       216.17040255
  Ewald energy   TEWEN  =     42195.66351772
  -Hartree energ DENC   =    -52945.07171595
  -exchange      EXHF   =         0.00000000
  -V(xc)+E(xc)   XCENC  =       362.34872214
  PAW double counting   =     10501.57336749   -11363.09803305
  entropy T*S    EENTRO =         0.00018035
  eigenvalues    EBANDS =      -155.20795991
  atomic energy  EATOM  =     11152.61838693
  Solvation  Ediel_sol  =         0.00000000
  ---------------------------------------------------
  free energy    TOTEN  =       -35.00313174 eV

  energy without entropy =      -35.00331209  energy(sigma->0) =      -35.00319185


--------------------------------------------------------------------------------------------------------




--------------------------------------- Iteration      1(  21)  ---------------------------------------


    POTLOK:  cpu time      0.0160: real time      0.0163
    SETDIJ:  cpu time      0.0057: real time      0.0058
     EDDAV:  cpu time      0.3598: real time      0.3628
       DOS:  cpu time      0.0009: real time      0.0009
    CHARGE:  cpu time      0.0500: real time      0.0502
    MIXING:  cpu time      0.0017: real time      0.0017
    --------------------------------------------
      LOOP:  cpu time      0.4342: real time      0.4376

 eigenvalue-minimisations  :  1220
 total energy-change (2. order) :-0.3835873E-01  (-0.3701229E-03)
 number of electron      90.0000874 magnetization       0.0937490
 augmentation part       56.2073275 magnetization       0.0648483

 Broyden mixing:
  rms(total) = 0.11510E-01    rms(broyden)= 0.11509E-01
  rms(prec ) = 0.12050E-01
  weight for this iteration     100.00

 eigenvalues of (default mixing * dielectric matrix)
  average eigenvalue GAMMA=   1.7121
 11.1824  3.4647  2.7053  1.8504  1.0860  1.0860  0.9015  0.9015  0.7835  0.7835
  0.2912  0.6115  0.4749  0.4452  0.4031  0.4229

 Free energy of the ion-electron system (eV)
  ---------------------------------------------------
  alpha Z        PSCENC =       216.17040255
  Ewald energy   TEWEN  =     42195.66351772
  -Hartree energ DENC   =    -52942.38766126
  -exchange      EXHF   =         0.00000000
  -V(xc)+E(xc)   XCENC  =       362.29827042
  PAW double counting   =     10502.66227433   -11364.22041752
  entropy T*S    EENTRO =        -0.00035653
  eigenvalues    EBANDS =      -157.84590709
  atomic energy  EATOM  =     11152.61838693
  Solvation  Ediel_sol  =         0.00000000
  ---------------------------------------------------
  free energy    TOTEN  =       -35.04149046 eV

  energy without entropy =      -35.04113394  energy(sigma->0) =      -35.04137162


--------------------------------------------------------------------------------------------------------




--------------------------------------- Iteration      1(  22)  ---------------------------------------


    POTLOK:  cpu time      0.0161: real time      0.0163
    SETDIJ:  cpu time      0.0055: real time      0.0056
     EDDAV:  cpu time      0.3146: real time      0.3173
       DOS:  cpu time      0.0009: real time      0.0009
    CHARGE:  cpu time      0.0501: real time      0.0503
    MIXING:  cpu time      0.0017: real time      0.0017
    --------------------------------------------
      LOOP:  cpu time      0.3889: real time      0.3922

 eigenvalue-minimisations  :  1028
 total energy-change (2. order) :-0.4783169E-01  (-0.4031882E-03)
 number of electron      90.0000874 magnetization       0.0593449
 augmentation part       56.2094608 magnetization       0.0411998

 Broyden mixing:
  rms(total) = 0.87994E-02    rms(broyden)= 0.87981E-02
  rms(prec ) = 0.90724E-02
  weight for this iteration     100.00

 eigenvalues of (default mixing * dielectric matrix)
  average eigenvalue GAMMA=   1.7457
 11.2116  4.1694  2.8788  2.1071  1.3129  1.0524  1.0524  0.8293  0.8293  0.7867
  0.7867  0.2912  0.6242  0.4650  0.4554  0.4110  0.4133

 Free energy of the ion-electron system (eV)
  ---------------------------------------------------
  alpha Z        PSCENC =       216.17040255
  Ewald energy   TEWEN  =     42195.66351772
  -Hartree energ DENC   =    -52939.20759652
  -exchange      EXHF   =         0.00000000
  -V(xc)+E(xc)   XCENC  =       362.24571858
  PAW double counting   =     10502.86574528   -11364.42933890
  entropy T*S    EENTRO =        -0.00062999
  eigenvalues    EBANDS =      -161.01552779
  atomic energy  EATOM  =     11152.61838693
  Solvation  Ediel_sol  =         0.00000000
  ---------------------------------------------------
  free energy    TOTEN  =       -35.08932215 eV

  energy without entropy =      -35.08869216  energy(sigma->0) =      -35.08911215


--------------------------------------------------------------------------------------------------------




--------------------------------------- Iteration      1(  23)  ---------------------------------------


    POTLOK:  cpu time      0.0160: real time      0.0162
    SETDIJ:  cpu time      0.0056: real time      0.0056
     EDDAV:  cpu time      0.3004: real time      0.3029
       DOS:  cpu time      0.0009: real time      0.0009
    CHARGE:  cpu time      0.0489: real time      0.0491
    MIXING:  cpu time      0.0018: real time      0.0018
    --------------------------------------------
      LOOP:  cpu time      0.3735: real time      0.3764

 eigenvalue-minimisations  :   960
 total energy-change (2. order) :-0.4516961E-01  (-0.2108470E-03)
 number of electron      90.0000874 magnetization       0.0364846
 augmentation part       56.2057226 magnetization       0.0257881

 Broyden mixing:
  rms(total) = 0.65574E-02    rms(broyden)= 0.65561E-02
  rms(prec ) = 0.68720E-02
  weight for this iteration     100.00

 eigenvalues of (default mixing * dielectric matrix)
  average eigenvalue GAMMA=   1.8225
 11.2627  5.7948  3.1847  2.2980  1.5263  1.0878  1.0878  0.8637  0.8637  0.7815
  0.7815  0.2912  0.6192  0.6192  0.4642  0.4564  0.4108  0.4108

 Free energy of the ion-electron system (eV)
  ---------------------------------------------------
  alpha Z        PSCENC =       216.17040255
  Ewald energy   TEWEN  =     42195.66351772
  -Hartree energ DENC   =    -52937.01223972
  -exchange      EXHF   =         0.00000000
  -V(xc)+E(xc)   XCENC  =       362.20633137
  PAW double counting   =     10502.77844942   -11364.37281742
  entropy T*S    EENTRO =        -0.00095266
  eigenvalues    EBANDS =      -163.18556994
  atomic energy  EATOM  =     11152.61838693
  Solvation  Ediel_sol  =         0.00000000
  ---------------------------------------------------
  free energy    TOTEN  =       -35.13449176 eV

  energy without entropy =      -35.13353909  energy(sigma->0) =      -35.13417420


--------------------------------------------------------------------------------------------------------




--------------------------------------- Iteration      1(  24)  ---------------------------------------


    POTLOK:  cpu time      0.0160: real time      0.0162
    SETDIJ:  cpu time      0.0055: real time      0.0056
     EDDAV:  cpu time      0.2895: real time      0.2916
       DOS:  cpu time      0.0009: real time      0.0009
    CHARGE:  cpu time      0.0502: real time      0.0505
    MIXING:  cpu time      0.0020: real time      0.0020
    --------------------------------------------
      LOOP:  cpu time      0.3641: real time      0.3668

 eigenvalue-minimisations  :   900
 total energy-change (2. order) :-0.3030834E-01  (-0.1074465E-03)
 number of electron      90.0000874 magnetization       0.0200550
 augmentation part       56.2048748 magnetization       0.0125512

 Broyden mixing:
  rms(total) = 0.47457E-02    rms(broyden)= 0.47450E-02
  rms(prec ) = 0.49884E-02
  weight for this iteration     100.00

 eigenvalues of (default mixing * dielectric matrix)
  average eigenvalue GAMMA=   1.8701
 11.3331  7.3770  3.2536  2.4064  1.6345  1.1391  1.1391  0.8910  0.8910  0.8320
  0.8320  0.6918  0.2912  0.6283  0.4655  0.4655  0.4379  0.4065  0.4155

 Free energy of the ion-electron system (eV)
  ---------------------------------------------------
  alpha Z        PSCENC =       216.17040255
  Ewald energy   TEWEN  =     42195.66351772
  -Hartree energ DENC   =    -52935.70867197
  -exchange      EXHF   =         0.00000000
  -V(xc)+E(xc)   XCENC  =       362.17605623
  PAW double counting   =     10502.79535612   -11364.38782810
  entropy T*S    EENTRO =        -0.00101166
  eigenvalues    EBANDS =      -164.49100791
  atomic energy  EATOM  =     11152.61838693
  Solvation  Ediel_sol  =         0.00000000
  ---------------------------------------------------
  free energy    TOTEN  =       -35.16480010 eV

  energy without entropy =      -35.16378844  energy(sigma->0) =      -35.16446288


--------------------------------------------------------------------------------------------------------




--------------------------------------- Iteration      1(  25)  ---------------------------------------


    POTLOK:  cpu time      0.0159: real time      0.0162
    SETDIJ:  cpu time      0.0056: real time      0.0056
     EDDAV:  cpu time      0.2804: real time      0.2829
       DOS:  cpu time      0.0009: real time      0.0009
    CHARGE:  cpu time      0.0508: real time      0.0510
    MIXING:  cpu time      0.0021: real time      0.0021
    --------------------------------------------
      LOOP:  cpu time      0.3558: real time      0.3588

 eigenvalue-minimisations  :   860
 total energy-change (2. order) :-0.1664397E-01  (-0.5393354E-04)
 number of electron      90.0000874 magnetization       0.0070441
 augmentation part       56.2068041 magnetization       0.0019659

 Broyden mixing:
  rms(total) = 0.26362E-02    rms(broyden)= 0.26355E-02
  rms(prec ) = 0.28742E-02
  weight for this iteration     100.00

 eigenvalues of (default mixing * dielectric matrix)
  average eigenvalue GAMMA=   1.9347
 11.5396  8.8968  3.1957  2.5594  1.9719  1.3330  1.0386  1.0386  0.8655  0.8655
  0.7882  0.7882  0.7501  0.6177  0.2912  0.4656  0.4547  0.4241  0.4050  0.4050

 Free energy of the ion-electron system (eV)
  ---------------------------------------------------
  alpha Z        PSCENC =       216.17040255
  Ewald energy   TEWEN  =     42195.66351772
  -Hartree energ DENC   =    -52934.77492378
  -exchange      EXHF   =         0.00000000
  -V(xc)+E(xc)   XCENC  =       362.15389652
  PAW double counting   =     10502.53078326   -11364.08261664
  entropy T*S    EENTRO =        -0.00119969
  eigenvalues    EBANDS =      -165.45969093
[...]
     14      -2.6319      1.00000
     15      -2.6207      1.00000
     16      -2.5259      1.00000
     17      -2.3478      1.00000
     18      -2.0903      1.00000
     19      -2.0187      1.00000
     20      -1.9576      1.00000
     21      -1.8079      1.00000
     22      -1.6670      1.00000
     23      -1.4250      1.00000
     24      -1.3343      1.00000
     25      -1.3190      1.00000
     26      -1.2368      1.00000
     27      -1.2022      1.00000
     28      -1.1186      1.00000
     29      -1.0922      1.00000
     30      -1.0463      1.00000
     31      -1.0097      1.00000
     32      -0.9946      1.00000
     33      -0.8765      1.00000
     34      -0.8377      1.00000
     35      -0.8011      1.00000
     36      -0.7673      1.00000
     37      -0.7425      1.00000
     38      -0.6789      1.00000
     39      -0.6042      1.00000
     40      -0.5559      1.00000
     41      -0.5219      1.00000
     42      -0.4859      1.00000
     43      -0.4661      1.00000
     44      -0.4525      1.00000
     45       0.5028      1.03534
     46       2.4217     -0.00000
     47       4.2936     -0.00000
     48       4.3602     -0.00000
     49       4.9878     -0.00000
     50       6.3723      0.00000
     51       6.5752      0.00000
     52       6.7326      0.00000
     53       7.0656      0.00000
     54       7.7489      0.00000
     55       8.0454      0.00000
     56       8.6451      0.00000
     57       9.4282      0.00000
     58       9.4717      0.00000
     59       9.4802      0.00000
     60       9.8600      0.00000

 k-point     4 :       0.3333    0.3333    0.0000
  band No.  band energies     occupation 
      1      -4.9080      1.00000
      2      -4.7973      1.00000
      3      -4.1109      1.00000
      4      -3.5671      1.00000
      5      -3.4792      1.00000
      6      -3.1981      1.00000
      7      -3.1472      1.00000
      8      -3.0289      1.00000
      9      -3.0049      1.00000
     10      -2.8418      1.00000
     11      -2.8254      1.00000
     12      -2.5917      1.00000
     13      -2.5276      1.00000
     14      -2.3932      1.00000
     15      -2.3334      1.00000
     16      -2.2965      1.00000
     17      -2.2491      1.00000
     18      -2.1825      1.00000
     19      -2.0532      1.00000
     20      -1.9826      1.00000
     21      -1.9665      1.00000
     22      -1.9436      1.00000
     23      -1.9038      1.00000
     24      -1.7623      1.00000
     25      -1.6803      1.00000
     26      -1.5580      1.00000
     27      -1.5522      1.00000
     28      -1.2788      1.00000
     29      -1.2294      1.00000
     30      -1.1707      1.00000
     31      -1.1271      1.00000
     32      -1.0926      1.00000
     33      -1.0149      1.00000
     34      -0.9976      1.00000
     35      -0.8725      1.00000
     36      -0.7801      1.00000
     37      -0.7570      1.00000
     38      -0.6969      1.00000
     39      -0.6757      1.00000
     40      -0.6261      1.00000
     41      -0.5798      1.00000
     42      -0.5389      1.00000
     43      -0.1909      1.00000
     44       0.6611      0.84802
     45       1.6942     -0.00000
     46       2.1144     -0.00000
     47       2.6577     -0.00000
     48       3.9769     -0.00000
     49       4.0683     -0.00000
     50       5.5743     -0.00000
     51       5.6698     -0.00000
     52       6.0690     -0.00000
     53       6.7288      0.00000
     54       7.1570      0.00000
     55       7.9235      0.00000
     56       8.0324      0.00000
     57       8.3364      0.00000
     58       8.9053      0.00000
     59       9.6103      0.00000
     60       9.6709      0.00000


--------------------------------------------------------------------------------------------------------


 soft charge-density along one line, spin component           1
         0         1         2         3         4         5         6         7         8         9
 total charge-density along one line
 
 soft charge-density along one line, spin component           2
         0         1         2         3         4         5         6         7         8         9
 total charge-density along one line
 
 pseudopotential strength for first ion, spin component:           1
 -7.269  -0.000  -0.000   0.000  -0.000  -1.429   0.000   0.000
 -0.000  -7.254   0.000  -0.000  -0.000   0.000  -1.442  -0.000
 -0.000   0.000  -7.276  -0.000   0.004   0.000  -0.000  -1.427
  0.000  -0.000  -0.000  -7.268  -0.000  -0.000   0.000   0.000
 -0.000  -0.000   0.004  -0.000  -7.264   0.000   0.000  -0.002
 -1.429   0.000   0.000  -0.000   0.000   7.996  -0.000  -0.000
  0.000  -1.442  -0.000   0.000   0.000  -0.000   8.007   0.000
  0.000  -0.000  -1.427   0.000  -0.002  -0.000   0.000   7.999
 -0.000   0.000   0.000  -1.433   0.000   0.000  -0.000  -0.000
  0.000   0.000  -0.002   0.000  -1.433  -0.000  -0.000   0.001
  0.000  -0.000  -0.003   0.000  -0.000   0.000  -0.000   0.004
  0.000  -0.000  -0.007   0.000  -0.001   0.000  -0.000   0.008
  0.000  -0.016   0.000   0.000   0.000  -0.000   0.013  -0.000
  0.000  -0.000  -0.017   0.000   0.001   0.000   0.000   0.012
 -0.000   0.000  -0.000  -0.014   0.000  -0.000   0.000   0.000
  0.000  -0.018   0.000  -0.000   0.000   0.000   0.014   0.000
 -0.000  -0.000  -0.018   0.000   0.001   0.000  -0.000   0.012
 -0.000  -0.000  -0.000  -0.015   0.000  -0.000   0.000  -0.000
 pseudopotential strength for first ion, spin component:           2
 -7.269  -0.000  -0.000   0.000  -0.000  -1.429   0.000   0.000
 -0.000  -7.254   0.000   0.000  -0.000   0.000  -1.442  -0.000
 -0.000   0.000  -7.276  -0.000   0.004   0.000  -0.000  -1.427
  0.000   0.000  -0.000  -7.268  -0.000  -0.000  -0.000   0.000
 -0.000  -0.000   0.004  -0.000  -7.264   0.000   0.000  -0.002
 -1.429   0.000   0.000  -0.000   0.000   7.996  -0.000  -0.000
  0.000  -1.442  -0.000  -0.000   0.000  -0.000   8.007   0.000
  0.000  -0.000  -1.427   0.000  -0.002  -0.000   0.000   7.999
 -0.000  -0.000   0.000  -1.433   0.000   0.000   0.000  -0.000
  0.000   0.000  -0.002   0.000  -1.433  -0.000  -0.000   0.001
 -0.000  -0.000  -0.003   0.000  -0.000  -0.000  -0.000   0.004
 -0.000  -0.000  -0.007   0.000  -0.001  -0.000  -0.000   0.008
  0.000  -0.016   0.000   0.000   0.000  -0.000   0.013  -0.000
  0.000  -0.000  -0.017   0.000   0.001   0.000   0.000   0.012
 -0.000   0.000  -0.000  -0.014   0.000  -0.000   0.000   0.000
  0.000  -0.018   0.000  -0.000   0.000   0.000   0.014   0.000
 -0.000  -0.000  -0.018   0.000   0.001   0.000  -0.000   0.012
 -0.000  -0.000  -0.000  -0.015   0.000  -0.000   0.000  -0.000
 total augmentation occupancy for first ion, spin component:           1
  1.921   0.000   0.000   0.000   0.000  -0.012   0.000   0.000   0.000   0.000   0.000   0.000   0.000   0.000   0.000   0.000
  0.000   1.946   0.000   0.000   0.000   0.000  -0.028   0.000   0.000   0.000   0.000   0.000   0.024   0.000   0.000  -0.023
  0.000   0.000   1.927   0.000   0.002   0.000   0.000  -0.014   0.000   0.005  -0.016   0.015   0.000   0.071   0.000   0.000
  0.000   0.000   0.000   1.942   0.000   0.000   0.000   0.000  -0.025   0.000   0.000   0.000   0.000   0.000   0.067   0.000
  0.000   0.000   0.002   0.000   1.926   0.000   0.000   0.005   0.000  -0.017  -0.050   0.010   0.000   0.022   0.000   0.000
 -0.012   0.000   0.000   0.000   0.000   0.010   0.000   0.000   0.000   0.000   0.000   0.000   0.000   0.000   0.000   0.000
  0.000  -0.028   0.000   0.000   0.000   0.000   0.010   0.000   0.000   0.000   0.000   0.000   0.021   0.000   0.000  -0.001
  0.000   0.000  -0.014   0.000   0.005   0.000   0.000   0.011   0.000   0.001  -0.015  -0.000   0.000   0.020   0.000   0.000
  0.000   0.000   0.000  -0.025   0.000   0.000   0.000   0.000   0.012   0.000   0.000   0.000   0.000   0.000   0.031   0.000
  0.000   0.000   0.005   0.000  -0.017   0.000   0.000   0.001   0.000   0.010  -0.006   0.001   0.000   0.003   0.000   0.000
  0.000   0.000  -0.016   0.000  -0.050   0.000   0.000  -0.015   0.000  -0.006   1.699  -0.128   0.000   0.228   0.000   0.000
  0.000   0.000   0.015   0.000   0.010   0.000   0.000  -0.000   0.000   0.001  -0.128   0.016   0.000  -0.028   0.000   0.000
  0.000   0.024   0.000   0.000   0.000   0.000   0.021   0.000   0.000   0.000   0.000   0.000   0.214   0.000   0.000  -0.013
  0.000   0.000   0.071   0.000   0.022   0.000   0.000   0.020   0.000   0.003   0.228  -0.028   0.000   0.110   0.000   0.000
  0.000   0.000   0.000   0.067   0.000   0.000   0.000   0.000   0.031   0.000   0.000   0.000   0.000   0.000   0.149   0.000
  0.000  -0.023   0.000   0.000   0.000   0.000  -0.001   0.000   0.000   0.000   0.000   0.000  -0.013   0.000   0.000   0.001
  0.000   0.000  -0.028   0.000  -0.001   0.000   0.000  -0.001   0.000  -0.000  -0.029   0.003   0.000  -0.010   0.000   0.000
  0.000   0.000   0.000  -0.026   0.000   0.000   0.000   0.000  -0.002   0.000   0.000   0.000   0.000   0.000  -0.010   0.000
 total augmentation occupancy for first ion, spin component:           2
  0.000   0.000   0.000   0.000   0.000   0.000   0.000   0.000   0.000   0.000   0.000   0.000   0.000   0.000   0.000   0.000
  0.000  -0.000   0.000   0.000   0.000   0.000  -0.000   0.000   0.000   0.000   0.000   0.000  -0.000   0.000   0.000  -0.000
  0.000   0.000   0.000   0.000   0.000   0.000   0.000   0.000   0.000   0.000   0.000  -0.000   0.000  -0.000   0.000   0.000
  0.000   0.000   0.000  -0.000   0.000   0.000   0.000   0.000  -0.000   0.000   0.000   0.000   0.000   0.000  -0.000   0.000
  0.000   0.000   0.000   0.000  -0.000   0.000   0.000   0.000   0.000   0.000   0.000   0.000   0.000  -0.000   0.000   0.000
  0.000   0.000   0.000   0.000   0.000   0.000   0.000   0.000   0.000   0.000   0.000   0.000   0.000   0.000   0.000   0.000
  0.000  -0.000   0.000   0.000   0.000   0.000   0.000   0.000   0.000   0.000   0.000   0.000  -0.000   0.000   0.000  -0.000
  0.000   0.000   0.000   0.000   0.000   0.000   0.000  -0.000   0.000   0.000   0.000   0.000   0.000   0.000   0.000   0.000
  0.000   0.000   0.000  -0.000   0.000   0.000   0.000   0.000  -0.000   0.000   0.000   0.000   0.000   0.000  -0.000   0.000
  0.000   0.000   0.000   0.000   0.000   0.000   0.000   0.000   0.000   0.000  -0.000   0.000   0.000   0.000   0.000   0.000
  0.000   0.000   0.000   0.000   0.000   0.000   0.000   0.000   0.000  -0.000   0.000   0.000   0.000  -0.000   0.000   0.000
  0.000   0.000  -0.000   0.000   0.000   0.000   0.000   0.000   0.000   0.000   0.000  -0.000   0.000   0.000   0.000   0.000
  0.000  -0.000   0.000   0.000   0.000   0.000  -0.000   0.000   0.000   0.000   0.000   0.000   0.000   0.000   0.000  -0.000
  0.000   0.000  -0.000   0.000  -0.000   0.000   0.000   0.000   0.000   0.000  -0.000   0.000   0.000   0.000   0.000   0.000
  0.000   0.000   0.000  -0.000   0.000   0.000   0.000   0.000  -0.000   0.000   0.000   0.000   0.000   0.000   0.000   0.000
  0.000  -0.000   0.000   0.000   0.000   0.000  -0.000   0.000   0.000   0.000   0.000   0.000  -0.000   0.000   0.000   0.000
  0.000   0.000   0.000   0.000   0.000   0.000   0.000  -0.000   0.000   0.000  -0.000   0.000   0.000   0.000   0.000   0.000
  0.000   0.000   0.000  -0.000   0.000   0.000   0.000   0.000   0.000   0.000   0.000   0.000   0.000   0.000  -0.000   0.000


------------------------ aborting loop because EDIFF is reached ----------------------------------------


    CHARGE:  cpu time      0.0523: real time      0.0525
    FORLOC:  cpu time      0.0012: real time      0.0012
    FORNL :  cpu time      0.1427: real time      0.1433
    STRESS:  cpu time      0.1616: real time      0.1624
    FORCOR:  cpu time      0.0158: real time      0.0158
    FORHAR:  cpu time      0.0028: real time      0.0028
    MIXING:  cpu time      0.0004: real time      0.0004
    OFIELD:  cpu time      0.0000: real time      0.0000

 ---------------------------------------------------------------------------------------------

         DFTD3 V3.0 Rev 1        
 Edisp (eV)   -3.21854

 E6    (eV) :    -1.3073
 E8    (eV) :    -1.9113
 % E8        : 59.38
    FORVDW:  cpu time      0.0495: real time      0.0497

  FORCE on cell =-STRESS in cart. coord.  units (eV):
  Direction    XX          YY          ZZ          XY          YZ          ZX
  --------------------------------------------------------------------------------------
  Alpha Z   216.17040   216.17040   216.17040
  Ewald   48109.97843 48235.14084-53961.11387     0.00000    -0.00000     0.00000
  Hartree 51177.72946 51273.33117-49339.75055    -0.00000    -0.00000    -0.00000
  E(xc)    -520.39737  -520.25231  -520.66663     0.00000     0.00000    -0.00000
  Local  ************************102295.28925     0.00000     0.00000    -0.00000
  n-local  -179.45703  -175.04247  -180.41571     6.86935    -0.00000     0.00000
  augment   755.29532   758.60415   757.69552    -0.00000     0.00000    -0.00000
  Kinetic   738.44397   740.05925   735.52668     6.68257     0.00000    -0.00000
  Fock        0.00000     0.00000     0.00000     0.00000     0.00000     0.00000
  vdW        -3.91516    -3.89391    -2.91522    -0.00000     0.00000    -0.00000
  -------------------------------------------------------------------------------------
  Total      -4.75806    -4.31197    -0.18012     0.00000     0.00000     0.00000
  in kB     -34.11335   -30.91507    -1.29138     0.00000     0.00000     0.00000
  external pressure =      -22.11 kB  Pullay stress =        0.00 kB


 VOLUME and BASIS-vectors are now :
 -----------------------------------------------------------------------------
  energy-cutoff  :      400.00
  volume of cell :      223.47
      direct lattice vectors                 reciprocal lattice vectors
     3.630000114  0.000000000  0.000000000     0.275482085  0.000000000  0.000000000
     0.000000000  2.566797733  0.000000000     0.000000000  0.389590495  0.000000000
     0.000000000  0.000000000 23.983791351     0.000000000  0.000000000  0.041694826

  length of vectors
     3.630000114  2.566797733 23.983791351     0.275482085  0.389590495  0.041694826


 FORCES acting on ions
    electron-ion (+dipol)            ewald-force                    non-local-force                 convergence-correction
 -----------------------------------------------------------------------------------------------
   -.418E-13 0.217E-11 0.460E+04   -.742E-07 0.319E-07 -.459E+04   0.000E+00 0.000E+00 -.616E+01   0.927E-10 -.465E-10 -.130E+00
   0.737E-06 -.131E-05 0.352E+04   0.134E-06 -.570E-07 -.352E+04   0.000E+00 0.000E+00 0.151E+01   -.188E-10 0.618E-10 -.196E+00
   -.567E-13 0.768E-12 0.209E+04   -.125E-06 0.525E-07 -.208E+04   0.000E+00 0.000E+00 -.102E+01   -.174E-09 0.811E-10 -.131E+00
   0.753E-06 -.132E-05 0.775E+03   0.129E-06 -.538E-07 -.775E+03   0.000E+00 0.000E+00 0.185E+00   -.187E-11 0.412E-10 0.162E+00
   -.737E-13 -.570E-12 -.584E+03   -.129E-06 0.539E-07 0.584E+03   0.000E+00 0.000E+00 -.134E+00   0.557E-10 -.270E-10 -.182E-01
   0.759E-06 -.132E-05 -.189E+04   0.125E-06 -.524E-07 0.189E+04   0.000E+00 0.000E+00 0.129E+01   0.156E-11 -.208E-10 0.178E+00
   -.482E-13 0.318E-11 -.333E+04   -.134E-06 0.572E-07 0.334E+04   0.000E+00 0.000E+00 -.154E+01   -.851E-12 0.219E-11 0.243E+00
   0.799E-06 -.134E-05 -.442E+04   0.737E-07 -.328E-07 0.441E+04   0.000E+00 0.000E+00 0.670E+01   0.392E-10 -.828E-10 0.109E+00
   0.220E-07 -.149E-07 -.378E+03   0.528E-09 0.373E-09 0.373E+03   0.000E+00 0.000E+00 0.490E+01   -.218E-11 0.160E-11 -.869E-02
   0.239E-07 -.152E-07 -.374E+03   0.173E-09 0.737E-10 0.379E+03   0.000E+00 0.000E+00 -.488E+01   -.505E-11 0.307E-11 -.234E-02
 -----------------------------------------------------------------------------------------------
   0.309E-05 -.533E-05 -.105E+01   0.318E-13 0.674E-13 -.284E-12   0.000E+00 0.000E+00 0.847E+00   -.132E-10 0.138E-10 0.205E+00
 
 
 POSITION                                       TOTAL-FORCE (eV/Angst)
 -----------------------------------------------------------------------------------
      0.00000      0.00000      0.00828         0.000000      0.000000     -0.006591
      1.81500      1.28340      1.14586         0.000000      0.000000     -0.013676
      0.00000      0.00000      2.44258         0.000000      0.000000     -0.001268
      1.81500      1.28340      3.68759         0.000000      0.000000      0.008781
      0.00000      0.00000      4.95519         0.000000      0.000000     -0.015012
      1.81500      1.28340      6.19801         0.000000      0.000000      0.007779
      0.00000      0.00000      7.49957         0.000000      0.000000      0.007246
      1.81500      1.28340      8.62678         0.000000      0.000000      0.004346
      3.63000      0.00000     10.59672         0.000000      0.000000      0.003813
      3.63000      0.00000     11.35564         0.000000      0.000000      0.004583
 -----------------------------------------------------------------------------------
    total drift:                                0.000003     -0.000005      0.001344


--------------------------------------------------------------------------------------------------------



  FREE ENERGIE OF THE ION-ELECTRON SYSTEM (eV)
  ---------------------------------------------------
  free  energy   TOTEN  =       -38.54371608 eV

  energy  without entropy=      -38.53952040  energy(sigma->0) =      -38.54231752
 
 d Force = 0.2297891E-03[ 0.105E-03, 0.354E-03]  d Energy = 0.3335767E-03-0.104E-03
 d Force = 0.2130402E+02[ 0.213E+02, 0.213E+02]  d Ewald  = 0.2130402E+02 0.712E-06


--------------------------------------------------------------------------------------------------------


    POTLOK:  cpu time      0.0254: real time      0.0255


--------------------------------------------------------------------------------------------------------


 stress matrix after NEB project (eV)
     -4.75806      0.00000      0.00000
      0.00000     -4.31197      0.00000
      0.00000      0.00000     -0.18012
  FORCES: max atom, RMS     0.015012    0.008378
  FORCE total and by dimension    0.026495    0.015012
  Stress total and by dimension    6.423757    4.758060
 Conjugate gradient step on ions:
 trial-energy change:   -0.000334  1 .order   -0.000230   -0.000354   -0.000105
  (g-gl).g = 0.385E-03      g.g   = 0.457E-03  gl.gl    = 0.847E-03
 g(Force)  = 0.457E-03   g(Stress)= 0.000E+00 ortho     = 0.787E-04
 gamma     =   0.45421
 trial     =   0.71812
 opt step  =   1.02281  (harmonic =   1.02281) maximal distance =0.00286241
 next E    =   -38.543635   (d E  =  -0.00025)


--------------------------------------------------------------------------------------------------------


  
 reached required accuracy - stopping structural energy minimisation
     LOOP+:  cpu time      1.2515: real time      1.2916
    4ORBIT:  cpu time      0.0000: real time      0.0000

 total amount of memory used by VASP MPI-rank0    35069. kBytes
=======================================================================

   base      :      30000. kBytes
   nonl-proj :       1086. kBytes
   fftplans  :        642. kBytes
   grid      :       1621. kBytes
   one-center:         62. kBytes
   wavefun   :       1658. kBytes
 
  
  
 General timing and accounting informations for this job:
 ========================================================
  
                  Total CPU time used (sec):       90.998
                            User time (sec):       90.582
                          System time (sec):        0.416
                         Elapsed time (sec):       93.940
  
                   Maximum memory used (kb):      228028.
                   Average memory used (kb):          N/A
  
                          Minor page faults:       107077
                          Major page faults:         6637
                 Voluntary context switches:         3160
