<?xml version="1.0" encoding="ISO-8859-1"?>
<modeling>
 <generator>
  <i name="program" type="string">vasp </i>
  <i name="version" type="string">6.3.2  </i>
  <i name="subversion" type="string">27Jun22 (build Aug 17 2022 15:43:34) complex                          parallel </i>
  <i name="platform" type="string">tv2STDVTST </i>
  <i name="date" type="string">2025 02 04 </i>
  <i name="time" type="string">13:47:02 </i>
 </generator>
 <incar>
  <i type="int" name="ISTART">     0</i>
  <i type="string" name="PREC">Normal</i>
  <i type="int" name="ISPIN">     2</i>
  <i type="int" name="ICHARG">     2</i>
  <i type="int" name="IBRION">     2</i>
  <i name="EDIFF">      0.00020000</i>
  <i name="EDIFFG">     -0.03000000</i>
  <i type="int" name="NSW">   800</i>
  <i type="int" name="ISIF">     2</i>
  <i type="int" name="ISYM">     1</i>
  <i name="ENCUT">    400.00000000</i>
  <i name="POTIM">      0.50000000</i>
  <i type="logical" name="LREAL"> F  </i>
  <i type="int" name="ISMEAR">     1</i>
  <i name="SIGMA">      0.20000000</i>
  <i type="logical" name="LWAVE"> F  </i>
  <i type="logical" name="LCHARG"> F  </i>
  <i type="string" name="GGA">PE</i>
  <i type="int" name="IVDW">    11</i>
 </incar>
 <primitive_cell>
  <structure name="primitive_cell" >
   <crystal>
    <varray name="basis" >
     <v>       3.63000011       0.00000000       0.00000000 </v>
     <v>       0.00000000       2.56679773       0.00000000 </v>
     <v>       0.00000000       0.00000000      23.98379135 </v>
    </varray>
    <i name="volume">    223.46840188 </i>
    <varray name="rec_basis" >
     <v>       0.27548208       0.00000000       0.00000000 </v>
     <v>       0.00000000       0.38959050       0.00000000 </v>
     <v>       0.00000000       0.00000000       0.04169483 </v>
    </varray>
   </crystal>
   <varray name="positions" >
    <v>       0.00000000       0.00000000       0.00000000 </v>
    <v>       0.50000000       0.50000000       0.05351109 </v>
    <v>       0.00000000       0.00000000       0.10468148 </v>
    <v>       0.50000000       0.50000000       0.15792996 </v>
    <v>       0.00000000       0.00000000       0.21070899 </v>
    <v>       0.50000000       0.50000000       0.26289048 </v>
    <v>       0.00000000       0.00000000       0.31711592 </v>
    <v>       0.50000000       0.50000000       0.36467590 </v>
    <v>       1.00000000       0.00000000       0.42690792 </v>
    <v>       1.00000000       0.00000000       0.45801226 </v>
   </varray>
  </structure>
  <varray name="primitive_index" >
   <v type="int" >        1 </v>
   <v type="int" >        2 </v>
   <v type="int" >        3 </v>
   <v type="int" >        4 </v>
   <v type="int" >        5 </v>
   <v type="int" >        6 </v>
   <v type="int" >        7 </v>
   <v type="int" >        8 </v>
   <v type="int" >        9 </v>
   <v type="int" >       10 </v>
  </varray>
 </primitive_cell>
 <kpoints>
  <generation param="Monkhorst-Pack">
   <v type="int" name="divisions">       3        3        1 </v>
   <v name="usershift">      0.00000000       0.00000000       0.00000000 </v>
   <v name="genvec1">      0.33333333       0.00000000       0.00000000 </v>
   <v name="genvec2">      0.00000000       0.33333333       0.00000000 </v>
   <v name="genvec3">      0.00000000       0.00000000       1.00000000 </v>
   <v name="shift">      0.00000000       0.00000000       0.00000000 </v>
  </generation>
  <varray name="kpointlist" >
   <v>       0.00000000       0.00000000       0.00000000 </v>
   <v>       0.33333333       0.00000000       0.00000000 </v>
   <v>       0.00000000       0.33333333       0.00000000 </v>
   <v>       0.33333333       0.33333333       0.00000000 </v>
  </varray>
  <varray name="weights" >
   <v>       0.11111111 </v>
   <v>       0.22222222 </v>
   <v>       0.22222222 </v>
   <v>       0.44444444 </v>
  </varray>
 </kpoints>
 <parameters>
  <separator name="general" >
   <i type="string" name="SYSTEM">unknown system</i>
   <i type="logical" name="LCOMPAT"> F  </i>
  </separator>
  <separator name="electronic" >
   <i type="string" name="PREC">normal</i>
   <i name="ENMAX">    400.00000000</i>
   <i name="ENAUG">    586.98000000</i>
   <i name="EDIFF">      0.00020000</i>
   <i type="int" name="IALGO">    38</i>
   <i type="int" name="IWAVPR">    11</i>
   <i type="int" name="NBANDS">    60</i>
   <i type="int" name="NBANDSLOW">    -1</i>
   <i type="int" name="NBANDSHIGH">    -1</i>
   <i name="NELECT">     90.00000000</i>
   <i type="int" name="TURBO">     0</i>
   <i type="int" name="IRESTART">     0</i>
   <i type="int" name="NREBOOT">     0</i>
   <i type="int" name="NMIN">     0</i>
   <i name="EREF">      0.00000000</i>
   <separator name="electronic smearing" >
    <i type="int" name="ISMEAR">     1</i>
    <i name="SIGMA">      0.20000000</i>
    <i name="KSPACING">      0.50000000</i>
    <i type="logical" name="KGAMMA"> T  </i>
    <i type="logical" name="KBLOWUP"> T  </i>
   </separator>
   <separator name="electronic projectors" >
    <i type="logical" name="LREAL"> F  </i>
    <v name="ROPT">      0.00000000      0.00000000</v>
    <i type="int" name="LMAXPAW">  -100</i>
    <i type="int" name="LMAXMIX">     2</i>
    <i type="logical" name="NLSPLINE"> F  </i>
   </separator>
   <separator name="electronic startup" >
    <i type="int" name="ISTART">     0</i>
    <i type="int" name="ICHARG">     2</i>
    <i type="int" name="INIWAV">     1</i>
   </separator>
   <separator name="electronic spin" >
    <i type="int" name="ISPIN">     2</i>
    <i type="logical" name="LNONCOLLINEAR"> F  </i>
    <v name="MAGMOM">      1.00000000      1.00000000      1.00000000      1.00000000      1.00000000      1.00000000      1.00000000      1.00000000      1.00000000      1.00000000</v>
    <i name="NUPDOWN">     -1.00000000</i>
    <i type="logical" name="LSORBIT"> F  </i>
    <v name="SAXIS">      0.00000000      0.00000000      1.00000000</v>
    <i type="logical" name="LSPIRAL"> F  </i>
    <v name="QSPIRAL">      0.00000000      0.00000000      0.00000000</v>
    <i type="logical" name="LZEROZ"> F  </i>
   </separator>
   <separator name="electronic exchange-correlation" >
    <i type="logical" name="LASPH"> F  </i>
    <i type="logical" name="LMETAGGA"> F  </i>
   </separator>
   <separator name="electronic convergence" >
    <i type="int" name="NELM">    60</i>
    <i type="int" name="NELMDL">    -5</i>
    <i type="int" name="NELMIN">     2</i>
    <i name="ENINI">    400.00000000</i>
    <separator name="electronic convergence detail" >
     <i type="logical" name="LDIAG"> T  </i>
     <i type="logical" name="LSUBROT"> F  </i>
     <i name="WEIMIN">      0.00100000</i>
     <i name="EBREAK">      0.00000083</i>
     <i name="DEPER">      0.30000000</i>
     <i type="int" name="NRMM">     4</i>
     <i name="TIME">      0.40000000</i>
    </separator>
   </separator>
   <separator name="electronic mixer" >
    <i name="AMIX">      0.40000000</i>
    <i name="BMIX">      1.00000000</i>
    <i name="AMIN">      0.10000000</i>
    <i name="AMIX_MAG">      1.60000000</i>
    <i name="BMIX_MAG">      1.00000000</i>
    <separator name="electronic mixer details" >
     <i type="int" name="IMIX">     4</i>
     <i type="logical" name="MIXFIRST"> F  </i>
     <i type="int" name="MAXMIX">   -45</i>
     <i name="WC">    100.00000000</i>
     <i type="int" name="INIMIX">     1</i>
     <i type="int" name="MIXPRE">     1</i>
     <i type="int" name="MREMOVE">     5</i>
    </separator>
   </separator>
   <separator name="electronic dipolcorrection" >
    <i type="logical" name="LDIPOL"> F  </i>
    <i type="logical" name="LMONO"> F  </i>
    <i type="int" name="IDIPOL">     0</i>
    <i name="EPSILON">      1.00000000</i>
    <v name="DIPOL">   -100.00000000   -100.00000000   -100.00000000</v>
    <i name="EFIELD">      0.00000000</i>
   </separator>
  </separator>
  <separator name="grids" >
   <i type="int" name="NGX">    18</i>
   <i type="int" name="NGY">    14</i>
   <i type="int" name="NGZ">   120</i>
   <i type="int" name="NGXF">    36</i>
   <i type="int" name="NGYF">    28</i>
   <i type="int" name="NGZF">   240</i>
   <i type="logical" name="ADDGRID"> F  </i>
  </separator>
  <separator name="ionic" >
   <i type="int" name="NSW">   800</i>
   <i type="int" name="IBRION">     2</i>
   <i type="int" name="MDALGO">     0</i>
   <i type="int" name="ISIF">     2</i>
   <i name="PSTRESS">      0.00000000</i>
   <i name="EDIFFG">     -0.03000000</i>
   <i type="int" name="NFREE">     1</i>
   <i name="POTIM">      0.50000000</i>
   <i name="SMASS">     -3.00000000</i>
   <i name="SCALEE">      1.00000000</i>
  </separator>
  <separator name="ionic md" >
   <i name="TEBEG">      0.00010000</i>
   <i name="TEEND">      0.00010000</i>
   <i type="int" name="NBLOCK">     1</i>
   <i type="int" name="KBLOCK">   800</i>
   <i type="int" name="NPACO">   256</i>
   <i name="APACO">     10.00000000</i>
  </separator>
  <separator name="symmetry" >
   <i type="int" name="ISYM">     1</i>
   <i name="SYMPREC">      0.00001000</i>
  </separator>
  <separator name="dos" >
   <i type="int" name="LORBIT">     0</i>
   <v name="RWIGS">     -1.00000000     -1.00000000</v>
   <i type="int" name="NEDOS">   301</i>
   <i name="EMIN">     10.00000000</i>
   <i name="EMAX">    -10.00000000</i>
   <i name="EFERMI">      0.00000000</i>
  </separator>
  <separator name="writing" >
   <i type="int" name="NWRITE">     2</i>
   <i type="logical" name="LWAVE"> F  </i>
   <i type="logical" name="LDOWNSAMPLE"> F  </i>
   <i type="logical" name="LCHARG"> F  </i>
   <i type="logical" name="LPARD"> F  </i>
   <i type="logical" name="LVTOT"> F  </i>
   <i type="logical" name="LVHAR"> F  </i>
   <i type="logical" name="LELF"> F  </i>
   <i type="logical" name="LOPTICS"> F  </i>
   <v name="STM">      0.00000000      0.00000000      0.00000000      0.00000000      0.00000000      0.00000000      0.00000000</v>
  </separator>
  <separator name="performance" >
   <i type="int" name="NPAR">     4</i>
   <i type="int" name="NSIM">     4</i>
   <i type="int" name="NBLK">    -1</i>
   <i type="logical" name="LPLANE"> T  </i>
   <i type="logical" name="LSCALAPACK"> T  </i>
   <i type="logical" name="LSCAAWARE"> F  </i>
   <i type="logical" name="LSCALU"> F  </i>
   <i type="logical" name="LASYNC"> F  </i>
   <i type="logical" name="LORBITALREAL"> F  </i>
  </separator>
  <separator name="miscellaneous" >
   <i type="int" name="IDIOT">     3</i>
   <i type="int" name="PHON_NSTRUCT">    -1</i>
   <i type="logical" name="LMUSIC"> F  </i>
   <v name="POMASS">     63.54600000      1.00000000</v>
   <v name="DARWINR">      0.00000000      0.00000000</v>
   <v name="DARWINV">      1.00000000      1.00000000</v>
   <i type="logical" name="LCORR"> T  </i>
  </separator>
  <i type="logical" name="GGA_COMPAT"> T  </i>
  <i type="logical" name="LBERRY"> F  </i>
  <i type="int" name="ICORELEVEL">     0</i>
  <i type="logical" name="LDAU"> F  </i>
  <i type="int" name="I_CONSTRAINED_M">     0</i>
  <separator name="electronic exchange-correlation" >
   <i type="string" name="GGA">PE</i>
   <i type="int" name="VOSKOWN">     0</i>
   <i type="logical" name="LHFCALC"> F  </i>
   <i type="string" name="PRECFOCK"></i>
   <i type="logical" name="LSYMGRAD"> F  </i>
   <i type="logical" name="LHFONE"> F  </i>
   <i type="logical" name="LRHFCALC"> F  </i>
   <i type="logical" name="LTHOMAS"> F  </i>
   <i type="logical" name="LMODELHF"> F  </i>
   <i type="logical" name="LFOCKACE"> F  </i>
   <i name="ENCUT4O">     -1.00000000</i>
   <i type="int" name="EXXOEP">     0</i>
   <i type="int" name="FOURORBIT">     0</i>
   <i name="AEXX">      0.00000000</i>
   <i name="HFALPHA">      0.00000000</i>
   <i name="MCALPHA">      0.00000000</i>
   <i name="ALDAX">      1.00000000</i>
   <i name="AGGAX">      1.00000000</i>
   <i name="ALDAC">      1.00000000</i>
   <i name="AGGAC">      1.00000000</i>
   <i type="int" name="NKREDX">     1</i>
   <i type="int" name="NKREDY">     1</i>
   <i type="int" name="NKREDZ">     1</i>
   <i type="logical" name="SHIFTRED"> F  </i>
   <i type="logical" name="ODDONLY"> F  </i>
   <i type="logical" name="EVENONLY"> F  </i>
   <i type="int" name="LMAXFOCK">     0</i>
   <i type="int" name="NMAXFOCKAE">     0</i>
   <i type="logical" name="LFOCKAEDFT"> F  </i>
   <i name="HFSCREEN">      0.00000000</i>
   <i name="HFSCREENC">      0.00000000</i>
   <i type="int" name="NBANDSGWLOW">     0</i>
  </separator>
  <separator name="vdW DFT" >
   <i type="logical" name="LUSE_VDW"> F  </i>
   <i name="Zab_VDW">     -0.84910000</i>
   <i name="PARAM1">      0.12340000</i>
   <i name="PARAM2">      1.00000000</i>
   <i name="PARAM3">      0.00000000</i>
  </separator>
  <separator name="model GW" >
   <i type="int" name="MODEL_GW">     0</i>
   <i name="MODEL_EPS0">     13.40810411</i>
   <i name="MODEL_ALPHA">      1.00000000</i>
  </separator>
  <separator name="linear response parameters" >
   <i type="logical" name="LEPSILON"> F  </i>
   <i type="logical" name="LRPA"> F  </i>
   <i type="logical" name="LNABLA"> F  </i>
   <i type="logical" name="LVEL"> F  </i>
   <i name="CSHIFT">      0.10000000</i>
   <i name="OMEGAMAX">     -1.00000000</i>
   <i name="DEG_THRESHOLD">      0.00200000</i>
   <i name="RTIME">     -0.10000000</i>
   <i name="WPLASMAI">      0.00000000</i>
   <v name="DFIELD">      0.00000000      0.00000000      0.00000000</v>
   <v name="WPLASMA">      0.00000000      0.00000000      0.00000000      0.00000000      0.00000000      0.00000000      0.00000000      0.00000000      0.00000000</v>
  </separator>
  <separator name="orbital magnetization" >
   <i type="logical" name="NUCIND"> F  </i>
   <v name="MAGPOS">      0.00000000      0.00000000      0.00000000</v>
   <i type="logical" name="LNICSALL"> T  </i>
   <i type="logical" name="ORBITALMAG"> F  </i>
   <i type="logical" name="LMAGBLOCH"> F  </i>
   <i type="logical" name="LCHIMAG"> F  </i>
   <i type="logical" name="LGAUGE"> T  </i>
   <i type="int" name="MAGATOM">     0</i>
   <v name="MAGDIPOL">      0.00000000      0.00000000      0.00000000</v>
   <v name="AVECCONST">      0.00000000      0.00000000      0.00000000</v>
  </separator>
  <separator name="response functions" >
   <i type="logical" name="LFINITE_TEMPERATURE"> F  </i>
   <i type="logical" name="LADDER"> F  </i>
   <i type="logical" name="LRPAFORCE"> F  </i>
   <i type="logical" name="LFXC"> F  </i>
   <i type="logical" name="LHARTREE"> T  </i>
   <i type="int" name="IBSE">     0</i>
   <v type="int" name="KPOINT">    -1     0     0     0</v>
   <i type="logical" name="LTCTC"> F  </i>
   <i type="logical" name="LTCTE"> F  </i>
   <i type="logical" name="LTETE"> F  </i>
   <i type="logical" name="LTRIPLET"> F  </i>
   <i type="logical" name="LFXCEPS"> F  </i>
   <i type="logical" name="LFXHEG"> F  </i>
   <i type="int" name="NATURALO">     2</i>
   <i type="logical" name="LHOLEGF"> F  </i>
   <i type="logical" name="L2ORDER"> F  </i>
   <i type="logical" name="LDMP1"> F  </i>
   <i type="logical" name="LMP2LT"> F  </i>
   <i type="logical" name="LSMP2LT"> F  </i>
   <i type="logical" name="LGWLF"> F  </i>
   <i name="ENCUTGW">     -2.00000000</i>
   <i name="ENCUTGWSOFT">     -2.00000000</i>
   <i name="ENCUTLF">     -1.00000000</i>
   <i type="logical" name="LESF_SPLINES"> F  </i>
   <i type="int" name="LMAXMP2">    -1</i>
   <i name="SCISSOR">      0.00000000</i>
   <i type="int" name="NOMEGA">     0</i>
   <i type="int" name="NOMEGAR">     0</i>
   <i type="int" name="NBANDSGW">    -1</i>
   <i type="int" name="NBANDSO">    -1</i>
   <i type="int" name="NBANDSV">    -1</i>
   <i type="int" name="NELMGW">     1</i>
   <i type="int" name="NELMHF">     1</i>
   <i type="int" name="DIM">     3</i>
   <i type="int" name="IESPILON">     4</i>
   <i type="int" name="ANTIRES">     0</i>
   <i name="OMEGAMAX">    -30.00000000</i>
   <i name="OMEGAMIN">    -30.00000000</i>
   <i name="OMEGATL">   -200.00000000</i>
   <i type="int" name="OMEGAGRID">     0</i>
   <i name="CSHIFT">     -0.10000000</i>
   <i type="logical" name="LSELFENERGY"> F  </i>
   <i type="logical" name="LSPECTRAL"> F  </i>
   <i type="logical" name="LSPECTRALGW"> F  </i>
   <i type="logical" name="LSINGLES"> F  </i>
   <i type="logical" name="LFERMIGW"> F  </i>
   <i type="logical" name="ODDONLYGW"> F  </i>
   <i type="logical" name="EVENONLYGW"> F  </i>
   <i type="int" name="NKREDLFX">     1</i>
   <i type="int" name="NKREDLFY">     1</i>
   <i type="int" name="NKREDLFZ">     1</i>
   <i type="int" name="MAXMEM">  2800</i>
   <i type="int" name="TELESCOPE">     0</i>
   <i type="int" name="NTAUPAR">    -1</i>
   <i type="int" name="NOMEGAPAR">    -1</i>
   <i name="DAMP_NEWTON">      0.80000001</i>
   <i name="LAMBDA">      1.00000000</i>
  </separator>
  <separator name="External order field" >
   <i name="OFIELD_KAPPA">      0.00000000</i>
   <v name="OFIELD_K">      0.00000000      0.00000000      0.00000000</v>
   <i name="OFIELD_Q6_NEAR">      0.00000000</i>
   <i name="OFIELD_Q6_FAR">      0.00000000</i>
   <i name="OFIELD_A">      0.00000000</i>
  </separator>
  <separator name="optional k-points parameters" >
   <i type="int" name="KPOINTS_OPT_MODE">     1</i>
   <i type="logical" name="LKPOINTS_OPT"> F  </i>
  </separator>
 </parameters>
 <atominfo>
  <atoms>      10 </atoms>
  <types>       2 </types>
  <array name="atoms" >
   <dimension dim="1">ion</dimension>
   <field type="string">element</field>
   <field type="int">atomtype</field>
   <set>
    <rc><c>Cu</c><c>   1</c></rc>
    <rc><c>Cu</c><c>   1</c></rc>
    <rc><c>Cu</c><c>   1</c></rc>
    <rc><c>Cu</c><c>   1</c></rc>
    <rc><c>Cu</c><c>   1</c></rc>
    <rc><c>Cu</c><c>   1</c></rc>
    <rc><c>Cu</c><c>   1</c></rc>
    <rc><c>Cu</c><c>   1</c></rc>
    <rc><c>H </c><c>   2</c></rc>
    <rc><c>H </c><c>   2</c></rc>
   </set>
  </array>
  <array name="atomtypes" >
   <dimension dim="1">type</dimension>
   <field type="int">atomspertype</field>
   <field type="string">element</field>
   <field>mass</field>
   <field>valence</field>
   <field type="string">pseudopotential</field>
   <set>
    <rc><c>   8</c><c>Cu</c><c>     63.54600000</c><c>     11.00000000</c><c>  PAW_PBE Cu 22Jun2005                  </c></rc>
    <rc><c>   2</c><c>H </c><c>      1.00000000</c><c>      1.00000000</c><c>  PAW_PBE H 15Jun2001                   </c></rc>
   </set>
  </array>
 </atominfo>
 <structure name="initialpos" >
  <crystal>
   <varray name="basis" >
    <v>       3.63000011       0.00000000       0.00000000 </v>
    <v>       0.00000000       2.56679773       0.00000000 </v>
    <v>       0.00000000       0.00000000      23.98379135 </v>
   </varray>
   <i name="volume">    223.46840188 </i>
   <varray name="rec_basis" >
    <v>       0.27548208       0.00000000       0.00000000 </v>
    <v>       0.00000000       0.38959050       0.00000000 </v>
    <v>       0.00000000       0.00000000       0.04169483 </v>
   </varray>
  </crystal>
  <varray name="positions" >
   <v>       0.00000000       0.00000000       0.00000000 </v>
   <v>       0.50000000       0.50000000       0.05351109 </v>
   <v>       0.00000000       0.00000000       0.10468148 </v>
   <v>       0.50000000       0.50000000       0.15792996 </v>
   <v>       0.00000000       0.00000000       0.21070899 </v>
   <v>       0.50000000       0.50000000       0.26289048 </v>
   <v>       0.00000000       0.00000000       0.31711592 </v>
   <v>       0.50000000       0.50000000       0.36467590 </v>
   <v>       1.00000000       0.00000000       0.42690792 </v>
   <v>       1.00000000       0.00000000       0.45801226 </v>
  </varray>
 </structure>
 <calculation>
  <scstep>
   <time name="dav">    0.32    0.32</time>
   <time name="total">    0.34    0.35</time>
   <energy>
    <i name="alphaZ">    216.17040255 </i>
    <i name="ewald">  42195.66351772 </i>
    <i name="hartreedc"> -53019.71432655 </i>
    <i name="XCdc">    371.18471824 </i>
    <i name="pawpsdc">   9828.36862813 </i>
    <i name="pawaedc"> -10674.97285505 </i>
    <i name="eentropy">      0.00590863 </i>
    <i name="bandstr">    700.73207235 </i>
    <i name="atom">  11152.61838693 </i>
    <i name="e_fr_energy">    770.05645296 </i>
    <i name="e_wo_entrp">    770.05054432 </i>
    <i name="e_0_energy">    770.05448341 </i>
   </energy>
  </scstep>
  <scstep>
   <time name="dav">    0.30    0.31</time>
   <time name="total">    0.31    0.31</time>
   <energy>
    <i name="e_fr_energy">     58.25294122 </i>
    <i name="e_wo_entrp">     58.27094214 </i>
    <i name="e_0_energy">     58.25894153 </i>
   </energy>
  </scstep>
  <scstep>
   <time name="dav">    0.31    0.31</time>
   <time name="total">    0.31    0.31</time>
   <energy>
    <i name="e_fr_energy">    -30.77494433 </i>
    <i name="e_wo_entrp">    -30.77828734 </i>
    <i name="e_0_energy">    -30.77605867 </i>
   </energy>
  </scstep>
  <scstep>
   <time name="dav">    0.35    0.35</time>
   <time name="total">    0.35    0.35</time>
   <energy>
    <i name="e_fr_energy">    -34.43964673 </i>
    <i name="e_wo_entrp">    -34.44076137 </i>
    <i name="e_0_energy">    -34.44001827 </i>
   </energy>
  </scstep>
  <scstep>
   <time name="dav">    0.34    0.34</time>
   <time name="total">    0.39    0.39</time>
   <energy>
    <i name="e_fr_energy">    -34.52271629 </i>
    <i name="e_wo_entrp">    -34.52379839 </i>
    <i name="e_0_energy">    -34.52307699 </i>
   </energy>
  </scstep>
  <scstep>
   <time name="dav">    0.32    0.33</time>
   <time name="total">    0.40    0.41</time>
   <energy>
    <i name="e_fr_energy">    -29.73323987 </i>
    <i name="e_wo_entrp">    -29.71988373 </i>
    <i name="e_0_energy">    -29.72878783 </i>
   </energy>
  </scstep>
  <scstep>
   <time name="dav">    0.35    0.35</time>
   <time name="total">    0.42    0.43</time>
   <energy>
    <i name="e_fr_energy">    -27.15344535 </i>
    <i name="e_wo_entrp">    -27.13066424 </i>
    <i name="e_0_energy">    -27.14585164 </i>
   </energy>
  </scstep>
  <scstep>
   <time name="dav">    0.37    0.37</time>
   <time name="total">    0.45    0.45</time>
   <energy>
    <i name="e_fr_energy">    -26.69445959 </i>
    <i name="e_wo_entrp">    -26.68330803 </i>
    <i name="e_0_energy">    -26.69074241 </i>
   </energy>
  </scstep>
  <scstep>
   <time name="dav">    0.46    0.47</time>
   <time name="total">    0.54    0.54</time>
   <energy>
    <i name="e_fr_energy">    -26.14097693 </i>
    <i name="e_wo_entrp">    -26.12655777 </i>
    <i name="e_0_energy">    -26.13617054 </i>
   </energy>
  </scstep>
  <scstep>
   <time name="dav">    0.40    0.40</time>
   <time name="total">    0.48    0.48</time>
   <energy>
    <i name="e_fr_energy">    -26.92701670 </i>
    <i name="e_wo_entrp">    -26.91946425 </i>
    <i name="e_0_energy">    -26.92449922 </i>
   </energy>
  </scstep>
  <scstep>
   <time name="dav">    0.37    0.37</time>
   <time name="total">    0.44    0.45</time>
   <energy>
    <i name="e_fr_energy">    -28.40833103 </i>
    <i name="e_wo_entrp">    -28.39726448 </i>
    <i name="e_0_energy">    -28.40464218 </i>
   </energy>
  </scstep>
  <scstep>
   <time name="dav">    0.37    0.37</time>
   <time name="total">    0.45    0.45</time>
   <energy>
    <i name="e_fr_energy">    -29.59094831 </i>
    <i name="e_wo_entrp">    -29.57940989 </i>
    <i name="e_0_energy">    -29.58710217 </i>
   </energy>
  </scstep>
  <scstep>
   <time name="dav">    0.37    0.37</time>
   <time name="total">    0.45    0.45</time>
   <energy>
    <i name="e_fr_energy">    -32.20975181 </i>
    <i name="e_wo_entrp">    -32.19753320 </i>
    <i name="e_0_energy">    -32.20567894 </i>
   </energy>
  </scstep>
  <scstep>
   <time name="dav">    0.38    0.38</time>
   <time name="total">    0.45    0.45</time>
   <energy>
    <i name="e_fr_energy">    -33.94739895 </i>
    <i name="e_wo_entrp">    -33.93746337 </i>
    <i name="e_0_energy">    -33.94408709 </i>
   </energy>
  </scstep>
  <scstep>
   <time name="dav">    0.34    0.34</time>
   <time name="total">    0.41    0.41</time>
   <energy>
    <i name="e_fr_energy">    -34.50502390 </i>
    <i name="e_wo_entrp">    -34.50274065 </i>
    <i name="e_0_energy">    -34.50426282 </i>
   </energy>
  </scstep>
  <scstep>
   <time name="dav">    0.36    0.36</time>
   <time name="total">    0.44    0.44</time>
   <energy>
    <i name="e_fr_energy">    -34.68784071 </i>
    <i name="e_wo_entrp">    -34.68854309 </i>
    <i name="e_0_energy">    -34.68807483 </i>
   </energy>
  </scstep>
  <scstep>
   <time name="dav">    0.36    0.36</time>
   <time name="total">    0.43    0.44</time>
   <energy>
    <i name="e_fr_energy">    -34.85324540 </i>
    <i name="e_wo_entrp">    -34.85520633 </i>
    <i name="e_0_energy">    -34.85389904 </i>
   </energy>
  </scstep>
  <scstep>
   <time name="dav">    0.36    0.36</time>
   <time name="total">    0.43    0.43</time>
   <energy>
    <i name="e_fr_energy">    -34.89804904 </i>
    <i name="e_wo_entrp">    -34.89954385 </i>
    <i name="e_0_energy">    -34.89854731 </i>
   </energy>
  </scstep>
  <scstep>
   <time name="dav">    0.34    0.35</time>
   <time name="total">    0.42    0.42</time>
   <energy>
    <i name="e_fr_energy">    -34.96680035 </i>
    <i name="e_wo_entrp">    -34.96722835 </i>
    <i name="e_0_energy">    -34.96694302 </i>
   </energy>
  </scstep>
  <scstep>
   <time name="dav">    0.34    0.34</time>
   <time name="total">    0.41    0.42</time>
   <energy>
    <i name="e_fr_energy">    -35.00313174 </i>
    <i name="e_wo_entrp">    -35.00331209 </i>
    <i name="e_0_energy">    -35.00319185 </i>
   </energy>
  </scstep>
  <scstep>
   <time name="dav">    0.36    0.36</time>
   <time name="total">    0.43    0.44</time>
   <energy>
    <i name="e_fr_energy">    -35.04149046 </i>
    <i name="e_wo_entrp">    -35.04113394 </i>
    <i name="e_0_energy">    -35.04137162 </i>
   </energy>
  </scstep>
  <scstep>
   <time name="dav">    0.31    0.32</time>
   <time name="total">    0.39    0.39</time>
   <energy>
    <i name="e_fr_energy">    -35.08932215 </i>
    <i name="e_wo_entrp">    -35.08869216 </i>
    <i name="e_0_energy">    -35.08911215 </i>
   </energy>
  </scstep>
  <scstep>
   <time name="dav">    0.30    0.30</time>
   <time name="total">    0.37    0.38</time>
   <energy>
    <i name="e_fr_energy">    -35.13449176 </i>
    <i name="e_wo_entrp">    -35.13353909 </i>
    <i name="e_0_energy">    -35.13417420 </i>
   </energy>
  </scstep>
  <scstep>
   <time name="dav">    0.29    0.29</time>
   <time name="total">    0.36    0.37</time>
   <energy>
    <i name="e_fr_energy">    -35.16480010 </i>
    <i name="e_wo_entrp">    -35.16378844 </i>
    <i name="e_0_energy">    -35.16446288 </i>
   </energy>
  </scstep>
  <scstep>
   <time name="dav">    0.28    0.28</time>
   <time name="total">    0.36    0.36</time>
   <energy>
    <i name="e_fr_energy">    -35.18144407 </i>
    <i name="e_wo_entrp">    -35.18024438 </i>
    <i name="e_0_energy">    -35.18104417 </i>
   </energy>
  </scstep>
  <scstep>
   <time name="dav">    0.27    0.27</time>
   <time name="total">    0.35    0.35</time>
   <energy>
    <i name="e_fr_energy">    -35.18564679 </i>
    <i name="e_wo_entrp">    -35.18442680 </i>
    <i name="e_0_energy">    -35.18524013 </i>
   </energy>
  </scstep>
  <scstep>
   <time name="dav">    0.25    0.25</time>
   <time name="total">    0.33    0.33</time>
   <energy>
    <i name="e_fr_energy">    -35.18624332 </i>
    <i name="e_wo_entrp">    -35.18496777 </i>
    <i name="e_0_energy">    -35.18581814 </i>
   </energy>
  </scstep>
  <scstep>
   <time name="dav">    0.25    0.25</time>
   <time name="total">    0.27    0.28</time>
   <energy>
    <i name="alphaZ">    216.17040255 </i>
    <i name="ewald">  42195.66351772 </i>
    <i name="hartreedc"> -52934.33965309 </i>
    <i name="XCdc">    362.14988443 </i>
    <i name="pawpsdc">  10502.52790007 </i>
    <i name="pawaedc"> -11364.09323261 </i>
    <i name="eentropy">     -0.00130440 </i>
    <i name="bandstr">   -165.88220201 </i>
    <i name="atom">  11152.61838693 </i>
    <i name="e_fr_energy">    -35.18630041 </i>
    <i name="e_wo_entrp">    -35.18499601 </i>
    <i name="e_0_energy">    -35.18586561 </i>
   </energy>
  </scstep>
  <structure>
   <crystal>
    <varray name="basis" >
     <v>       3.63000011       0.00000000       0.00000000 </v>
     <v>       0.00000000       2.56679773       0.00000000 </v>
     <v>       0.00000000       0.00000000      23.98379135 </v>
    </varray>
    <i name="volume">    223.46840188 </i>
    <varray name="rec_basis" >
     <v>       0.27548208       0.00000000       0.00000000 </v>
     <v>       0.00000000       0.38959050       0.00000000 </v>
     <v>       0.00000000       0.00000000       0.04169483 </v>
    </varray>
   </crystal>
   <varray name="positions" >
    <v>       0.00000000       0.00000000       0.00000000 </v>
    <v>       0.50000000       0.50000000       0.05351109 </v>
    <v>       0.00000000       0.00000000       0.10468148 </v>
    <v>       0.50000000       0.50000000       0.15792996 </v>
    <v>       0.00000000       0.00000000       0.21070899 </v>
    <v>       0.50000000       0.50000000       0.26289048 </v>
    <v>       0.00000000       0.00000000       0.31711592 </v>
    <v>       0.50000000       0.50000000       0.36467590 </v>
    <v>       1.00000000       0.00000000       0.42690792 </v>
    <v>       1.00000000       0.00000000       0.45801226 </v>
   </varray>
  </structure>
  <varray name="forces" >
   <v>       0.00000000       0.00000000       0.51486208 </v>
   <v>       0.00000000       0.00000000      -0.47322188 </v>
   <v>       0.00000000       0.00000000      -0.00732405 </v>
   <v>       0.00000000       0.00000000       0.06334435 </v>
   <v>       0.00000000       0.00000000      -0.09734431 </v>
   <v>       0.00000000       0.00000000       0.00990188 </v>
   <v>       0.00000000       0.00000000      -0.06264051 </v>
   <v>       0.00000000       0.00000000      -0.27587042 </v>
   <v>       0.00000000       0.00000000      -0.43000791 </v>
   <v>       0.00000000       0.00000000       0.75830078 </v>
  </varray>
  <varray name="stress" >
   <v>     -39.13882079       0.00000000       0.00000000 </v>
   <v>       0.00000000     -34.37062455       0.00000000 </v>
   <v>       0.00000000       0.00000000      -3.60533020 </v>
  </varray>
  <energy>
   <i name="e_fr_energy">    -38.43473642 </i>
   <i name="e_wo_entrp">    -38.43343203 </i>
   <i name="e_0_energy">    -38.43430162 </i>
  </energy>
  <time name="totalsc">   11.67   11.85</time>
 </calculation>
 <calculation>
  <scstep>
   <time name="dav">    0.33    0.33</time>
   <time name="total">    0.40    0.40</time>
   <energy>
    <i name="alphaZ">    216.17040255 </i>
    <i name="ewald">  42295.11500657 </i>
    <i name="hartreedc"> -53034.40298243 </i>
    <i name="XCdc">    362.15575937 </i>
    <i name="pawpsdc">  10502.30652908 </i>
    <i name="pawaedc"> -11363.86138231 </i>
    <i name="eentropy">      0.00060761 </i>
    <i name="bandstr">   -165.28399296 </i>
    <i name="atom">  11152.61838693 </i>
    <i name="e_fr_energy">    -35.18166558 </i>
    <i name="e_wo_entrp">    -35.18227320 </i>
    <i name="e_0_energy">    -35.18186812 </i>
   </energy>
  </scstep>
  <scstep>
   <time name="dav">    0.39    0.39</time>
   <time name="total">    0.46    0.46</time>
   <energy>
    <i name="e_fr_energy">    -35.19594662 </i>
    <i name="e_wo_entrp">    -35.19580944 </i>
    <i name="e_0_energy">    -35.19590090 </i>
   </energy>
  </scstep>
  <scstep>
   <time name="dav">    0.34    0.34</time>
   <time name="total">    0.42    0.42</time>
   <energy>
    <i name="e_fr_energy">    -35.19432049 </i>
    <i name="e_wo_entrp">    -35.19491580 </i>
    <i name="e_0_energy">    -35.19451892 </i>
   </energy>
  </scstep>
  <scstep>
   <time name="dav">    0.40    0.40</time>
   <time name="total">    0.47    0.48</time>
   <energy>
    <i name="e_fr_energy">    -35.19370316 </i>
    <i name="e_wo_entrp">    -35.19392473 </i>
    <i name="e_0_energy">    -35.19377702 </i>
   </energy>
  </scstep>
  <scstep>
   <time name="dav">    0.40    0.40</time>
   <time name="total">    0.47    0.48</time>
   <energy>
    <i name="e_fr_energy">    -35.19352884 </i>
    <i name="e_wo_entrp">    -35.19411939 </i>
    <i name="e_0_energy">    -35.19372569 </i>
   </energy>
  </scstep>
  <scstep>
   <time name="dav">    0.29    0.29</time>
   <time name="total">    0.31    0.32</time>
   <energy>
    <i name="alphaZ">    216.17040255 </i>
    <i name="ewald">  42295.11500657 </i>
    <i name="hartreedc"> -53031.79970074 </i>
    <i name="XCdc">    362.06105093 </i>
    <i name="pawpsdc">  10504.75225135 </i>
    <i name="pawaedc"> -11366.38709158 </i>
    <i name="eentropy">      0.00063910 </i>
    <i name="bandstr">   -167.72451858 </i>
    <i name="atom">  11152.61838693 </i>
    <i name="e_fr_energy">    -35.19357347 </i>
    <i name="e_wo_entrp">    -35.19421257 </i>
    <i name="e_0_energy">    -35.19378650 </i>
   </energy>
  </scstep>
  <structure>
   <crystal>
    <varray name="basis" >
     <v>       3.63000011       0.00000000       0.00000000 </v>
     <v>       0.00000000       2.56679773       0.00000000 </v>
     <v>       0.00000000       0.00000000      23.98379135 </v>
    </varray>
    <i name="volume">    223.46840188 </i>
    <varray name="rec_basis" >
     <v>       0.27548208       0.00000000       0.00000000 </v>
     <v>       0.00000000       0.38959050       0.00000000 </v>
     <v>       0.00000000       0.00000000       0.04169483 </v>
    </varray>
   </crystal>
   <varray name="positions" >
    <v>       0.00000000       0.00000000       0.00103563 </v>
    <v>       0.50000000       0.50000000       0.05255922 </v>
    <v>       0.00000000       0.00000000       0.10466674 </v>
    <v>       0.50000000       0.50000000       0.15805737 </v>
    <v>       0.00000000       0.00000000       0.21051319 </v>
    <v>       0.50000000       0.50000000       0.26291040 </v>
    <v>       0.00000000       0.00000000       0.31698992 </v>
    <v>       0.50000000       0.50000000       0.36412100 </v>
    <v>       1.00000000       0.00000000       0.42604297 </v>
    <v>       1.00000000       0.00000000       0.45953756 </v>
   </varray>
  </structure>
  <varray name="forces" >
   <v>       0.00000000       0.00000000       0.34438705 </v>
   <v>       0.00000000       0.00000000      -0.28352875 </v>
   <v>       0.00000000       0.00000000       0.01731648 </v>
   <v>       0.00000000       0.00000000      -0.00703828 </v>
   <v>       0.00000000       0.00000000      -0.07391590 </v>
   <v>       0.00000000       0.00000000      -0.03645459 </v>
   <v>       0.00000000       0.00000000      -0.06677996 </v>
   <v>       0.00000000       0.00000000      -0.17160685 </v>
   <v>       0.00000000       0.00000000       0.83832273 </v>
   <v>       0.00000000       0.00000000      -0.56070194 </v>
  </varray>
  <varray name="stress" >
   <v>     -36.94846909       0.00000000       0.00000000 </v>
   <v>       0.00000000     -32.44519632       0.00000000 </v>
   <v>       0.00000000       0.00000000      -8.77672130 </v>
  </varray>
  <energy>
   <i name="e_fr_energy">    -38.45198791 </i>
   <i name="e_wo_entrp">    -38.45262700 </i>
   <i name="e_0_energy">    -38.45220094 </i>
  </energy>
  <time name="totalsc">    3.02    3.10</time>
 </calculation>
 <calculation>
  <scstep>
   <time name="dav">    0.33    0.33</time>
   <time name="total">    0.41    0.41</time>
   <energy>
    <i name="alphaZ">    216.17040255 </i>
    <i name="ewald">  42263.82728790 </i>
    <i name="hartreedc"> -53000.32026937 </i>
    <i name="XCdc">    362.05927669 </i>
    <i name="pawpsdc">  10504.83137236 </i>
    <i name="pawaedc"> -11366.46746202 </i>
    <i name="eentropy">     -0.00002536 </i>
    <i name="bandstr">   -167.91993719 </i>
    <i name="atom">  11152.61838693 </i>
    <i name="e_fr_energy">    -35.20096751 </i>
    <i name="e_wo_entrp">    -35.20094216 </i>
    <i name="e_0_energy">    -35.20095906 </i>
   </energy>
  </scstep>
  <scstep>
   <time name="dav">    0.40    0.41</time>
   <time name="total">    0.48    0.48</time>
   <energy>
    <i name="e_fr_energy">    -35.20228252 </i>
    <i name="e_wo_entrp">    -35.20234708 </i>
    <i name="e_0_energy">    -35.20230404 </i>
   </energy>
  </scstep>
  <scstep>
   <time name="dav">    0.34    0.34</time>
   <time name="total">    0.36    0.36</time>
   <energy>
    <i name="alphaZ">    216.17040255 </i>
    <i name="ewald">  42263.82728790 </i>
    <i name="hartreedc"> -53000.74904866 </i>
    <i name="XCdc">    362.08012280 </i>
    <i name="pawpsdc">  10504.29851673 </i>
    <i name="pawaedc"> -11365.95034506 </i>
    <i name="eentropy">     -0.00001572 </i>
    <i name="bandstr">   -167.49753543 </i>
    <i name="atom">  11152.61838693 </i>
    <i name="e_fr_energy">    -35.20222797 </i>
    <i name="e_wo_entrp">    -35.20221225 </i>
    <i name="e_0_energy">    -35.20222273 </i>
   </energy>
  </scstep>
  <structure>
   <crystal>
    <varray name="basis" >
     <v>       3.63000011       0.00000000       0.00000000 </v>
     <v>       0.00000000       2.56679773       0.00000000 </v>
     <v>       0.00000000       0.00000000      23.98379135 </v>
    </varray>
    <i name="volume">    223.46840188 </i>
    <varray name="rec_basis" >
     <v>       0.27548208       0.00000000       0.00000000 </v>
     <v>       0.00000000       0.38959050       0.00000000 </v>
     <v>       0.00000000       0.00000000       0.04169483 </v>
    </varray>
   </crystal>
   <varray name="positions" >
    <v>       0.00000000       0.00000000       0.00071015 </v>
    <v>       0.50000000       0.50000000       0.05285838 </v>
    <v>       0.00000000       0.00000000       0.10467137 </v>
    <v>       0.50000000       0.50000000       0.15801733 </v>
    <v>       0.00000000       0.00000000       0.21057472 </v>
    <v>       0.50000000       0.50000000       0.26290414 </v>
    <v>       0.00000000       0.00000000       0.31702952 </v>
    <v>       0.50000000       0.50000000       0.36429539 </v>
    <v>       1.00000000       0.00000000       0.42631481 </v>
    <v>       1.00000000       0.00000000       0.45905818 </v>
   </varray>
  </structure>
  <varray name="forces" >
   <v>       0.00000000       0.00000000       0.43608678 </v>
   <v>       0.00000000       0.00000000      -0.35939438 </v>
   <v>       0.00000000       0.00000000       0.00823011 </v>
   <v>       0.00000000       0.00000000       0.02033801 </v>
   <v>       0.00000000       0.00000000      -0.09501185 </v>
   <v>       0.00000000       0.00000000      -0.02273226 </v>
   <v>       0.00000000       0.00000000      -0.07197377 </v>
   <v>       0.00000000       0.00000000      -0.21635181 </v>
   <v>       0.00000000       0.00000000       0.59010446 </v>
   <v>       0.00000000       0.00000000      -0.28929529 </v>
  </varray>
  <varray name="stress" >
   <v>     -38.45149191       0.00000000       0.00000000 </v>
   <v>       0.00000000     -33.93395612       0.00000000 </v>
   <v>       0.00000000       0.00000000      -8.87123710 </v>
  </varray>
  <energy>
   <i name="e_fr_energy">    -38.45541612 </i>
   <i name="e_wo_entrp">    -38.45540039 </i>
   <i name="e_0_energy">    -38.45541088 </i>
  </energy>
  <time name="totalsc">    1.73    1.80</time>
 </calculation>
 <calculation>
  <scstep>
   <time name="dav">    0.32    0.32</time>
   <time name="total">    0.40    0.40</time>
   <energy>
    <i name="alphaZ">    216.17040255 </i>
    <i name="ewald">  42408.52184044 </i>
    <i name="hartreedc"> -53145.07093752 </i>
    <i name="XCdc">    362.16858625 </i>
    <i name="pawpsdc">  10504.18279796 </i>
    <i name="pawaedc"> -11365.81990421 </i>
    <i name="eentropy">      0.00196135 </i>
    <i name="bandstr">   -167.97608374 </i>
    <i name="atom">  11152.61838693 </i>
    <i name="e_fr_energy">    -35.20295000 </i>
    <i name="e_wo_entrp">    -35.20491134 </i>
    <i name="e_0_energy">    -35.20360378 </i>
   </energy>
  </scstep>
  <scstep>
   <time name="dav">    0.40    0.40</time>
   <time name="total">    0.47    0.48</time>
   <energy>
    <i name="e_fr_energy">    -35.22913384 </i>
    <i name="e_wo_entrp">    -35.23029648 </i>
    <i name="e_0_energy">    -35.22952139 </i>
   </energy>
  </scstep>
  <scstep>
   <time name="dav">    0.32    0.33</time>
   <time name="total">    0.40    0.40</time>
   <energy>
    <i name="e_fr_energy">    -35.22729014 </i>
    <i name="e_wo_entrp">    -35.22909575 </i>
    <i name="e_0_energy">    -35.22789201 </i>
   </energy>
  </scstep>
  <scstep>
   <time name="dav">    0.33    0.33</time>
   <time name="total">    0.40    0.41</time>
   <energy>
    <i name="e_fr_energy">    -35.22720706 </i>
    <i name="e_wo_entrp">    -35.22892759 </i>
    <i name="e_0_energy">    -35.22778057 </i>
   </energy>
  </scstep>
  <scstep>
   <time name="dav">    0.31    0.31</time>
   <time name="total">    0.38    0.39</time>
   <energy>
    <i name="e_fr_energy">    -35.22678704 </i>
    <i name="e_wo_entrp">    -35.22867957 </i>
    <i name="e_0_energy">    -35.22741789 </i>
   </energy>
  </scstep>
  <scstep>
   <time name="dav">    0.31    0.31</time>
   <time name="total">    0.33    0.33</time>
   <energy>
    <i name="alphaZ">    216.17040255 </i>
    <i name="ewald">  42408.52184044 </i>
    <i name="hartreedc"> -53144.14701246 </i>
    <i name="XCdc">    362.14772831 </i>
    <i name="pawpsdc">  10514.64949615 </i>
    <i name="pawaedc"> -11376.43889641 </i>
    <i name="eentropy">      0.00204648 </i>
    <i name="bandstr">   -168.75072149 </i>
    <i name="atom">  11152.61838693 </i>
    <i name="e_fr_energy">    -35.22672950 </i>
    <i name="e_wo_entrp">    -35.22877599 </i>
    <i name="e_0_energy">    -35.22741167 </i>
   </energy>
  </scstep>
  <structure>
   <crystal>
    <varray name="basis" >
     <v>       3.63000011       0.00000000       0.00000000 </v>
     <v>       0.00000000       2.56679773       0.00000000 </v>
     <v>       0.00000000       0.00000000      23.98379135 </v>
    </varray>
    <i name="volume">    223.46840188 </i>
    <varray name="rec_basis" >
     <v>       0.27548208       0.00000000       0.00000000 </v>
     <v>       0.00000000       0.38959050       0.00000000 </v>
     <v>       0.00000000       0.00000000       0.04169483 </v>
    </varray>
   </crystal>
   <varray name="positions" >
    <v>       0.00000000       0.00000000       0.00212302 </v>
    <v>       0.50000000       0.50000000       0.05163786 </v>
    <v>       0.00000000       0.00000000       0.10467848 </v>
    <v>       0.50000000       0.50000000       0.15812835 </v>
    <v>       0.00000000       0.00000000       0.21028392 </v>
    <v>       0.50000000       0.50000000       0.26287265 </v>
    <v>       0.00000000       0.00000000       0.31682196 </v>
    <v>       0.50000000       0.50000000       0.36357099 </v>
    <v>       1.00000000       0.00000000       0.42693372 </v>
    <v>       1.00000000       0.00000000       0.45938304 </v>
   </varray>
  </structure>
  <varray name="forces" >
   <v>       0.00000000       0.00000000       0.20039655 </v>
   <v>       0.00000000       0.00000000      -0.12603123 </v>
   <v>       0.00000000       0.00000000       0.04778416 </v>
   <v>       0.00000000       0.00000000      -0.06156029 </v>
   <v>       0.00000000       0.00000000      -0.05651405 </v>
   <v>       0.00000000       0.00000000      -0.08621557 </v>
   <v>       0.00000000       0.00000000      -0.07833545 </v>
   <v>       0.00000000       0.00000000      -0.12251184 </v>
   <v>       0.00000000       0.00000000       0.43783065 </v>
   <v>       0.00000000       0.00000000      -0.15484293 </v>
  </varray>
  <varray name="stress" >
   <v>     -31.01365190       0.00000000       0.00000000 </v>
   <v>       0.00000000     -27.67751005       0.00000000 </v>
   <v>       0.00000000       0.00000000      -0.16973461 </v>
  </varray>
  <energy>
   <i name="e_fr_energy">    -38.48202030 </i>
   <i name="e_wo_entrp">    -38.48406678 </i>
   <i name="e_0_energy">    -38.48270246 </i>
  </energy>
  <time name="totalsc">    2.87    2.93</time>
 </calculation>
 <calculation>
  <scstep>
   <time name="dav">    0.32    0.32</time>
   <time name="total">    0.40    0.40</time>
   <energy>
    <i name="alphaZ">    216.17040255 </i>
    <i name="ewald">  42557.36517198 </i>
    <i name="hartreedc"> -53292.48193113 </i>
    <i name="XCdc">    362.24285656 </i>
    <i name="pawpsdc">  10515.23486161 </i>
    <i name="pawaedc"> -11377.07049684 </i>
    <i name="eentropy">      0.00342258 </i>
    <i name="bandstr">   -169.29201666 </i>
    <i name="atom">  11152.61838693 </i>
    <i name="e_fr_energy">    -35.20934242 </i>
    <i name="e_wo_entrp">    -35.21276500 </i>
    <i name="e_0_energy">    -35.21048328 </i>
   </energy>
  </scstep>
  <scstep>
   <time name="dav">    0.41    0.41</time>
   <time name="total">    0.49    0.49</time>
   <energy>
    <i name="e_fr_energy">    -35.23690933 </i>
    <i name="e_wo_entrp">    -35.23976233 </i>
    <i name="e_0_energy">    -35.23786033 </i>
   </energy>
  </scstep>
  <scstep>
   <time name="dav">    0.32    0.32</time>
   <time name="total">    0.40    0.40</time>
   <energy>
    <i name="e_fr_energy">    -35.23452308 </i>
    <i name="e_wo_entrp">    -35.23777811 </i>
    <i name="e_0_energy">    -35.23560809 </i>
   </energy>
  </scstep>
  <scstep>
   <time name="dav">    0.33    0.34</time>
   <time name="total">    0.41    0.41</time>
   <energy>
    <i name="e_fr_energy">    -35.23443140 </i>
    <i name="e_wo_entrp">    -35.23778762 </i>
    <i name="e_0_energy">    -35.23555014 </i>
   </energy>
  </scstep>
  <scstep>
   <time name="dav">    0.33    0.33</time>
   <time name="total">    0.40    0.41</time>
   <energy>
    <i name="e_fr_energy">    -35.23423241 </i>
    <i name="e_wo_entrp">    -35.23742645 </i>
    <i name="e_0_energy">    -35.23529709 </i>
   </energy>
  </scstep>
  <scstep>
   <time name="dav">    0.37    0.37</time>
   <time name="total">    0.45    0.45</time>
   <energy>
    <i name="e_fr_energy">    -35.23396318 </i>
    <i name="e_wo_entrp">    -35.23759396 </i>
    <i name="e_0_energy">    -35.23517344 </i>
   </energy>
  </scstep>
  <scstep>
   <time name="dav">    0.26    0.26</time>
   <time name="total">    0.28    0.28</time>
   <energy>
    <i name="alphaZ">    216.17040255 </i>
    <i name="ewald">  42557.36517198 </i>
    <i name="hartreedc"> -53291.54086364 </i>
    <i name="XCdc">    362.22044443 </i>
    <i name="pawpsdc">  10527.73800479 </i>
    <i name="pawaedc"> -11389.80610204 </i>
    <i name="eentropy">      0.00352368 </i>
    <i name="bandstr">   -170.00295583 </i>
    <i name="atom">  11152.61838693 </i>
    <i name="e_fr_energy">    -35.23398715 </i>
    <i name="e_wo_entrp">    -35.23751083 </i>
    <i name="e_0_energy">    -35.23516171 </i>
   </energy>
  </scstep>
  <structure>
   <crystal>
    <varray name="basis" >
     <v>       3.63000011       0.00000000       0.00000000 </v>
     <v>       0.00000000       2.56679773       0.00000000 </v>
     <v>       0.00000000       0.00000000      23.98379135 </v>
    </varray>
    <i name="volume">    223.46840188 </i>
    <varray name="rec_basis" >
     <v>       0.27548208       0.00000000       0.00000000 </v>
     <v>       0.00000000       0.38959050       0.00000000 </v>
     <v>       0.00000000       0.00000000       0.04169483 </v>
    </varray>
   </crystal>
   <varray name="positions" >
    <v>       0.00000000       0.00000000       0.00357761 </v>
    <v>       0.50000000       0.50000000       0.05038130 </v>
    <v>       0.00000000       0.00000000       0.10468580 </v>
    <v>       0.50000000       0.50000000       0.15824266 </v>
    <v>       0.00000000       0.00000000       0.20998452 </v>
    <v>       0.50000000       0.50000000       0.26284023 </v>
    <v>       0.00000000       0.00000000       0.31660827 </v>
    <v>       0.50000000       0.50000000       0.36282519 </v>
    <v>       1.00000000       0.00000000       0.42757091 </v>
    <v>       1.00000000       0.00000000       0.45971749 </v>
   </varray>
  </structure>
  <varray name="forces" >
   <v>       0.00000000       0.00000000      -0.03500038 </v>
   <v>       0.00000000       0.00000000       0.11375828 </v>
   <v>       0.00000000       0.00000000       0.09392080 </v>
   <v>       0.00000000       0.00000000      -0.14100858 </v>
   <v>       0.00000000       0.00000000      -0.03352409 </v>
   <v>       0.00000000       0.00000000      -0.16474673 </v>
   <v>       0.00000000       0.00000000      -0.08711123 </v>
   <v>       0.00000000       0.00000000      -0.01232800 </v>
   <v>       0.00000000       0.00000000       0.27427597 </v>
   <v>       0.00000000       0.00000000      -0.00823605 </v>
  </varray>
  <varray name="stress" >
   <v>     -33.09957905       0.00000000       0.00000000 </v>
   <v>       0.00000000     -31.34342133       0.00000000 </v>
   <v>       0.00000000       0.00000000      -1.11148319 </v>
  </varray>
  <energy>
   <i name="e_fr_energy">    -38.49166709 </i>
   <i name="e_wo_entrp">    -38.49519077 </i>
   <i name="e_0_energy">    -38.49284165 </i>
  </energy>
  <time name="totalsc">    3.31    3.36</time>
 </calculation>
 <calculation>
  <scstep>
   <time name="dav">    0.31    0.31</time>
   <time name="total">    0.38    0.38</time>
   <energy>
    <i name="alphaZ">    216.17040255 </i>
    <i name="ewald">  42612.99855227 </i>
    <i name="hartreedc"> -53346.92337096 </i>
    <i name="XCdc">    362.23412581 </i>
    <i name="pawpsdc">  10527.74293536 </i>
    <i name="pawaedc"> -11389.80747709 </i>
    <i name="eentropy">      0.00283992 </i>
    <i name="bandstr">   -170.27180277 </i>
    <i name="atom">  11152.61838693 </i>
    <i name="e_fr_energy">    -35.23540799 </i>
    <i name="e_wo_entrp">    -35.23824791 </i>
    <i name="e_0_energy">    -35.23635463 </i>
   </energy>
  </scstep>
  <scstep>
   <time name="dav">    0.37    0.38</time>
   <time name="total">    0.45    0.45</time>
   <energy>
    <i name="e_fr_energy">    -35.23780306 </i>
    <i name="e_wo_entrp">    -35.24088937 </i>
    <i name="e_0_energy">    -35.23883183 </i>
   </energy>
  </scstep>
  <scstep>
   <time name="dav">    0.32    0.33</time>
   <time name="total">    0.40    0.40</time>
   <energy>
    <i name="e_fr_energy">    -35.23773215 </i>
    <i name="e_wo_entrp">    -35.24065371 </i>
    <i name="e_0_energy">    -35.23870601 </i>
   </energy>
  </scstep>
  <scstep>
   <time name="dav">    0.24    0.24</time>
   <time name="total">    0.26    0.26</time>
   <energy>
    <i name="alphaZ">    216.17040255 </i>
    <i name="ewald">  42612.99855227 </i>
    <i name="hartreedc"> -53346.85833192 </i>
    <i name="XCdc">    362.24854794 </i>
    <i name="pawpsdc">  10528.36779050 </i>
    <i name="pawaedc"> -11390.42584104 </i>
    <i name="eentropy">      0.00310295 </i>
    <i name="bandstr">   -170.36025847 </i>
    <i name="atom">  11152.61838693 </i>
    <i name="e_fr_energy">    -35.23764830 </i>
    <i name="e_wo_entrp">    -35.24075125 </i>
    <i name="e_0_energy">    -35.23868262 </i>
   </energy>
  </scstep>
  <structure>
   <crystal>
    <varray name="basis" >
     <v>       3.63000011       0.00000000       0.00000000 </v>
     <v>       0.00000000       2.56679773       0.00000000 </v>
     <v>       0.00000000       0.00000000      23.98379135 </v>
    </varray>
    <i name="volume">    223.46840188 </i>
    <varray name="rec_basis" >
     <v>       0.27548208       0.00000000       0.00000000 </v>
     <v>       0.00000000       0.38959050       0.00000000 </v>
     <v>       0.00000000       0.00000000       0.04169483 </v>
    </varray>
   </crystal>
   <varray name="positions" >
    <v>       0.00000000       0.00000000       0.00356574 </v>
    <v>       0.50000000       0.50000000       0.05058141 </v>
    <v>       0.00000000       0.00000000       0.10489964 </v>
    <v>       0.50000000       0.50000000       0.15792744 </v>
    <v>       0.00000000       0.00000000       0.20989438 </v>
    <v>       0.50000000       0.50000000       0.26246422 </v>
    <v>       0.00000000       0.00000000       0.31640031 </v>
    <v>       0.50000000       0.50000000       0.36276246 </v>
    <v>       1.00000000       0.00000000       0.42822404 </v>
    <v>       1.00000000       0.00000000       0.45971433 </v>
   </varray>
  </structure>
  <varray name="forces" >
   <v>       0.00000000       0.00000000      -0.02195036 </v>
   <v>       0.00000000       0.00000000       0.05603703 </v>
   <v>       0.00000000       0.00000000       0.01498016 </v>
   <v>       0.00000000       0.00000000      -0.07130442 </v>
   <v>       0.00000000       0.00000000      -0.02424937 </v>
   <v>       0.00000000       0.00000000      -0.08135370 </v>
   <v>       0.00000000       0.00000000      -0.06912261 </v>
   <v>       0.00000000       0.00000000      -0.06262190 </v>
   <v>       0.00000000       0.00000000      -0.12974409 </v>
   <v>       0.00000000       0.00000000       0.38932925 </v>
  </varray>
  <varray name="stress" >
   <v>     -32.17886908       0.00000000       0.00000000 </v>
   <v>       0.00000000     -30.39276566       0.00000000 </v>
   <v>       0.00000000       0.00000000       2.15529987 </v>
  </varray>
  <energy>
   <i name="e_fr_energy">    -38.49619575 </i>
   <i name="e_wo_entrp">    -38.49929870 </i>
   <i name="e_0_energy">    -38.49723007 </i>
  </energy>
  <time name="totalsc">    1.98    2.05</time>
 </calculation>
 <calculation>
  <scstep>
   <time name="dav">    0.25    0.25</time>
   <time name="total">    0.32    0.32</time>
   <energy>
    <i name="alphaZ">    216.17040255 </i>
    <i name="ewald">  42613.36025115 </i>
    <i name="hartreedc"> -53347.22758758 </i>
    <i name="XCdc">    362.25152834 </i>
    <i name="pawpsdc">  10528.80001338 </i>
    <i name="pawaedc"> -11390.85421873 </i>
    <i name="eentropy">      0.00302169 </i>
    <i name="bandstr">   -170.35937941 </i>
    <i name="atom">  11152.61838693 </i>
    <i name="e_fr_energy">    -35.23758169 </i>
    <i name="e_wo_entrp">    -35.24060338 </i>
    <i name="e_0_energy">    -35.23858892 </i>
   </energy>
  </scstep>
  <scstep>
   <time name="dav">    0.23    0.23</time>
   <time name="total">    0.26    0.26</time>
   <energy>
    <i name="alphaZ">    216.17040255 </i>
    <i name="ewald">  42613.36025115 </i>
    <i name="hartreedc"> -53347.44620570 </i>
    <i name="XCdc">    362.25254901 </i>
    <i name="pawpsdc">  10528.90185996 </i>
    <i name="pawaedc"> -11390.96260005 </i>
    <i name="eentropy">      0.00307095 </i>
    <i name="bandstr">   -170.13534304 </i>
    <i name="atom">  11152.61838693 </i>
    <i name="e_fr_energy">    -35.23762825 </i>
    <i name="e_wo_entrp">    -35.24069920 </i>
    <i name="e_0_energy">    -35.23865190 </i>
   </energy>
  </scstep>
  <structure>
   <crystal>
    <varray name="basis" >
     <v>       3.63000011       0.00000000       0.00000000 </v>
     <v>       0.00000000       2.56679773       0.00000000 </v>
     <v>       0.00000000       0.00000000      23.98379135 </v>
    </varray>
    <i name="volume">    223.46840188 </i>
    <varray name="rec_basis" >
     <v>       0.27548208       0.00000000       0.00000000 </v>
     <v>       0.00000000       0.38959050       0.00000000 </v>
     <v>       0.00000000       0.00000000       0.04169483 </v>
    </varray>
   </crystal>
   <varray name="positions" >
    <v>       0.00000000       0.00000000       0.00356567 </v>
    <v>       0.50000000       0.50000000       0.05058271 </v>
    <v>       0.00000000       0.00000000       0.10490103 </v>
    <v>       0.50000000       0.50000000       0.15792540 </v>
    <v>       0.00000000       0.00000000       0.20989379 </v>
    <v>       0.50000000       0.50000000       0.26246178 </v>
    <v>       0.00000000       0.00000000       0.31639896 </v>
    <v>       0.50000000       0.50000000       0.36276205 </v>
    <v>       1.00000000       0.00000000       0.42822829 </v>
    <v>       1.00000000       0.00000000       0.45971431 </v>
   </varray>
  </structure>
  <varray name="forces" >
   <v>       0.00000000       0.00000000      -0.02629084 </v>
   <v>       0.00000000       0.00000000       0.01911135 </v>
   <v>       0.00000000       0.00000000      -0.02208455 </v>
   <v>       0.00000000       0.00000000      -0.03489648 </v>
   <v>       0.00000000       0.00000000      -0.01832324 </v>
   <v>       0.00000000       0.00000000      -0.03745497 </v>
   <v>       0.00000000       0.00000000      -0.05056981 </v>
   <v>       0.00000000       0.00000000      -0.06406048 </v>
   <v>       0.00000000       0.00000000      -0.15787316 </v>
   <v>       0.00000000       0.00000000       0.39244218 </v>
  </varray>
  <varray name="stress" >
   <v>     -32.94855584       0.00000000       0.00000000 </v>
   <v>       0.00000000     -31.18236439       0.00000000 </v>
   <v>       0.00000000       0.00000000       1.31533307 </v>
  </varray>
  <energy>
   <i name="e_fr_energy">    -38.49618358 </i>
   <i name="e_wo_entrp">    -38.49925453 </i>
   <i name="e_0_energy">    -38.49720723 </i>
  </energy>
  <time name="totalsc">    1.07    1.08</time>
 </calculation>
 <calculation>
  <scstep>
   <time name="dav">    0.23    0.23</time>
   <time name="total">    0.30    0.31</time>
   <energy>
    <i name="alphaZ">    216.17040255 </i>
    <i name="ewald">  42613.01097115 </i>
    <i name="hartreedc"> -53347.05709092 </i>
    <i name="XCdc">    362.25209313 </i>
    <i name="pawpsdc">  10528.89975525 </i>
    <i name="pawaedc"> -11390.95633116 </i>
    <i name="eentropy">      0.00299659 </i>
    <i name="bandstr">   -170.17876514 </i>
    <i name="atom">  11152.61838693 </i>
    <i name="e_fr_energy">    -35.23758164 </i>
    <i name="e_wo_entrp">    -35.24057823 </i>
    <i name="e_0_energy">    -35.23858050 </i>
   </energy>
  </scstep>
  <scstep>
   <time name="dav">    0.23    0.23</time>
   <time name="total">    0.25    0.25</time>
   <energy>
    <i name="alphaZ">    216.17040255 </i>
    <i name="ewald">  42613.01097115 </i>
    <i name="hartreedc"> -53347.08109206 </i>
    <i name="XCdc">    362.25163665 </i>
    <i name="pawpsdc">  10528.91599861 </i>
    <i name="pawaedc"> -11390.96789709 </i>
    <i name="eentropy">      0.00305451 </i>
    <i name="bandstr">   -170.15905272 </i>
    <i name="atom">  11152.61838693 </i>
    <i name="e_fr_energy">    -35.23759149 </i>
    <i name="e_wo_entrp">    -35.24064600 </i>
    <i name="e_0_energy">    -35.23860966 </i>
   </energy>
  </scstep>
  <structure>
   <crystal>
    <varray name="basis" >
     <v>       3.63000011       0.00000000       0.00000000 </v>
     <v>       0.00000000       2.56679773       0.00000000 </v>
     <v>       0.00000000       0.00000000      23.98379135 </v>
    </varray>
    <i name="volume">    223.46840188 </i>
    <varray name="rec_basis" >
     <v>       0.27548208       0.00000000       0.00000000 </v>
     <v>       0.00000000       0.38959050       0.00000000 </v>
     <v>       0.00000000       0.00000000       0.04169483 </v>
    </varray>
   </crystal>
   <varray name="positions" >
    <v>       0.00000000       0.00000000       0.00356574 </v>
    <v>       0.50000000       0.50000000       0.05058146 </v>
    <v>       0.00000000       0.00000000       0.10489969 </v>
    <v>       0.50000000       0.50000000       0.15792737 </v>
    <v>       0.00000000       0.00000000       0.20989436 </v>
    <v>       0.50000000       0.50000000       0.26246414 </v>
    <v>       0.00000000       0.00000000       0.31640026 </v>
    <v>       0.50000000       0.50000000       0.36276244 </v>
    <v>       1.00000000       0.00000000       0.42822419 </v>
    <v>       1.00000000       0.00000000       0.45971433 </v>
   </varray>
  </structure>
  <varray name="forces" >
   <v>       0.00000000       0.00000000      -0.01603547 </v>
   <v>       0.00000000       0.00000000       0.06826456 </v>
   <v>       0.00000000       0.00000000       0.02793179 </v>
   <v>       0.00000000       0.00000000      -0.08429142 </v>
   <v>       0.00000000       0.00000000      -0.02794752 </v>
   <v>       0.00000000       0.00000000      -0.09574849 </v>
   <v>       0.00000000       0.00000000      -0.07310232 </v>
   <v>       0.00000000       0.00000000      -0.05993840 </v>
   <v>       0.00000000       0.00000000      -0.14092311 </v>
   <v>       0.00000000       0.00000000       0.40179039 </v>
  </varray>
  <varray name="stress" >
   <v>     -32.25837413       0.00000000       0.00000000 </v>
   <v>       0.00000000     -30.45430425       0.00000000 </v>
   <v>       0.00000000       0.00000000       2.27213947 </v>
  </varray>
  <energy>
   <i name="e_fr_energy">    -38.49613921 </i>
   <i name="e_wo_entrp">    -38.49919372 </i>
   <i name="e_0_energy">    -38.49715738 </i>
  </energy>
  <time name="totalsc">    1.04    1.07</time>
 </calculation>
 <calculation>
  <scstep>
   <time name="dav">    0.31    0.32</time>
   <time name="total">    0.39    0.39</time>
   <energy>
    <i name="alphaZ">    216.17040255 </i>
    <i name="ewald">  42648.66324934 </i>
    <i name="hartreedc"> -53382.78342584 </i>
    <i name="XCdc">    362.25066399 </i>
    <i name="pawpsdc">  10528.92712774 </i>
    <i name="pawaedc"> -11390.97891251 </i>
    <i name="eentropy">      0.00258736 </i>
    <i name="bandstr">   -170.10893068 </i>
    <i name="atom">  11152.61838693 </i>
    <i name="e_fr_energy">    -35.23885113 </i>
    <i name="e_wo_entrp">    -35.24143848 </i>
    <i name="e_0_energy">    -35.23971358 </i>
   </energy>
  </scstep>
  <scstep>
   <time name="dav">    0.38    0.38</time>
   <time name="total">    0.45    0.46</time>
   <energy>
    <i name="e_fr_energy">    -35.23971861 </i>
    <i name="e_wo_entrp">    -35.24239334 </i>
    <i name="e_0_energy">    -35.24061019 </i>
   </energy>
  </scstep>
  <scstep>
   <time name="dav">    0.24    0.24</time>
   <time name="total">    0.26    0.26</time>
   <energy>
    <i name="alphaZ">    216.17040255 </i>
    <i name="ewald">  42648.66324934 </i>
    <i name="hartreedc"> -53382.60185200 </i>
    <i name="XCdc">    362.24707984 </i>
    <i name="pawpsdc">  10528.97700834 </i>
    <i name="pawaedc"> -11391.01873338 </i>
    <i name="eentropy">      0.00267229 </i>
    <i name="bandstr">   -170.29790366 </i>
    <i name="atom">  11152.61838693 </i>
    <i name="e_fr_energy">    -35.23968977 </i>
    <i name="e_wo_entrp">    -35.24236205 </i>
    <i name="e_0_energy">    -35.24058053 </i>
   </energy>
  </scstep>
  <structure>
   <crystal>
    <varray name="basis" >
     <v>       3.63000011       0.00000000       0.00000000 </v>
     <v>       0.00000000       2.56679773       0.00000000 </v>
     <v>       0.00000000       0.00000000      23.98379135 </v>
    </varray>
    <i name="volume">    223.46840188 </i>
    <varray name="rec_basis" >
     <v>       0.27548208       0.00000000       0.00000000 </v>
     <v>       0.00000000       0.38959050       0.00000000 </v>
     <v>       0.00000000       0.00000000       0.04169483 </v>
    </varray>
   </crystal>
   <varray name="positions" >
    <v>       0.00000000       0.00000000       0.00354967 </v>
    <v>       0.50000000       0.50000000       0.05071173 </v>
    <v>       0.00000000       0.00000000       0.10500757 </v>
    <v>       0.50000000       0.50000000       0.15773834 </v>
    <v>       0.00000000       0.00000000       0.20983763 </v>
    <v>       0.50000000       0.50000000       0.26224199 </v>
    <v>       0.00000000       0.00000000       0.31626338 </v>
    <v>       0.50000000       0.50000000       0.36269479 </v>
    <v>       1.00000000       0.00000000       0.42839625 </v>
    <v>       1.00000000       0.00000000       0.45999263 </v>
   </varray>
  </structure>
  <varray name="forces" >
   <v>       0.00000000       0.00000000      -0.00391663 </v>
   <v>       0.00000000       0.00000000       0.03401302 </v>
   <v>       0.00000000       0.00000000      -0.01378525 </v>
   <v>       0.00000000       0.00000000      -0.05094746 </v>
   <v>       0.00000000       0.00000000      -0.03337170 </v>
   <v>       0.00000000       0.00000000      -0.05872086 </v>
   <v>       0.00000000       0.00000000      -0.06204495 </v>
   <v>       0.00000000       0.00000000      -0.06615556 </v>
   <v>       0.00000000       0.00000000      -0.07426912 </v>
   <v>       0.00000000       0.00000000       0.32919851 </v>
  </varray>
  <varray name="stress" >
   <v>     -31.99965187       0.00000000       0.00000000 </v>
   <v>       0.00000000     -30.15314543       0.00000000 </v>
   <v>       0.00000000       0.00000000       2.17208507 </v>
  </varray>
  <energy>
   <i name="e_fr_energy">    -38.49962475 </i>
   <i name="e_wo_entrp">    -38.50229704 </i>
   <i name="e_0_energy">    -38.50051551 </i>
  </energy>
  <time name="totalsc">    1.59    1.62</time>
 </calculation>
 <calculation>
  <scstep>
   <time name="dav">    0.32    0.32</time>
   <time name="total">    0.39    0.39</time>
   <energy>
    <i name="alphaZ">    216.17040255 </i>
    <i name="ewald">  42755.78594063 </i>
    <i name="hartreedc"> -53489.67773578 </i>
    <i name="XCdc">    362.24479968 </i>
    <i name="pawpsdc">  10528.98159126 </i>
    <i name="pawaedc"> -11391.01585585 </i>
    <i name="eentropy">      0.00151582 </i>
    <i name="bandstr">   -170.34377452 </i>
    <i name="atom">  11152.61838693 </i>
    <i name="e_fr_energy">    -35.23472929 </i>
    <i name="e_wo_entrp">    -35.23624511 </i>
    <i name="e_0_energy">    -35.23523456 </i>
   </energy>
  </scstep>
  <scstep>
   <time name="dav">    0.38    0.38</time>
   <time name="total">    0.46    0.46</time>
   <energy>
    <i name="e_fr_energy">    -35.24248895 </i>
    <i name="e_wo_entrp">    -35.24410277 </i>
    <i name="e_0_energy">    -35.24302689 </i>
   </energy>
  </scstep>
  <scstep>
   <time name="dav">    0.33    0.33</time>
   <time name="total">    0.41    0.41</time>
   <energy>
    <i name="e_fr_energy">    -35.24212940 </i>
    <i name="e_wo_entrp">    -35.24383716 </i>
    <i name="e_0_energy">    -35.24269865 </i>
   </energy>
  </scstep>
  <scstep>
   <time name="dav">    0.28    0.28</time>
   <time name="total">    0.30    0.31</time>
   <energy>
    <i name="alphaZ">    216.17040255 </i>
    <i name="ewald">  42755.78594063 </i>
    <i name="hartreedc"> -53488.78947167 </i>
    <i name="XCdc">    362.23423567 </i>
    <i name="pawpsdc">  10529.35317392 </i>
    <i name="pawaedc"> -11391.37872151 </i>
    <i name="eentropy">      0.00166903 </i>
    <i name="bandstr">   -171.23754687 </i>
    <i name="atom">  11152.61838693 </i>
    <i name="e_fr_energy">    -35.24193132 </i>
    <i name="e_wo_entrp">    -35.24360035 </i>
    <i name="e_0_energy">    -35.24248766 </i>
   </energy>
  </scstep>
  <structure>
   <crystal>
    <varray name="basis" >
     <v>       3.63000011       0.00000000       0.00000000 </v>
     <v>       0.00000000       2.56679773       0.00000000 </v>
     <v>       0.00000000       0.00000000      23.98379135 </v>
    </varray>
    <i name="volume">    223.46840188 </i>
    <varray name="rec_basis" >
     <v>       0.27548208       0.00000000       0.00000000 </v>
     <v>       0.00000000       0.38959050       0.00000000 </v>
     <v>       0.00000000       0.00000000       0.04169483 </v>
    </varray>
   </crystal>
   <varray name="positions" >
    <v>       0.00000000       0.00000000       0.00350147 </v>
    <v>       0.50000000       0.50000000       0.05110254 </v>
    <v>       0.00000000       0.00000000       0.10533121 </v>
    <v>       0.50000000       0.50000000       0.15717125 </v>
    <v>       0.00000000       0.00000000       0.20966744 </v>
    <v>       0.50000000       0.50000000       0.26157555 </v>
    <v>       0.00000000       0.00000000       0.31585273 </v>
    <v>       0.50000000       0.50000000       0.36249182 </v>
    <v>       1.00000000       0.00000000       0.42891245 </v>
    <v>       1.00000000       0.00000000       0.46082753 </v>
   </varray>
  </structure>
  <varray name="forces" >
   <v>       0.00000000       0.00000000       0.04126767 </v>
   <v>       0.00000000       0.00000000      -0.03855874 </v>
   <v>       0.00000000       0.00000000      -0.10490153 </v>
   <v>       0.00000000       0.00000000       0.02238828 </v>
   <v>       0.00000000       0.00000000      -0.04540226 </v>
   <v>       0.00000000       0.00000000       0.01889339 </v>
   <v>       0.00000000       0.00000000      -0.04489046 </v>
   <v>       0.00000000       0.00000000      -0.09597600 </v>
   <v>       0.00000000       0.00000000       0.13766870 </v>
   <v>       0.00000000       0.00000000       0.10951094 </v>
  </varray>
  <varray name="stress" >
   <v>     -28.44112718       0.00000000       0.00000000 </v>
   <v>       0.00000000     -26.33153552       0.00000000 </v>
   <v>       0.00000000       0.00000000       5.23428474 </v>
  </varray>
  <energy>
   <i name="e_fr_energy">    -38.50612515 </i>
   <i name="e_wo_entrp">    -38.50779418 </i>
   <i name="e_0_energy">    -38.50668149 </i>
  </energy>
  <time name="totalsc">    2.05    2.11</time>
 </calculation>
 <calculation>
  <scstep>
   <time name="dav">    0.32    0.32</time>
   <time name="total">    0.39    0.40</time>
   <energy>
    <i name="alphaZ">    216.17040255 </i>
    <i name="ewald">  42970.76759046 </i>
    <i name="hartreedc"> -53703.50568137 </i>
    <i name="XCdc">    362.23686357 </i>
    <i name="pawpsdc">  10529.44813784 </i>
    <i name="pawaedc"> -11391.49947054 </i>
    <i name="eentropy">     -0.00048808 </i>
    <i name="bandstr">   -171.43335009 </i>
    <i name="atom">  11152.61838693 </i>
    <i name="e_fr_energy">    -35.19760873 </i>
    <i name="e_wo_entrp">    -35.19712065 </i>
    <i name="e_0_energy">    -35.19744604 </i>
   </energy>
  </scstep>
  <scstep>
   <time name="dav">    0.38    0.39</time>
   <time name="total">    0.46    0.47</time>
   <energy>
    <i name="e_fr_energy">    -35.23069258 </i>
    <i name="e_wo_entrp">    -35.23040213 </i>
    <i name="e_0_energy">    -35.23059577 </i>
   </energy>
  </scstep>
  <scstep>
   <time name="dav">    0.34    0.34</time>
   <time name="total">    0.41    0.41</time>
   <energy>
    <i name="e_fr_energy">    -35.22940990 </i>
    <i name="e_wo_entrp">    -35.22933668 </i>
    <i name="e_0_energy">    -35.22938550 </i>
   </energy>
  </scstep>
  <scstep>
   <time name="dav">    0.35    0.35</time>
   <time name="total">    0.42    0.43</time>
   <energy>
    <i name="e_fr_energy">    -35.22882687 </i>
    <i name="e_wo_entrp">    -35.22859270 </i>
    <i name="e_0_energy">    -35.22874882 </i>
   </energy>
  </scstep>
  <scstep>
   <time name="dav">    0.48    0.48</time>
   <time name="total">    0.55    0.56</time>
   <energy>
    <i name="e_fr_energy">    -35.22789566 </i>
    <i name="e_wo_entrp">    -35.22817695 </i>
    <i name="e_0_energy">    -35.22798942 </i>
   </energy>
  </scstep>
  <scstep>
   <time name="dav">    0.34    0.35</time>
   <time name="total">    0.42    0.42</time>
   <energy>
    <i name="e_fr_energy">    -35.22771842 </i>
    <i name="e_wo_entrp">    -35.22765441 </i>
    <i name="e_0_energy">    -35.22769708 </i>
   </energy>
  </scstep>
  <scstep>
   <time name="dav">    0.28    0.29</time>
   <time name="total">    0.31    0.31</time>
   <energy>
    <i name="alphaZ">    216.17040255 </i>
    <i name="ewald">  42970.76759046 </i>
    <i name="hartreedc"> -53701.18292983 </i>
    <i name="XCdc">    362.21094615 </i>
    <i name="pawpsdc">  10531.57379765 </i>
    <i name="pawaedc"> -11393.74065936 </i>
    <i name="eentropy">      0.00004749 </i>
    <i name="bandstr">   -173.64529379 </i>
    <i name="atom">  11152.61838693 </i>
    <i name="e_fr_energy">    -35.22771176 </i>
    <i name="e_wo_entrp">    -35.22775925 </i>
    <i name="e_0_energy">    -35.22772759 </i>
   </energy>
  </scstep>
  <structure>
   <crystal>
    <varray name="basis" >
     <v>       3.63000011       0.00000000       0.00000000 </v>
     <v>       0.00000000       2.56679773       0.00000000 </v>
     <v>       0.00000000       0.00000000      23.98379135 </v>
    </varray>
    <i name="volume">    223.46840188 </i>
    <varray name="rec_basis" >
     <v>       0.27548208       0.00000000       0.00000000 </v>
     <v>       0.00000000       0.38959050       0.00000000 </v>
     <v>       0.00000000       0.00000000       0.04169483 </v>
    </varray>
   </crystal>
   <varray name="positions" >
    <v>       0.00000000       0.00000000       0.00340507 </v>
    <v>       0.50000000       0.50000000       0.05188417 </v>
    <v>       0.00000000       0.00000000       0.10597850 </v>
    <v>       0.50000000       0.50000000       0.15603707 </v>
    <v>       0.00000000       0.00000000       0.20932706 </v>
    <v>       0.50000000       0.50000000       0.26024268 </v>
    <v>       0.00000000       0.00000000       0.31503142 </v>
    <v>       0.50000000       0.50000000       0.36208588 </v>
    <v>       1.00000000       0.00000000       0.42994483 </v>
    <v>       1.00000000       0.00000000       0.46249732 </v>
   </varray>
  </structure>
  <varray name="forces" >
   <v>       0.00000000       0.00000000       0.12149561 </v>
   <v>       0.00000000       0.00000000      -0.18389441 </v>
   <v>       0.00000000       0.00000000      -0.27390561 </v>
   <v>       0.00000000       0.00000000       0.20251058 </v>
   <v>       0.00000000       0.00000000      -0.04805357 </v>
   <v>       0.00000000       0.00000000       0.15625682 </v>
   <v>       0.00000000       0.00000000      -0.00619722 </v>
   <v>       0.00000000       0.00000000      -0.14682917 </v>
   <v>       0.00000000       0.00000000       0.49064201 </v>
   <v>       0.00000000       0.00000000      -0.31202504 </v>
  </varray>
  <varray name="stress" >
   <v>     -34.56488452       0.00000000       0.00000000 </v>
   <v>       0.00000000     -32.06920200       0.00000000 </v>
   <v>       0.00000000       0.00000000      -0.87396567 </v>
  </varray>
  <energy>
   <i name="e_fr_energy">    -38.50102705 </i>
   <i name="e_wo_entrp">    -38.50107454 </i>
   <i name="e_0_energy">    -38.50104288 </i>
  </energy>
  <time name="totalsc">    3.46    3.56</time>
 </calculation>
 <calculation>
  <scstep>
   <time name="dav">    0.31    0.32</time>
   <time name="total">    0.39    0.39</time>
   <energy>
    <i name="alphaZ">    216.17040255 </i>
    <i name="ewald">  42814.26031727 </i>
    <i name="hartreedc"> -53544.75938414 </i>
    <i name="XCdc">    362.21111585 </i>
    <i name="pawpsdc">  10531.60301103 </i>
    <i name="pawaedc"> -11393.75329183 </i>
    <i name="eentropy">      0.00186121 </i>
    <i name="bandstr">   -173.57716318 </i>
    <i name="atom">  11152.61838693 </i>
    <i name="e_fr_energy">    -35.22474432 </i>
    <i name="e_wo_entrp">    -35.22660553 </i>
    <i name="e_0_energy">    -35.22536473 </i>
   </energy>
  </scstep>
  <scstep>
   <time name="dav">    0.38    0.39</time>
   <time name="total">    0.46    0.46</time>
   <energy>
    <i name="e_fr_energy">    -35.24188273 </i>
    <i name="e_wo_entrp">    -35.24321741 </i>
    <i name="e_0_energy">    -35.24232763 </i>
   </energy>
  </scstep>
  <scstep>
   <time name="dav">    0.33    0.34</time>
   <time name="total">    0.41    0.41</time>
   <energy>
    <i name="e_fr_energy">    -35.24122129 </i>
    <i name="e_wo_entrp">    -35.24271372 </i>
    <i name="e_0_energy">    -35.24171877 </i>
   </energy>
  </scstep>
  <scstep>
   <time name="dav">    0.32    0.32</time>
   <time name="total">    0.39    0.40</time>
   <energy>
    <i name="e_fr_energy">    -35.24090192 </i>
    <i name="e_wo_entrp">    -35.24217767 </i>
    <i name="e_0_energy">    -35.24132717 </i>
   </energy>
  </scstep>
  <scstep>
   <time name="dav">    0.29    0.29</time>
   <time name="total">    0.36    0.36</time>
   <energy>
    <i name="e_fr_energy">    -35.24039052 </i>
    <i name="e_wo_entrp">    -35.24187352 </i>
    <i name="e_0_energy">    -35.24088485 </i>
   </energy>
  </scstep>
  <scstep>
   <time name="dav">    0.32    0.32</time>
   <time name="total">    0.40    0.40</time>
   <energy>
    <i name="e_fr_energy">    -35.24017861 </i>
    <i name="e_wo_entrp">    -35.24148601 </i>
    <i name="e_0_energy">    -35.24061441 </i>
   </energy>
  </scstep>
  <scstep>
   <time name="dav">    0.29    0.29</time>
   <time name="total">    0.31    0.32</time>
   <energy>
    <i name="alphaZ">    216.17040255 </i>
    <i name="ewald">  42814.26031727 </i>
    <i name="hartreedc"> -53546.44213135 </i>
    <i name="XCdc">    362.22526288 </i>
    <i name="pawpsdc">  10530.05062469 </i>
    <i name="pawaedc"> -11392.16380455 </i>
    <i name="eentropy">      0.00132956 </i>
    <i name="bandstr">   -171.96059781 </i>
    <i name="atom">  11152.61838693 </i>
    <i name="e_fr_energy">    -35.24020984 </i>
    <i name="e_wo_entrp">    -35.24153939 </i>
    <i name="e_0_energy">    -35.24065302 </i>
   </energy>
  </scstep>
  <structure>
   <crystal>
    <varray name="basis" >
     <v>       3.63000011       0.00000000       0.00000000 </v>
     <v>       0.00000000       2.56679773       0.00000000 </v>
     <v>       0.00000000       0.00000000      23.98379135 </v>
    </varray>
    <i name="volume">    223.46840188 </i>
    <varray name="rec_basis" >
     <v>       0.27548208       0.00000000       0.00000000 </v>
     <v>       0.00000000       0.38959050       0.00000000 </v>
     <v>       0.00000000       0.00000000       0.04169483 </v>
    </varray>
   </crystal>
   <varray name="positions" >
    <v>       0.00000000       0.00000000       0.00347521 </v>
    <v>       0.50000000       0.50000000       0.05131550 </v>
    <v>       0.00000000       0.00000000       0.10550756 </v>
    <v>       0.50000000       0.50000000       0.15686225 </v>
    <v>       0.00000000       0.00000000       0.20957470 </v>
    <v>       0.50000000       0.50000000       0.26121242 </v>
    <v>       0.00000000       0.00000000       0.31562896 </v>
    <v>       0.50000000       0.50000000       0.36238122 </v>
    <v>       1.00000000       0.00000000       0.42919372 </v>
    <v>       1.00000000       0.00000000       0.46128246 </v>
   </varray>
  </structure>
  <varray name="forces" >
   <v>       0.00000000       0.00000000       0.06146233 </v>
   <v>       0.00000000       0.00000000      -0.06076472 </v>
   <v>       0.00000000       0.00000000      -0.13267245 </v>
   <v>       0.00000000       0.00000000       0.06216645 </v>
   <v>       0.00000000       0.00000000      -0.04255317 </v>
   <v>       0.00000000       0.00000000       0.04788642 </v>
   <v>       0.00000000       0.00000000      -0.03793341 </v>
   <v>       0.00000000       0.00000000      -0.11580765 </v>
   <v>       0.00000000       0.00000000       0.24229221 </v>
   <v>       0.00000000       0.00000000      -0.02407601 </v>
  </varray>
  <varray name="stress" >
   <v>     -33.10271491       0.00000000       0.00000000 </v>
   <v>       0.00000000     -30.91939875       0.00000000 </v>
   <v>       0.00000000       0.00000000       0.70907130 </v>
  </varray>
  <energy>
   <i name="e_fr_energy">    -38.50679731 </i>
   <i name="e_wo_entrp">    -38.50812687 </i>
   <i name="e_0_energy">    -38.50724050 </i>
  </energy>
  <time name="totalsc">    3.21    3.27</time>
 </calculation>
 <calculation>
  <scstep>
   <time name="dav">    0.30    0.31</time>
[...]
       <r>     6.1771     1.9209    51.5481 </r>
       <r>     6.2506     1.3985    51.6509 </r>
       <r>     6.3241     1.3829    51.7525 </r>
       <r>     6.3976     1.9278    51.8941 </r>
       <r>     6.4711     2.5985    52.0851 </r>
       <r>     6.5446     3.1249    52.3147 </r>
       <r>     6.6181     3.5581    52.5762 </r>
       <r>     6.6916     3.7778    52.8538 </r>
       <r>     6.7650     3.3545    53.1003 </r>
       <r>     6.8385     2.2089    53.2627 </r>
       <r>     6.9120     1.0658    53.3410 </r>
       <r>     6.9855     0.8130    53.4007 </r>
       <r>     7.0590     1.5099    53.5117 </r>
       <r>     7.1325     2.2986    53.6806 </r>
       <r>     7.2060     2.3206    53.8511 </r>
       <r>     7.2794     1.6088    53.9694 </r>
       <r>     7.3529     0.9084    54.0361 </r>
       <r>     7.4264     0.7025    54.0877 </r>
       <r>     7.4999     0.7987    54.1464 </r>
       <r>     7.5734     0.8715    54.2105 </r>
       <r>     7.6469     0.9155    54.2778 </r>
       <r>     7.7204     1.0976    54.3584 </r>
       <r>     7.7939     1.6417    54.4791 </r>
       <r>     7.8673     2.8277    54.6869 </r>
       <r>     7.9408     4.5234    55.0193 </r>
       <r>     8.0143     5.7595    55.4425 </r>
       <r>     8.0878     5.4818    55.8453 </r>
       <r>     8.1613     3.8789    56.1304 </r>
       <r>     8.2348     2.3201    56.3009 </r>
       <r>     8.3083     1.7418    56.4289 </r>
       <r>     8.3817     1.7604    56.5582 </r>
       <r>     8.4552     1.6495    56.6795 </r>
       <r>     8.5287     1.3976    56.7822 </r>
       <r>     8.6022     1.3574    56.8819 </r>
       <r>     8.6757     1.5381    56.9950 </r>
       <r>     8.7492     1.7592    57.1242 </r>
       <r>     8.8227     1.9995    57.2712 </r>
       <r>     8.8962     2.1462    57.4289 </r>
       <r>     8.9696     1.8611    57.5657 </r>
       <r>     9.0431     1.0756    57.6447 </r>
       <r>     9.1166     0.2274    57.6614 </r>
       <r>     9.1901    -0.1535    57.6501 </r>
       <r>     9.2636     0.2374    57.6676 </r>
       <r>     9.3371     1.4361    57.7731 </r>
       <r>     9.4106     3.0757    57.9991 </r>
       <r>     9.4840     4.4650    58.3272 </r>
       <r>     9.5575     5.0927    58.7015 </r>
       <r>     9.6310     4.8842    59.0604 </r>
       <r>     9.7045     4.0478    59.3579 </r>
       <r>     9.7780     3.0270    59.5803 </r>
       <r>     9.8515     2.2791    59.7478 </r>
       <r>     9.9250     1.7890    59.8793 </r>
       <r>     9.9984     1.2226    59.9691 </r>
       <r>    10.0719     0.5571    60.0100 </r>
       <r>    10.1454     0.0779    60.0158 </r>
       <r>    10.2189    -0.0908    60.0091 </r>
       <r>    10.2924    -0.0783    60.0033 </r>
       <r>    10.3659    -0.0337    60.0009 </r>
       <r>    10.4394    -0.0096    60.0002 </r>
       <r>    10.5129    -0.0019    60.0000 </r>
       <r>    10.5863    -0.0003    60.0000 </r>
       <r>    10.6598    -0.0000    60.0000 </r>
       <r>    10.7333    -0.0000    60.0000 </r>
       <r>    10.8068    -0.0000    60.0000 </r>
       <r>    10.8803    -0.0000    60.0000 </r>
       <r>    10.9538    -0.0000    60.0000 </r>
       <r>    11.0273    -0.0000    60.0000 </r>
       <r>    11.1007    -0.0000    60.0000 </r>
       <r>    11.1742    -0.0000    60.0000 </r>
       <r>    11.2477     0.0000    60.0000 </r>
       <r>    11.3212     0.0000    60.0000 </r>
       <r>    11.3947     0.0000    60.0000 </r>
       <r>    11.4682     0.0000    60.0000 </r>
       <r>    11.5417     0.0000    60.0000 </r>
       <r>    11.6152     0.0000    60.0000 </r>
       <r>    11.6886     0.0000    60.0000 </r>
       <r>    11.7621     0.0000    60.0000 </r>
       <r>    11.8356     0.0000    60.0000 </r>
       <r>    11.9091     0.0000    60.0000 </r>
      </set>
      <set comment="spin 2">
       <r>   -10.1369     0.0000     0.0000 </r>
       <r>   -10.0634     0.0000     0.0000 </r>
       <r>    -9.9899     0.0000     0.0000 </r>
       <r>    -9.9164     0.0000     0.0000 </r>
       <r>    -9.8429     0.0000     0.0000 </r>
       <r>    -9.7694    -0.0000    -0.0000 </r>
       <r>    -9.6959    -0.0000    -0.0000 </r>
       <r>    -9.6225    -0.0000    -0.0000 </r>
       <r>    -9.5490    -0.0000    -0.0000 </r>
       <r>    -9.4755    -0.0000    -0.0000 </r>
       <r>    -9.4020    -0.0000    -0.0000 </r>
       <r>    -9.3285    -0.0000    -0.0000 </r>
       <r>    -9.2550    -0.0000    -0.0000 </r>
       <r>    -9.1815    -0.0000    -0.0000 </r>
       <r>    -9.1081    -0.0000    -0.0000 </r>
       <r>    -9.0346    -0.0000    -0.0000 </r>
       <r>    -8.9611    -0.0000    -0.0000 </r>
       <r>    -8.8876    -0.0000    -0.0000 </r>
       <r>    -8.8141    -0.0000    -0.0000 </r>
       <r>    -8.7406    -0.0001    -0.0000 </r>
       <r>    -8.6671    -0.0007    -0.0001 </r>
       <r>    -8.5936    -0.0035    -0.0003 </r>
       <r>    -8.5202    -0.0113    -0.0012 </r>
       <r>    -8.4467    -0.0228    -0.0028 </r>
       <r>    -8.3732    -0.0147    -0.0039 </r>
       <r>    -8.2997     0.0628     0.0007 </r>
       <r>    -8.2262     0.2330     0.0178 </r>
       <r>    -8.1527     0.4121     0.0481 </r>
       <r>    -8.0792     0.4534     0.0814 </r>
       <r>    -8.0058     0.3182     0.1048 </r>
       <r>    -7.9323     0.1270     0.1142 </r>
       <r>    -7.8588     0.0072     0.1147 </r>
       <r>    -7.7853    -0.0243     0.1129 </r>
       <r>    -7.7118    -0.0172     0.1116 </r>
       <r>    -7.6383    -0.0098     0.1109 </r>
       <r>    -7.5648    -0.0133     0.1099 </r>
       <r>    -7.4914    -0.0234     0.1082 </r>
       <r>    -7.4179    -0.0141     0.1072 </r>
       <r>    -7.3444     0.0640     0.1119 </r>
       <r>    -7.2709     0.2259     0.1285 </r>
       <r>    -7.1974     0.3800     0.1564 </r>
       <r>    -7.1239     0.4049     0.1862 </r>
       <r>    -7.0504     0.3522     0.2120 </r>
       <r>    -6.9769     0.4354     0.2440 </r>
       <r>    -6.9035     0.7051     0.2958 </r>
       <r>    -6.8300     0.8948     0.3616 </r>
       <r>    -6.7565     0.7523     0.4169 </r>
       <r>    -6.6830     0.3751     0.4444 </r>
       <r>    -6.6095     0.0554     0.4485 </r>
       <r>    -6.5360    -0.0480     0.4450 </r>
       <r>    -6.4625     0.0436     0.4482 </r>
       <r>    -6.3891     0.2436     0.4661 </r>
       <r>    -6.3156     0.4673     0.5004 </r>
       <r>    -6.2421     0.6799     0.5504 </r>
       <r>    -6.1686     0.8622     0.6138 </r>
       <r>    -6.0951     0.9153     0.6810 </r>
       <r>    -6.0216     0.7874     0.7389 </r>
       <r>    -5.9481     0.6858     0.7893 </r>
       <r>    -5.8746     0.8765     0.8537 </r>
       <r>    -5.8012     1.2928     0.9487 </r>
       <r>    -5.7277     1.5929     1.0657 </r>
       <r>    -5.6542     1.5419     1.1791 </r>
       <r>    -5.5807     1.1743     1.2653 </r>
       <r>    -5.5072     0.6748     1.3149 </r>
       <r>    -5.4337     0.2345     1.3322 </r>
       <r>    -5.3602    -0.0073     1.3316 </r>
       <r>    -5.2868     0.0180     1.3330 </r>
       <r>    -5.2133     0.2666     1.3525 </r>
       <r>    -5.1398     0.6021     1.3968 </r>
       <r>    -5.0663     1.0448     1.4736 </r>
       <r>    -4.9928     1.9429     1.6163 </r>
       <r>    -4.9193     3.4407     1.8692 </r>
       <r>    -4.8458     4.7739     2.2200 </r>
       <r>    -4.7723     4.7796     2.5712 </r>
       <r>    -4.6989     3.2835     2.8125 </r>
       <r>    -4.6254     1.3595     2.9124 </r>
       <r>    -4.5519     0.0836     2.9186 </r>
       <r>    -4.4784    -0.3820     2.8905 </r>
       <r>    -4.4049    -0.3671     2.8635 </r>
       <r>    -4.3314     0.0916     2.8703 </r>
       <r>    -4.2579     1.2650     2.9632 </r>
       <r>    -4.1845     2.9973     3.1835 </r>
       <r>    -4.1110     4.3041     3.4998 </r>
       <r>    -4.0375     4.2016     3.8085 </r>
       <r>    -3.9640     2.8967     4.0214 </r>
       <r>    -3.8905     1.6266     4.1409 </r>
       <r>    -3.8170     1.3021     4.2366 </r>
       <r>    -3.7435     1.7942     4.3685 </r>
       <r>    -3.6700     2.5753     4.5577 </r>
       <r>    -3.5966     3.4662     4.8124 </r>
       <r>    -3.5231     4.4548     5.1398 </r>
       <r>    -3.4496     5.2871     5.5283 </r>
       <r>    -3.3761     5.7620     5.9518 </r>
       <r>    -3.3026     6.1576     6.4043 </r>
       <r>    -3.2291     6.8738     6.9094 </r>
       <r>    -3.1556     7.8614     7.4871 </r>
       <r>    -3.0822     8.7946     8.1334 </r>
       <r>    -3.0087     9.4048     8.8245 </r>
       <r>    -2.9352     9.3294     9.5101 </r>
       <r>    -2.8617     8.3029    10.1203 </r>
       <r>    -2.7882     6.8880    10.6264 </r>
       <r>    -2.7147     6.3437    11.0926 </r>
       <r>    -2.6412     7.1951    11.6214 </r>
       <r>    -2.5678     8.5027    12.2462 </r>
       <r>    -2.4943     9.2901    12.9289 </r>
       <r>    -2.4208     9.9069    13.6569 </r>
       <r>    -2.3473    10.9300    14.4601 </r>
       <r>    -2.2738    11.7654    15.3247 </r>
       <r>    -2.2003    11.8387    16.1947 </r>
       <r>    -2.1268    12.2204    17.0927 </r>
       <r>    -2.0533    14.1694    18.1340 </r>
       <r>    -1.9799    16.6196    19.3553 </r>
       <r>    -1.9064    17.1690    20.6170 </r>
       <r>    -1.8329    15.3704    21.7465 </r>
       <r>    -1.7594    13.1900    22.7158 </r>
       <r>    -1.6859    12.2467    23.6158 </r>
       <r>    -1.6124    12.0023    24.4978 </r>
       <r>    -1.5389    10.9829    25.3049 </r>
       <r>    -1.4655     9.0848    25.9725 </r>
       <r>    -1.3920     7.9675    26.5580 </r>
       <r>    -1.3185     9.2280    27.2361 </r>
       <r>    -1.2450    12.8757    28.1823 </r>
       <r>    -1.1715    17.4373    29.4637 </r>
       <r>    -1.0980    20.7127    30.9858 </r>
       <r>    -1.0245    20.9266    32.5236 </r>
       <r>    -0.9510    18.4560    33.8799 </r>
       <r>    -0.8776    16.0171    35.0569 </r>
       <r>    -0.8041    15.8580    36.2223 </r>
       <r>    -0.7306    17.3737    37.4990 </r>
       <r>    -0.6571    18.4663    38.8561 </r>
       <r>    -0.5836    18.0333    40.1813 </r>
       <r>    -0.5101    16.1414    41.3674 </r>
       <r>    -0.4366    13.1468    42.3335 </r>
       <r>    -0.3632     9.6662    43.0439 </r>
       <r>    -0.2897     6.5531    43.5254 </r>
       <r>    -0.2162     4.2549    43.8381 </r>
       <r>    -0.1427     2.5762    44.0274 </r>
       <r>    -0.0692     1.2415    44.1187 </r>
       <r>     0.0043     0.2961    44.1404 </r>
       <r>     0.0778    -0.1616    44.1286 </r>
       <r>     0.1513    -0.2541    44.1099 </r>
       <r>     0.2247    -0.1449    44.0992 </r>
       <r>     0.2982     0.1817    44.1126 </r>
       <r>     0.3717     0.7818    44.1700 </r>
       <r>     0.4452     1.5110    44.2811 </r>
       <r>     0.5187     2.1232    44.4371 </r>
       <r>     0.5922     2.5131    44.6218 </r>
       <r>     0.6657     2.6023    44.8130 </r>
       <r>     0.7391     2.2067    44.9752 </r>
       <r>     0.8126     1.3811    45.0767 </r>
       <r>     0.8861     0.6292    45.1229 </r>
       <r>     0.9596     0.4154    45.1534 </r>
       <r>     1.0331     0.6379    45.2003 </r>
       <r>     1.1066     0.8008    45.2592 </r>
       <r>     1.1801     0.6371    45.3060 </r>
       <r>     1.2535     0.3825    45.3341 </r>
       <r>     1.3270     0.3847    45.3624 </r>
       <r>     1.4005     0.6295    45.4086 </r>
       <r>     1.4740     0.8607    45.4719 </r>
       <r>     1.5475     1.0600    45.5498 </r>
       <r>     1.6210     1.4145    45.6537 </r>
       <r>     1.6945     1.7646    45.7834 </r>
       <r>     1.7680     1.6303    45.9032 </r>
       <r>     1.8414     0.9675    45.9743 </r>
       <r>     1.9149     0.3999    46.0037 </r>
       <r>     1.9884     0.5171    46.0417 </r>
       <r>     2.0619     1.1949    46.1295 </r>
       <r>     2.1354     1.7099    46.2551 </r>
       <r>     2.2089     1.5535    46.3693 </r>
       <r>     2.2824     1.0200    46.4443 </r>
       <r>     2.3558     0.7579    46.5000 </r>
       <r>     2.4293     0.9705    46.5713 </r>
       <r>     2.5028     1.4190    46.6756 </r>
       <r>     2.5763     1.8923    46.8146 </r>
       <r>     2.6498     2.2493    46.9799 </r>
       <r>     2.7233     2.2990    47.1489 </r>
       <r>     2.7968     2.0157    47.2970 </r>
       <r>     2.8703     1.6531    47.4185 </r>
       <r>     2.9437     1.4491    47.5250 </r>
       <r>     3.0172     1.3592    47.6248 </r>
       <r>     3.0907     1.1558    47.7098 </r>
       <r>     3.1642     0.7441    47.7645 </r>
       <r>     3.2377     0.2935    47.7860 </r>
       <r>     3.3112     0.0158    47.7872 </r>
       <r>     3.3847    -0.0621    47.7826 </r>
       <r>     3.4581    -0.0482    47.7791 </r>
       <r>     3.5316    -0.0370    47.7764 </r>
       <r>     3.6051    -0.0694    47.7713 </r>
       <r>     3.6786    -0.1382    47.7611 </r>
       <r>     3.7521    -0.1248    47.7519 </r>
       <r>     3.8256     0.2540    47.7706 </r>
       <r>     3.8991     1.2239    47.8605 </r>
       <r>     3.9726     2.4968    48.0440 </r>
       <r>     4.0460     3.2852    48.2854 </r>
       <r>     4.1195     3.1411    48.5163 </r>
       <r>     4.1930     2.5467    48.7034 </r>
       <r>     4.2665     2.2337    48.8676 </r>
       <r>     4.3400     2.2171    49.0305 </r>
       <r>     4.4135     2.0050    49.1778 </r>
       <r>     4.4870     1.4511    49.2845 </r>
       <r>     4.5604     0.8762    49.3488 </r>
       <r>     4.6339     0.5264    49.3875 </r>
       <r>     4.7074     0.3348    49.4121 </r>
       <r>     4.7809     0.2217    49.4284 </r>
       <r>     4.8544     0.3405    49.4535 </r>
       <r>     4.9279     0.8366    49.5149 </r>
       <r>     5.0014     1.4647    49.6226 </r>
       <r>     5.0749     1.6983    49.7474 </r>
       <r>     5.1483     1.2961    49.8426 </r>
       <r>     5.2218     0.5588    49.8837 </r>
       <r>     5.2953    -0.0322    49.8813 </r>
       <r>     5.3688    -0.1604    49.8695 </r>
       <r>     5.4423     0.3794    49.8974 </r>
       <r>     5.5158     1.6249    50.0168 </r>
       <r>     5.5893     3.0626    50.2419 </r>
       <r>     5.6627     3.7174    50.5151 </r>
       <r>     5.7362     3.1077    50.7434 </r>
       <r>     5.8097     1.9034    50.8833 </r>
       <r>     5.8832     1.2271    50.9735 </r>
       <r>     5.9567     1.4763    51.0820 </r>
       <r>     6.0302     2.0999    51.2363 </r>
       <r>     6.1037     2.3219    51.4069 </r>
       <r>     6.1771     1.9209    51.5481 </r>
       <r>     6.2506     1.3985    51.6509 </r>
       <r>     6.3241     1.3829    51.7525 </r>
       <r>     6.3976     1.9277    51.8941 </r>
       <r>     6.4711     2.5984    52.0851 </r>
       <r>     6.5446     3.1248    52.3147 </r>
       <r>     6.6181     3.5581    52.5762 </r>
       <r>     6.6916     3.7779    52.8538 </r>
       <r>     6.7650     3.3545    53.1003 </r>
       <r>     6.8385     2.2090    53.2627 </r>
       <r>     6.9120     1.0658    53.3410 </r>
       <r>     6.9855     0.8130    53.4007 </r>
       <r>     7.0590     1.5099    53.5117 </r>
       <r>     7.1325     2.2986    53.6806 </r>
       <r>     7.2060     2.3206    53.8511 </r>
       <r>     7.2794     1.6088    53.9694 </r>
       <r>     7.3529     0.9085    54.0361 </r>
       <r>     7.4264     0.7026    54.0877 </r>
       <r>     7.4999     0.7986    54.1464 </r>
       <r>     7.5734     0.8714    54.2105 </r>
       <r>     7.6469     0.9153    54.2777 </r>
       <r>     7.7204     1.0974    54.3584 </r>
       <r>     7.7939     1.6416    54.4790 </r>
       <r>     7.8673     2.8278    54.6868 </r>
       <r>     7.9408     4.5235    55.0192 </r>
       <r>     8.0143     5.7596    55.4425 </r>
       <r>     8.0878     5.4819    55.8453 </r>
       <r>     8.1613     3.8790    56.1304 </r>
       <r>     8.2348     2.3201    56.3009 </r>
       <r>     8.3083     1.7418    56.4289 </r>
       <r>     8.3817     1.7604    56.5582 </r>
       <r>     8.4552     1.6495    56.6795 </r>
       <r>     8.5287     1.3977    56.7822 </r>
       <r>     8.6022     1.3575    56.8819 </r>
       <r>     8.6757     1.5381    56.9950 </r>
       <r>     8.7492     1.7590    57.1242 </r>
       <r>     8.8227     1.9992    57.2711 </r>
       <r>     8.8962     2.1460    57.4288 </r>
       <r>     8.9696     1.8612    57.5656 </r>
       <r>     9.0431     1.0759    57.6447 </r>
       <r>     9.1166     0.2276    57.6614 </r>
       <r>     9.1901    -0.1534    57.6501 </r>
       <r>     9.2636     0.2373    57.6676 </r>
       <r>     9.3371     1.4359    57.7731 </r>
       <r>     9.4106     3.0756    57.9991 </r>
       <r>     9.4840     4.4650    58.3272 </r>
       <r>     9.5575     5.0928    58.7015 </r>
       <r>     9.6310     4.8842    59.0604 </r>
       <r>     9.7045     4.0478    59.3579 </r>
       <r>     9.7780     3.0269    59.5803 </r>
       <r>     9.8515     2.2790    59.7478 </r>
       <r>     9.9250     1.7890    59.8793 </r>
       <r>     9.9984     1.2226    59.9691 </r>
       <r>    10.0719     0.5571    60.0100 </r>
       <r>    10.1454     0.0780    60.0158 </r>
       <r>    10.2189    -0.0908    60.0091 </r>
       <r>    10.2924    -0.0783    60.0033 </r>
       <r>    10.3659    -0.0337    60.0009 </r>
       <r>    10.4394    -0.0096    60.0002 </r>
       <r>    10.5129    -0.0019    60.0000 </r>
       <r>    10.5863    -0.0003    60.0000 </r>
       <r>    10.6598    -0.0000    60.0000 </r>
       <r>    10.7333    -0.0000    60.0000 </r>
       <r>    10.8068    -0.0000    60.0000 </r>
       <r>    10.8803    -0.0000    60.0000 </r>
       <r>    10.9538    -0.0000    60.0000 </r>
       <r>    11.0273    -0.0000    60.0000 </r>
       <r>    11.1007    -0.0000    60.0000 </r>
       <r>    11.1742    -0.0000    60.0000 </r>
       <r>    11.2477     0.0000    60.0000 </r>
       <r>    11.3212     0.0000    60.0000 </r>
       <r>    11.3947     0.0000    60.0000 </r>
       <r>    11.4682     0.0000    60.0000 </r>
       <r>    11.5417     0.0000    60.0000 </r>
       <r>    11.6152     0.0000    60.0000 </r>
       <r>    11.6886     0.0000    60.0000 </r>
       <r>    11.7621     0.0000    60.0000 </r>
       <r>    11.8356     0.0000    60.0000 </r>
       <r>    11.9091     0.0000    60.0000 </r>
      </set>
     </set>
    </array>
   </total>
  </dos>
 </calculation>
 <structure name="finalpos" >
  <crystal>
   <varray name="basis" >
    <v>       3.63000011       0.00000000       0.00000000 </v>
    <v>       0.00000000       2.56679773       0.00000000 </v>
    <v>       0.00000000       0.00000000      23.98379135 </v>
   </varray>
   <i name="volume">    223.46840188 </i>
   <varray name="rec_basis" >
    <v>       0.27548208       0.00000000       0.00000000 </v>
    <v>       0.00000000       0.38959050       0.00000000 </v>
    <v>       0.00000000       0.00000000       0.04169483 </v>
   </varray>
  </crystal>
  <varray name="positions" >
   <v>       0.00000000       0.00000000       0.00034506 </v>
   <v>       0.50000000       0.50000000       0.04777651 </v>
   <v>       0.00000000       0.00000000       0.10184286 </v>
   <v>       0.50000000       0.50000000       0.15375326 </v>
   <v>       0.00000000       0.00000000       0.20660565 </v>
   <v>       0.50000000       0.50000000       0.25842513 </v>
   <v>       0.00000000       0.00000000       0.31269321 </v>
   <v>       0.50000000       0.50000000       0.35969209 </v>
   <v>       1.00000000       0.00000000       0.44182860 </v>
   <v>       1.00000000       0.00000000       0.47347163 </v>
  </varray>
 </structure>
</modeling>
