unknown system                          
           1
     3.630000    0.000000    0.000000
     0.000000    2.566798    0.000000
     0.000000    0.000000   23.983791
   Cu   H 
     8     2
Direct configuration=     1
   0.00000000  0.00000000  0.00000000
   0.50000000  0.50000000  0.05351109
   0.00000000  0.00000000  0.10468148
   0.50000000  0.50000000  0.15792996
   0.00000000  0.00000000  0.21070899
   0.50000000  0.50000000  0.26289048
   0.00000000  0.00000000  0.31711592
   0.50000000  0.50000000  0.36467590
   1.00000000  0.00000000  0.42690792
   1.00000000  0.00000000  0.45801226
Direct configuration=     2
   0.00000000  0.00000000  0.00103563
   0.50000000  0.50000000  0.05255922
   0.00000000  0.00000000  0.10466674
   0.50000000  0.50000000  0.15805737
   0.00000000  0.00000000  0.21051319
   0.50000000  0.50000000  0.26291040
   0.00000000  0.00000000  0.31698992
   0.50000000  0.50000000  0.36412100
   1.00000000  0.00000000  0.42604297
   1.00000000  0.00000000  0.45953756
Direct configuration=     3
   0.00000000  0.00000000  0.00071015
   0.50000000  0.50000000  0.05285838
   0.00000000  0.00000000  0.10467137
   0.50000000  0.50000000  0.15801733
   0.00000000  0.00000000  0.21057472
   0.50000000  0.50000000  0.26290414
   0.00000000  0.00000000  0.31702952
   0.50000000  0.50000000  0.36429539
   1.00000000  0.00000000  0.42631481
   1.00000000  0.00000000  0.45905818
Direct configuration=     4
   0.00000000  0.00000000  0.00212302
   0.50000000  0.50000000  0.05163786
   0.00000000  0.00000000  0.10467848
   0.50000000  0.50000000  0.15812835
   0.00000000  0.00000000  0.21028392
   0.50000000  0.50000000  0.26287265
   0.00000000  0.00000000  0.31682196
   0.50000000  0.50000000  0.36357099
   1.00000000  0.00000000  0.42693372
   1.00000000  0.00000000  0.45938304
Direct configuration=     5
   0.00000000  0.00000000  0.00357761
   0.50000000  0.50000000  0.05038130
   0.00000000  0.00000000  0.10468580
   0.50000000  0.50000000  0.15824266
   0.00000000  0.00000000  0.20998452
   0.50000000  0.50000000  0.26284023
   0.00000000  0.00000000  0.31660827
   0.50000000  0.50000000  0.36282519
   1.00000000  0.00000000  0.42757091
   1.00000000  0.00000000  0.45971749
Direct configuration=     6
   0.00000000  0.00000000  0.00356574
   0.50000000  0.50000000  0.05058141
   0.00000000  0.00000000  0.10489964
   0.50000000  0.50000000  0.15792744
   0.00000000  0.00000000  0.20989438
   0.50000000  0.50000000  0.26246422
   0.00000000  0.00000000  0.31640031
   0.50000000  0.50000000  0.36276246
   1.00000000  0.00000000  0.42822404
   1.00000000  0.00000000  0.45971433
Direct configuration=     7
   0.00000000  0.00000000  0.00356567
   0.50000000  0.50000000  0.05058271
   0.00000000  0.00000000  0.10490103
   0.50000000  0.50000000  0.15792540
   0.00000000  0.00000000  0.20989379
   0.50000000  0.50000000  0.26246178
   0.00000000  0.00000000  0.31639896
   0.50000000  0.50000000  0.36276205
   1.00000000  0.00000000  0.42822829
   1.00000000  0.00000000  0.45971431
Direct configuration=     8
   0.00000000  0.00000000  0.00356574
   0.50000000  0.50000000  0.05058146
   0.00000000  0.00000000  0.10489969
   0.50000000  0.50000000  0.15792737
   0.00000000  0.00000000  0.20989436
   0.50000000  0.50000000  0.26246414
   0.00000000  0.00000000  0.31640026
   0.50000000  0.50000000  0.36276244
   1.00000000  0.00000000  0.42822419
   1.00000000  0.00000000  0.45971433
Direct configuration=     9
   0.00000000  0.00000000  0.00354967
   0.50000000  0.50000000  0.05071173
   0.00000000  0.00000000  0.10500757
   0.50000000  0.50000000  0.15773834
   0.00000000  0.00000000  0.20983763
   0.50000000  0.50000000  0.26224199
   0.00000000  0.00000000  0.31626338
   0.50000000  0.50000000  0.36269479
   1.00000000  0.00000000  0.42839625
   1.00000000  0.00000000  0.45999263
Direct configuration=    10
   0.00000000  0.00000000  0.00350147
   0.50000000  0.50000000  0.05110254
   0.00000000  0.00000000  0.10533121
   0.50000000  0.50000000  0.15717125
   0.00000000  0.00000000  0.20966744
   0.50000000  0.50000000  0.26157555
   0.00000000  0.00000000  0.31585273
   0.50000000  0.50000000  0.36249182
   1.00000000  0.00000000  0.42891245
   1.00000000  0.00000000  0.46082753
Direct configuration=    11
   0.00000000  0.00000000  0.00340507
   0.50000000  0.50000000  0.05188417
   0.00000000  0.00000000  0.10597850
   0.50000000  0.50000000  0.15603707
   0.00000000  0.00000000  0.20932706
   0.50000000  0.50000000  0.26024268
   0.00000000  0.00000000  0.31503142
   0.50000000  0.50000000  0.36208588
   1.00000000  0.00000000  0.42994483
   1.00000000  0.00000000  0.46249732
Direct configuration=    12
   0.00000000  0.00000000  0.00347521
   0.50000000  0.50000000  0.05131550
   0.00000000  0.00000000  0.10550756
   0.50000000  0.50000000  0.15686225
   0.00000000  0.00000000  0.20957470
   0.50000000  0.50000000  0.26121242
   0.00000000  0.00000000  0.31562896
   0.50000000  0.50000000  0.36238122
   1.00000000  0.00000000  0.42919372
   1.00000000  0.00000000  0.46128246
Direct configuration=    13
   0.00000000  0.00000000  0.00353455
   0.50000000  0.50000000  0.05142113
   0.00000000  0.00000000  0.10548461
   0.50000000  0.50000000  0.15667410
   0.00000000  0.00000000  0.20943616
   0.50000000  0.50000000  0.26095756
   0.00000000  0.00000000  0.31538149
   0.50000000  0.50000000  0.36212875
   1.00000000  0.00000000  0.42976576
   1.00000000  0.00000000  0.46164990
Direct configuration=    14
   0.00000000  0.00000000  0.00362958
   0.50000000  0.50000000  0.05159030
   0.00000000  0.00000000  0.10544784
   0.50000000  0.50000000  0.15637277
   0.00000000  0.00000000  0.20921427
   0.50000000  0.50000000  0.26054938
   0.00000000  0.00000000  0.31498513
   0.50000000  0.50000000  0.36172440
   1.00000000  0.00000000  0.43068193
   1.00000000  0.00000000  0.46223839
Direct configuration=    15
   0.00000000  0.00000000  0.00370255
   0.50000000  0.50000000  0.05155818
   0.00000000  0.00000000  0.10530745
   0.50000000  0.50000000  0.15633154
   0.00000000  0.00000000  0.20906665
   0.50000000  0.50000000  0.26041090
   0.00000000  0.00000000  0.31478008
   0.50000000  0.50000000  0.36146110
   1.00000000  0.00000000  0.43105407
   1.00000000  0.00000000  0.46276147
Direct configuration=    16
   0.00000000  0.00000000  0.00392144
   0.50000000  0.50000000  0.05146180
   0.00000000  0.00000000  0.10488628
   0.50000000  0.50000000  0.15620788
   0.00000000  0.00000000  0.20862381
   0.50000000  0.50000000  0.25999547
   0.00000000  0.00000000  0.31416494
   0.50000000  0.50000000  0.36067119
   1.00000000  0.00000000  0.43217047
   1.00000000  0.00000000  0.46433071
Direct configuration=    17
   0.00000000  0.00000000  0.00396229
   0.50000000  0.50000000  0.05130504
   0.00000000  0.00000000  0.10467262
   0.50000000  0.50000000  0.15621990
   0.00000000  0.00000000  0.20840611
   0.50000000  0.50000000  0.25986250
   0.00000000  0.00000000  0.31392588
   0.50000000  0.50000000  0.36036959
   1.00000000  0.00000000  0.43288802
   1.00000000  0.00000000  0.46482205
Direct configuration=    18
   0.00000000  0.00000000  0.00406183
   0.50000000  0.50000000  0.05092307
   0.00000000  0.00000000  0.10415202
   0.50000000  0.50000000  0.15624917
   0.00000000  0.00000000  0.20787568
   0.50000000  0.50000000  0.25953853
   0.00000000  0.00000000  0.31334337
   0.50000000  0.50000000  0.35963472
   1.00000000  0.00000000  0.43463636
   1.00000000  0.00000000  0.46601924
Direct configuration=    19
   0.00000000  0.00000000  0.00402088
   0.50000000  0.50000000  0.05108020
   0.00000000  0.00000000  0.10436617
   0.50000000  0.50000000  0.15623713
   0.00000000  0.00000000  0.20809388
   0.50000000  0.50000000  0.25967180
   0.00000000  0.00000000  0.31358299
   0.50000000  0.50000000  0.35993702
   1.00000000  0.00000000  0.43391716
   1.00000000  0.00000000  0.46552676
Direct configuration=    20
   0.00000000  0.00000000  0.00402848
   0.50000000  0.50000000  0.05105104
   0.00000000  0.00000000  0.10432643
   0.50000000  0.50000000  0.15623936
   0.00000000  0.00000000  0.20805339
   0.50000000  0.50000000  0.25964707
   0.00000000  0.00000000  0.31353853
   0.50000000  0.50000000  0.35988093
   1.00000000  0.00000000  0.43405061
   1.00000000  0.00000000  0.46561814
Direct configuration=    21
   0.00000000  0.00000000  0.00391419
   0.50000000  0.50000000  0.05078458
   0.00000000  0.00000000  0.10415070
   0.50000000  0.50000000  0.15622275
   0.00000000  0.00000000  0.20781906
   0.50000000  0.50000000  0.25951182
   0.00000000  0.00000000  0.31331640
   0.50000000  0.50000000  0.35964701
   1.00000000  0.00000000  0.43470787
   1.00000000  0.00000000  0.46635960
Direct configuration=    22
   0.00000000  0.00000000  0.00357133
   0.50000000  0.50000000  0.04998518
   0.00000000  0.00000000  0.10362348
   0.50000000  0.50000000  0.15617291
   0.00000000  0.00000000  0.20711607
   0.50000000  0.50000000  0.25910606
   0.00000000  0.00000000  0.31265003
   0.50000000  0.50000000  0.35894528
   1.00000000  0.00000000  0.43667966
   1.00000000  0.00000000  0.46858398
Direct configuration=    23
   0.00000000  0.00000000  0.00370053
   0.50000000  0.50000000  0.05028641
   0.00000000  0.00000000  0.10382215
   0.50000000  0.50000000  0.15619169
   0.00000000  0.00000000  0.20738097
   0.50000000  0.50000000  0.25925896
   0.00000000  0.00000000  0.31290113
   0.50000000  0.50000000  0.35920970
   1.00000000  0.00000000  0.43593666
   1.00000000  0.00000000  0.46774580
Direct configuration=    24
   0.00000000  0.00000000  0.00336882
   0.50000000  0.50000000  0.05003963
   0.00000000  0.00000000  0.10377961
   0.50000000  0.50000000  0.15600013
   0.00000000  0.00000000  0.20727209
   0.50000000  0.50000000  0.25913004
   0.00000000  0.00000000  0.31279653
   0.50000000  0.50000000  0.35922696
   1.00000000  0.00000000  0.43657121
   1.00000000  0.00000000  0.46824897
Direct configuration=    25
   0.00000000  0.00000000  0.00237370
   0.50000000  0.50000000  0.04929930
   0.00000000  0.00000000  0.10365200
   0.50000000  0.50000000  0.15542543
   0.00000000  0.00000000  0.20694545
   0.50000000  0.50000000  0.25874329
   0.00000000  0.00000000  0.31248274
   0.50000000  0.50000000  0.35927873
   1.00000000  0.00000000  0.43847487
   1.00000000  0.00000000  0.46975849
Direct configuration=    26
   0.00000000  0.00000000  0.00222562
   0.50000000  0.50000000  0.04919878
   0.00000000  0.00000000  0.10361172
   0.50000000  0.50000000  0.15532347
   0.00000000  0.00000000  0.20691186
   0.50000000  0.50000000  0.25869515
   0.00000000  0.00000000  0.31245201
   0.50000000  0.50000000  0.35929527
   1.00000000  0.00000000  0.43868901
   1.00000000  0.00000000  0.47003110
Direct configuration=    27
   0.00000000  0.00000000  0.00178139
   0.50000000  0.50000000  0.04889722
   0.00000000  0.00000000  0.10349087
   0.50000000  0.50000000  0.15501762
   0.00000000  0.00000000  0.20681108
   0.50000000  0.50000000  0.25855071
   0.00000000  0.00000000  0.31235983
   0.50000000  0.50000000  0.35934490
   1.00000000  0.00000000  0.43933145
   1.00000000  0.00000000  0.47084892
Direct configuration=    28
   0.00000000  0.00000000  0.00089291
   0.50000000  0.50000000  0.04829410
   0.00000000  0.00000000  0.10324919
   0.50000000  0.50000000  0.15440592
   0.00000000  0.00000000  0.20660953
   0.50000000  0.50000000  0.25826185
   0.00000000  0.00000000  0.31217545
   0.50000000  0.50000000  0.35944415
   1.00000000  0.00000000  0.44061632
   1.00000000  0.00000000  0.47248456
Direct configuration=    29
   0.00000000  0.00000000  0.00123605
   0.50000000  0.50000000  0.04852703
   0.00000000  0.00000000  0.10334253
   0.50000000  0.50000000  0.15464216
   0.00000000  0.00000000  0.20668737
   0.50000000  0.50000000  0.25837341
   0.00000000  0.00000000  0.31224666
   0.50000000  0.50000000  0.35940582
   1.00000000  0.00000000  0.44012009
   1.00000000  0.00000000  0.47185286
Direct configuration=    30
   0.00000000  0.00000000  0.00116802
   0.50000000  0.50000000  0.04847877
   0.00000000  0.00000000  0.10323430
   0.50000000  0.50000000  0.15456057
   0.00000000  0.00000000  0.20669317
   0.50000000  0.50000000  0.25837399
   0.00000000  0.00000000  0.31226920
   0.50000000  0.50000000  0.35942449
   1.00000000  0.00000000  0.44025592
   1.00000000  0.00000000  0.47197555
Direct configuration=    31
   0.00000000  0.00000000  0.00101633
   0.50000000  0.50000000  0.04837114
   0.00000000  0.00000000  0.10299297
   0.50000000  0.50000000  0.15437862
   0.00000000  0.00000000  0.20670608
   0.50000000  0.50000000  0.25837530
   0.00000000  0.00000000  0.31231947
   0.50000000  0.50000000  0.35946613
   1.00000000  0.00000000  0.44055882
   1.00000000  0.00000000  0.47224912
Direct configuration=    32
   0.00000000  0.00000000  0.00071294
   0.50000000  0.50000000  0.04815588
   0.00000000  0.00000000  0.10251031
   0.50000000  0.50000000  0.15401473
   0.00000000  0.00000000  0.20673192
   0.50000000  0.50000000  0.25837791
   0.00000000  0.00000000  0.31242001
   0.50000000  0.50000000  0.35954940
   1.00000000  0.00000000  0.44116461
   1.00000000  0.00000000  0.47279627
Direct configuration=    33
   0.00000000  0.00000000  0.00010617
   0.50000000  0.50000000  0.04772537
   0.00000000  0.00000000  0.10154499
   0.50000000  0.50000000  0.15328695
   0.00000000  0.00000000  0.20678359
   0.50000000  0.50000000  0.25838314
   0.00000000  0.00000000  0.31262109
   0.50000000  0.50000000  0.35971594
   1.00000000  0.00000000  0.44237618
   1.00000000  0.00000000  0.47389057
Direct configuration=    34
   0.00000000  0.00000000  0.00043256
   0.50000000  0.50000000  0.04795695
   0.00000000  0.00000000  0.10206425
   0.50000000  0.50000000  0.15367844
   0.00000000  0.00000000  0.20675579
   0.50000000  0.50000000  0.25838033
   0.00000000  0.00000000  0.31251293
   0.50000000  0.50000000  0.35962636
   1.00000000  0.00000000  0.44172445
   1.00000000  0.00000000  0.47330193
Direct configuration=    35
   0.00000000  0.00000000  0.00037438
   0.50000000  0.50000000  0.04786147
   0.00000000  0.00000000  0.10192366
   0.50000000  0.50000000  0.15368634
   0.00000000  0.00000000  0.20669321
   0.50000000  0.50000000  0.25840533
   0.00000000  0.00000000  0.31261566
   0.50000000  0.50000000  0.35966858
   1.00000000  0.00000000  0.44174419
   1.00000000  0.00000000  0.47346116
Direct configuration=    36
   0.00000000  0.00000000  0.00037023
   0.50000000  0.50000000  0.04785465
   0.00000000  0.00000000  0.10191361
   0.50000000  0.50000000  0.15368690
   0.00000000  0.00000000  0.20668874
   0.50000000  0.50000000  0.25840712
   0.00000000  0.00000000  0.31262300
   0.50000000  0.50000000  0.35967160
   1.00000000  0.00000000  0.44174560
   1.00000000  0.00000000  0.47347253
Direct configuration=    37
   0.00000000  0.00000000  0.00037424
   0.50000000  0.50000000  0.04786124
   0.00000000  0.00000000  0.10192332
   0.50000000  0.50000000  0.15368636
   0.00000000  0.00000000  0.20669306
   0.50000000  0.50000000  0.25840539
   0.00000000  0.00000000  0.31261591
   0.50000000  0.50000000  0.35966869
   1.00000000  0.00000000  0.44174424
   1.00000000  0.00000000  0.47346154
Direct configuration=    38
   0.00000000  0.00000000  0.00037223
   0.50000000  0.50000000  0.04785795
   0.00000000  0.00000000  0.10191847
   0.50000000  0.50000000  0.15368663
   0.00000000  0.00000000  0.20669090
   0.50000000  0.50000000  0.25840626
   0.00000000  0.00000000  0.31261946
   0.50000000  0.50000000  0.35967014
   1.00000000  0.00000000  0.44174492
   1.00000000  0.00000000  0.47346704
Direct configuration=    39
   0.00000000  0.00000000  0.00037257
   0.50000000  0.50000000  0.04785850
   0.00000000  0.00000000  0.10191928
   0.50000000  0.50000000  0.15368658
   0.00000000  0.00000000  0.20669126
   0.50000000  0.50000000  0.25840611
   0.00000000  0.00000000  0.31261886
   0.50000000  0.50000000  0.35966990
   1.00000000  0.00000000  0.44174480
   1.00000000  0.00000000  0.47346611
Direct configuration=    40
   0.00000000  0.00000000  0.00034506
   0.50000000  0.50000000  0.04777651
   0.00000000  0.00000000  0.10184286
   0.50000000  0.50000000  0.15375326
   0.00000000  0.00000000  0.20660565
   0.50000000  0.50000000  0.25842513
   0.00000000  0.00000000  0.31269321
   0.50000000  0.50000000  0.35969209
   1.00000000  0.00000000  0.44182860
   1.00000000  0.00000000  0.47347163
