  10  10   0   0
  0.1692928E+02  0.2566798E-09  0.2566798E-09  0.2967047E-08  0.5000000E-15
  1.000000000000000E-004
  CAR 
 unknown system                          
     18.22910647     -8.80414706  301      2.02678630      1.00000000
     -8.804  0.0000E+00  0.0000E+00  0.0000E+00  0.0000E+00
     -8.714  0.0000E+00  0.0000E+00  0.0000E+00  0.0000E+00
     -8.624  0.0000E+00  0.0000E+00  0.0000E+00  0.0000E+00
     -8.534  0.0000E+00  0.0000E+00  0.0000E+00  0.0000E+00
     -8.444 -0.2322E-31 -0.2322E-31 -0.2092E-32 -0.2092E-32
     -8.354 -0.2890E-28 -0.2890E-28 -0.2606E-29 -0.2606E-29
     -8.263 -0.2390E-25 -0.2390E-25 -0.2156E-26 -0.2156E-26
     -8.173 -0.1312E-22 -0.1312E-22 -0.1184E-23 -0.1184E-23
     -8.083 -0.4774E-20 -0.4774E-20 -0.4314E-21 -0.4314E-21
     -7.993 -0.1152E-17 -0.1152E-17 -0.1042E-18 -0.1042E-18
     -7.903 -0.1778E-15 -0.1778E-15 -0.1613E-16 -0.1613E-16
     -7.813 -0.1866E-13 -0.1866E-13 -0.1698E-14 -0.1698E-14
     -7.723 -0.1289E-11 -0.1289E-11 -0.1179E-12 -0.1179E-12
     -7.633 -0.5847E-10 -0.5847E-10 -0.5387E-11 -0.5387E-11
     -7.543 -0.1731E-08 -0.1731E-08 -0.1614E-09 -0.1614E-09
     -7.452 -0.3318E-07 -0.3318E-07 -0.3152E-08 -0.3152E-08
     -7.362 -0.4061E-06 -0.4061E-06 -0.3975E-07 -0.3975E-07
     -7.272 -0.3090E-05 -0.3090E-05 -0.3182E-06 -0.3182E-06
     -7.182 -0.1376E-04 -0.1376E-04 -0.1558E-05 -0.1558E-05
     -7.092 -0.2934E-04 -0.2934E-04 -0.4202E-05 -0.4202E-05
     -7.002  0.9528E-05  0.9528E-05 -0.3343E-05 -0.3343E-05
     -6.912  0.2041E-03  0.2041E-03  0.1505E-04  0.1505E-04
     -6.822  0.4786E-03  0.4786E-03  0.5818E-04  0.5818E-04
     -6.732  0.5288E-03  0.5288E-03  0.1058E-03  0.1058E-03
     -6.641  0.3043E-03  0.3043E-03  0.1332E-03  0.1332E-03
     -6.551  0.1880E-03  0.1880E-03  0.1502E-03  0.1502E-03
     -6.461  0.3764E-03  0.3764E-03  0.1841E-03  0.1841E-03
     -6.371  0.5402E-03  0.5402E-03  0.2328E-03  0.2328E-03
     -6.281  0.3807E-03  0.3807E-03  0.2671E-03  0.2671E-03
     -6.191  0.1215E-03  0.1215E-03  0.2780E-03  0.2780E-03
     -6.101  0.1365E-03  0.1365E-03  0.2903E-03  0.2903E-03
     -6.011  0.4055E-03  0.4055E-03  0.3269E-03  0.3269E-03
     -5.921  0.5412E-03  0.5412E-03  0.3756E-03  0.3756E-03
     -5.830  0.3511E-03  0.3511E-03  0.4073E-03  0.4073E-03
     -5.740  0.1536E-03  0.1536E-03  0.4211E-03  0.4211E-03
     -5.650  0.2720E-03  0.2720E-03  0.4456E-03  0.4456E-03
     -5.560  0.5183E-03  0.5183E-03  0.4923E-03  0.4923E-03
     -5.470  0.4997E-03  0.4997E-03  0.5374E-03  0.5374E-03
     -5.380  0.2307E-03  0.2307E-03  0.5582E-03  0.5582E-03
     -5.290  0.1952E-04  0.1952E-04  0.5599E-03  0.5599E-03
     -5.200 -0.3408E-04 -0.3408E-04  0.5568E-03  0.5568E-03
     -5.110 -0.3275E-04 -0.3275E-04  0.5539E-03  0.5539E-03
     -5.019 -0.3286E-04 -0.3286E-04  0.5509E-03  0.5509E-03
     -4.929  0.3565E-04  0.3565E-04  0.5541E-03  0.5541E-03
     -4.839  0.2671E-03  0.2671E-03  0.5782E-03  0.5782E-03
     -4.749  0.5298E-03  0.5298E-03  0.6260E-03  0.6260E-03
     -4.659  0.5236E-03  0.5236E-03  0.6731E-03  0.6731E-03
     -4.569  0.2564E-03  0.2564E-03  0.6962E-03  0.6962E-03
     -4.479  0.3021E-04  0.3021E-04  0.6990E-03  0.6990E-03
     -4.389 -0.3784E-04 -0.3784E-04  0.6956E-03  0.6956E-03
     -4.299 -0.6576E-04 -0.6576E-04  0.6896E-03  0.6896E-03
     -4.208 -0.1642E-03 -0.1642E-03  0.6748E-03  0.6748E-03
     -4.118 -0.1983E-03 -0.1983E-03  0.6570E-03  0.6570E-03
     -4.028  0.4396E-03  0.4396E-03  0.6966E-03  0.6966E-03
     -3.938  0.2229E-02  0.2229E-02  0.8974E-03  0.8974E-03
     -3.848  0.4332E-02  0.4332E-02  0.1288E-02  0.1288E-02
     -3.758  0.5264E-02  0.5264E-02  0.1762E-02  0.1762E-02
     -3.668  0.4574E-02  0.4574E-02  0.2174E-02  0.2174E-02
     -3.578  0.3177E-02  0.3177E-02  0.2461E-02  0.2461E-02
     -3.488  0.2697E-02  0.2697E-02  0.2704E-02  0.2704E-02
     -3.397  0.3123E-02  0.3123E-02  0.2985E-02  0.2985E-02
     -3.307  0.2581E-02  0.2581E-02  0.3218E-02  0.3218E-02
     -3.217  0.1179E-02  0.1179E-02  0.3324E-02  0.3324E-02
     -3.127  0.1201E-02  0.1201E-02  0.3432E-02  0.3432E-02
     -3.037  0.2939E-02  0.2939E-02  0.3697E-02  0.3697E-02
     -2.947  0.3780E-02  0.3780E-02  0.4038E-02  0.4038E-02
     -2.857  0.2319E-02  0.2319E-02  0.4246E-02  0.4246E-02
     -2.767  0.6870E-03  0.6870E-03  0.4308E-02  0.4308E-02
     -2.677  0.1332E-02  0.1332E-02  0.4428E-02  0.4428E-02
     -2.586  0.3651E-02  0.3651E-02  0.4757E-02  0.4757E-02
     -2.496  0.4812E-02  0.4812E-02  0.5191E-02  0.5191E-02
     -2.406  0.3706E-02  0.3706E-02  0.5525E-02  0.5525E-02
     -2.316  0.2450E-02  0.2450E-02  0.5746E-02  0.5746E-02
     -2.226  0.2706E-02  0.2706E-02  0.5990E-02  0.5990E-02
     -2.136  0.3073E-02  0.3073E-02  0.6266E-02  0.6266E-02
     -2.046  0.2225E-02  0.2225E-02  0.6467E-02  0.6467E-02
     -1.956  0.1610E-02  0.1610E-02  0.6612E-02  0.6612E-02
     -1.866  0.2428E-02  0.2428E-02  0.6831E-02  0.6831E-02
     -1.776  0.4197E-02  0.4197E-02  0.7209E-02  0.7209E-02
     -1.685  0.7548E-02  0.7548E-02  0.7889E-02  0.7889E-02
     -1.595  0.1306E-01  0.1306E-01  0.9066E-02  0.9066E-02
     -1.505  0.1798E-01  0.1798E-01  0.1069E-01  0.1069E-01
     -1.415  0.1831E-01  0.1831E-01  0.1234E-01  0.1234E-01
     -1.325  0.1396E-01  0.1396E-01  0.1359E-01  0.1359E-01
     -1.235  0.9460E-02  0.9460E-02  0.1445E-01  0.1445E-01
     -1.145  0.7745E-02  0.7745E-02  0.1514E-01  0.1514E-01
     -1.055  0.7265E-02  0.7265E-02  0.1580E-01  0.1580E-01
     -0.965  0.6395E-02  0.6395E-02  0.1637E-01  0.1637E-01
     -0.874  0.6177E-02  0.6177E-02  0.1693E-01  0.1693E-01
     -0.784  0.8459E-02  0.8459E-02  0.1769E-01  0.1769E-01
     -0.694  0.1250E-01  0.1250E-01  0.1882E-01  0.1882E-01
     -0.604  0.1594E-01  0.1594E-01  0.2026E-01  0.2026E-01
     -0.514  0.1895E-01  0.1895E-01  0.2196E-01  0.2196E-01
     -0.424  0.2174E-01  0.2174E-01  0.2392E-01  0.2392E-01
     -0.334  0.2137E-01  0.2137E-01  0.2585E-01  0.2585E-01
     -0.244  0.1699E-01  0.1699E-01  0.2738E-01  0.2738E-01
     -0.154  0.1226E-01  0.1226E-01  0.2848E-01  0.2848E-01
     -0.063  0.1015E-01  0.1015E-01  0.2940E-01  0.2940E-01
      0.027  0.1078E-01  0.1078E-01  0.3037E-01  0.3037E-01
      0.117  0.1317E-01  0.1317E-01  0.3156E-01  0.3156E-01
      0.207  0.1597E-01  0.1597E-01  0.3300E-01  0.3300E-01
      0.297  0.1813E-01  0.1813E-01  0.3463E-01  0.3463E-01
      0.387  0.1893E-01  0.1893E-01  0.3634E-01  0.3634E-01
      0.477  0.1926E-01  0.1926E-01  0.3807E-01  0.3807E-01
      0.567  0.2151E-01  0.2151E-01  0.4001E-01  0.4001E-01
      0.657  0.2546E-01  0.2546E-01  0.4230E-01  0.4230E-01
      0.748  0.2797E-01  0.2797E-01  0.4482E-01  0.4482E-01
      0.838  0.2650E-01  0.2650E-01  0.4721E-01  0.4721E-01
      0.928  0.2169E-01  0.2169E-01  0.4917E-01  0.4917E-01
      1.018  0.1770E-01  0.1770E-01  0.5076E-01  0.5076E-01
      1.108  0.1710E-01  0.1710E-01  0.5230E-01  0.5230E-01
      1.198  0.1655E-01  0.1655E-01  0.5379E-01  0.5379E-01
      1.288  0.1238E-01  0.1238E-01  0.5491E-01  0.5491E-01
      1.378  0.6266E-02  0.6266E-02  0.5547E-01  0.5547E-01
      1.468  0.1711E-02  0.1711E-02  0.5563E-01  0.5563E-01
      1.559 -0.2403E-03 -0.2403E-03  0.5561E-01  0.5561E-01
      1.649 -0.5769E-03 -0.5769E-03  0.5555E-01  0.5555E-01
      1.739 -0.2447E-03 -0.2447E-03  0.5553E-01  0.5553E-01
      1.829  0.8778E-03  0.8778E-03  0.5561E-01  0.5561E-01
      1.919  0.2716E-02  0.2716E-02  0.5586E-01  0.5586E-01
      2.009  0.3704E-02  0.3704E-02  0.5619E-01  0.5619E-01
      2.099  0.2756E-02  0.2756E-02  0.5644E-01  0.5644E-01
      2.189  0.1113E-02  0.1113E-02  0.5654E-01  0.5654E-01
      2.279  0.3334E-03  0.3334E-03  0.5657E-01  0.5657E-01
      2.370  0.3872E-03  0.3872E-03  0.5660E-01  0.5660E-01
      2.460  0.4588E-03  0.4588E-03  0.5665E-01  0.5665E-01
      2.550  0.2475E-03  0.2475E-03  0.5667E-01  0.5667E-01
      2.640 -0.6824E-05 -0.6823E-05  0.5667E-01  0.5667E-01
      2.730 -0.1684E-03 -0.1684E-03  0.5665E-01  0.5665E-01
      2.820 -0.1538E-03 -0.1538E-03  0.5664E-01  0.5664E-01
      2.910  0.5414E-03  0.5414E-03  0.5669E-01  0.5669E-01
      3.000  0.2169E-02  0.2169E-02  0.5688E-01  0.5688E-01
      3.090  0.3398E-02  0.3398E-02  0.5719E-01  0.5719E-01
      3.181  0.2725E-02  0.2725E-02  0.5743E-01  0.5743E-01
      3.271  0.1010E-02  0.1010E-02  0.5752E-01  0.5752E-01
      3.361 -0.1969E-04 -0.1969E-04  0.5752E-01  0.5752E-01
      3.451 -0.1689E-03 -0.1689E-03  0.5751E-01  0.5751E-01
      3.541 -0.6956E-04 -0.6956E-04  0.5750E-01  0.5750E-01
      3.631 -0.1441E-04 -0.1441E-04  0.5750E-01  0.5750E-01
      3.721 -0.1818E-05 -0.1818E-05  0.5750E-01  0.5750E-01
      3.811 -0.8908E-06 -0.8908E-06  0.5750E-01  0.5750E-01
      3.901 -0.7296E-05 -0.7296E-05  0.5750E-01  0.5750E-01
      3.992 -0.4271E-04 -0.4271E-04  0.5750E-01  0.5750E-01
      4.082 -0.1369E-03 -0.1369E-03  0.5748E-01  0.5748E-01
      4.172 -0.1399E-03 -0.1399E-03  0.5747E-01  0.5747E-01
      4.262  0.5225E-03  0.5225E-03  0.5752E-01  0.5752E-01
      4.352  0.2135E-02  0.2135E-02  0.5771E-01  0.5771E-01
      4.442  0.3391E-02  0.3391E-02  0.5802E-01  0.5802E-01
      4.532  0.2755E-02  0.2755E-02  0.5826E-01  0.5826E-01
      4.622  0.1040E-02  0.1041E-02  0.5836E-01  0.5836E-01
      4.712 -0.9901E-05 -0.9900E-05  0.5836E-01  0.5836E-01
      4.803 -0.1702E-03 -0.1702E-03  0.5834E-01  0.5834E-01
      4.893 -0.7131E-04 -0.7131E-04  0.5833E-01  0.5833E-01
      4.983 -0.1494E-04 -0.1494E-04  0.5833E-01  0.5833E-01
      5.073 -0.1966E-05 -0.1966E-05  0.5833E-01  0.5833E-01
      5.163 -0.1688E-05 -0.1688E-05  0.5833E-01  0.5833E-01
      5.253 -0.1306E-04 -0.1306E-04  0.5833E-01  0.5833E-01
      5.343 -0.6721E-04 -0.6721E-04  0.5833E-01  0.5833E-01
      5.433 -0.1918E-03 -0.1918E-03  0.5831E-01  0.5831E-01
      5.523 -0.1857E-03 -0.1857E-03  0.5829E-01  0.5829E-01
      5.614  0.5864E-03  0.5864E-03  0.5834E-01  0.5834E-01
      5.704  0.2620E-02  0.2620E-02  0.5858E-01  0.5858E-01
      5.794  0.5391E-02  0.5391E-02  0.5907E-01  0.5907E-01
      5.884  0.7350E-02  0.7350E-02  0.5973E-01  0.5973E-01
      5.974  0.6760E-02  0.6760E-02  0.6034E-01  0.6034E-01
      6.064  0.3988E-02  0.3989E-02  0.6070E-01  0.6070E-01
      6.154  0.1843E-02  0.1843E-02  0.6086E-01  0.6086E-01
      6.244  0.1522E-02  0.1522E-02  0.6100E-01  0.6100E-01
      6.334  0.1575E-02  0.1575E-02  0.6114E-01  0.6114E-01
      6.425  0.1097E-02  0.1097E-02  0.6124E-01  0.6124E-01
      6.515  0.6108E-03  0.6103E-03  0.6130E-01  0.6130E-01
      6.605  0.4389E-03  0.4388E-03  0.6134E-01  0.6134E-01
      6.695  0.3301E-03  0.3305E-03  0.6137E-01  0.6137E-01
      6.785  0.3727E-03  0.3731E-03  0.6140E-01  0.6140E-01
      6.875  0.8880E-03  0.8882E-03  0.6148E-01  0.6148E-01
      6.965  0.1966E-02  0.1966E-02  0.6166E-01  0.6166E-01
      7.055  0.3471E-02  0.3471E-02  0.6197E-01  0.6197E-01
      7.145  0.4412E-02  0.4412E-02  0.6237E-01  0.6237E-01
      7.236  0.3610E-02  0.3610E-02  0.6269E-01  0.6269E-01
      7.326  0.1754E-02  0.1754E-02  0.6285E-01  0.6285E-01
      7.416  0.5061E-03  0.5063E-03  0.6290E-01  0.6290E-01
      7.506  0.5646E-03  0.5651E-03  0.6295E-01  0.6295E-01
      7.596  0.1691E-02  0.1691E-02  0.6310E-01  0.6310E-01
      7.686  0.2786E-02  0.2786E-02  0.6335E-01  0.6335E-01
      7.776  0.2650E-02  0.2650E-02  0.6359E-01  0.6359E-01
      7.866  0.1428E-02  0.1428E-02  0.6372E-01  0.6372E-01
      7.956  0.3181E-03  0.3181E-03  0.6375E-01  0.6375E-01
      8.047  0.2842E-03  0.2842E-03  0.6377E-01  0.6377E-01
      8.137  0.1319E-02  0.1319E-02  0.6389E-01  0.6389E-01
      8.227  0.2342E-02  0.2342E-02  0.6410E-01  0.6410E-01
      8.317  0.2597E-02  0.2596E-02  0.6434E-01  0.6434E-01
      8.407  0.2837E-02  0.2836E-02  0.6459E-01  0.6459E-01
      8.497  0.3324E-02  0.3324E-02  0.6489E-01  0.6489E-01
      8.587  0.2873E-02  0.2873E-02  0.6515E-01  0.6515E-01
      8.677  0.1642E-02  0.1642E-02  0.6530E-01  0.6530E-01
      8.767  0.1237E-02  0.1236E-02  0.6541E-01  0.6541E-01
      8.858  0.1995E-02  0.1994E-02  0.6559E-01  0.6559E-01
      8.948  0.3152E-02  0.3153E-02  0.6587E-01  0.6587E-01
      9.038  0.3830E-02  0.3830E-02  0.6622E-01  0.6622E-01
      9.128  0.3345E-02  0.3346E-02  0.6652E-01  0.6652E-01
      9.218  0.2564E-02  0.2564E-02  0.6675E-01  0.6675E-01
      9.308  0.3071E-02  0.3071E-02  0.6703E-01  0.6703E-01
      9.398  0.4197E-02  0.4197E-02  0.6741E-01  0.6741E-01
      9.488  0.3708E-02  0.3708E-02  0.6774E-01  0.6774E-01
      9.578  0.1817E-02  0.1817E-02  0.6790E-01  0.6790E-01
      9.669  0.1100E-02  0.1100E-02  0.6800E-01  0.6800E-01
      9.759  0.2233E-02  0.2232E-02  0.6820E-01  0.6820E-01
      9.849  0.3077E-02  0.3077E-02  0.6848E-01  0.6848E-01
      9.939  0.2609E-02  0.2608E-02  0.6872E-01  0.6872E-01
     10.029  0.2481E-02  0.2479E-02  0.6894E-01  0.6894E-01
     10.119  0.3116E-02  0.3115E-02  0.6922E-01  0.6922E-01
     10.209  0.2741E-02  0.2743E-02  0.6947E-01  0.6947E-01
     10.299  0.1408E-02  0.1411E-02  0.6959E-01  0.6959E-01
     10.389  0.1077E-02  0.1077E-02  0.6969E-01  0.6969E-01
     10.480  0.2234E-02  0.2232E-02  0.6989E-01  0.6989E-01
     10.570  0.3577E-02  0.3575E-02  0.7022E-01  0.7021E-01
     10.660  0.3902E-02  0.3902E-02  0.7057E-01  0.7057E-01
     10.750  0.3244E-02  0.3245E-02  0.7086E-01  0.7086E-01
     10.840  0.2412E-02  0.2413E-02  0.7108E-01  0.7108E-01
     10.930  0.2095E-02  0.2095E-02  0.7127E-01  0.7126E-01
     11.020  0.2557E-02  0.2556E-02  0.7150E-01  0.7150E-01
     11.110  0.3063E-02  0.3063E-02  0.7177E-01  0.7177E-01
     11.200  0.2416E-02  0.2416E-02  0.7199E-01  0.7199E-01
     11.291  0.8936E-03  0.8945E-03  0.7207E-01  0.7207E-01
     11.381  0.8477E-04  0.8499E-04  0.7208E-01  0.7208E-01
     11.471  0.1021E-02  0.1020E-02  0.7217E-01  0.7217E-01
     11.561  0.3241E-02  0.3239E-02  0.7246E-01  0.7246E-01
     11.651  0.4967E-02  0.4967E-02  0.7291E-01  0.7291E-01
     11.741  0.4760E-02  0.4760E-02  0.7334E-01  0.7334E-01
     11.831  0.3065E-02  0.3066E-02  0.7361E-01  0.7361E-01
     11.921  0.1406E-02  0.1407E-02  0.7374E-01  0.7374E-01
     12.011  0.8088E-03  0.8090E-03  0.7381E-01  0.7381E-01
     12.102  0.1290E-02  0.1290E-02  0.7393E-01  0.7393E-01
     12.192  0.2189E-02  0.2188E-02  0.7413E-01  0.7413E-01
     12.282  0.2599E-02  0.2599E-02  0.7436E-01  0.7436E-01
     12.372  0.1929E-02  0.1930E-02  0.7454E-01  0.7454E-01
     12.462  0.7262E-03  0.7270E-03  0.7460E-01  0.7460E-01
     12.552 -0.2175E-05 -0.1901E-05  0.7460E-01  0.7460E-01
     12.642 -0.1225E-03 -0.1225E-03  0.7459E-01  0.7459E-01
     12.732 -0.5382E-04 -0.5387E-04  0.7458E-01  0.7458E-01
     12.822 -0.1344E-04 -0.1345E-04  0.7458E-01  0.7458E-01
     12.913 -0.1216E-04 -0.1215E-04  0.7458E-01  0.7458E-01
     13.003 -0.3716E-04 -0.3713E-04  0.7458E-01  0.7458E-01
     13.093 -0.5031E-04 -0.5033E-04  0.7457E-01  0.7457E-01
     13.183  0.1050E-03  0.1047E-03  0.7458E-01  0.7458E-01
     13.273  0.5691E-03  0.5686E-03  0.7464E-01  0.7464E-01
     13.363  0.1049E-02  0.1048E-02  0.7473E-01  0.7473E-01
     13.453  0.1003E-02  0.1003E-02  0.7482E-01  0.7482E-01
     13.543  0.4888E-03  0.4893E-03  0.7486E-01  0.7486E-01
     13.633  0.6429E-04  0.6454E-04  0.7487E-01  0.7487E-01
     13.724 -0.5362E-04 -0.5361E-04  0.7486E-01  0.7486E-01
     13.814 -0.3231E-04 -0.3234E-04  0.7486E-01  0.7486E-01
     13.904 -0.8484E-05 -0.8497E-05  0.7486E-01  0.7486E-01
     13.994 -0.1288E-05 -0.1290E-05  0.7486E-01  0.7486E-01
     14.084 -0.1216E-06 -0.1219E-06  0.7486E-01  0.7486E-01
     14.174 -0.7352E-08 -0.7374E-08  0.7486E-01  0.7486E-01
     14.264 -0.2890E-09 -0.2900E-09  0.7486E-01  0.7486E-01
     14.354 -0.7444E-11 -0.7474E-11  0.7486E-01  0.7486E-01
     14.444 -0.1263E-12 -0.1268E-12  0.7486E-01  0.7486E-01
     14.535 -0.1414E-14 -0.1421E-14  0.7486E-01  0.7486E-01
     14.625 -0.1027E-16 -0.1061E-16  0.7486E-01  0.7486E-01
     14.715 -0.4182E-27 -0.4161E-27  0.7486E-01  0.7486E-01
     14.805 -0.2947E-24 -0.2933E-24  0.7486E-01  0.7486E-01
     14.895 -0.1378E-21 -0.1372E-21  0.7486E-01  0.7486E-01
     14.985 -0.4271E-19 -0.4254E-19  0.7486E-01  0.7486E-01
     15.075 -0.8514E-17 -0.8481E-17  0.7486E-01  0.7486E-01
     15.165 -0.1150E-14 -0.1146E-14  0.7486E-01  0.7486E-01
     15.255 -0.1025E-12 -0.1022E-12  0.7486E-01  0.7486E-01
     15.346 -0.6014E-11 -0.5997E-11  0.7486E-01  0.7486E-01
     15.436 -0.2310E-09 -0.2305E-09  0.7486E-01  0.7486E-01
     15.526 -0.5780E-08 -0.5767E-08  0.7486E-01  0.7486E-01
     15.616 -0.9318E-07 -0.9301E-07  0.7486E-01  0.7486E-01
     15.706 -0.9514E-06 -0.9499E-06  0.7486E-01  0.7486E-01
     15.796 -0.5935E-05 -0.5928E-05  0.7486E-01  0.7486E-01
     15.886 -0.2066E-04 -0.2065E-04  0.7486E-01  0.7486E-01
     15.976 -0.2666E-04 -0.2668E-04  0.7486E-01  0.7486E-01
     16.066  0.6465E-04  0.6452E-04  0.7486E-01  0.7486E-01
     16.157  0.3202E-03  0.3200E-03  0.7489E-01  0.7489E-01
     16.247  0.5545E-03  0.5545E-03  0.7494E-01  0.7494E-01
     16.337  0.4876E-03  0.4877E-03  0.7498E-01  0.7498E-01
     16.427  0.2056E-03  0.2058E-03  0.7500E-01  0.7500E-01
     16.517  0.9643E-05  0.9720E-05  0.7500E-01  0.7500E-01
     16.607 -0.2932E-04 -0.2932E-04  0.7500E-01  0.7500E-01
     16.697 -0.1375E-04 -0.1376E-04  0.7500E-01  0.7500E-01
     16.787 -0.3086E-05 -0.3090E-05  0.7500E-01  0.7500E-01
     16.877 -0.4055E-06 -0.4061E-06  0.7500E-01  0.7500E-01
     16.968 -0.3312E-07 -0.3318E-07  0.7500E-01  0.7500E-01
     17.058 -0.1727E-08 -0.1731E-08  0.7500E-01  0.7500E-01
     17.148 -0.5832E-10 -0.5847E-10  0.7500E-01  0.7500E-01
     17.238 -0.1286E-11 -0.1289E-11  0.7500E-01  0.7500E-01
     17.328 -0.1860E-13 -0.1866E-13  0.7500E-01  0.7500E-01
     17.418 -0.1773E-15 -0.1780E-15  0.7500E-01  0.7500E-01
     17.508 -0.1027E-17 -0.1027E-17  0.7500E-01  0.7500E-01
     17.598  0.0000E+00  0.0000E+00  0.7500E-01  0.7500E-01
     17.688  0.0000E+00  0.0000E+00  0.7500E-01  0.7500E-01
     17.779  0.0000E+00  0.0000E+00  0.7500E-01  0.7500E-01
     17.869  0.0000E+00  0.0000E+00  0.7500E-01  0.7500E-01
     17.959  0.0000E+00  0.0000E+00  0.7500E-01  0.7500E-01
     18.049  0.0000E+00  0.0000E+00  0.7500E-01  0.7500E-01
     18.139  0.0000E+00  0.0000E+00  0.7500E-01  0.7500E-01
     18.229  0.0000E+00  0.0000E+00  0.7500E-01  0.7500E-01
