   10   10  800    2
  0.1692928E+02  0.2566798E-09  0.2566798E-09  0.2967047E-08  0.5000000E-15
  1.000000000000000E-004
  CAR 
 unknown system                          
     90      4     60
 
  0.0000000E+00  0.0000000E+00  0.0000000E+00  0.1111111E+00
      1         -6.804147       -6.804147   1.000000   1.000000
      2         -6.414808       -6.414808   1.000000   1.000000
      3         -5.974582       -5.974582   1.000000   1.000000
      4         -5.569283       -5.569283   1.000000   1.000000
      5         -4.750784       -4.750784   1.000000   1.000000
      6         -3.810879       -3.810879   1.000000   1.000000
      7         -3.005409       -3.005409   1.000000   1.000000
      8         -2.572243       -2.572243   1.000000   1.000000
      9         -2.505636       -2.505636   1.000000   1.000000
     10         -0.634100       -0.634100   1.000000   1.000000
     11         -0.612411       -0.612410   1.000000   1.000000
     12         -0.522765       -0.522765   1.000000   1.000000
     13         -0.521956       -0.521955   1.000000   1.000000
     14         -0.510823       -0.510823   1.000000   1.000000
     15         -0.510714       -0.510713   1.000000   1.000000
     16         -0.458303       -0.458303   1.000000   1.000000
     17         -0.439267       -0.439267   1.000000   1.000000
     18         -0.438767       -0.438766   1.000000   1.000000
     19         -0.417932       -0.417932   1.000000   1.000000
     20         -0.417442       -0.417442   1.000000   1.000000
     21         -0.373769       -0.373769   1.000000   1.000000
     22         -0.339413       -0.339413   1.000000   1.000000
     23         -0.339376       -0.339376   1.000000   1.000000
     24         -0.312765       -0.312765   1.000000   1.000000
     25         -0.311987       -0.311987   1.000000   1.000000
     26         -0.151745       -0.151745   1.000000   1.000000
     27          0.071239        0.071239   1.000000   1.000000
     28          0.071491        0.071491   1.000000   1.000000
     29          0.072596        0.072596   1.000000   1.000000
     30          0.142564        0.142564   1.000000   1.000000
     31          0.143257        0.143257   1.000000   1.000000
     32          0.336364        0.336364   1.000000   1.000000
     33          0.338765        0.338765   1.000000   1.000000
     34          0.343979        0.343979   1.000000   1.000000
     35          0.352316        0.352316   1.000000   1.000000
     36          0.470770        0.470770   1.000000   1.000000
     37          0.471537        0.471537   1.000000   1.000000
     38          0.594605        0.594605   1.000000   1.000000
     39          0.596713        0.596713   1.000000   1.000000
     40          0.696084        0.696084   1.000000   1.000000
     41          0.699499        0.699499   1.000000   1.000000
     42          0.774627        0.774627   1.000000   1.000000
     43          0.858040        0.858040   1.000000   1.000000
     44          0.866892        0.866892   1.000000   1.000000
     45          1.089030        1.089030   1.000000   1.000000
     46          1.090338        1.090338   1.000000   1.000000
     47          1.183414        1.183414   1.000000   1.000000
     48          1.184271        1.184271   1.000000   1.000000
     49          2.084435        2.084436   0.266939   0.266936
     50          2.374363        2.374364  -0.016928  -0.016928
     51          5.872010        5.872075  -0.000000  -0.000000
     52          6.575039        6.575174  -0.000000  -0.000000
     53          7.339704        7.339850  -0.000000  -0.000000
     54          8.308809        8.308880   0.000000   0.000000
     55          8.819835        8.819953   0.000000   0.000000
     56         10.608867       10.608933   0.000000   0.000000
     57         10.864892       10.864991   0.000000   0.000000
     58         13.329702       13.329763   0.000000   0.000000
     59         13.383667       13.383762   0.000000   0.000000
     60         16.229041       16.229106   0.000000   0.000000
 
  0.3333333E+00  0.5551115E-16  0.0000000E+00  0.4444444E+00
      1         -3.878004       -3.878004   1.000000   1.000000
      2         -3.696145       -3.696144   1.000000   1.000000
      3         -3.413120       -3.413120   1.000000   1.000000
      4         -3.006614       -3.006614   1.000000   1.000000
      5         -2.573221       -2.573221   1.000000   1.000000
      6         -2.186716       -2.186716   1.000000   1.000000
      7         -1.856269       -1.856269   1.000000   1.000000
      8         -1.673302       -1.673302   1.000000   1.000000
      9         -1.603390       -1.603390   1.000000   1.000000
     10         -1.502158       -1.502158   1.000000   1.000000
     11         -1.438274       -1.438273   1.000000   1.000000
     12         -1.219228       -1.219227   1.000000   1.000000
     13         -1.027200       -1.027200   1.000000   1.000000
     14         -0.877567       -0.877567   1.000000   1.000000
     15         -0.705398       -0.705398   1.000000   1.000000
     16         -0.692196       -0.692196   1.000000   1.000000
     17         -0.554961       -0.554961   1.000000   1.000000
     18         -0.486251       -0.486251   1.000000   1.000000
     19         -0.438223       -0.438223   1.000000   1.000000
     20         -0.353127       -0.353127   1.000000   1.000000
     21         -0.336831       -0.336831   1.000000   1.000000
     22         -0.247547       -0.247547   1.000000   1.000000
     23         -0.134000       -0.134000   1.000000   1.000000
     24         -0.101296       -0.101296   1.000000   1.000000
     25          0.044727        0.044727   1.000000   1.000000
     26          0.150157        0.150157   1.000000   1.000000
     27          0.272705        0.272705   1.000000   1.000000
     28          0.353471        0.353471   1.000000   1.000000
     29          0.436789        0.436789   1.000000   1.000000
     30          0.510937        0.510937   1.000000   1.000000
     31          0.515026        0.515026   1.000000   1.000000
     32          0.594648        0.594648   1.000000   1.000000
     33          0.613272        0.613272   1.000000   1.000000
     34          0.665394        0.665394   1.000000   1.000000
     35          0.689319        0.689319   1.000000   1.000000
     36          0.743951        0.743951   1.000000   1.000000
     37          0.780825        0.780825   1.000000   1.000000
     38          0.784378        0.784378   1.000000   1.000000
     39          0.871404        0.871404   1.000000   1.000000
     40          0.904304        0.904304   1.000000   1.000000
     41          1.055240        1.055240   1.000000   1.000000
     42          1.140205        1.140205   1.000000   1.000000
     43          1.147402        1.147402   1.000000   1.000000
     44          1.202963        1.202963   1.000000   1.000000
     45          1.312759        1.312759   1.000003   1.000003
     46          1.952081        1.952081   0.792984   0.792984
     47          3.060040        3.060040  -0.000000  -0.000000
     48          4.413588        4.413588  -0.000000  -0.000000
     49          5.911937        5.911937  -0.000000  -0.000000
     50          7.140997        7.140998  -0.000000  -0.000000
     51          8.503783        8.503798   0.000000   0.000000
     52          9.003228        9.003237   0.000000   0.000000
     53          9.365737        9.365744   0.000000   0.000000
     54          9.783377        9.783415   0.000000   0.000000
     55         10.106371       10.106532   0.000000   0.000000
     56         10.558757       10.558832   0.000000   0.000000
     57         11.113800       11.113855   0.000000   0.000000
     58         11.599748       11.599767   0.000000   0.000000
     59         11.693200       11.693266   0.000000   0.000000
     60         12.261180       12.261246   0.000000   0.000000
 
  0.0000000E+00  0.3333333E+00  0.0000000E+00  0.2222222E+00
      1         -3.887001       -3.887001   1.000000   1.000000
      2         -3.696912       -3.696911   1.000000   1.000000
      3         -3.410301       -3.410301   1.000000   1.000000
      4         -3.001703       -3.001703   1.000000   1.000000
      5         -2.568498       -2.568498   1.000000   1.000000
      6         -2.184480       -2.184479   1.000000   1.000000
      7         -1.856847       -1.856847   1.000000   1.000000
      8         -1.674516       -1.674516   1.000000   1.000000
      9         -1.603733       -1.603733   1.000000   1.000000
     10         -1.509760       -1.509760   1.000000   1.000000
     11         -1.437328       -1.437328   1.000000   1.000000
     12         -1.218256       -1.218256   1.000000   1.000000
     13         -1.027645       -1.027645   1.000000   1.000000
     14         -0.878487       -0.878487   1.000000   1.000000
     15         -0.706800       -0.706799   1.000000   1.000000
     16         -0.686115       -0.686115   1.000000   1.000000
     17         -0.558941       -0.558941   1.000000   1.000000
     18         -0.491963       -0.491963   1.000000   1.000000
     19         -0.435311       -0.435311   1.000000   1.000000
     20         -0.344843       -0.344843   1.000000   1.000000
     21         -0.341472       -0.341472   1.000000   1.000000
     22         -0.244765       -0.244765   1.000000   1.000000
     23         -0.133351       -0.133350   1.000000   1.000000
     24         -0.102230       -0.102230   1.000000   1.000000
     25          0.046561        0.046561   1.000000   1.000000
     26          0.151189        0.151189   1.000000   1.000000
     27          0.270855        0.270856   1.000000   1.000000
     28          0.354573        0.354573   1.000000   1.000000
     29          0.428896        0.428896   1.000000   1.000000
     30          0.510148        0.510148   1.000000   1.000000
     31          0.518169        0.518169   1.000000   1.000000
     32          0.596214        0.596214   1.000000   1.000000
     33          0.611846        0.611846   1.000000   1.000000
     34          0.666828        0.666828   1.000000   1.000000
     35          0.688669        0.688669   1.000000   1.000000
     36          0.744583        0.744583   1.000000   1.000000
     37          0.778747        0.778747   1.000000   1.000000
     38          0.787545        0.787545   1.000000   1.000000
     39          0.872838        0.872838   1.000000   1.000000
     40          0.905484        0.905484   1.000000   1.000000
     41          1.054821        1.054821   1.000000   1.000000
     42          1.140680        1.140680   1.000000   1.000000
     43          1.148202        1.148202   1.000000   1.000000
     44          1.203308        1.203308   1.000000   1.000000
     45          1.312814        1.312814   1.000003   1.000003
     46          1.953264        1.953264   0.789019   0.789018
     47          3.061081        3.061082  -0.000000  -0.000000
     48          4.414249        4.414249  -0.000000  -0.000000
     49          5.913164        5.913164  -0.000000  -0.000000
     50          7.123520        7.123521  -0.000000  -0.000000
     51          8.463208        8.463222   0.000000   0.000000
     52          9.024219        9.024227   0.000000   0.000000
     53          9.395570        9.395578   0.000000   0.000000
     54          9.824471        9.824530   0.000000   0.000000
     55         10.106371       10.106522   0.000000   0.000000
     56         10.684704       10.684774   0.000000   0.000000
     57         11.011942       11.011987   0.000000   0.000000
     58         11.536628       11.536658   0.000000   0.000000
     59         11.820754       11.820817   0.000000   0.000000
     60         12.082915       12.082961   0.000000   0.000000
 
 -0.3333333E+00  0.3333333E+00  0.0000000E+00  0.2222222E+00
      1         -2.421967       -2.421967   1.000000   1.000000
      2         -1.590680       -1.590680   1.000000   1.000000
      3         -1.580795       -1.580795   1.000000   1.000000
      4         -1.575412       -1.575412   1.000000   1.000000
      5         -1.517051       -1.517051   1.000000   1.000000
      6         -1.465804       -1.465804   1.000000   1.000000
      7         -1.460483       -1.460483   1.000000   1.000000
      8         -1.420893       -1.420893   1.000000   1.000000
      9         -1.419649       -1.419648   1.000000   1.000000
     10         -1.417011       -1.417011   1.000000   1.000000
     11         -1.394065       -1.394065   1.000000   1.000000
     12         -1.386659       -1.386659   1.000000   1.000000
     13         -1.242048       -1.242047   1.000000   1.000000
     14         -1.197035       -1.197034   1.000000   1.000000
     15         -1.106043       -1.106043   1.000000   1.000000
     16         -1.077228       -1.077228   1.000000   1.000000
     17         -0.755607       -0.755607   1.000000   1.000000
     18         -0.714059       -0.714059   1.000000   1.000000
     19         -0.707123       -0.707123   1.000000   1.000000
     20         -0.644122       -0.644122   1.000000   1.000000
     21         -0.462201       -0.462201   1.000000   1.000000
     22         -0.405313       -0.405313   1.000000   1.000000
     23          0.033565        0.033565   1.000000   1.000000
     24          0.111194        0.111194   1.000000   1.000000
     25          0.175261        0.175261   1.000000   1.000000
     26          0.190190        0.190191   1.000000   1.000000
     27          0.280790        0.280791   1.000000   1.000000
     28          0.284466        0.284466   1.000000   1.000000
     29          0.315116        0.315116   1.000000   1.000000
     30          0.319698        0.319698   1.000000   1.000000
     31          0.323195        0.323195   1.000000   1.000000
     32          0.610867        0.610867   1.000000   1.000000
     33          0.674724        0.674724   1.000000   1.000000
     34          0.806732        0.806732   1.000000   1.000000
     35          0.809173        0.809173   1.000000   1.000000
     36          0.838484        0.838484   1.000000   1.000000
     37          0.901180        0.901180   1.000000   1.000000
     38          0.974644        0.974644   1.000000   1.000000
     39          0.979171        0.979172   1.000000   1.000000
     40          1.014242        1.014242   1.000000   1.000000
     41          1.084407        1.084407   1.000000   1.000000
     42          5.731093        5.731093  -0.000000  -0.000000
     43          5.734245        5.734245  -0.000000  -0.000000
     44          5.757458        5.757458  -0.000000  -0.000000
     45          5.909780        5.909780  -0.000000  -0.000000
     46          5.918081        5.918081  -0.000000  -0.000000
     47          6.183861        6.183861  -0.000000  -0.000000
     48          6.304570        6.304570  -0.000000  -0.000000
     49          6.894371        6.894372  -0.000000  -0.000000
     50          7.045771        7.045772  -0.000000  -0.000000
     51          7.627843        7.627843   0.000000   0.000000
     52          7.653073        7.653074   0.000000   0.000000
     53          7.769151        7.769151   0.000000   0.000000
     54          8.179178        8.179178   0.000000   0.000000
     55          8.208527        8.208527   0.000000   0.000000
     56          8.804463        8.804463   0.000000   0.000000
     57          9.170288        9.170289   0.000000   0.000000
     58          9.436857        9.436857   0.000000   0.000000
     59         10.425513       10.425513   0.000000   0.000000
     60         10.797441       10.797441   0.000000   0.000000
