       N       E                     dE             d eps       ncg     rms          rms(c)
DAV:   1     0.796593380799E+03    0.79659E+03   -0.33494E+04   960   0.189E+03
DAV:   2     0.731691245902E+02   -0.72342E+03   -0.69211E+03   960   0.402E+02
DAV:   3    -0.327966270171E+02   -0.10597E+03   -0.99301E+02   988   0.197E+02
DAV:   4    -0.372717062480E+02   -0.44751E+01   -0.44351E+01  1072   0.565E+01
DAV:   5    -0.373714458189E+02   -0.99740E-01   -0.99691E-01  1120   0.712E+00    0.276E+01
DAV:   6    -0.349174235421E+02    0.24540E+01   -0.10945E+02  1304   0.198E+02    0.205E+01
DAV:   7    -0.951334311696E+02   -0.60216E+02   -0.28848E+02  1456   0.245E+02    0.631E+01
DAV:   8    -0.408773059954E+02    0.54256E+02   -0.22236E+02  1632   0.127E+02    0.230E+01
DAV:   9    -0.341869350086E+02    0.66904E+01   -0.59821E+01  1584   0.107E+02    0.172E+01
DAV:  10    -0.316350040288E+02    0.25519E+01   -0.17764E+01  1380   0.552E+01    0.121E+01
DAV:  11    -0.311500276850E+02    0.48498E+00   -0.18361E+00  1328   0.273E+01    0.104E+01
DAV:  12    -0.303978030879E+02    0.75222E+00   -0.14835E+00  1184   0.206E+01    0.831E+00
DAV:  13    -0.301931618607E+02    0.20464E+00   -0.14809E+00  1388   0.418E+01    0.649E+00
DAV:  14    -0.318530827934E+02   -0.16599E+01   -0.15918E+00  1544   0.325E+01    0.499E+00
DAV:  15    -0.336266498007E+02   -0.17736E+01   -0.20446E+00  1628   0.340E+01    0.454E+00
DAV:  16    -0.347238506158E+02   -0.10972E+01   -0.11227E+00  1440   0.222E+01    0.385E+00
DAV:  17    -0.352994896331E+02   -0.57564E+00   -0.80685E-01  1244   0.265E+01    0.203E+00
DAV:  18    -0.358403456028E+02   -0.54086E+00   -0.60515E-01  1284   0.137E+01    0.128E+00
DAV:  19    -0.359929836641E+02   -0.15264E+00   -0.12679E-01  1352   0.690E+00    0.972E-01
DAV:  20    -0.361392845540E+02   -0.14630E+00   -0.11514E-01  1412   0.623E+00    0.755E-01
DAV:  21    -0.362218263249E+02   -0.82542E-01   -0.74256E-02  1332   0.429E+00    0.612E-01
DAV:  22    -0.362631272733E+02   -0.41301E-01   -0.43663E-02  1192   0.416E+00    0.520E-01
DAV:  23    -0.363165800576E+02   -0.53453E-01   -0.30536E-02  1152   0.293E+00    0.382E-01
DAV:  24    -0.364870796483E+02   -0.17050E+00   -0.19445E-02  1144   0.232E+00    0.337E-01
DAV:  25    -0.367138454444E+02   -0.22677E+00   -0.11949E-02  1272   0.207E+00    0.295E-01
DAV:  26    -0.368533975669E+02   -0.13955E+00   -0.16894E-02  1340   0.233E+00    0.207E-01
DAV:  27    -0.368778024241E+02   -0.24405E-01   -0.76093E-03  1252   0.176E+00    0.130E-01
DAV:  28    -0.368824813290E+02   -0.46789E-02   -0.13882E-03  1032   0.667E-01    0.108E-01
DAV:  29    -0.368867120492E+02   -0.42307E-02   -0.13425E-03  1020   0.735E-01    0.636E-02
DAV:  30    -0.368881124259E+02   -0.14004E-02   -0.73827E-04   880   0.327E-01    0.599E-02
DAV:  31    -0.368892163092E+02   -0.11039E-02   -0.39119E-04   796   0.210E-01    0.525E-02
DAV:  32    -0.368910279974E+02   -0.18117E-02   -0.38159E-04   744   0.199E-01    0.505E-02
DAV:  33    -0.368921367901E+02   -0.11088E-02   -0.25861E-04   704   0.388E-01    0.225E-02
DAV:  34    -0.368930498170E+02   -0.91303E-03   -0.17395E-04   656   0.209E-01    0.164E-02
DAV:  35    -0.368935824494E+02   -0.53263E-03   -0.10055E-04   644   0.166E-01    0.954E-03
DAV:  36    -0.368937582755E+02   -0.17583E-03   -0.62209E-05   608   0.748E-02
   1 F= -.40562331E+02 E0= -.40554282E+02  d E =-.405623E+02  mag=     0.0015
       N       E                     dE             d eps       ncg     rms          rms(c)
DAV:   1    -0.368909885311E+02    0.25939E-02   -0.15663E+01  1008   0.158E+01    0.748E-01
DAV:   2    -0.369159051226E+02   -0.24917E-01   -0.33908E-01  1384   0.645E+00    0.572E-01
DAV:   3    -0.369237205098E+02   -0.78154E-02   -0.16887E-01  1232   0.114E+01    0.522E-01
DAV:   4    -0.369134267574E+02    0.10294E-01   -0.17727E-01  1344   0.103E+01    0.340E-01
DAV:   5    -0.369112016975E+02    0.22251E-02   -0.65284E-02  1520   0.795E+00    0.145E-01
DAV:   6    -0.369101150291E+02    0.10867E-02   -0.25267E-02  1692   0.435E+00    0.928E-02
DAV:   7    -0.369099885812E+02    0.12645E-03   -0.29514E-03  1396   0.142E+00    0.309E-02
DAV:   8    -0.369100363039E+02   -0.47723E-04   -0.60015E-04   740   0.470E-01
   2 F= -.40607863E+02 E0= -.40599640E+02  d E =-.455321E-01  mag=     0.0011
       N       E                     dE             d eps       ncg     rms          rms(c)
DAV:   1    -0.369270788580E+02   -0.17090E-01   -0.11457E+00  1008   0.422E+00    0.175E-01
DAV:   2    -0.369289145196E+02   -0.18357E-02   -0.22169E-02  1280   0.114E+00    0.131E-01
DAV:   3    -0.369298831756E+02   -0.96866E-03   -0.11414E-02  1136   0.279E+00    0.146E-01
DAV:   4    -0.369287683604E+02    0.11148E-02   -0.12304E-02   704   0.293E+00    0.589E-02
DAV:   5    -0.369286729333E+02    0.95427E-04   -0.93680E-04   724   0.832E-01
   3 F= -.40611587E+02 E0= -.40603377E+02  d E =-.492560E-01  mag=     0.0010
       N       E                     dE             d eps       ncg     rms          rms(c)
DAV:   1    -0.369486482377E+02   -0.19880E-01   -0.16169E+01   992   0.162E+01    0.356E-01
DAV:   2    -0.369876633333E+02   -0.39015E-01   -0.41593E-01  1568   0.899E+00    0.487E-01
DAV:   3    -0.369803886628E+02    0.72747E-02   -0.16932E-01  1624   0.111E+01    0.352E-01
DAV:   4    -0.369780048898E+02    0.23838E-02   -0.17595E-02  1536   0.310E+00    0.228E-01
DAV:   5    -0.369777989951E+02    0.20589E-03   -0.49958E-03  1384   0.158E+00    0.161E-01
DAV:   6    -0.369775877958E+02    0.21120E-03   -0.62230E-03  1156   0.255E+00    0.817E-02
DAV:   7    -0.369773966977E+02    0.19110E-03   -0.35165E-03   896   0.184E+00    0.322E-02
DAV:   8    -0.369773877468E+02    0.89509E-05   -0.46047E-04   660   0.627E-01
   4 F= -.40665895E+02 E0= -.40657717E+02  d E =-.543086E-01  mag=     0.0008
       N       E                     dE             d eps       ncg     rms          rms(c)
DAV:   1    -0.368914159560E+02    0.85981E-01   -0.61935E+01  1040   0.335E+01    0.708E-01
DAV:   2    -0.370346215744E+02   -0.14321E+00   -0.15246E+00  1560   0.167E+01    0.967E-01
DAV:   3    -0.370157180821E+02    0.18903E-01   -0.54518E-01  1576   0.200E+01    0.651E-01
DAV:   4    -0.370055114841E+02    0.10207E-01   -0.80426E-02  1568   0.707E+00    0.440E-01
DAV:   5    -0.370053060673E+02    0.20542E-03   -0.21090E-02  1464   0.380E+00    0.352E-01
DAV:   6    -0.370039208259E+02    0.13852E-02   -0.28957E-02  1232   0.525E+00    0.201E-01
DAV:   7    -0.370032301179E+02    0.69071E-03   -0.11095E-02  1668   0.319E+00    0.588E-02
DAV:   8    -0.370032073852E+02    0.22733E-04   -0.18980E-03  1144   0.919E-01
   5 F= -.40704012E+02 E0= -.40696049E+02  d E =-.924249E-01  mag=     0.0006
       N       E                     dE             d eps       ncg     rms          rms(c)
DAV:   1    -0.369994200833E+02    0.38100E-02   -0.21880E+01  1024   0.194E+01    0.505E-01
DAV:   2    -0.370427319488E+02   -0.43312E-01   -0.48525E-01  1392   0.549E+00    0.475E-01
DAV:   3    -0.370419670003E+02    0.76495E-03   -0.40453E-02  1240   0.536E+00    0.376E-01
DAV:   4    -0.370419272000E+02    0.39800E-04   -0.27907E-02  1168   0.501E+00    0.291E-01
DAV:   5    -0.370441465189E+02   -0.22193E-02   -0.66173E-02  1644   0.684E+00    0.264E-01
DAV:   6    -0.370397830762E+02    0.43634E-02   -0.39670E-02  1552   0.508E+00    0.965E-02
DAV:   7    -0.370396022071E+02    0.18087E-03   -0.32587E-03  1424   0.178E+00    0.413E-02
DAV:   8    -0.370396256750E+02   -0.23468E-04   -0.89179E-04   880   0.561E-01
   6 F= -.40747164E+02 E0= -.40739323E+02  d E =-.431521E-01  mag=     0.0005
       N       E                     dE             d eps       ncg     rms          rms(c)
DAV:   1    -0.370389956293E+02    0.60658E-03   -0.15567E-01   996   0.161E+00    0.474E-02
DAV:   2    -0.370392918362E+02   -0.29621E-03   -0.34374E-03  1400   0.657E-01    0.404E-02
DAV:   3    -0.370393000911E+02   -0.82549E-05   -0.76370E-04   664   0.832E-01
   7 F= -.40747585E+02 E0= -.40739866E+02  d E =-.435729E-01  mag=     0.0004
       N       E                     dE             d eps       ncg     rms          rms(c)
DAV:   1    -0.370541015929E+02   -0.14810E-01   -0.67817E+00   992   0.108E+01    0.279E-01
DAV:   2    -0.370677455707E+02   -0.13644E-01   -0.14602E-01  1532   0.424E+00    0.301E-01
DAV:   3    -0.370669953710E+02    0.75020E-03   -0.39766E-02  1408   0.497E+00    0.234E-01
DAV:   4    -0.370659600621E+02    0.10353E-02   -0.15916E-02  1168   0.341E+00    0.170E-01
DAV:   5    -0.370658473313E+02    0.11273E-03   -0.74642E-03  1184   0.264E+00    0.120E-01
DAV:   6    -0.370655102590E+02    0.33707E-03   -0.46326E-03  1304   0.225E+00    0.489E-02
DAV:   7    -0.370654992139E+02    0.11045E-04   -0.92065E-04   904   0.845E-01
   8 F= -.40778560E+02 E0= -.40770694E+02  d E =-.309756E-01  mag=     0.0004
       N       E                     dE             d eps       ncg     rms          rms(c)
DAV:   1    -0.370526142173E+02    0.12896E-01   -0.11856E+01   992   0.144E+01    0.357E-01
DAV:   2    -0.370756842279E+02   -0.23070E-01   -0.24873E-01  1408   0.438E+00    0.353E-01
DAV:   3    -0.370755842245E+02    0.10000E-03   -0.40271E-02  1224   0.509E+00    0.286E-01
DAV:   4    -0.370744205521E+02    0.11637E-02   -0.25516E-02  1232   0.418E+00    0.216E-01
DAV:   5    -0.370741843115E+02    0.23624E-03   -0.15816E-02  1384   0.364E+00    0.159E-01
DAV:   6    -0.370734998607E+02    0.68445E-03   -0.82666E-03  1392   0.287E+00    0.647E-02
DAV:   7    -0.370734387244E+02    0.61136E-04   -0.16098E-03  1072   0.120E+00
   9 F= -.40793589E+02 E0= -.40785776E+02  d E =-.460039E-01  mag=     0.0003
       N       E                     dE             d eps       ncg     rms          rms(c)
DAV:   1    -0.370800158043E+02   -0.65159E-02   -0.18760E+00   984   0.555E+00    0.119E-01
DAV:   2    -0.370835551083E+02   -0.35393E-02   -0.37555E-02  1392   0.143E+00    0.123E-01
DAV:   3    -0.370834895396E+02    0.65569E-04   -0.15893E-03  1048   0.988E-01
  10 F= -.40804501E+02 E0= -.40796441E+02  d E =-.109129E-01  mag=     0.0003
       N       E                     dE             d eps       ncg     rms          rms(c)
DAV:   1    -0.370734185474E+02    0.10137E-01   -0.17044E+01   984   0.171E+01    0.417E-01
DAV:   2    -0.371052712361E+02   -0.31853E-01   -0.35946E-01  1392   0.539E+00    0.431E-01
DAV:   3    -0.371048777771E+02    0.39346E-03   -0.50021E-02  1376   0.572E+00    0.361E-01
DAV:   4    -0.371037836834E+02    0.10941E-02   -0.28374E-02  1232   0.435E+00    0.282E-01
DAV:   5    -0.371035499613E+02    0.23372E-03   -0.21122E-02  1640   0.378E+00    0.192E-01
DAV:   6    -0.371021910314E+02    0.13589E-02   -0.16230E-02  1456   0.387E+00    0.923E-02
DAV:   7    -0.371018902586E+02    0.30077E-03   -0.27109E-03  1280   0.162E+00    0.240E-02
DAV:   8    -0.371019372656E+02   -0.47007E-04   -0.67013E-04   844   0.367E-01
  11 F= -.40825741E+02 E0= -.40817630E+02  d E =-.321528E-01  mag=     0.0002
       N       E                     dE             d eps       ncg     rms          rms(c)
DAV:   1    -0.369899161800E+02    0.11197E+00   -0.70453E+01  1112   0.366E+01    0.763E-01
DAV:   2    -0.371041033627E+02   -0.11419E+00   -0.12483E+00  1520   0.108E+01    0.834E-01
DAV:   3    -0.370978222625E+02    0.62811E-02   -0.11889E-01  1176   0.897E+00    0.598E-01
DAV:   4    -0.370949981272E+02    0.28241E-02   -0.25430E-02  1288   0.448E+00    0.427E-01
DAV:   5    -0.370964076799E+02   -0.14096E-02   -0.57373E-02  1688   0.588E+00    0.318E-01
DAV:   6    -0.370957658675E+02    0.64181E-03   -0.14997E-01  1552   0.975E+00    0.260E-01
DAV:   7    -0.370913190925E+02    0.44468E-02   -0.44899E-02  1328   0.546E+00    0.581E-02
DAV:   8    -0.370914829797E+02   -0.16389E-03   -0.28110E-03  1268   0.679E-01    0.295E-02
DAV:   9    -0.370915164805E+02   -0.33501E-04   -0.46597E-04   752   0.334E-01
  12 F= -.40821976E+02 E0= -.40813369E+02  d E =-.283875E-01  mag=     0.0002
       N       E                     dE             d eps       ncg     rms          rms(c)
DAV:   1    -0.370667766304E+02    0.24706E-01   -0.21687E+01  1016   0.195E+01    0.415E-01
DAV:   2    -0.371085050017E+02   -0.41728E-01   -0.45346E-01  1344   0.505E+00    0.434E-01
DAV:   3    -0.371076142942E+02    0.89071E-03   -0.21873E-02  1200   0.362E+00    0.345E-01
DAV:   4    -0.371072083727E+02    0.40592E-03   -0.98354E-03  1200   0.273E+00    0.275E-01
DAV:   5    -0.371088106932E+02   -0.16023E-02   -0.49222E-02  1312   0.555E+00    0.271E-01
DAV:   6    -0.371059039301E+02    0.29068E-02   -0.52641E-02  1216   0.600E+00    0.119E-01
DAV:   7    -0.371051624721E+02    0.74146E-03   -0.82320E-03  1256   0.235E+00    0.483E-02
DAV:   8    -0.371052539132E+02   -0.91441E-04   -0.16174E-03  1168   0.595E-01
  13 F= -.40831764E+02 E0= -.40823413E+02  d E =-.381756E-01  mag=     0.0001
       N       E                     dE             d eps       ncg     rms          rms(c)
DAV:   1    -0.371062228616E+02   -0.10604E-02   -0.66975E+00  1000   0.107E+01    0.263E-01
DAV:   2    -0.371203044846E+02   -0.14082E-01   -0.16283E-01  1440   0.500E+00    0.297E-01
DAV:   3    -0.371194850852E+02    0.81940E-03   -0.55741E-02  1560   0.593E+00    0.244E-01
DAV:   4    -0.371184837857E+02    0.10013E-02   -0.91442E-03  1252   0.236E+00    0.170E-01
DAV:   5    -0.371183321850E+02    0.15160E-03   -0.30596E-03  1312   0.154E+00    0.107E-01
DAV:   6    -0.371182409057E+02    0.91279E-04   -0.48948E-03  1200   0.229E+00    0.704E-02
DAV:   7    -0.371180427620E+02    0.19814E-03   -0.10782E-03   712   0.111E+00
  14 F= -.40844267E+02 E0= -.40835976E+02  d E =-.125024E-01  mag=     0.0001
       N       E                     dE             d eps       ncg     rms          rms(c)
DAV:   1    -0.371178844271E+02    0.35648E-03   -0.29489E-01  1008   0.224E+00    0.560E-02
DAV:   2    -0.371185446275E+02   -0.66020E-03   -0.75169E-03  1456   0.115E+00    0.623E-02
DAV:   3    -0.371184403647E+02    0.10426E-03   -0.26914E-03   768   0.133E+00    0.506E-02
DAV:   4    -0.371184115741E+02    0.28791E-04   -0.40930E-04   612   0.493E-01
  15 F= -.40844679E+02 E0= -.40836388E+02  d E =-.129150E-01  mag=     0.0001
       N       E                     dE             d eps       ncg     rms          rms(c)
DAV:   1    -0.371097613877E+02    0.86790E-02   -0.66487E+00   984   0.107E+01    0.300E-01
DAV:   2    -0.371230025663E+02   -0.13241E-01   -0.15647E-01  1504   0.468E+00    0.300E-01
DAV:   3    -0.371228569831E+02    0.14558E-03   -0.60005E-02  1504   0.632E+00    0.257E-01
DAV:   4    -0.371213832728E+02    0.14737E-02   -0.15928E-02  1184   0.315E+00    0.162E-01
DAV:   5    -0.371214111937E+02   -0.27921E-04   -0.45360E-03  1272   0.203E+00    0.109E-01
DAV:   6    -0.371212177400E+02    0.19345E-03   -0.56255E-03  1240   0.238E+00    0.630E-02
DAV:   7    -0.371210828512E+02    0.13489E-03   -0.10797E-03   824   0.103E+00
  16 F= -.40848611E+02 E0= -.40840256E+02  d E =-.393147E-02  mag=     0.0001
       N       E                     dE             d eps       ncg     rms          rms(c)
DAV:   1    -0.371219876385E+02   -0.76990E-03   -0.80107E-01   984   0.370E+00    0.968E-02
DAV:   2    -0.371234980654E+02   -0.15104E-02   -0.17949E-02  1504   0.165E+00    0.100E-01
DAV:   3    -0.371234223843E+02    0.75681E-04   -0.57389E-03  1152   0.188E+00    0.835E-02
DAV:   4    -0.371232928547E+02    0.12953E-03   -0.12506E-03   672   0.923E-01
  17 F= -.40850204E+02 E0= -.40841949E+02  d E =-.552440E-02  mag=     0.0001
       N       E                     dE             d eps       ncg     rms          rms(c)
DAV:   1    -0.371260490704E+02   -0.26267E-02   -0.78098E-01  1012   0.377E+00    0.873E-02
DAV:   2    -0.371279258018E+02   -0.18767E-02   -0.22615E-02  1696   0.290E+00    0.121E-01
DAV:   3    -0.371274091211E+02    0.51668E-03   -0.65512E-03  1256   0.230E+00    0.706E-02
DAV:   4    -0.371273951054E+02    0.14016E-04   -0.12386E-03   800   0.833E-01
  18 F= -.40853460E+02 E0= -.40845062E+02  d E =-.325607E-02  mag=     0.0001
       N       E                     dE             d eps       ncg     rms          rms(c)
DAV:   1    -0.371239812415E+02    0.34279E-02   -0.70438E+00  1000   0.109E+01    0.266E-01
DAV:   2    -0.371375888554E+02   -0.13608E-01   -0.15418E-01  1480   0.473E+00    0.300E-01
DAV:   3    -0.371368147400E+02    0.77412E-03   -0.41073E-02  1584   0.535E+00    0.243E-01
DAV:   4    -0.371358963847E+02    0.91836E-03   -0.76103E-03  1240   0.207E+00    0.179E-01
DAV:   5    -0.371354820309E+02    0.41435E-03   -0.27189E-03  1388   0.123E+00    0.978E-02
DAV:   6    -0.371353814717E+02    0.10056E-03   -0.13604E-03  1096   0.125E+00
  19 F= -.40859030E+02 E0= -.40850834E+02  d E =-.882671E-02  mag=     0.0001
       N       E                     dE             d eps       ncg     rms          rms(c)
DAV:   1    -0.371348011820E+02    0.68085E-03   -0.12339E+00  1000   0.460E+00    0.103E-01
DAV:   2    -0.371371994215E+02   -0.23982E-02   -0.25780E-02  1448   0.190E+00    0.117E-01
DAV:   3    -0.371370980641E+02    0.10136E-03   -0.68521E-03  1216   0.218E+00    0.933E-02
DAV:   4    -0.371369612315E+02    0.13683E-03   -0.16376E-03   752   0.104E+00
  20 F= -.40859648E+02 E0= -.40851561E+02  d E =-.944494E-02  mag=     0.0000
       N       E                     dE             d eps       ncg     rms          rms(c)
DAV:   1    -0.371410430388E+02   -0.39450E-02   -0.16649E+00  1016   0.549E+00    0.163E-01
DAV:   2    -0.371446529411E+02   -0.36099E-02   -0.42287E-02  1672   0.352E+00    0.187E-01
DAV:   3    -0.371437120919E+02    0.94085E-03   -0.95225E-03  1616   0.273E+00    0.122E-01
DAV:   4    -0.371435976765E+02    0.11442E-03   -0.12938E-03   992   0.841E-01
  21 F= -.40862805E+02 E0= -.40854568E+02  d E =-.315626E-02  mag=     0.0000
       N       E                     dE             d eps       ncg     rms          rms(c)
DAV:   1    -0.371285609546E+02    0.15151E-01   -0.14987E+01  1000   0.164E+01    0.424E-01
DAV:   2    -0.371630968078E+02   -0.34536E-01   -0.41003E-01  1616   0.103E+01    0.523E-01
DAV:   3    -0.371576656825E+02    0.54311E-02   -0.15758E-01  1808   0.912E+00    0.371E-01
DAV:   4    -0.371555944268E+02    0.20713E-02   -0.24651E-02  1552   0.336E+00    0.275E-01
DAV:   5    -0.371562182956E+02   -0.62387E-03   -0.14690E-02  1468   0.373E+00    0.216E-01
DAV:   6    -0.371545181523E+02    0.17001E-02   -0.13518E-02  1472   0.367E+00    0.635E-02
DAV:   7    -0.371545591063E+02   -0.40954E-04   -0.19822E-03  1232   0.105E+00
  22 F= -.40863564E+02 E0= -.40855015E+02  d E =-.391544E-02  mag=     0.0000
       N       E                     dE             d eps       ncg     rms          rms(c)
DAV:   1    -0.371489076185E+02    0.56105E-02   -0.19696E+00   992   0.586E+00    0.139E-01
DAV:   2    -0.371526894396E+02   -0.37818E-02   -0.42105E-02  1344   0.204E+00    0.154E-01
DAV:   3    -0.371524939138E+02    0.19553E-03   -0.49474E-03  1264   0.184E+00    0.124E-01
DAV:   4    -0.371524042941E+02    0.89620E-04   -0.31159E-03   760   0.145E+00    0.104E-01
DAV:   5    -0.371524506356E+02   -0.46341E-04   -0.47113E-03   800   0.191E+00    0.874E-02
DAV:   6    -0.371521382641E+02    0.31237E-03   -0.24920E-03   784   0.143E+00    0.255E-02
DAV:   7    -0.371521432638E+02   -0.49997E-05   -0.29335E-04   620   0.423E-01
  23 F= -.40864800E+02 E0= -.40856336E+02  d E =-.515187E-02  mag=     0.0000
       N       E                     dE             d eps       ncg     rms          rms(c)
DAV:   1    -0.371553533751E+02   -0.32151E-02   -0.32819E-01   984   0.236E+00    0.619E-02
DAV:   2    -0.371559649218E+02   -0.61155E-03   -0.70088E-03  1440   0.920E-01    0.694E-02
DAV:   3    -0.371558961273E+02    0.68795E-04   -0.65857E-04   752   0.757E-01
  24 F= -.40866439E+02 E0= -.40857961E+02  d E =-.163823E-02  mag=     0.0000
       N       E                     dE             d eps       ncg     rms          rms(c)
DAV:   1    -0.371606190692E+02   -0.46541E-02   -0.23370E+00   984   0.633E+00    0.181E-01
DAV:   2    -0.371649764725E+02   -0.43574E-02   -0.50353E-02  1400   0.225E+00    0.187E-01
DAV:   3    -0.371646679214E+02    0.30855E-03   -0.11796E-02  1280   0.270E+00    0.161E-01
DAV:   4    -0.371643909579E+02    0.27696E-03   -0.53645E-03   976   0.195E+00    0.118E-01
DAV:   5    -0.371645451873E+02   -0.15423E-03   -0.58523E-03   904   0.216E+00    0.917E-02
DAV:   6    -0.371641210418E+02    0.42415E-03   -0.34614E-03   880   0.179E+00    0.254E-02
DAV:   7    -0.371641503937E+02   -0.29352E-04   -0.51293E-04   784   0.418E-01
  25 F= -.40869197E+02 E0= -.40860672E+02  d E =-.439696E-02  mag=     0.0000
       N       E                     dE             d eps       ncg     rms          rms(c)
DAV:   1    -0.371585662277E+02    0.55548E-02   -0.93555E+00   984   0.127E+01    0.327E-01
DAV:   2    -0.371769706238E+02   -0.18404E-01   -0.20113E-01  1264   0.350E+00    0.340E-01
DAV:   3    -0.371759915965E+02    0.97903E-03   -0.20785E-02  1312   0.363E+00    0.281E-01
DAV:   4    -0.371757568573E+02    0.23474E-03   -0.15147E-02  1120   0.340E+00    0.225E-01
DAV:   5    -0.371764667485E+02   -0.70989E-03   -0.33100E-02  1216   0.459E+00    0.197E-01
DAV:   6    -0.371745050929E+02    0.19617E-02   -0.20428E-02  1088   0.371E+00    0.474E-02
DAV:   7    -0.371745574019E+02   -0.52309E-04   -0.19357E-03  1200   0.844E-01
  26 F= -.40869004E+02 E0= -.40860422E+02  d E =-.420407E-02  mag=     0.0000
       N       E                     dE             d eps       ncg     rms          rms(c)
DAV:   1    -0.371640901092E+02    0.10415E-01   -0.33701E+00   984   0.754E+00    0.203E-01
DAV:   2    -0.371702055195E+02   -0.61154E-02   -0.69637E-02  1344   0.269E+00    0.208E-01
DAV:   3    -0.371698622432E+02    0.34328E-03   -0.85211E-03  1312   0.252E+00    0.163E-01
DAV:   4    -0.371697717554E+02    0.90488E-04   -0.72299E-03   944   0.221E+00    0.133E-01
DAV:   5    -0.371699397883E+02   -0.16803E-03   -0.13690E-02   960   0.303E+00    0.115E-01
DAV:   6    -0.371692632863E+02    0.67650E-03   -0.63841E-03   800   0.213E+00    0.303E-02
DAV:   7    -0.371692893445E+02   -0.26058E-04   -0.67433E-04   872   0.467E-01
  27 F= -.40870055E+02 E0= -.40861474E+02  d E =-.525435E-02  mag=     0.0000
       N       E                     dE             d eps       ncg     rms          rms(c)
DAV:   1    -0.371737512108E+02   -0.44879E-02   -0.93042E-01   984   0.397E+00    0.975E-02
DAV:   2    -0.371754348597E+02   -0.16836E-02   -0.18888E-02  1360   0.149E+00    0.109E-01
DAV:   3    -0.371752747282E+02    0.16013E-03   -0.20935E-03  1008   0.125E+00    0.808E-02
DAV:   4    -0.371752325959E+02    0.42132E-04   -0.69486E-04   688   0.704E-01
  28 F= -.40872914E+02 E0= -.40864306E+02  d E =-.285897E-02  mag=     0.0000
       N       E                     dE             d eps       ncg     rms          rms(c)
DAV:   1    -0.371767597953E+02   -0.14851E-02   -0.75089E+00   984   0.114E+01    0.301E-01
DAV:   2    -0.371966812353E+02   -0.19921E-01   -0.24338E-01  1648   0.920E+00    0.430E-01
DAV:   3    -0.371900414747E+02    0.66398E-02   -0.11993E-01  1792   0.773E+00    0.264E-01
DAV:   4    -0.371893101267E+02    0.73135E-03   -0.97801E-03  1544   0.180E+00    0.195E-01
DAV:   5    -0.371897596575E+02   -0.44953E-03   -0.78888E-03  1232   0.278E+00    0.162E-01
DAV:   6    -0.371887386347E+02    0.10210E-02   -0.66365E-03  1272   0.254E+00    0.385E-02
DAV:   7    -0.371887935212E+02   -0.54886E-04   -0.94868E-04  1008   0.581E-01
  29 F= -.40877831E+02 E0= -.40869086E+02  d E =-.777659E-02  mag=     0.0000
       N       E                     dE             d eps       ncg     rms          rms(c)
DAV:   1    -0.371478149742E+02    0.40924E-01   -0.30234E+01   984   0.233E+01    0.565E-01
DAV:   2    -0.372097465784E+02   -0.61932E-01   -0.67463E-01  1312   0.741E+00    0.602E-01
DAV:   3    -0.372058660069E+02    0.38806E-02   -0.78859E-02  1368   0.710E+00    0.458E-01
DAV:   4    -0.372051069562E+02    0.75905E-03   -0.42122E-02  1472   0.523E+00    0.360E-01
DAV:   5    -0.372089186629E+02   -0.38117E-02   -0.10595E-01  1472   0.819E+00    0.356E-01
DAV:   6    -0.372022003703E+02    0.67183E-02   -0.52843E-02  1656   0.557E+00    0.124E-01
DAV:   7    -0.372021984092E+02    0.19612E-05   -0.42344E-03  1672   0.156E+00    0.373E-02
DAV:   8    -0.372022349117E+02   -0.36503E-04   -0.99087E-04   920   0.581E-01
  30 F= -.40874595E+02 E0= -.40865606E+02  d E =-.453987E-02  mag=     0.0000
       N       E                     dE             d eps       ncg     rms          rms(c)
DAV:   1    -0.371716422937E+02    0.30556E-01   -0.13574E+01   984   0.153E+01    0.362E-01
DAV:   2    -0.371986191290E+02   -0.26977E-01   -0.29686E-01  1352   0.541E+00    0.402E-01
DAV:   3    -0.371969522128E+02    0.16669E-02   -0.23970E-02  1296   0.433E+00    0.311E-01
DAV:   4    -0.371964421808E+02    0.51003E-03   -0.69952E-03  1248   0.219E+00    0.246E-01
DAV:   5    -0.371994663090E+02   -0.30241E-02   -0.49588E-02  1360   0.551E+00    0.257E-01
DAV:   6    -0.371953257438E+02    0.41406E-02   -0.51176E-02  1344   0.534E+00    0.733E-02
DAV:   7    -0.371952628112E+02    0.62933E-04   -0.33024E-03  1200   0.134E+00    0.271E-02
DAV:   8    -0.371953186676E+02   -0.55856E-04   -0.95355E-04   912   0.517E-01
  31 F= -.40878783E+02 E0= -.40869923E+02  d E =-.872869E-02  mag=     0.0000
       N       E                     dE             d eps       ncg     rms          rms(c)
DAV:   1    -0.371984558917E+02   -0.31931E-02   -0.97017E-01   984   0.401E+00    0.978E-02
DAV:   2    -0.372001542536E+02   -0.16984E-02   -0.19019E-02  1248   0.102E+00    0.100E-01
DAV:   3    -0.372000708593E+02    0.83394E-04   -0.91404E-04   896   0.713E-01
  32 F= -.40879977E+02 E0= -.40871056E+02  d E =-.119368E-02  mag=     0.0000
       N       E                     dE             d eps       ncg     rms          rms(c)
DAV:   1    -0.372013209065E+02   -0.11667E-02   -0.96120E-02  1208   0.161E+00    0.882E-02
DAV:   2    -0.372026156731E+02   -0.12948E-02   -0.16836E-02   960   0.321E+00    0.146E-01
DAV:   3    -0.372012076474E+02    0.14080E-02   -0.15351E-02   736   0.313E+00    0.560E-02
DAV:   4    -0.372012975869E+02   -0.89939E-04   -0.21236E-03   768   0.123E+00    0.550E-02
DAV:   5    -0.372011703759E+02    0.12721E-03   -0.10471E-03   784   0.912E-01
  33 F= -.40879984E+02 E0= -.40871121E+02  d E =-.120056E-02  mag=     0.0000
       N       E                     dE             d eps       ncg     rms          rms(c)
DAV:   1    -0.372028331469E+02   -0.15356E-02   -0.37421E-01   984   0.249E+00    0.571E-02
DAV:   2    -0.372035443194E+02   -0.71117E-03   -0.76388E-03  1296   0.726E-01    0.618E-02
DAV:   3    -0.372035029594E+02    0.41360E-04   -0.36418E-04   632   0.524E-01
  34 F= -.40880145E+02 E0= -.40871265E+02  d E =-.136115E-02  mag=     0.0000
       N       E                     dE             d eps       ncg     rms          rms(c)
DAV:   1    -0.372015343892E+02    0.20099E-02   -0.18390E-01   984   0.179E+00    0.384E-02
DAV:   2    -0.372019792720E+02   -0.44488E-03   -0.44572E-03  1488   0.934E-01    0.408E-02
DAV:   3    -0.372019006948E+02    0.78577E-04   -0.78628E-04   736   0.836E-01
  35 F= -.40880074E+02 E0= -.40871283E+02  d E =-.129066E-02  mag=     0.0000
       N       E                     dE             d eps       ncg     rms          rms(c)
DAV:   1    -0.372027404697E+02   -0.76120E-03   -0.67159E-02   984   0.112E+00    0.216E-02
DAV:   2    -0.372029035879E+02   -0.16312E-03   -0.20193E-03   952   0.896E-01    0.384E-02
DAV:   3    -0.372028289041E+02    0.74684E-04   -0.13338E-03   728   0.847E-01
  36 F= -.40880075E+02 E0= -.40871229E+02  d E =-.129200E-02  mag=     0.0000
       N       E                     dE             d eps       ncg     rms          rms(c)
DAV:   1    -0.372023609764E+02    0.54261E-03   -0.16674E-02  1000   0.538E-01    0.143E-02
DAV:   2    -0.372023837230E+02   -0.22747E-04   -0.24341E-04   656   0.266E-01
  37 F= -.40880093E+02 E0= -.40871232E+02  d E =-.130986E-02  mag=     0.0000
       N       E                     dE             d eps       ncg     rms          rms(c)
DAV:   1    -0.372026988475E+02   -0.33787E-03   -0.68816E-03  1240   0.500E-01    0.723E-03
DAV:   2    -0.372027777272E+02   -0.78880E-04   -0.10501E-03   656   0.764E-01
  38 F= -.40880187E+02 E0= -.40871422E+02  d E =-.140388E-02  mag=     0.0000
       N       E                     dE             d eps       ncg     rms          rms(c)
DAV:   1    -0.372049161522E+02   -0.22173E-02   -0.56131E-01   984   0.312E+00    0.748E-02
DAV:   2    -0.372059876851E+02   -0.10715E-02   -0.11734E-02  1264   0.763E-01    0.755E-02
DAV:   3    -0.372059342653E+02    0.53420E-04   -0.34907E-04   704   0.444E-01
  39 F= -.40881192E+02 E0= -.40872249E+02  d E =-.100495E-02  mag=     0.0000
       N       E                     dE             d eps       ncg     rms          rms(c)
DAV:   1    -0.372080967698E+02   -0.21091E-02   -0.60850E-01   984   0.324E+00    0.106E-01
DAV:   2    -0.372093695688E+02   -0.12728E-02   -0.15898E-02  1648   0.218E+00    0.122E-01
DAV:   3    -0.372089328348E+02    0.43673E-03   -0.87202E-03  1144   0.232E+00    0.905E-02
DAV:   4    -0.372088641475E+02    0.68687E-04   -0.20347E-03   816   0.111E+00    0.647E-02
DAV:   5    -0.372088461945E+02    0.17953E-04   -0.14967E-03   848   0.114E+00
  40 F= -.40881874E+02 E0= -.40872791E+02  d E =-.168663E-02  mag=     0.0000
       N       E                     dE             d eps       ncg     rms          rms(c)
DAV:   1    -0.372096307476E+02   -0.76660E-03   -0.24068E+00   984   0.636E+00    0.152E-01
DAV:   2    -0.372141417321E+02   -0.45110E-02   -0.49180E-02  1320   0.164E+00    0.156E-01
DAV:   3    -0.372140172478E+02    0.12448E-03   -0.50730E-03  1104   0.170E+00    0.135E-01
DAV:   4    -0.372139223729E+02    0.94875E-04   -0.49315E-03   736   0.186E+00    0.109E-01
DAV:   5    -0.372139909854E+02   -0.68613E-04   -0.57418E-03   784   0.191E+00    0.920E-02
DAV:   6    -0.372136059230E+02    0.38506E-03   -0.32760E-03   752   0.162E+00    0.272E-02
DAV:   7    -0.372136148702E+02   -0.89472E-05   -0.39668E-04   672   0.456E-01
  41 F= -.40882200E+02 E0= -.40873227E+02  d E =-.201239E-02  mag=     0.0000
       N       E                     dE             d eps       ncg     rms          rms(c)
DAV:   1    -0.372117301342E+02    0.18758E-02   -0.27562E-01   984   0.214E+00    0.515E-02
DAV:   2    -0.372122405386E+02   -0.51040E-03   -0.57080E-03  1312   0.715E-01    0.578E-02
DAV:   3    -0.372122090708E+02    0.31468E-04   -0.54322E-04   624   0.630E-01
  42 F= -.40882297E+02 E0= -.40873369E+02  d E =-.210973E-02  mag=     0.0000
       N       E                     dE             d eps       ncg     rms          rms(c)
DAV:   1    -0.372127324788E+02   -0.49194E-03   -0.45598E-02  1224   0.104E+00    0.280E-02
DAV:   2    -0.372131779758E+02   -0.44550E-03   -0.59172E-03   816   0.183E+00    0.718E-02
DAV:   3    -0.372127563002E+02    0.42168E-03   -0.42560E-03   776   0.158E+00    0.109E-02
DAV:   4    -0.372127767793E+02   -0.20479E-04   -0.18525E-04   608   0.185E-01
  43 F= -.40882253E+02 E0= -.40873246E+02  d E =-.206551E-02  mag=     0.0000
       N       E                     dE             d eps       ncg     rms          rms(c)
DAV:   1    -0.372125270701E+02    0.22923E-03   -0.76106E-03  1120   0.410E-01    0.915E-03
DAV:   2    -0.372125377581E+02   -0.10688E-04   -0.10417E-04   632   0.227E-01
  44 F= -.40882264E+02 E0= -.40873241E+02  d E =-.207633E-02  mag=     0.0000
       N       E                     dE             d eps       ncg     rms          rms(c)
DAV:   1    -0.372126725902E+02   -0.14552E-03   -0.21273E-03  1296   0.268E-01    0.406E-03
DAV:   2    -0.372126825374E+02   -0.99472E-05   -0.11971E-04   568   0.270E-01
  45 F= -.40882276E+02 E0= -.40873267E+02  d E =-.208855E-02  mag=     0.0000
       N       E                     dE             d eps       ncg     rms          rms(c)
DAV:   1    -0.372125625464E+02    0.11004E-03   -0.47443E-04   744   0.259E-01    0.924E-03
DAV:   2    -0.372125827981E+02   -0.20252E-04   -0.21511E-04   496   0.235E-01
  46 F= -.40882254E+02 E0= -.40873287E+02  d E =-.206666E-02  mag=     0.0000
       N       E                     dE             d eps       ncg     rms          rms(c)
DAV:   1    -0.372126667439E+02   -0.10420E-03   -0.32212E-04   752   0.244E-01    0.636E-03
DAV:   2    -0.372126920475E+02   -0.25304E-04   -0.33432E-04   616   0.417E-01
  47 F= -.40882290E+02 E0= -.40873260E+02  d E =-.210300E-02  mag=     0.0000
       N       E                     dE             d eps       ncg     rms          rms(c)
DAV:   1    -0.372126280182E+02    0.38726E-04   -0.24957E-04   592   0.379E-01    0.348E-03
DAV:   2    -0.372126321772E+02   -0.41590E-05   -0.38571E-05   512   0.699E-02
  48 F= -.40882267E+02 E0= -.40873296E+02  d E =-.207958E-02  mag=     0.0000
       N       E                     dE             d eps       ncg     rms          rms(c)
DAV:   1    -0.372126521060E+02   -0.24088E-04   -0.16499E-05   480   0.848E-02    0.318E-03
DAV:   2    -0.372126554786E+02   -0.33726E-05   -0.41801E-05   536   0.169E-01
  49 F= -.40882273E+02 E0= -.40873284E+02  d E =-.208587E-02  mag=     0.0000
       N       E                     dE             d eps       ncg     rms          rms(c)
DAV:   1    -0.372126492028E+02    0.29032E-05   -0.37156E-05   480   0.151E-01    0.110E-03
DAV:   2    -0.372126510785E+02   -0.18757E-05   -0.21548E-05   496   0.109E-01
  50 F= -.40882272E+02 E0= -.40873279E+02  d E =-.208479E-02  mag=     0.0000
       N       E                     dE             d eps       ncg     rms          rms(c)
DAV:   1    -0.372139333982E+02   -0.12842E-02   -0.30860E-01   984   0.230E+00    0.569E-02
DAV:   2    -0.372145157420E+02   -0.58234E-03   -0.65254E-03  1384   0.776E-01    0.591E-02
DAV:   3    -0.372144932527E+02    0.22489E-04   -0.14542E-03   688   0.950E-01
  51 F= -.40882625E+02 E0= -.40873603E+02  d E =-.352911E-03  mag=     0.0000
       N       E                     dE             d eps       ncg     rms          rms(c)
DAV:   1    -0.372140893511E+02    0.42639E-03   -0.14222E-02  1304   0.809E-01    0.275E-02
DAV:   2    -0.372142442534E+02   -0.15490E-03   -0.21489E-03   720   0.111E+00    0.446E-02
DAV:   3    -0.372140989936E+02    0.14526E-03   -0.18011E-03   672   0.105E+00
  52 F= -.40882546E+02 E0= -.40873611E+02  d E =-.274143E-03  mag=     0.0000
       N       E                     dE             d eps       ncg     rms          rms(c)
DAV:   1    -0.372143372814E+02   -0.93028E-04   -0.62435E-03  1264   0.472E-01    0.165E-02
DAV:   2    -0.372143925415E+02   -0.55260E-04   -0.57824E-04   712   0.743E-01
  53 F= -.40882632E+02 E0= -.40873850E+02  d E =-.359919E-03  mag=     0.0000
       N       E                     dE             d eps       ncg     rms          rms(c)
DAV:   1    -0.372148770103E+02   -0.53973E-03   -0.17874E-01  1048   0.186E+00    0.410E-02
DAV:   2    -0.372152959225E+02   -0.41891E-03   -0.47185E-03  1440   0.965E-01    0.499E-02
DAV:   3    -0.372152104233E+02    0.85499E-04   -0.18532E-03   696   0.105E+00
  54 F= -.40882836E+02 E0= -.40873842E+02  d E =-.204069E-03  mag=     0.0000
