 vasp.6.3.2 27Jun22 (build Aug 17 2022 15:43:34) complex                        
  
 executed on           tv2STDVTST date 2025.02.04  14:15:28
 running   20 mpi-ranks, with    1 threads/rank
 distrk:  each k-point on   20 cores,    1 groups
 distr:  one band on NCORE=   5 cores,    4 groups


--------------------------------------------------------------------------------------------------------


 -----------------------------------------------------------------------------
|                                                                             |
|           W    W    AA    RRRRR   N    N  II  N    N   GGGG   !!!           |
|           W    W   A  A   R    R  NN   N  II  NN   N  G    G  !!!           |
|           W    W  A    A  R    R  N N  N  II  N N  N  G       !!!           |
|           W WW W  AAAAAA  RRRRR   N  N N  II  N  N N  G  GGG   !            |
|           WW  WW  A    A  R   R   N   NN  II  N   NN  G    G                |
|           W    W  A    A  R    R  N    N  II  N    N   GGGG   !!!           |
|                                                                             |
|     Found issues when parsing the INCAR file                                |
|     In line 61: Tagname --- R W I G S contains invalid characters.          |
|     Please check if the interpretation in the OUTCAR file is correct.       |
|                                                                             |
 -----------------------------------------------------------------------------

 INCAR:
    = \=\=\=\=\=\=\=\=\=\=\=\=\=\=\=\=\=\=\=\=\=\=\=\=\=\=\=\=\=\=\=\=\=\=\=\=\=\=\=\=\=\=\=\=\=\=\=\=\=\=\=\=\=\=\=\=\=\=\=\=\=\=\=\=\=\=\=\=\=\=\=\=
    = \=\=\=\=\=\=\=\=\=\=\=\=\=\=\=\=\=\=\=\=\=\=\=\=\=\=\=\=\=\=\=\=\=\=\=\=\=\=\=\=\=\=\=\=\=\=\=\=\=\=\=\=\=\=\=\=\=\=\=\=\=\=\=\=\=\=\=\=\=\=\=\=
   ISTART = 0
   ICHARG = 2
   IPIPOL = 3
   IVDW = 11
    = \=\=\=\=\=\=\=\=\=\=\=\=\=\=\=\=\=\=\=\=\=\=\=\=\=\=\=\=\=\=\=\=\=\=\=\=\=\=\=\=\=\=\=\=\=\=\=\=\=\=\=\=\=\=\=\=\=\=\=\=\=\=\=\=\=\=\=\=\=\=\=\=
    = \=\=\=\=\=\=\=\=\=\=\=\=\=\=\=\=\=\=\=\=\=\=\=\=\=\=\=\=\=\=\=\=\=\=\=\=\=\=\=\=\=\=\=\=\=\=\=\=\=\=\=\=\=\=\=\=\=\=\=\=\=\=\=\=\=\=\=\=\=\=\=\=
   ISPIN = 2
    = \=\=\=\=\=\=\=\=\=\=\=\=\=\=\=\=\=\=\=\=\=\=\=\=\=\=\=\=\=\=\=\=\=\=\=\=\=\=\=\=\=\=\=\=\=\=\=\=\=\=\=\=\=\=\=\=\=\=\=\=\=\=\=\=\=\=\=\=\=\=\=\=
    = \=\=\=\=\=\=\=\=\=\=\=\=\=\=\=\=\=\=\=\=\=\=\=\=\=\=\=\=\=\=\=\=\=\=\=\=\=\=\=\=\=\=\=\=\=\=\=\=\=\=\=\=\=\=\=\=\=\=\=\=\=\=\=\=\=\=\=\=\=\=\=\=
   ENCUT = 400
   PREC = Normal
   EDIFF = 2E-04
   GGA = PE
   ISMEAR = 1
   SIGMA = 0.2
   LREAL = .FALSE.
    = \=\=\=\=\=\=\=\=\=\=\=\=\=\=\=\=\=\=\=\=\=\=\=\=\=\=\=\=\=\=\=\=\=\=\=\=\=\=\=\=\=\=\=\=\=\=\=\=\=\=\=\=\=\=\=\=\=\=\=\=\=\=\=\=\=\=\=\=\=\=\=\=
    = \=\=\=\=\=\=\=\=\=\=\=\=\=\=\=\=\=\=\=\=\=\=\=\=\=\=\=\=\=\=\=\=\=\=\=\=\=\=\=\=\=\=\=\=\=\=\=\=\=\=\=\=\=\=\=\=\=\=\=\=\=\=\=\=\=\=\=\=\=\=\=\=
   ISYM = 1
   NSW = 800
   IBRION = 2
   POTIM = 0.5
   ISIF = 2
   EDIFFG = -.03
    = \=\=\=\=\=\=\=\=\=\=\=\=\=\=\=\=\=\=\=\=\=\=\=\=\=\=\=\=\=\=\=\=\=\=\=\=\=\=\=\=\=\=\=\=\=\=\=\=\=\=\=\=\=\=\=\=\=\=\=\=\=\=\=\=\=\=\=\=\=\=\=\=
    = \=\=\=\=\=\=\=\=\=\=\=\=\=\=\=\=\=\=\=\=\=\=\=\=\=\=\=\=\=\=\=\=\=\=\=\=\=\=\=\=\=\=\=\=\=\=\=\=\=\=\=\=\=\=\=\=\=\=\=\=\=\=\=\=\=\=\=\=\=\=\=\=
   NPAR = 4
   LWAVE = .FALSE.
   LCHARG = .FALSE.

 POTCAR:    PAW_PBE Cu 22Jun2005                  
 POTCAR:    PAW_PBE H 15Jun2001                   
 -----------------------------------------------------------------------------
|                                                                             |
|           W    W    AA    RRRRR   N    N  II  N    N   GGGG   !!!           |
|           W    W   A  A   R    R  NN   N  II  NN   N  G    G  !!!           |
|           W    W  A    A  R    R  N N  N  II  N N  N  G       !!!           |
|           W WW W  AAAAAA  RRRRR   N  N N  II  N  N N  G  GGG   !            |
|           WW  WW  A    A  R   R   N   NN  II  N   NN  G    G                |
|           W    W  A    A  R    R  N    N  II  N    N   GGGG   !!!           |
|                                                                             |
|     You use a magnetic or noncollinear calculation, but did not specify     |
|     the initial magnetic moment with the MAGMOM tag. Note that a            |
|     default of 1 will be used for all atoms. This ferromagnetic setup       |
|     may break the symmetry of the crystal, in particular it may rule        |
|     out finding an antiferromagnetic solution. Thence, we recommend         |
|     setting the initial magnetic moment manually or verifying carefully     |
|     that this magnetic setup is desired.                                    |
|                                                                             |
 -----------------------------------------------------------------------------

 POTCAR:    PAW_PBE Cu 22Jun2005                  
   SHA256 =  0e71e558f37a4e8407882b4609ceaae59938afaad9ced71dfe8490308a0ab630 Cu/POTCAR             
   COPYR  = (c) Copyright 22Jun2005 Georg Kresse                                                    
   COPYR  = This file is part of the software VASP. Any use, copying, and all other rights are regul
   COPYR  = If you do not have a valid VASP license, you may not use, copy or distribute this file. 
   VRHFIN =Cu: d10 p1                                                                               
   LEXCH  = PE                                                                                      
   EATOM  =  1390.9808 eV,  102.2342 Ry                                                             
                                                                                                    
   TITEL  = PAW_PBE Cu 22Jun2005                                                                    
   LULTRA =        F    use ultrasoft PP ?                                                          
   IUNSCR =        1    unscreen: 0-lin 1-nonlin 2-no                                               
   RPACOR =    2.000    partial core radius                                                         
   POMASS =   63.546; ZVAL   =   11.000    mass and valenz                                          
   RCORE  =    2.300    outmost cutoff radius                                                       
   RWIGS  =    2.200; RWIGS  =    1.164    wigner-seitz radius (au A)                               
   ENMAX  =  295.446; ENMIN  =  221.585 eV                                                          
   ICORE  =        3    local potential                                                             
   LCOR   =        T    correct aug charges                                                         
   LPAW   =        T    paw PP                                                                      
   EAUG   =  586.980                                                                                
   DEXC   =    0.000                                                                                
   RMAX   =    2.344    core radius for proj-oper                                                   
   RAUG   =    1.300    factor for augmentation sphere                                              
   RDEP   =    2.302    radius for radial grids                                                     
   RDEPT  =    1.771    core radius for aug-charge                                                  
                                                                                                    
   Atomic configuration                                                                             
    9 entries                                                                                       
     n  l   j            E        occ.                                                              
     1  0  0.50     -8850.2468   2.0000                                                             
     2  0  0.50     -1062.3498   2.0000                                                             
     2  1  1.50      -916.8226   6.0000                                                             
     3  0  0.50      -114.6929   2.0000                                                             
     3  1  1.50       -72.1325   6.0000                                                             
     3  2  2.50        -5.0394  10.0000                                                             
     4  0  0.50        -4.6097   1.0000                                                             
     4  1  0.50        -4.0817   0.0000                                                             
     4  3  2.50        -1.3606   0.0000                                                             
   Description                                                                                      
     l       E           TYP  RCUT    TYP  RCUT                                                     
     2     -5.0393973     23  2.200                                                                 
     2     10.8846608     23  2.200                                                                 
     0     -4.6097109     23  2.200                                                                 
     0      8.2520465     23  2.200                                                                 
     1     -2.7211652     23  2.200                                                                 
     1     21.7055443     23  2.200                                                                 
     3      2.7211652     23  2.300                                                                 
  local pseudopotential read in
  partial core-charges read in
  partial kinetic energy density read in
  atomic valenz-charges read in
  non local Contribution for L=           2  read in
    real space projection operators read in
  non local Contribution for L=           2  read in
    real space projection operators read in
  non local Contribution for L=           0  read in
    real space projection operators read in
  non local Contribution for L=           0  read in
    real space projection operators read in
  non local Contribution for L=           1  read in
    real space projection operators read in
  non local Contribution for L=           1  read in
    real space projection operators read in
    PAW grid and wavefunctions read in
 
   number of l-projection  operators is LMAX  =           6
   number of lm-projection operators is LMMAX =          18
 
 POTCAR:    PAW_PBE H 15Jun2001                   
   SHA256 =  030f79b5d3ab3cf0e668861823c8fb652ff669f3e15e46930bd03bfd63a607b6 H/POTCAR              
   COPYR  = (c) Copyright 15Jun2001 Georg Kresse                                                    
   COPYR  = This file is part of the software VASP. Any use, copying, and all other rights are regul
   COPYR  = If you do not have a valid VASP license, you may not use, copy or distribute this file. 
   VRHFIN =H: ultrasoft test                                                                        
   LEXCH  = PE                                                                                      
   EATOM  =    12.4884 eV,    0.9179 Ry                                                             
                                                                                                    
   TITEL  = PAW_PBE H 15Jun2001                                                                     
   LULTRA =        F    use ultrasoft PP ?                                                          
   IUNSCR =        0    unscreen: 0-lin 1-nonlin 2-no                                               
   RPACOR =    0.000    partial core radius                                                         
   POMASS =    1.000; ZVAL   =    1.000    mass and valenz                                          
   RCORE  =    1.100    outmost cutoff radius                                                       
   RWIGS  =    0.700; RWIGS  =    0.370    wigner-seitz radius (au A)                               
   ENMAX  =  250.000; ENMIN  =  200.000 eV                                                          
   RCLOC  =    0.701    cutoff for local pot                                                        
   LCOR   =        T    correct aug charges                                                         
   LPAW   =        T    paw PP                                                                      
   EAUG   =  400.000                                                                                
   RMAX   =    1.123    core radius for proj-oper                                                   
   RAUG   =    1.200    factor for augmentation sphere                                              
   RDEP   =    1.112    radius for radial grids                                                     
   RDEPT  =    0.926    core radius for aug-charge                                                  
                                                                                                    
   Atomic configuration                                                                             
    2 entries                                                                                       
     n  l   j            E        occ.                                                              
     1  0  0.50        -6.4927   1.0000                                                             
     2  1  0.50        -3.4015   0.0000                                                             
   Description                                                                                      
     l       E           TYP  RCUT    TYP  RCUT                                                     
     0     -6.4927494     23  1.100                                                                 
     0      6.8029130     23  1.100                                                                 
     1     -4.0817478     23  1.100                                                                 
  local pseudopotential read in
  atomic valenz-charges read in
  non local Contribution for L=           0  read in
    real space projection operators read in
  non local Contribution for L=           0  read in
    real space projection operators read in
  non local Contribution for L=           1  read in
    real space projection operators read in
    PAW grid and wavefunctions read in
 
   number of l-projection  operators is LMAX  =           3
   number of lm-projection operators is LMMAX =           5
 
  PAW_PBE Cu 22Jun2005                  :
 energy of atom  1       EATOM=-1390.9808
 kinetic energy error for atom=    0.0232 (will be added to EATOM!!)
  PAW_PBE H 15Jun2001                   :
 energy of atom  2       EATOM=  -12.4884
 kinetic energy error for atom=    0.0098 (will be added to EATOM!!)
 
 
 POSCAR: FCC Cu
  positions in cartesian coordinates
  No initial velocities read in
 exchange correlation table for  LEXCH =        8
   RHO(1)=    0.500       N(1)  =     2000
   RHO(2)=  100.500       N(2)  =     4000

 VTST: version 4.2, (08/11/21)

 CHAIN: initializing optimizer
 
 OPT: Using VASP Conjugate-Gradient optimizer
 CHAIN: Read ICHAIN            0
 
 POSCAR: FCC Cu
  positions in cartesian coordinates
  No initial velocities read in
 


--------------------------------------------------------------------------------------------------------


 ion  position               nearest neighbor table
   1  0.000  0.000  0.000-   2 2.57   2 2.57   2 2.57
   2  0.333  0.333  0.071-   3 2.51   3 2.51   3 2.51   1 2.57   1 2.57   1 2.57
   3  0.667  0.667  0.139-   2 2.51   2 2.51   2 2.51   4 2.53   4 2.53   4 2.53
   4  0.000  0.000  0.208-   5 2.51   5 2.51   5 2.51   3 2.53   3 2.53   3 2.53
   5  0.333  0.333  0.277-   4 2.51   4 2.51   4 2.51   6 2.53   6 2.53   6 2.53
   6  0.667  0.667  0.346-   7 2.51   7 2.51   7 2.51   5 2.53   5 2.53   5 2.53
   7  0.000  0.000  0.414-   8 2.49   8 2.49   8 2.49   6 2.51   6 2.51   6 2.51
   8  0.333  0.333  0.481-   7 2.49   7 2.49   7 2.49
   9  0.000  1.000  0.534-  10 0.75
  10  0.881  0.237  0.552-   9 0.75
 
  LATTYP: Found a hexagonal cell.
 ALAT       =     2.5667977333
 C/A-ratio  =    11.5593335643
  
  Lattice vectors:
  
 A1 = (  -1.2833988667,  -2.2229120434,   0.0000000000)
 A2 = (   2.5667977333,   0.0000000000,   0.0000000000)
 A3 = (   0.0000000000,   0.0000000000,  29.6704711914)


Analysis of symmetry for initial positions (statically):
=====================================================================
 Subroutine PRICEL returns:
 Original cell was already a primitive cell.
 

 Routine SETGRP: Setting up the symmetry group for a 
 hexagonal supercell.


 Subroutine GETGRP returns: Found  2 space group operations
 (whereof  2 operations were pure point group operations)
 out of a pool of 24 trial point group operations.


The static configuration has the point symmetry C_1h.


Analysis of symmetry for dynamics (positions and initial velocities):
=====================================================================
 Subroutine PRICEL returns:
 Original cell was already a primitive cell.
 

 Routine SETGRP: Setting up the symmetry group for a 
 hexagonal supercell.


 Subroutine GETGRP returns: Found  2 space group operations
 (whereof  2 operations were pure point group operations)
 out of a pool of 24 trial point group operations.


The dynamic configuration has the point symmetry C_1h.


Analysis of structural, dynamic, and magnetic symmetry:
=====================================================================
 Subroutine PRICEL returns:
 Original cell was already a primitive cell.
 

 Routine SETGRP: Setting up the symmetry group for a 
 hexagonal supercell.


 Subroutine GETGRP returns: Found  2 space group operations
 (whereof  2 operations were pure point group operations)
 out of a pool of 24 trial point group operations.


The overall configuration has the point symmetry C_1h.


 Subroutine INISYM returns: Found  2 space group operations
 (whereof  2 operations are pure point group operations),
 and found     1 'primitive' translations


----------------------------------------------------------------------------------------

                                     Primitive cell                                     

  volume of cell :     169.2928

  direct lattice vectors                    reciprocal lattice vectors
     2.566797733  0.000000000  0.000000000     0.389590495 -0.224930177  0.000000000
     1.283398867  2.222912043  0.000000000     0.000000000  0.449860355  0.000000000
     0.000000000  0.000000000 29.670471191     0.000000000  0.000000000  0.033703543

  length of vectors
     2.566797733  2.566797733 29.670471191     0.449860355  0.449860355  0.033703543

  position of ions in fractional coordinates (direct lattice)
     0.000000000  0.000000000  0.000000000
     0.333333333  0.333333333  0.070635264
     0.666666667  0.666666667  0.139085938
     0.000000000  0.000000000  0.208165116
     0.333333333  0.333333333  0.276562395
     0.666666667  0.666666667  0.345560339
     0.000000000  0.000000000  0.414005934
     0.333333333  0.333333333  0.481392695
     0.000000000  1.000000000  0.534259303
     0.881348959  0.237302083  0.552037977

  ion indices of the primitive-cell ions
   primitive index   ion index
                 1           1
                 2           2
                 3           3
                 4           4
                 5           5
                 6           6
                 7           7
                 8           8
                 9           9
                10          10

----------------------------------------------------------------------------------------

 
 
 KPOINTS: Auto-mesh                               

Automatic generation of k-mesh.
 Grid dimensions read from file:
 generate k-points for:    3    3    1

 Generating k-lattice:

  Cartesian coordinates                     Fractional coordinates (reciprocal lattice)
     0.129863498 -0.074976726  0.000000000     0.333333333  0.000000000  0.000000000
     0.000000000  0.149953452  0.000000000     0.000000000  0.333333333  0.000000000
     0.000000000  0.000000000  0.033703543     0.000000000  0.000000000  1.000000000

  Length of vectors
     0.149953452  0.149953452  0.033703543

  Shift w.r.t. Gamma in fractional coordinates (k-lattice)
     0.000000000  0.000000000  0.000000000

 
 Subroutine IBZKPT returns following result:
 ===========================================
 
 Found      4 irreducible k-points:
 
 Following reciprocal coordinates:
            Coordinates               Weight
  0.000000  0.000000  0.000000      1.000000
  0.333333  0.000000  0.000000      4.000000
  0.000000  0.333333  0.000000      2.000000
 -0.333333  0.333333  0.000000      2.000000
 
 Following cartesian coordinates:
            Coordinates               Weight
  0.000000  0.000000  0.000000      1.000000
  0.129863 -0.074977  0.000000      4.000000
  0.000000  0.149953  0.000000      2.000000
 -0.129863  0.224930  0.000000      2.000000
 


--------------------------------------------------------------------------------------------------------




 Dimension of arrays:
   k-points           NKPTS =      4   k-points in BZ     NKDIM =      4   number of bands    NBANDS=     60
   number of dos      NEDOS =    301   number of ions     NIONS =     10
   non local maximal  LDIM  =      6   non local SUM 2l+1 LMDIM =     18
   total plane-waves  NPLWV =  29400
   max r-space proj   IRMAX =      1   max aug-charges    IRDMAX=   5229
   dimension x,y,z NGX =    14 NGY =   14 NGZ =  150
   dimension x,y,z NGXF=    28 NGYF=   28 NGZF=  300
   support grid    NGXF=    28 NGYF=   28 NGZF=  300
   ions per type =               8   2
   NGX,Y,Z   is equivalent  to a cutoff of   9.07,  9.07,  8.40 a.u.
   NGXF,Y,Z  is equivalent  to a cutoff of  18.13, 18.13, 16.81 a.u.

 SYSTEM =  unknown system                          
 POSCAR =  FCC Cu                                  

 Startparameter for this run:
   NWRITE =      2    write-flag & timer
   PREC   = normal    normal or accurate (medium, high low for compatibility)
   ISTART =      0    job   : 0-new  1-cont  2-samecut
   ICHARG =      2    charge: 1-file 2-atom 10-const
   ISPIN  =      2    spin polarized calculation?
   LNONCOLLINEAR =      F non collinear calculations
   LSORBIT =      F    spin-orbit coupling
   INIWAV =      1    electr: 0-lowe 1-rand  2-diag
   LASPH  =      F    aspherical Exc in radial PAW
 Electronic Relaxation 1
   ENCUT  =  400.0 eV  29.40 Ry    5.42 a.u.   4.19  4.19 48.39*2*pi/ulx,y,z
   ENINI  =  400.0     initial cutoff
   ENAUG  =  587.0 eV  augmentation charge cutoff
   NELM   =     60;   NELMIN=  2; NELMDL= -5     # of ELM steps 
   EDIFF  = 0.2E-03   stopping-criterion for ELM
   LREAL  =      F    real-space projection
   NLSPLINE    = F    spline interpolate recip. space projectors
   LCOMPAT=      F    compatible to vasp.4.4
   GGA_COMPAT  = T    GGA compatible to vasp.4.4-vasp.4.6
   LMAXPAW     = -100 max onsite density
   LMAXMIX     =    2 max onsite mixed and CHGCAR
   VOSKOWN=      0    Vosko Wilk Nusair interpolation
   ROPT   =    0.00000   0.00000
 Ionic relaxation
   EDIFFG = -.3E-01   stopping-criterion for IOM
   NSW    =    800    number of steps for IOM
   NBLOCK =      1;   KBLOCK =    800    inner block; outer block 
   IBRION =      2    ionic relax: 0-MD 1-quasi-New 2-CG
   NFREE  =      1    steps in history (QN), initial steepest desc. (CG)
   ISIF   =      2    stress and relaxation
   IWAVPR =     11    prediction:  0-non 1-charg 2-wave 3-comb
   ISYM   =      1    0-nonsym 1-usesym 2-fastsym
   LCORR  =      T    Harris-Foulkes like correction to forces

   POTIM  = 0.5000    time-step for ionic-motion
   TEIN   =    0.0    initial temperature
   TEBEG  =    0.0;   TEEND  =   0.0 temperature during run
   SMASS  =  -3.00    Nose mass-parameter (am)
   estimated Nose-frequenzy (Omega)   =  0.10E-29 period in steps = 0.13E+47 mass=  -0.151E-27a.u.
   SCALEE = 1.0000    scale energy and forces
   NPACO  =    256;   APACO  = 10.0  distance and # of slots for P.C.
   PSTRESS=    0.0 pullay stress

  Mass of Ions in am
   POMASS =  63.55  1.00
  Ionic Valenz
   ZVAL   =  11.00  1.00
  Atomic Wigner-Seitz radii
   RWIGS  =  -1.00 -1.00
  virtual crystal weights 
   VCA    =   1.00  1.00
   NELECT =      90.0000    total number of electrons
   NUPDOWN=      -1.0000    fix difference up-down

 DOS related values:
   EMIN   =  10.00;   EMAX   =-10.00  energy-range for DOS
   EFERMI =   0.00
   ISMEAR =     1;   SIGMA  =   0.20  broadening in eV -4-tet -1-fermi 0-gaus

 Electronic relaxation 2 (details)
   IALGO  =     38    algorithm
   LDIAG  =      T    sub-space diagonalisation (order eigenvalues)
   LSUBROT=      F    optimize rotation matrix (better conditioning)
   TURBO    =      0    0=normal 1=particle mesh
   IRESTART =      0    0=no restart 2=restart with 2 vectors
   NREBOOT  =      0    no. of reboots
   NMIN     =      0    reboot dimension
   EREF     =   0.00    reference energy to select bands
   IMIX   =      4    mixing-type and parameters
     AMIX     =   0.40;   BMIX     =  1.00
     AMIX_MAG =   1.60;   BMIX_MAG =  1.00
     AMIN     =   0.10
     WC   =   100.;   INIMIX=   1;  MIXPRE=   1;  MAXMIX= -45

 Intra band minimization:
   WEIMIN = 0.0010     energy-eigenvalue tresh-hold
   EBREAK =  0.83E-06  absolut break condition
   DEPER  =   0.30     relativ break condition  

   TIME   =   0.40     timestep for ELM

  volume/ion in A,a.u.               =      16.93       114.24
  Fermi-wavevector in a.u.,A,eV,Ry     =   1.326202  2.506158 23.930072  1.758811
  Thomas-Fermi vector in A             =   2.455606
 
 Write flags
   LWAVE        =      F    write WAVECAR
   LDOWNSAMPLE  =      F    k-point downsampling of WAVECAR
   LCHARG       =      F    write CHGCAR
   LVTOT        =      F    write LOCPOT, total local potential
   LVHAR        =      F    write LOCPOT, Hartree potential only
   LELF         =      F    write electronic localiz. function (ELF)
   LORBIT       =      0    0 simple, 1 ext, 2 COOP (PROOUT), +10 PAW based schemes


 Dipole corrections
   LMONO  =      F    monopole corrections only (constant potential shift)
   LDIPOL =      F    correct potential (dipole corrections)
   IDIPOL =      0    1-x, 2-y, 3-z, 4-all directions 
   EPSILON=  1.0000000 bulk dielectric constant

 Exchange correlation treatment:
   GGA     =    PE    GGA type
   LEXCH   =     8    internal setting for exchange type
   LIBXC   =     F    Libxc                    
   VOSKOWN =     0    Vosko Wilk Nusair interpolation
   LHFCALC =     F    Hartree Fock is set to
   LHFONE  =     F    Hartree Fock one center treatment
   AEXX    =    0.0000 exact exchange contribution

 Linear response parameters
   LEPSILON=     F    determine dielectric tensor
   LRPA    =     F    only Hartree local field effects (RPA)
   LNABLA  =     F    use nabla operator in PAW spheres
   LVEL    =     F    velocity operator in full k-point grid
   CSHIFT  =0.1000    complex shift for real part using Kramers Kronig
   OMEGAMAX=  -1.0    maximum frequency
   DEG_THRESHOLD= 0.2000000E-02 threshold for treating states as degnerate
   RTIME   =   -0.100 relaxation time in fs
  (WPLASMAI=    0.000 imaginary part of plasma frequency in eV, 0.658/RTIME)
   DFIELD  = 0.0000000 0.0000000 0.0000000 field for delta impulse in time
 
  Optional k-point grid parameters
   LKPOINTS_OPT  =     F    use optional k-point grid
   KPOINTS_OPT_MODE=     1    mode for optional k-point grid
 
 Orbital magnetization related:
   ORBITALMAG=     F  switch on orbital magnetization
   LCHIMAG   =     F  perturbation theory with respect to B field
   DQ        =  0.001000  dq finite difference perturbation B field
   LLRAUG    =     F  two centre corrections for induced B field



--------------------------------------------------------------------------------------------------------


 conjugate gradient relaxation of ions
 charge density and potential will be updated during run
 spin polarized calculation
 Variant of blocked Davidson
 Davidson routine will perform the subspace rotation
 perform sub-space diagonalisation
    after iterative eigenvector-optimisation
 modified Broyden-mixing scheme, WC =      100.0
 initial mixing is a Kerker type mixing with AMIX =  0.4000 and BMIX =      1.0000
 Hartree-type preconditioning will be used
 using additional bands           15
 reciprocal scheme for non local part
 use partial core corrections
 calculate Harris-corrections to forces 
   (improved forces if not selfconsistent)
 use gradient corrections 
 use of overlap-Matrix (Vanderbilt PP)
 Methfessel and Paxton  Order N= 1 SIGMA  =   0.20


--------------------------------------------------------------------------------------------------------


  energy-cutoff  :      400.00
  volume of cell :      169.29
      direct lattice vectors                 reciprocal lattice vectors
     2.566797733  0.000000000  0.000000000     0.389590495 -0.224930177  0.000000000
     1.283398867  2.222912043  0.000000000     0.000000000  0.449860355  0.000000000
     0.000000000  0.000000000 29.670471191     0.000000000  0.000000000  0.033703543

  length of vectors
     2.566797733  2.566797733 29.670471191     0.449860355  0.449860355  0.033703543


 
 k-points in units of 2pi/SCALE and weight: Auto-mesh                               
   0.00000000  0.00000000  0.00000000       0.111
   0.12986350 -0.07497673  0.00000000       0.444
   0.00000000  0.14995345  0.00000000       0.222
  -0.12986350  0.22493018  0.00000000       0.222
 
 k-points in reciprocal lattice and weights: Auto-mesh                               
   0.00000000  0.00000000  0.00000000       0.111
   0.33333333  0.00000000  0.00000000       0.444
   0.00000000  0.33333333  0.00000000       0.222
  -0.33333333  0.33333333  0.00000000       0.222
 
 position of ions in fractional coordinates (direct lattice) 
   0.00000000  0.00000000  0.00000000
   0.33333333  0.33333333  0.07063526
   0.66666667  0.66666667  0.13908594
   0.00000000  0.00000000  0.20816512
   0.33333333  0.33333333  0.27656240
   0.66666667  0.66666667  0.34556034
   0.00000000  0.00000000  0.41400593
   0.33333333  0.33333333  0.48139269
   0.00000000  1.00000000  0.53425930
   0.88134896  0.23730208  0.55203798
 
 position of ions in cartesian coordinates  (Angst):
   0.00000000  0.00000000  0.00000000
   1.28339887  0.74097068  2.09578157
   2.56679773  1.48194136  4.12674532
   0.00000000  0.00000000  6.17635708
   1.28339887  0.74097068  8.20573658
   2.56679773  1.48194136 10.25293808
   0.00000000  0.00000000 12.28375114
   1.28339887  0.74097068 14.28314809
   1.28339887  2.22291204 15.85172525
   2.56679773  0.52750166 16.37922691
 


--------------------------------------------------------------------------------------------------------


 k-point   1 :   0.0000 0.0000 0.0000  plane waves:    3091
 k-point   2 :   0.3333 0.0000 0.0000  plane waves:    3081
 k-point   3 :   0.0000 0.3333 0.0000  plane waves:    3081
 k-point   4 :  -0.3333 0.3333 0.0000  plane waves:    3096

 maximum and minimum number of plane-waves per node :       634      594

 maximum number of plane-waves:      3096
 maximum index in each direction: 
   IXMAX=    4   IYMAX=    4   IZMAX=   48
   IXMIN=   -4   IYMIN=   -4   IZMIN=  -48


 parallel 3D FFT for wavefunctions:
    minimum data exchange during FFTs selected (reduces bandwidth)
 parallel 3D FFT for charge:
    minimum data exchange during FFTs selected (reduces bandwidth)


 total amount of memory used by VASP MPI-rank0    34706. kBytes
=======================================================================

   base      :      30000. kBytes
   nonl-proj :        813. kBytes
   fftplans  :        716. kBytes
   grid      :       1856. kBytes
   one-center:         62. kBytes
   wavefun   :       1259. kBytes
 
     INWAV:  cpu time      0.0000: real time      0.0003
 Broyden mixing: mesh for mixing (old mesh)
   NGX =  9   NGY =  9   NGZ = 97
  (NGX  = 28   NGY  = 28   NGZ  =300)
  gives a total of   7857 points

 initial charge density was supplied:
 charge density of overlapping atoms calculated
 number of electron      90.0000000 magnetization      10.0000000
 keeping initial charge density in first step


--------------------------------------------------------------------------------------------------------


 Maximum index for augmentation-charges          479 (set IRDMAX)


--------------------------------------------------------------------------------------------------------


 First call to EWALD:  gamma=   0.320
 Maximum number of real-space cells 6x 6x 1
 Maximum number of reciprocal cells 2x 2x13

    FEWALD:  cpu time      0.0019: real time      0.0019


--------------------------------------- Iteration      1(   1)  ---------------------------------------


    POTLOK:  cpu time      0.0224: real time      0.0226
    SETDIJ:  cpu time      0.0068: real time      0.0069
     EDDAV:  cpu time      0.2849: real time      0.2872
       DOS:  cpu time      0.0016: real time      0.0016
    --------------------------------------------
      LOOP:  cpu time      0.3156: real time      0.3183

 eigenvalue-minimisations  :   960
 total energy-change (2. order) : 0.7965934E+03  (-0.3349415E+04)
 number of electron      90.0000000 magnetization      10.0000000
 augmentation part       90.0000000 magnetization      10.0000000

 Free energy of the ion-electron system (eV)
  ---------------------------------------------------
  alpha Z        PSCENC =       285.34744303
  Ewald energy   TEWEN  =     52356.72263722
  -Hartree energ DENC   =    -63409.59953241
  -exchange      EXHF   =         0.00000000
  -V(xc)+E(xc)   XCENC  =       372.59763947
  PAW double counting   =      9828.36862813   -10674.97285505
  entropy T*S    EENTRO =        -0.01472576
  eigenvalues    EBANDS =       885.52575924
  atomic energy  EATOM  =     11152.61838693
  Solvation  Ediel_sol  =         0.00000000
  ---------------------------------------------------
  free energy    TOTEN  =       796.59338080 eV

  energy without entropy =      796.60810656  energy(sigma->0) =      796.59828939


--------------------------------------------------------------------------------------------------------




--------------------------------------- Iteration      1(   2)  ---------------------------------------


     EDDAV:  cpu time      0.2740: real time      0.2770
       DOS:  cpu time      0.0008: real time      0.0009
    --------------------------------------------
      LOOP:  cpu time      0.2748: real time      0.2779

 eigenvalue-minimisations  :   960
 total energy-change (2. order) :-0.7234243E+03  (-0.6921100E+03)
 number of electron      90.0000000 magnetization      10.0000000
 augmentation part       90.0000000 magnetization      10.0000000

 Free energy of the ion-electron system (eV)
  ---------------------------------------------------
  alpha Z        PSCENC =       285.34744303
  Ewald energy   TEWEN  =     52356.72263722
  -Hartree energ DENC   =    -63409.59953241
  -exchange      EXHF   =         0.00000000
  -V(xc)+E(xc)   XCENC  =       372.59763947
  PAW double counting   =      9828.36862813   -10674.97285505
  entropy T*S    EENTRO =         0.00952605
  eigenvalues    EBANDS =       162.07725122
  atomic energy  EATOM  =     11152.61838693
  Solvation  Ediel_sol  =         0.00000000
  ---------------------------------------------------
  free energy    TOTEN  =        73.16912459 eV

  energy without entropy =       73.15959854  energy(sigma->0) =       73.16594924


--------------------------------------------------------------------------------------------------------




--------------------------------------- Iteration      1(   3)  ---------------------------------------


     EDDAV:  cpu time      0.2789: real time      0.2827
       DOS:  cpu time      0.0008: real time      0.0081
    --------------------------------------------
      LOOP:  cpu time      0.2797: real time      0.2908

 eigenvalue-minimisations  :   988
 total energy-change (2. order) :-0.1059658E+03  (-0.9930115E+02)
 number of electron      90.0000000 magnetization      10.0000000
 augmentation part       90.0000000 magnetization      10.0000000

 Free energy of the ion-electron system (eV)
  ---------------------------------------------------
  alpha Z        PSCENC =       285.34744303
  Ewald energy   TEWEN  =     52356.72263722
  -Hartree energ DENC   =    -63409.59953241
  -exchange      EXHF   =         0.00000000
  -V(xc)+E(xc)   XCENC  =       372.59763947
  PAW double counting   =      9828.36862813   -10674.97285505
  entropy T*S    EENTRO =         0.02055285
  eigenvalues    EBANDS =        56.10047281
  atomic energy  EATOM  =     11152.61838693
  Solvation  Ediel_sol  =         0.00000000
  ---------------------------------------------------
  free energy    TOTEN  =       -32.79662702 eV

  energy without entropy =      -32.81717987  energy(sigma->0) =      -32.80347797


--------------------------------------------------------------------------------------------------------




--------------------------------------- Iteration      1(   4)  ---------------------------------------


     EDDAV:  cpu time      0.2971: real time      0.2997
       DOS:  cpu time      0.0009: real time      0.0009
    --------------------------------------------
      LOOP:  cpu time      0.2980: real time      0.3006

 eigenvalue-minimisations  :  1072
 total energy-change (2. order) :-0.4475079E+01  (-0.4435099E+01)
 number of electron      90.0000000 magnetization      10.0000000
 augmentation part       90.0000000 magnetization      10.0000000

 Free energy of the ion-electron system (eV)
  ---------------------------------------------------
  alpha Z        PSCENC =       285.34744303
  Ewald energy   TEWEN  =     52356.72263722
  -Hartree energ DENC   =    -63409.59953241
  -exchange      EXHF   =         0.00000000
  -V(xc)+E(xc)   XCENC  =       372.59763947
  PAW double counting   =      9828.36862813   -10674.97285505
  entropy T*S    EENTRO =         0.02942443
  eigenvalues    EBANDS =        51.61652200
  atomic energy  EATOM  =     11152.61838693
  Solvation  Ediel_sol  =         0.00000000
  ---------------------------------------------------
  free energy    TOTEN  =       -37.27170625 eV

  energy without entropy =      -37.30113067  energy(sigma->0) =      -37.28151439


--------------------------------------------------------------------------------------------------------




--------------------------------------- Iteration      1(   5)  ---------------------------------------


     EDDAV:  cpu time      0.3182: real time      0.3209
       DOS:  cpu time      0.0009: real time      0.0009
    CHARGE:  cpu time      0.0582: real time      0.0585
    MIXING:  cpu time      0.0015: real time      0.0015
    --------------------------------------------
      LOOP:  cpu time      0.3788: real time      0.3818

 eigenvalue-minimisations  :  1120
 total energy-change (2. order) :-0.9973957E-01  (-0.9969071E-01)
 number of electron      89.9999969 magnetization       9.3954353
 augmentation part       52.1828644 magnetization       9.0262501

 Broyden mixing:
  rms(total) = 0.27589E+01    rms(broyden)= 0.27589E+01
  rms(prec ) = 0.28262E+01
  weight for this iteration     100.00

 Free energy of the ion-electron system (eV)
  ---------------------------------------------------
  alpha Z        PSCENC =       285.34744303
  Ewald energy   TEWEN  =     52356.72263722
  -Hartree energ DENC   =    -63409.59953241
  -exchange      EXHF   =         0.00000000
  -V(xc)+E(xc)   XCENC  =       372.59763947
  PAW double counting   =      9828.36862813   -10674.97285505
  entropy T*S    EENTRO =         0.02989894
  eigenvalues    EBANDS =        51.51630792
  atomic energy  EATOM  =     11152.61838693
  Solvation  Ediel_sol  =         0.00000000
  ---------------------------------------------------
  free energy    TOTEN  =       -37.37144582 eV

  energy without entropy =      -37.40134476  energy(sigma->0) =      -37.38141213


--------------------------------------------------------------------------------------------------------




--------------------------------------- Iteration      1(   6)  ---------------------------------------


    POTLOK:  cpu time      0.0207: real time      0.0209
    SETDIJ:  cpu time      0.0068: real time      0.0069
     EDDAV:  cpu time      0.3443: real time      0.3473
       DOS:  cpu time      0.0013: real time      0.0013
    CHARGE:  cpu time      0.0559: real time      0.0561
    MIXING:  cpu time      0.0009: real time      0.0009
    --------------------------------------------
      LOOP:  cpu time      0.4299: real time      0.4335

 eigenvalue-minimisations  :  1304
 total energy-change (2. order) : 0.2454022E+01  (-0.1094455E+02)
 number of electron      89.9999986 magnetization       9.1557288
 augmentation part       56.6514087 magnetization       6.8831756

 Broyden mixing:
  rms(total) = 0.20468E+01    rms(broyden)= 0.20465E+01
  rms(prec ) = 0.30592E+01
  weight for this iteration     100.00

 eigenvalues of (default mixing * dielectric matrix)
  average eigenvalue GAMMA=   0.7095
  0.7095

 Free energy of the ion-electron system (eV)
  ---------------------------------------------------
  alpha Z        PSCENC =       285.34744303
  Ewald energy   TEWEN  =     52356.72263722
  -Hartree energ DENC   =    -63224.26588195
  -exchange      EXHF   =         0.00000000
  -V(xc)+E(xc)   XCENC  =       365.17225060
  PAW double counting   =     10014.01788436   -10818.77190167
  entropy T*S    EENTRO =        -0.03431990
  eigenvalues    EBANDS =      -165.72392216
  atomic energy  EATOM  =     11152.61838693
  Solvation  Ediel_sol  =         0.00000000
  ---------------------------------------------------
  free energy    TOTEN  =       -34.91742354 eV

  energy without entropy =      -34.88310364  energy(sigma->0) =      -34.90598358


--------------------------------------------------------------------------------------------------------




--------------------------------------- Iteration      1(   7)  ---------------------------------------


    POTLOK:  cpu time      0.0191: real time      0.0194
    SETDIJ:  cpu time      0.0059: real time      0.0059
     EDDAV:  cpu time      0.3791: real time      0.3821
       DOS:  cpu time      0.0009: real time      0.0009
    CHARGE:  cpu time      0.0554: real time      0.0557
    MIXING:  cpu time      0.0009: real time      0.0009
    --------------------------------------------
      LOOP:  cpu time      0.4613: real time      0.4649

 eigenvalue-minimisations  :  1456
 total energy-change (2. order) :-0.6021601E+02  (-0.2884784E+02)
 number of electron      89.9999964 magnetization       9.0086344
 augmentation part       50.6781164 magnetization       5.8286492

 Broyden mixing:
  rms(total) = 0.63147E+01    rms(broyden)= 0.63145E+01
  rms(prec ) = 0.11476E+02
  weight for this iteration     100.00

 eigenvalues of (default mixing * dielectric matrix)
  average eigenvalue GAMMA=   0.4185
  0.7605  0.0766

 Free energy of the ion-electron system (eV)
  ---------------------------------------------------
  alpha Z        PSCENC =       285.34744303
  Ewald energy   TEWEN  =     52356.72263722
  -Hartree energ DENC   =    -63315.87236545
  -exchange      EXHF   =         0.00000000
  -V(xc)+E(xc)   XCENC  =       365.67942480
  PAW double counting   =     10115.28411019   -10936.84202046
  entropy T*S    EENTRO =         0.02140673
  eigenvalues    EBANDS =      -118.09245416
  atomic energy  EATOM  =     11152.61838693
  Solvation  Ediel_sol  =         0.00000000
  ---------------------------------------------------
  free energy    TOTEN  =       -95.13343117 eV

  energy without entropy =      -95.15483790  energy(sigma->0) =      -95.14056675


--------------------------------------------------------------------------------------------------------




--------------------------------------- Iteration      1(   8)  ---------------------------------------


    POTLOK:  cpu time      0.0194: real time      0.0204
    SETDIJ:  cpu time      0.0059: real time      0.0060
     EDDAV:  cpu time      0.4151: real time      0.4187
       DOS:  cpu time      0.0009: real time      0.0009
    CHARGE:  cpu time      0.0528: real time      0.0530
    MIXING:  cpu time      0.0008: real time      0.0008
    --------------------------------------------
      LOOP:  cpu time      0.4948: real time      0.4997

 eigenvalue-minimisations  :  1632
 total energy-change (2. order) : 0.5425613E+02  (-0.2223580E+02)
 number of electron      89.9999974 magnetization       8.8302620
 augmentation part       56.0108428 magnetization       6.5175203

 Broyden mixing:
  rms(total) = 0.22969E+01    rms(broyden)= 0.22964E+01
  rms(prec ) = 0.29246E+01
  weight for this iteration     100.00

 eigenvalues of (default mixing * dielectric matrix)
  average eigenvalue GAMMA=   0.3938
  0.8160  0.2863  0.0789

 Free energy of the ion-electron system (eV)
  ---------------------------------------------------
  alpha Z        PSCENC =       285.34744303
  Ewald energy   TEWEN  =     52356.72263722
  -Hartree energ DENC   =    -63299.61650923
  -exchange      EXHF   =         0.00000000
  -V(xc)+E(xc)   XCENC  =       365.13115164
  PAW double counting   =     10136.00429838   -10963.48594602
  entropy T*S    EENTRO =        -0.05820373
  eigenvalues    EBANDS =       -73.54056421
  atomic energy  EATOM  =     11152.61838693
  Solvation  Ediel_sol  =         0.00000000
  ---------------------------------------------------
  free energy    TOTEN  =       -40.87730600 eV

  energy without entropy =      -40.81910227  energy(sigma->0) =      -40.85790475


--------------------------------------------------------------------------------------------------------




--------------------------------------- Iteration      1(   9)  ---------------------------------------


    POTLOK:  cpu time      0.0190: real time      0.0193
    SETDIJ:  cpu time      0.0058: real time      0.0058
     EDDAV:  cpu time      0.4060: real time      0.4092
       DOS:  cpu time      0.0009: real time      0.0009
    CHARGE:  cpu time      0.0548: real time      0.0551
    MIXING:  cpu time      0.0009: real time      0.0009
    --------------------------------------------
      LOOP:  cpu time      0.4875: real time      0.4912

 eigenvalue-minimisations  :  1584
 total energy-change (2. order) : 0.6690371E+01  (-0.5982060E+01)
 number of electron      89.9999956 magnetization       8.6980777
 augmentation part       57.2276857 magnetization       7.4211006

 Broyden mixing:
  rms(total) = 0.17217E+01    rms(broyden)= 0.17214E+01
  rms(prec ) = 0.19169E+01
  weight for this iteration     100.00

 eigenvalues of (default mixing * dielectric matrix)
  average eigenvalue GAMMA=   0.3545
  0.8430  0.0818  0.2466  0.2466

 Free energy of the ion-electron system (eV)
  ---------------------------------------------------
  alpha Z        PSCENC =       285.34744303
  Ewald energy   TEWEN  =     52356.72263722
  -Hartree energ DENC   =    -63159.62749387
  -exchange      EXHF   =         0.00000000
  -V(xc)+E(xc)   XCENC  =       364.93372820
  PAW double counting   =     10189.75633824   -11026.41661095
  entropy T*S    EENTRO =        -0.02358379
  eigenvalues    EBANDS =      -197.49778001
  atomic energy  EATOM  =     11152.61838693
  Solvation  Ediel_sol  =         0.00000000
  ---------------------------------------------------
  free energy    TOTEN  =       -34.18693501 eV

  energy without entropy =      -34.16335122  energy(sigma->0) =      -34.17907374


--------------------------------------------------------------------------------------------------------




--------------------------------------- Iteration      1(  10)  ---------------------------------------


    POTLOK:  cpu time      0.0190: real time      0.0194
    SETDIJ:  cpu time      0.0060: real time      0.0060
     EDDAV:  cpu time      0.3680: real time      0.3709
       DOS:  cpu time      0.0008: real time      0.0008
    CHARGE:  cpu time      0.0541: real time      0.0546
    MIXING:  cpu time      0.0011: real time      0.0011
    --------------------------------------------
      LOOP:  cpu time      0.4490: real time      0.4528

 eigenvalue-minimisations  :  1380
 total energy-change (2. order) : 0.2551931E+01  (-0.1776394E+01)
 number of electron      89.9999964 magnetization       8.6027164
 augmentation part       57.4207765 magnetization       7.3784602

 Broyden mixing:
  rms(total) = 0.12113E+01    rms(broyden)= 0.12112E+01
  rms(prec ) = 0.12538E+01
  weight for this iteration     100.00

 eigenvalues of (default mixing * dielectric matrix)
  average eigenvalue GAMMA=   0.3512
  0.8722  0.2910  0.2910  0.0810  0.2209

 Free energy of the ion-electron system (eV)
  ---------------------------------------------------
  alpha Z        PSCENC =       285.34744303
  Ewald energy   TEWEN  =     52356.72263722
  -Hartree energ DENC   =    -63196.03181020
  -exchange      EXHF   =         0.00000000
  -V(xc)+E(xc)   XCENC  =       365.69262848
  PAW double counting   =     10237.89114006   -11081.10293653
  entropy T*S    EENTRO =        -0.01319529
  eigenvalues    EBANDS =      -152.75929773
  atomic energy  EATOM  =     11152.61838693
  Solvation  Ediel_sol  =         0.00000000
  ---------------------------------------------------
  free energy    TOTEN  =       -31.63500403 eV

  energy without entropy =      -31.62180874  energy(sigma->0) =      -31.63060560


--------------------------------------------------------------------------------------------------------




--------------------------------------- Iteration      1(  11)  ---------------------------------------


    POTLOK:  cpu time      0.0203: real time      0.0206
    SETDIJ:  cpu time      0.0061: real time      0.0061
     EDDAV:  cpu time      0.3467: real time      0.3494
       DOS:  cpu time      0.0009: real time      0.0009
    CHARGE:  cpu time      0.0540: real time      0.0542
    MIXING:  cpu time      0.0011: real time      0.0011
    --------------------------------------------
      LOOP:  cpu time      0.4290: real time      0.4322

 eigenvalue-minimisations  :  1328
 total energy-change (2. order) : 0.4849763E+00  (-0.1836143E+00)
 number of electron      89.9999966 magnetization       8.1808048
 augmentation part       57.0764930 magnetization       6.8081861

 Broyden mixing:
  rms(total) = 0.10397E+01    rms(broyden)= 0.10397E+01
  rms(prec ) = 0.10938E+01
  weight for this iteration     100.00

 eigenvalues of (default mixing * dielectric matrix)
  average eigenvalue GAMMA=   0.4625
  0.9404  0.6144  0.6144  0.0814  0.2900  0.2343

 Free energy of the ion-electron system (eV)
  ---------------------------------------------------
  alpha Z        PSCENC =       285.34744303
  Ewald energy   TEWEN  =     52356.72263722
  -Hartree energ DENC   =    -63219.69719727
  -exchange      EXHF   =         0.00000000
  -V(xc)+E(xc)   XCENC  =       366.15768439
  PAW double counting   =     10269.21722537   -11116.26393079
  entropy T*S    EENTRO =        -0.00804962
  eigenvalues    EBANDS =      -125.24422694
  atomic energy  EATOM  =     11152.61838693
  Solvation  Ediel_sol  =         0.00000000
  ---------------------------------------------------
  free energy    TOTEN  =       -31.15002768 eV

  energy without entropy =      -31.14197807  energy(sigma->0) =      -31.14734448


--------------------------------------------------------------------------------------------------------




--------------------------------------- Iteration      1(  12)  ---------------------------------------


    POTLOK:  cpu time      0.0190: real time      0.0193
    SETDIJ:  cpu time      0.0058: real time      0.0059
     EDDAV:  cpu time      0.3169: real time      0.3195
       DOS:  cpu time      0.0009: real time      0.0009
    CHARGE:  cpu time      0.0539: real time      0.0541
    MIXING:  cpu time      0.0012: real time      0.0012
    --------------------------------------------
      LOOP:  cpu time      0.3977: real time      0.4009

 eigenvalue-minimisations  :  1184
 total energy-change (2. order) : 0.7522246E+00  (-0.1483456E+00)
 number of electron      89.9999967 magnetization       7.2360039
 augmentation part       56.5329652 magnetization       5.7630135

 Broyden mixing:
  rms(total) = 0.83051E+00    rms(broyden)= 0.83050E+00
  rms(prec ) = 0.88510E+00
  weight for this iteration     100.00

 eigenvalues of (default mixing * dielectric matrix)
  average eigenvalue GAMMA=   0.5548
  1.3015  0.7117  0.7117  0.0814  0.4264  0.4264  0.2245

 Free energy of the ion-electron system (eV)
  ---------------------------------------------------
  alpha Z        PSCENC =       285.34744303
  Ewald energy   TEWEN  =     52356.72263722
  -Hartree energ DENC   =    -63257.98377490
  -exchange      EXHF   =         0.00000000
  -V(xc)+E(xc)   XCENC  =       367.07791439
  PAW double counting   =     10354.88693876   -11209.70326783
  entropy T*S    EENTRO =        -0.00942042
  eigenvalues    EBANDS =       -79.35466027
  atomic energy  EATOM  =     11152.61838693
  Solvation  Ediel_sol  =         0.00000000
  ---------------------------------------------------
  free energy    TOTEN  =       -30.39780309 eV

  energy without entropy =      -30.38838267  energy(sigma->0) =      -30.39466295


--------------------------------------------------------------------------------------------------------




--------------------------------------- Iteration      1(  13)  ---------------------------------------


    POTLOK:  cpu time      0.0189: real time      0.0192
    SETDIJ:  cpu time      0.0058: real time      0.0058
     EDDAV:  cpu time      0.3618: real time      0.3650
       DOS:  cpu time      0.0009: real time      0.0009
    CHARGE:  cpu time      0.0523: real time      0.0525
    MIXING:  cpu time      0.0013: real time      0.0013
    --------------------------------------------
      LOOP:  cpu time      0.4409: real time      0.4446

 eigenvalue-minimisations  :  1388
 total energy-change (2. order) : 0.2046412E+00  (-0.1480942E+00)
 number of electron      89.9999972 magnetization       5.9485116
 augmentation part       56.1534832 magnetization       4.4410299

 Broyden mixing:
  rms(total) = 0.64940E+00    rms(broyden)= 0.64938E+00
  rms(prec ) = 0.72113E+00
  weight for this iteration     100.00

 eigenvalues of (default mixing * dielectric matrix)
  average eigenvalue GAMMA=   0.6660
  1.5407  1.1442  0.7621  0.7621  0.0814  0.4430  0.3684  0.2258

 Free energy of the ion-electron system (eV)
  ---------------------------------------------------
  alpha Z        PSCENC =       285.34744303
  Ewald energy   TEWEN  =     52356.72263722
  -Hartree energ DENC   =    -63291.79447461
  -exchange      EXHF   =         0.00000000
  -V(xc)+E(xc)   XCENC  =       367.65248652
  PAW double counting   =     10508.33225825   -11371.79907996
  entropy T*S    EENTRO =        -0.01085762
  eigenvalues    EBANDS =       -37.26196162
  atomic energy  EATOM  =     11152.61838693
  Solvation  Ediel_sol  =         0.00000000
  ---------------------------------------------------
  free energy    TOTEN  =       -30.19316186 eV

  energy without entropy =      -30.18230424  energy(sigma->0) =      -30.18954265


--------------------------------------------------------------------------------------------------------




--------------------------------------- Iteration      1(  14)  ---------------------------------------


    POTLOK:  cpu time      0.0191: real time      0.0194
    SETDIJ:  cpu time      0.0059: real time      0.0059
     EDDAV:  cpu time      0.3950: real time      0.3982
       DOS:  cpu time      0.0009: real time      0.0009
    CHARGE:  cpu time      0.0525: real time      0.0527
    MIXING:  cpu time      0.0012: real time      0.0012
    --------------------------------------------
      LOOP:  cpu time      0.4746: real time      0.4783

 eigenvalue-minimisations  :  1544
 total energy-change (2. order) :-0.1659921E+01  (-0.1591824E+00)
 number of electron      89.9999969 magnetization       4.3610912
 augmentation part       56.2213968 magnetization       3.0465953

 Broyden mixing:
  rms(total) = 0.49886E+00    rms(broyden)= 0.49885E+00
  rms(prec ) = 0.54314E+00
  weight for this iteration     100.00

 eigenvalues of (default mixing * dielectric matrix)
  average eigenvalue GAMMA=   0.8489
  3.1129  1.1603  0.7874  0.7874  0.6788  0.0814  0.4300  0.3764  0.2256

 Free energy of the ion-electron system (eV)
  ---------------------------------------------------
  alpha Z        PSCENC =       285.34744303
  Ewald energy   TEWEN  =     52356.72263722
  -Hartree energ DENC   =    -63295.91224302
  -exchange      EXHF   =         0.00000000
  -V(xc)+E(xc)   XCENC  =       366.15336346
  PAW double counting   =     10623.02163694   -11489.95720613
  entropy T*S    EENTRO =        -0.00185004
  eigenvalues    EBANDS =       -29.84525118
  atomic energy  EATOM  =     11152.61838693
  Solvation  Ediel_sol  =         0.00000000
  ---------------------------------------------------
  free energy    TOTEN  =       -31.85308279 eV

  energy without entropy =      -31.85123276  energy(sigma->0) =      -31.85246611


--------------------------------------------------------------------------------------------------------




--------------------------------------- Iteration      1(  15)  ---------------------------------------


    POTLOK:  cpu time      0.0191: real time      0.0204
    SETDIJ:  cpu time      0.0058: real time      0.0058
     EDDAV:  cpu time      0.4147: real time      0.4182
       DOS:  cpu time      0.0009: real time      0.0009
    CHARGE:  cpu time      0.0536: real time      0.0538
    MIXING:  cpu time      0.0014: real time      0.0014
    --------------------------------------------
      LOOP:  cpu time      0.4953: real time      0.5005

 eigenvalue-minimisations  :  1628
 total energy-change (2. order) :-0.1773567E+01  (-0.2044609E+00)
 number of electron      89.9999968 magnetization       3.2964324
 augmentation part       56.5453003 magnetization       2.4355275

 Broyden mixing:
  rms(total) = 0.45366E+00    rms(broyden)= 0.45362E+00
  rms(prec ) = 0.47867E+00
  weight for this iteration     100.00

 eigenvalues of (default mixing * dielectric matrix)
  average eigenvalue GAMMA=   1.0005
  4.3521  1.5339  0.7811  0.7811  0.0814  0.7276  0.7276  0.2255  0.3975  0.3975

 Free energy of the ion-electron system (eV)
  ---------------------------------------------------
  alpha Z        PSCENC =       285.34744303
  Ewald energy   TEWEN  =     52356.72263722
  -Hartree energ DENC   =    -63283.12007943
  -exchange      EXHF   =         0.00000000
  -V(xc)+E(xc)   XCENC  =       364.61038450
  PAW double counting   =     10685.39957195   -11551.77413870
  entropy T*S    EENTRO =        -0.01679660
  eigenvalues    EBANDS =       -43.41405870
  atomic energy  EATOM  =     11152.61838693
  Solvation  Ediel_sol  =         0.00000000
  ---------------------------------------------------
  free energy    TOTEN  =       -33.62664980 eV

  energy without entropy =      -33.60985321  energy(sigma->0) =      -33.62105094


--------------------------------------------------------------------------------------------------------




--------------------------------------- Iteration      1(  16)  ---------------------------------------


    POTLOK:  cpu time      0.0189: real time      0.0192
    SETDIJ:  cpu time      0.0060: real time      0.0060
     EDDAV:  cpu time      0.3718: real time      0.3749
       DOS:  cpu time      0.0009: real time      0.0009
    CHARGE:  cpu time      0.0540: real time      0.0542
    MIXING:  cpu time      0.0015: real time      0.0015
    --------------------------------------------
      LOOP:  cpu time      0.4530: real time      0.4567

 eigenvalue-minimisations  :  1440
 total energy-change (2. order) :-0.1097201E+01  (-0.1122717E+00)
 number of electron      89.9999968 magnetization       2.1626680
 augmentation part       56.5343118 magnetization       1.4696760

 Broyden mixing:
  rms(total) = 0.38497E+00    rms(broyden)= 0.38496E+00
  rms(prec ) = 0.40285E+00
  weight for this iteration     100.00

 eigenvalues of (default mixing * dielectric matrix)
  average eigenvalue GAMMA=   1.2459
  6.8515  1.8713  0.8552  0.8552  0.7808  0.7808  0.0814  0.2256  0.3972  0.3972
  0.6091

 Free energy of the ion-electron system (eV)
  ---------------------------------------------------
  alpha Z        PSCENC =       285.34744303
  Ewald energy   TEWEN  =     52356.72263722
  -Hartree energ DENC   =    -63309.35123934
  -exchange      EXHF   =         0.00000000
  -V(xc)+E(xc)   XCENC  =       363.97705084
  PAW double counting   =     10660.77948860   -11524.47081125
  entropy T*S    EENTRO =        -0.01578825
  eigenvalues    EBANDS =       -20.33101840
  atomic energy  EATOM  =     11152.61838693
  Solvation  Ediel_sol  =         0.00000000
  ---------------------------------------------------
  free energy    TOTEN  =       -34.72385062 eV

  energy without entropy =      -34.70806237  energy(sigma->0) =      -34.71858787


--------------------------------------------------------------------------------------------------------




--------------------------------------- Iteration      1(  17)  ---------------------------------------


    POTLOK:  cpu time      0.0252: real time      0.0255
    SETDIJ:  cpu time      0.0071: real time      0.0071
     EDDAV:  cpu time      0.3323: real time      0.3353
       DOS:  cpu time      0.0009: real time      0.0009
    CHARGE:  cpu time      0.0550: real time      0.0553
    MIXING:  cpu time      0.0017: real time      0.0017
    --------------------------------------------
      LOOP:  cpu time      0.4222: real time      0.4257

 eigenvalue-minimisations  :  1244
 total energy-change (2. order) :-0.5756390E+00  (-0.8068536E-01)
 number of electron      89.9999969 magnetization       1.4181236
 augmentation part       56.2958448 magnetization       0.8305253

 Broyden mixing:
  rms(total) = 0.20269E+00    rms(broyden)= 0.20267E+00
  rms(prec ) = 0.22374E+00
  weight for this iteration     100.00

 eigenvalues of (default mixing * dielectric matrix)
  average eigenvalue GAMMA=   1.4547
  9.4293  1.9667  1.0653  1.0653  0.8020  0.8020  0.0814  0.2256  0.3956  0.3956
  0.6433  0.5851

 Free energy of the ion-electron system (eV)
  ---------------------------------------------------
  alpha Z        PSCENC =       285.34744303
  Ewald energy   TEWEN  =     52356.72263722
  -Hartree energ DENC   =    -63333.84620314
  -exchange      EXHF   =         0.00000000
  -V(xc)+E(xc)   XCENC  =       364.16047752
  PAW double counting   =     10631.01247806   -11494.01802815
  entropy T*S    EENTRO =        -0.00985373
  eigenvalues    EBANDS =         2.71317262
  atomic energy  EATOM  =     11152.61838693
  Solvation  Ediel_sol  =         0.00000000
  ---------------------------------------------------
  free energy    TOTEN  =       -35.29948963 eV

  energy without entropy =      -35.28963591  energy(sigma->0) =      -35.29620506


--------------------------------------------------------------------------------------------------------




--------------------------------------- Iteration      1(  18)  ---------------------------------------


    POTLOK:  cpu time      0.0199: real time      0.0202
    SETDIJ:  cpu time      0.0059: real time      0.0059
     EDDAV:  cpu time      0.3372: real time      0.3399
       DOS:  cpu time      0.0009: real time      0.0009
    CHARGE:  cpu time      0.0535: real time      0.0538
    MIXING:  cpu time      0.0015: real time      0.0015
    --------------------------------------------
      LOOP:  cpu time      0.4188: real time      0.4221

 eigenvalue-minimisations  :  1284
 total energy-change (2. order) :-0.5408560E+00  (-0.6051497E-01)
 number of electron      89.9999970 magnetization       1.1699761
 augmentation part       56.1022879 magnetization       0.6985175

 Broyden mixing:
  rms(total) = 0.12759E+00    rms(broyden)= 0.12759E+00
  rms(prec ) = 0.14080E+00
  weight for this iteration     100.00

 eigenvalues of (default mixing * dielectric matrix)
  average eigenvalue GAMMA=   1.5895
 11.5975  2.2885  1.0346  1.0346  0.8226  0.8226  0.0814  0.7968  0.2256  0.6327
  0.3959  0.3959  0.5353

 Free energy of the ion-electron system (eV)
  ---------------------------------------------------
  alpha Z        PSCENC =       285.34744303
  Ewald energy   TEWEN  =     52356.72263722
  -Hartree energ DENC   =    -63345.49607329
  -exchange      EXHF   =         0.00000000
  -V(xc)+E(xc)   XCENC  =       364.11217700
  PAW double counting   =     10595.29792123   -11457.75308931
  entropy T*S    EENTRO =        -0.00995757
  eigenvalues    EBANDS =        13.32020916
  atomic energy  EATOM  =     11152.61838693
  Solvation  Ediel_sol  =         0.00000000
  ---------------------------------------------------
  free energy    TOTEN  =       -35.84034560 eV

  energy without entropy =      -35.83038803  energy(sigma->0) =      -35.83702641


--------------------------------------------------------------------------------------------------------




--------------------------------------- Iteration      1(  19)  ---------------------------------------


    POTLOK:  cpu time      0.0188: real time      0.0191
    SETDIJ:  cpu time      0.0061: real time      0.0061
     EDDAV:  cpu time      0.3537: real time      0.3564
       DOS:  cpu time      0.0009: real time      0.0009
    CHARGE:  cpu time      0.0546: real time      0.0551
    MIXING:  cpu time      0.0017: real time      0.0017
    --------------------------------------------
      LOOP:  cpu time      0.4357: real time      0.4393

 eigenvalue-minimisations  :  1352
 total energy-change (2. order) :-0.1526381E+00  (-0.1267864E-01)
 number of electron      89.9999970 magnetization       0.9935201
 augmentation part       56.1087291 magnetization       0.5797439

 Broyden mixing:
  rms(total) = 0.97217E-01    rms(broyden)= 0.97210E-01
  rms(prec ) = 0.10700E+00
  weight for this iteration     100.00

 eigenvalues of (default mixing * dielectric matrix)
  average eigenvalue GAMMA=   1.5926
 11.9968  2.5101  1.1862  1.0084  1.0084  0.0814  0.7837  0.7837  0.7915  0.2256
  0.3954  0.3954  0.5652  0.5652

 Free energy of the ion-electron system (eV)
  ---------------------------------------------------
  alpha Z        PSCENC =       285.34744303
  Ewald energy   TEWEN  =     52356.72263722
  -Hartree energ DENC   =    -63342.40644153
  -exchange      EXHF   =         0.00000000
  -V(xc)+E(xc)   XCENC  =       363.96424201
  PAW double counting   =     10580.04977986   -11441.86915832
  entropy T*S    EENTRO =        -0.01264104
  eigenvalues    EBANDS =         9.59276818
  atomic energy  EATOM  =     11152.61838693
  Solvation  Ediel_sol  =         0.00000000
  ---------------------------------------------------
  free energy    TOTEN  =       -35.99298366 eV

  energy without entropy =      -35.98034262  energy(sigma->0) =      -35.98876998


--------------------------------------------------------------------------------------------------------




--------------------------------------- Iteration      1(  20)  ---------------------------------------


    POTLOK:  cpu time      0.0188: real time      0.0191
    SETDIJ:  cpu time      0.0058: real time      0.0058
     EDDAV:  cpu time      0.3668: real time      0.3696
       DOS:  cpu time      0.0009: real time      0.0009
    CHARGE:  cpu time      0.0548: real time      0.0551
    MIXING:  cpu time      0.0018: real time      0.0018
    --------------------------------------------
      LOOP:  cpu time      0.4489: real time      0.4523

 eigenvalue-minimisations  :  1412
 total energy-change (2. order) :-0.1463009E+00  (-0.1151397E-01)
 number of electron      89.9999969 magnetization       0.7908090
 augmentation part       56.1822136 magnetization       0.4492664

 Broyden mixing:
  rms(total) = 0.75495E-01    rms(broyden)= 0.75480E-01
  rms(prec ) = 0.77769E-01
  weight for this iteration     100.00

 eigenvalues of (default mixing * dielectric matrix)
  average eigenvalue GAMMA=   1.6758
 12.7380  2.9256  1.9192  1.0594  1.0594  0.7957  0.7957  0.9200  0.0814  0.2256
  0.7250  0.3956  0.3956  0.5502  0.5502

 Free energy of the ion-electron system (eV)
  ---------------------------------------------------
  alpha Z        PSCENC =       285.34744303
  Ewald energy   TEWEN  =     52356.72263722
  -Hartree energ DENC   =    -63332.54982195
  -exchange      EXHF   =         0.00000000
  -V(xc)+E(xc)   XCENC  =       363.69854141
  PAW double counting   =     10567.04415228   -11428.24380517
  entropy T*S    EENTRO =        -0.01764461
  eigenvalues    EBANDS =        -0.75917369
  atomic energy  EATOM  =     11152.61838693
  Solvation  Ediel_sol  =         0.00000000
  ---------------------------------------------------
  free energy    TOTEN  =       -36.13928455 eV

  energy without entropy =      -36.12163994  energy(sigma->0) =      -36.13340302


--------------------------------------------------------------------------------------------------------




--------------------------------------- Iteration      1(  21)  ---------------------------------------


    POTLOK:  cpu time      0.0188: real time      0.0191
    SETDIJ:  cpu time      0.0060: real time      0.0060
     EDDAV:  cpu time      0.3487: real time      0.3516
       DOS:  cpu time      0.0009: real time      0.0009
    CHARGE:  cpu time      0.0545: real time      0.0547
    MIXING:  cpu time      0.0018: real time      0.0019
    --------------------------------------------
      LOOP:  cpu time      0.4308: real time      0.4342

 eigenvalue-minimisations  :  1332
 total energy-change (2. order) :-0.8254177E-01  (-0.7425576E-02)
 number of electron      89.9999969 magnetization       0.6446318
 augmentation part       56.2112487 magnetization       0.3646781

 Broyden mixing:
  rms(total) = 0.61177E-01    rms(broyden)= 0.61164E-01
  rms(prec ) = 0.64709E-01
  weight for this iteration     100.00

 eigenvalues of (default mixing * dielectric matrix)
  average eigenvalue GAMMA=   1.6934
 13.2145  3.4858  2.1752  1.0353  0.9699  0.9699  0.0814  0.7860  0.7860  0.2256
  0.8139  0.3956  0.3956  0.6469  0.5978  0.5154

 Free energy of the ion-electron system (eV)
  ---------------------------------------------------
  alpha Z        PSCENC =       285.34744303
  Ewald energy   TEWEN  =     52356.72263722
  -Hartree energ DENC   =    -63325.01793907
  -exchange      EXHF   =         0.00000000
  -V(xc)+E(xc)   XCENC  =       363.60817095
  PAW double counting   =     10561.70158764   -11422.94510524
  entropy T*S    EENTRO =        -0.02132856
  eigenvalues    EBANDS =        -8.23567923
  atomic energy  EATOM  =     11152.61838693
  Solvation  Ediel_sol  =         0.00000000
  ---------------------------------------------------
  free energy    TOTEN  =       -36.22182632 eV

  energy without entropy =      -36.20049776  energy(sigma->0) =      -36.21471680


--------------------------------------------------------------------------------------------------------




--------------------------------------- Iteration      1(  22)  ---------------------------------------


    POTLOK:  cpu time      0.0188: real time      0.0191
    SETDIJ:  cpu time      0.0058: real time      0.0058
     EDDAV:  cpu time      0.3169: real time      0.3197
       DOS:  cpu time      0.0009: real time      0.0009
    CHARGE:  cpu time      0.0558: real time      0.0561
    MIXING:  cpu time      0.0020: real time      0.0020
    --------------------------------------------
      LOOP:  cpu time      0.4002: real time      0.4036

 eigenvalue-minimisations  :  1192
 total energy-change (2. order) :-0.4130095E-01  (-0.4366294E-02)
 number of electron      89.9999969 magnetization       0.4719599
 augmentation part       56.1889852 magnetization       0.2364850

 Broyden mixing:
  rms(total) = 0.52047E-01    rms(broyden)= 0.52038E-01
  rms(prec ) = 0.52826E-01
  weight for this iteration     100.00

 eigenvalues of (default mixing * dielectric matrix)
  average eigenvalue GAMMA=   1.7371
 13.8044  3.9887  2.3183  1.2016  1.2016  1.0363  1.0363  0.7908  0.7908  0.0814
  0.2256  0.6318  0.6318  0.5377  0.3955  0.3955  0.4624

 Free energy of the ion-electron system (eV)
  ---------------------------------------------------
  alpha Z        PSCENC =       285.34744303
  Ewald energy   TEWEN  =     52356.72263722
  -Hartree energ DENC   =    -63324.45564865
  -exchange      EXHF   =         0.00000000
  -V(xc)+E(xc)   XCENC  =       363.62565803
  PAW double counting   =     10564.33172699   -11426.00189623
  entropy T*S    EENTRO =        -0.02319032
  eigenvalues    EBANDS =        -8.42824427
  atomic energy  EATOM  =     11152.61838693
  Solvation  Ediel_sol  =         0.00000000
  ---------------------------------------------------
  free energy    TOTEN  =       -36.26312727 eV

  energy without entropy =      -36.23993695  energy(sigma->0) =      -36.25539717


--------------------------------------------------------------------------------------------------------




--------------------------------------- Iteration      1(  23)  ---------------------------------------


    POTLOK:  cpu time      0.0205: real time      0.0207
    SETDIJ:  cpu time      0.0058: real time      0.0058
     EDDAV:  cpu time      0.3092: real time      0.3118
       DOS:  cpu time      0.0009: real time      0.0009
    CHARGE:  cpu time      0.0549: real time      0.0551
    MIXING:  cpu time      0.0021: real time      0.0021
    --------------------------------------------
      LOOP:  cpu time      0.3932: real time      0.3964

 eigenvalue-minimisations  :  1152
 total energy-change (2. order) :-0.5345278E-01  (-0.3053583E-02)
 number of electron      89.9999969 magnetization       0.3659157
 augmentation part       56.1502903 magnetization       0.1671053

 Broyden mixing:
  rms(total) = 0.38213E-01    rms(broyden)= 0.38205E-01
  rms(prec ) = 0.39250E-01
  weight for this iteration     100.00

 eigenvalues of (default mixing * dielectric matrix)
  average eigenvalue GAMMA=   1.7701
 14.1890  4.7047  2.3087  1.7685  1.0440  1.0440  0.0814  0.7871  0.7871  0.9241
  0.9241  0.2256  0.6393  0.6393  0.3955  0.3955  0.5244  0.4788

 Free energy of the ion-electron system (eV)
  ---------------------------------------------------
  alpha Z        PSCENC =       285.34744303
  Ewald energy   TEWEN  =     52356.72263722
  -Hartree energ DENC   =    -63323.97135427
  -exchange      EXHF   =         0.00000000
  -V(xc)+E(xc)   XCENC  =       363.64305803
  PAW double counting   =     10571.31369900   -11433.62688061
  entropy T*S    EENTRO =        -0.02453683
  eigenvalues    EBANDS =        -8.33903255
  atomic energy  EATOM  =     11152.61838693
  Solvation  Ediel_sol  =         0.00000000
  ---------------------------------------------------
  free energy    TOTEN  =       -36.31658006 eV

  energy without entropy =      -36.29204323  energy(sigma->0) =      -36.30840111


--------------------------------------------------------------------------------------------------------




--------------------------------------- Iteration      1(  24)  ---------------------------------------


    POTLOK:  cpu time      0.0188: real time      0.0191
    SETDIJ:  cpu time      0.0058: real time      0.0058
     EDDAV:  cpu time      0.3064: real time      0.3092
       DOS:  cpu time      0.0009: real time      0.0009
    CHARGE:  cpu time      0.0543: real time      0.0545
    MIXING:  cpu time      0.0021: real time      0.0021
    --------------------------------------------
      LOOP:  cpu time      0.3883: real time      0.3916

 eigenvalue-minimisations  :  1144
 total energy-change (2. order) :-0.1704996E+00  (-0.1944512E-02)
 number of electron      89.9999969 magnetization       0.2748754
 augmentation part       56.1825287 magnetization       0.1205424

 Broyden mixing:
  rms(total) = 0.33683E-01    rms(broyden)= 0.33674E-01
  rms(prec ) = 0.35623E-01
  weight for this iteration     100.00

 eigenvalues of (default mixing * dielectric matrix)
  average eigenvalue GAMMA=   1.8283
 14.6784  5.5514  2.7461  2.0110  1.0334  1.0334  1.0800  1.0800  0.7888  0.7888
  0.0814  0.2256  0.6782  0.3955  0.3955  0.5829  0.5829  0.5213  0.4841

 Free energy of the ion-electron system (eV)
  ---------------------------------------------------
  alpha Z        PSCENC =       285.34744303
  Ewald energy   TEWEN  =     52356.72263722
  -Hartree energ DENC   =    -63319.56735309
  -exchange      EXHF   =         0.00000000
  -V(xc)+E(xc)   XCENC  =       363.42086987
  PAW double counting   =     10572.55137830   -11434.74912066
  entropy T*S    EENTRO =        -0.02467133
  eigenvalues    EBANDS =       -12.80664991
  atomic energy  EATOM  =     11152.61838693
  Solvation  Ediel_sol  =         0.00000000
  ---------------------------------------------------
  free energy    TOTEN  =       -36.48707965 eV

  energy without entropy =      -36.46240832  energy(sigma->0) =      -36.47885587


--------------------------------------------------------------------------------------------------------




--------------------------------------- Iteration      1(  25)  ---------------------------------------


    POTLOK:  cpu time      0.0188: real time      0.0191
    SETDIJ:  cpu time      0.0058: real time      0.0058
     EDDAV:  cpu time      0.3357: real time      0.3383
       DOS:  cpu time      0.0009: real time      0.0009
    CHARGE:  cpu time      0.0542: real time      0.0544
    MIXING:  cpu time      0.0023: real time      0.0023
    --------------------------------------------
      LOOP:  cpu time      0.4177: real time      0.4209

 eigenvalue-minimisations  :  1272
 total energy-change (2. order) :-0.2267658E+00  (-0.1194945E-02)
 number of electron      89.9999969 magnetization       0.1676512
 augmentation part       56.1917227 magnetization       0.0360286

 Broyden mixing:
  rms(total) = 0.29477E-01    rms(broyden)= 0.29470E-01
  rms(prec ) = 0.30999E-01
  weight for this iteration     100.00

 eigenvalues of (default mixing * dielectric matrix)
  average eigenvalue GAMMA=   1.9683
 15.6564  7.3363  3.3019  2.0142  1.6060  1.0568  1.0568  0.0814  0.7883  0.7883
  0.9306  0.9306  0.2256  0.6484  0.6484  0.3955  0.3955  0.5246  0.5246  0.4555

 Free energy of the ion-electron system (eV)
  ---------------------------------------------------
  alpha Z        PSCENC =       285.34744303
  Ewald energy   TEWEN  =     52356.72263722
  -Hartree energ DENC   =    -63318.52057958
  -exchange      EXHF   =         0.00000000
  -V(xc)+E(xc)   XCENC  =       363.18163322
  PAW double counting   =     10575.02198539   -11437.17004162
  entropy T*S    EENTRO =        -0.02494820
  eigenvalues    EBANDS =       -13.89036184
  atomic energy  EATOM  =     11152.61838693
  Solvation  Ediel_sol  =         0.00000000
  ---------------------------------------------------
  free energy    TOTEN  =       -36.71384544 eV

  energy without entropy =      -36.68889725  energy(sigma->0) =      -36.70552938


--------------------------------------------------------------------------------------------------------




--------------------------------------- Iteration      1(  26)  ---------------------------------------


[...]
     14      -0.8785      1.00000
     15      -0.7068      1.00000
     16      -0.6861      1.00000
     17      -0.5589      1.00000
     18      -0.4920      1.00000
     19      -0.4353      1.00000
     20      -0.3448      1.00000
     21      -0.3415      1.00000
     22      -0.2448      1.00000
     23      -0.1334      1.00000
     24      -0.1022      1.00000
     25       0.0466      1.00000
     26       0.1512      1.00000
     27       0.2709      1.00000
     28       0.3546      1.00000
     29       0.4289      1.00000
     30       0.5101      1.00000
     31       0.5182      1.00000
     32       0.5962      1.00000
     33       0.6118      1.00000
     34       0.6668      1.00000
     35       0.6887      1.00000
     36       0.7446      1.00000
     37       0.7787      1.00000
     38       0.7875      1.00000
     39       0.8728      1.00000
     40       0.9055      1.00000
     41       1.0548      1.00000
     42       1.1407      1.00000
     43       1.1482      1.00000
     44       1.2033      1.00000
     45       1.3128      1.00000
     46       1.9533      0.78902
     47       3.0611     -0.00000
     48       4.4142     -0.00000
     49       5.9132     -0.00000
     50       7.1235     -0.00000
     51       8.4632      0.00000
     52       9.0242      0.00000
     53       9.3956      0.00000
     54       9.8245      0.00000
     55      10.1065      0.00000
     56      10.6848      0.00000
     57      11.0120      0.00000
     58      11.5367      0.00000
     59      11.8208      0.00000
     60      12.0830      0.00000

 k-point     4 :      -0.3333    0.3333    0.0000
  band No.  band energies     occupation 
      1      -2.4220      1.00000
      2      -1.5907      1.00000
      3      -1.5808      1.00000
      4      -1.5754      1.00000
      5      -1.5171      1.00000
      6      -1.4658      1.00000
      7      -1.4605      1.00000
      8      -1.4209      1.00000
      9      -1.4196      1.00000
     10      -1.4170      1.00000
     11      -1.3941      1.00000
     12      -1.3867      1.00000
     13      -1.2420      1.00000
     14      -1.1970      1.00000
     15      -1.1060      1.00000
     16      -1.0772      1.00000
     17      -0.7556      1.00000
     18      -0.7141      1.00000
     19      -0.7071      1.00000
     20      -0.6441      1.00000
     21      -0.4622      1.00000
     22      -0.4053      1.00000
     23       0.0336      1.00000
     24       0.1112      1.00000
     25       0.1753      1.00000
     26       0.1902      1.00000
     27       0.2808      1.00000
     28       0.2845      1.00000
     29       0.3151      1.00000
     30       0.3197      1.00000
     31       0.3232      1.00000
     32       0.6109      1.00000
     33       0.6747      1.00000
     34       0.8067      1.00000
     35       0.8092      1.00000
     36       0.8385      1.00000
     37       0.9012      1.00000
     38       0.9746      1.00000
     39       0.9792      1.00000
     40       1.0142      1.00000
     41       1.0844      1.00000
     42       5.7311     -0.00000
     43       5.7342     -0.00000
     44       5.7575     -0.00000
     45       5.9098     -0.00000
     46       5.9181     -0.00000
     47       6.1839     -0.00000
     48       6.3046     -0.00000
     49       6.8944     -0.00000
     50       7.0458     -0.00000
     51       7.6278      0.00000
     52       7.6531      0.00000
     53       7.7692      0.00000
     54       8.1792      0.00000
     55       8.2085      0.00000
     56       8.8045      0.00000
     57       9.1703      0.00000
     58       9.4369      0.00000
     59      10.4255      0.00000
     60      10.7974      0.00000


--------------------------------------------------------------------------------------------------------


 soft charge-density along one line, spin component           1
         0         1         2         3         4         5         6         7         8         9
 total charge-density along one line
 
 soft charge-density along one line, spin component           2
         0         1         2         3         4         5         6         7         8         9
 total charge-density along one line
 
 pseudopotential strength for first ion, spin component:           1
 -6.056  -0.000   0.000  -0.004   0.000  -2.338   0.000  -0.000
 -0.000  -6.108  -0.000   0.000  -0.004   0.000  -2.302   0.000
  0.000  -0.000  -6.134  -0.000   0.000  -0.000   0.000  -2.285
 -0.004   0.000  -0.000  -6.108  -0.000   0.003  -0.000   0.000
  0.000  -0.004   0.000  -0.000  -6.056  -0.000   0.003  -0.000
 -2.338   0.000  -0.000   0.003  -0.000   8.626  -0.000   0.000
  0.000  -2.302   0.000  -0.000   0.003  -0.000   8.603  -0.000
 -0.000   0.000  -2.285   0.000  -0.000   0.000  -0.000   8.591
  0.003  -0.000   0.000  -2.302   0.000  -0.002   0.000  -0.000
 -0.000   0.003  -0.000   0.000  -2.338   0.000  -0.002   0.000
  0.000   0.000   0.003   0.000   0.000   0.000   0.000   0.001
  0.000   0.000   0.005   0.000   0.000   0.000   0.000   0.003
  0.000  -0.012   0.000  -0.000   0.000   0.000   0.012  -0.000
 -0.000  -0.000  -0.010   0.000   0.000  -0.000   0.000   0.010
  0.000  -0.000  -0.000  -0.012   0.000   0.000  -0.000  -0.000
  0.000  -0.013   0.000   0.000   0.000   0.000   0.014  -0.000
  0.000  -0.000  -0.011   0.000   0.000  -0.000   0.000   0.011
  0.000   0.000  -0.000  -0.013   0.000   0.000  -0.000  -0.000
 pseudopotential strength for first ion, spin component:           2
 -6.056  -0.000   0.000  -0.004   0.000  -2.338   0.000  -0.000
 -0.000  -6.108  -0.000   0.000  -0.004   0.000  -2.302   0.000
  0.000  -0.000  -6.134  -0.000   0.000  -0.000   0.000  -2.285
 -0.004   0.000  -0.000  -6.108  -0.000   0.003  -0.000   0.000
  0.000  -0.004   0.000  -0.000  -6.056  -0.000   0.003  -0.000
 -2.338   0.000  -0.000   0.003  -0.000   8.626  -0.000   0.000
  0.000  -2.302   0.000  -0.000   0.003  -0.000   8.603  -0.000
 -0.000   0.000  -2.285   0.000  -0.000   0.000  -0.000   8.591
  0.003  -0.000   0.000  -2.302   0.000  -0.002   0.000  -0.000
 -0.000   0.003  -0.000   0.000  -2.338   0.000  -0.002   0.000
  0.000   0.000   0.003   0.000   0.000   0.000   0.000   0.001
  0.000   0.000   0.005   0.000   0.000   0.000   0.000   0.003
  0.000  -0.012   0.000  -0.000   0.000   0.000   0.012  -0.000
 -0.000  -0.000  -0.010   0.000   0.000  -0.000   0.000   0.010
  0.000  -0.000  -0.000  -0.012   0.000   0.000  -0.000  -0.000
  0.000  -0.013   0.000   0.000   0.000   0.000   0.014  -0.000
  0.000  -0.000  -0.011   0.000   0.000  -0.000   0.000   0.011
  0.000   0.000  -0.000  -0.013   0.000   0.000  -0.000  -0.000
 total augmentation occupancy for first ion, spin component:           1
  1.932   0.000  -0.000  -0.004   0.000  -0.016  -0.000   0.000   0.005  -0.000   0.000  -0.000  -0.000  -0.000   0.006   0.000
  0.000   1.929   0.000   0.000  -0.004  -0.000  -0.023   0.000  -0.000   0.005   0.000  -0.000   0.007   0.000   0.000  -0.013
 -0.000   0.000   1.915   0.000  -0.000   0.000   0.000  -0.017  -0.000  -0.000  -0.067   0.028   0.000   0.077  -0.000  -0.000
 -0.004   0.000   0.000   1.929  -0.000   0.005  -0.000  -0.000  -0.023   0.000   0.000  -0.000   0.000   0.000   0.007  -0.000
  0.000  -0.004  -0.000  -0.000   1.932  -0.000   0.005   0.000   0.000  -0.016   0.000   0.000   0.006   0.000   0.000  -0.001
 -0.016  -0.000   0.000   0.005  -0.000   0.013  -0.000  -0.000   0.000  -0.000   0.000  -0.000  -0.000  -0.000   0.004   0.000
 -0.000  -0.023   0.000  -0.000   0.005  -0.000   0.010   0.000   0.000   0.000   0.000  -0.000   0.019   0.000   0.000  -0.002
  0.000   0.000  -0.017  -0.000   0.000  -0.000   0.000   0.012  -0.000  -0.000  -0.022   0.001   0.000   0.021  -0.000  -0.000
  0.005  -0.000  -0.000  -0.023   0.000   0.000   0.000  -0.000   0.010   0.000   0.000  -0.000   0.000   0.000   0.019  -0.000
 -0.000   0.005  -0.000   0.000  -0.016  -0.000   0.000  -0.000   0.000   0.013   0.000  -0.000   0.004   0.000   0.000  -0.000
  0.000   0.000  -0.067   0.000   0.000   0.000   0.000  -0.022   0.000   0.000   1.750  -0.149   0.000   0.176   0.000  -0.000
 -0.000  -0.000   0.028  -0.000   0.000  -0.000  -0.000   0.001  -0.000  -0.000  -0.149   0.018   0.000  -0.025   0.000   0.000
 -0.000   0.007   0.000   0.000   0.006  -0.000   0.019   0.000   0.000   0.004   0.000   0.000   0.234   0.000   0.000  -0.015
 -0.000   0.000   0.077   0.000   0.000  -0.000   0.000   0.021   0.000   0.000   0.176  -0.025   0.000   0.112   0.000  -0.000
  0.006   0.000  -0.000   0.007   0.000   0.004   0.000  -0.000   0.019   0.000   0.000   0.000   0.000   0.000   0.234  -0.000
  0.000  -0.013  -0.000  -0.000  -0.001   0.000  -0.002  -0.000  -0.000  -0.000  -0.000   0.000  -0.015  -0.000  -0.000   0.001
  0.000   0.000  -0.019   0.000  -0.000   0.000  -0.000  -0.001  -0.000   0.000  -0.023   0.003  -0.000  -0.009  -0.000   0.000
 -0.001  -0.000   0.000  -0.013  -0.000  -0.000  -0.000   0.000  -0.002  -0.000  -0.000   0.000  -0.000  -0.000  -0.015   0.000
 total augmentation occupancy for first ion, spin component:           2
  0.000  -0.000  -0.000   0.000  -0.000   0.000  -0.000  -0.000  -0.000  -0.000  -0.000   0.000   0.000   0.000  -0.000  -0.000
 -0.000  -0.000   0.000  -0.000   0.000  -0.000   0.000  -0.000   0.000   0.000   0.000  -0.000   0.000  -0.000   0.000  -0.000
 -0.000   0.000   0.000   0.000   0.000  -0.000   0.000   0.000   0.000   0.000   0.000   0.000  -0.000  -0.000  -0.000   0.000
  0.000  -0.000   0.000  -0.000   0.000  -0.000   0.000  -0.000   0.000   0.000   0.000  -0.000   0.000  -0.000  -0.000  -0.000
 -0.000   0.000   0.000   0.000  -0.000   0.000   0.000  -0.000   0.000   0.000   0.000  -0.000  -0.000  -0.000  -0.000   0.000
  0.000  -0.000  -0.000  -0.000   0.000   0.000  -0.000   0.000   0.000   0.000  -0.000   0.000  -0.000   0.000   0.000   0.000
 -0.000   0.000   0.000   0.000   0.000  -0.000   0.000   0.000   0.000   0.000  -0.000   0.000  -0.000  -0.000  -0.000  -0.000
 -0.000  -0.000   0.000  -0.000  -0.000   0.000   0.000  -0.000   0.000  -0.000  -0.000  -0.000  -0.000   0.000  -0.000  -0.000
 -0.000   0.000   0.000   0.000   0.000   0.000   0.000   0.000  -0.000   0.000  -0.000   0.000  -0.000  -0.000  -0.000  -0.000
 -0.000   0.000   0.000   0.000   0.000   0.000   0.000  -0.000   0.000   0.000   0.000  -0.000   0.000  -0.000   0.000  -0.000
 -0.000   0.000   0.000   0.000   0.000  -0.000  -0.000  -0.000  -0.000   0.000   0.000  -0.000  -0.000  -0.000  -0.000   0.000
  0.000  -0.000   0.000  -0.000  -0.000   0.000   0.000  -0.000   0.000  -0.000  -0.000   0.000   0.000   0.000   0.000  -0.000
  0.000   0.000  -0.000   0.000  -0.000  -0.000  -0.000  -0.000  -0.000   0.000  -0.000   0.000   0.000   0.000   0.000  -0.000
  0.000  -0.000  -0.000  -0.000  -0.000   0.000  -0.000   0.000  -0.000  -0.000  -0.000   0.000   0.000   0.000   0.000  -0.000
 -0.000   0.000  -0.000  -0.000  -0.000   0.000  -0.000  -0.000  -0.000   0.000  -0.000   0.000   0.000   0.000   0.000  -0.000
 -0.000  -0.000   0.000  -0.000   0.000   0.000  -0.000  -0.000  -0.000  -0.000   0.000  -0.000  -0.000  -0.000  -0.000   0.000
  0.000   0.000  -0.000   0.000  -0.000  -0.000  -0.000  -0.000  -0.000   0.000   0.000  -0.000  -0.000  -0.000  -0.000   0.000
  0.000  -0.000   0.000  -0.000   0.000  -0.000  -0.000  -0.000   0.000  -0.000   0.000  -0.000  -0.000  -0.000  -0.000   0.000


------------------------ aborting loop because EDIFF is reached ----------------------------------------


    CHARGE:  cpu time      0.0542: real time      0.0548
    FORLOC:  cpu time      0.0012: real time      0.0012
    FORNL :  cpu time      0.1254: real time      0.1259
    STRESS:  cpu time      0.1380: real time      0.1386
    FORCOR:  cpu time      0.0188: real time      0.0189
    FORHAR:  cpu time      0.0029: real time      0.0029
    MIXING:  cpu time      0.0005: real time      0.0005
    OFIELD:  cpu time      0.0000: real time      0.0000

 ---------------------------------------------------------------------------------------------

         DFTD3 V3.0 Rev 1        
 Edisp (eV)   -3.66763

 E6    (eV) :    -1.5304
 E8    (eV) :    -2.1372
 % E8        : 58.27
    FORVDW:  cpu time      0.0723: real time      0.0726

  FORCE on cell =-STRESS in cart. coord.  units (eV):
  Direction    XX          YY          ZZ          XY          YZ          ZX
  --------------------------------------------------------------------------------------
  Alpha Z   285.34744   285.34744   285.34744
  Ewald   58901.11290 58895.27246-64780.07061    -0.00000     3.66034    -0.00000
  Hartree 62135.78048 62132.48826-60314.76710     0.00000     0.81787    -0.00000
  E(xc)    -520.97417  -520.97966  -521.07673    -0.00013     0.02845     0.00000
  Local  ************************124026.35025     0.00401    -3.34924    -0.00001
  n-local  -174.77332  -174.83836  -180.21684     4.01382    -0.08940     1.32405
  augment   759.75794   759.83531   753.59003    -0.00381    -0.02576     0.00002
  Kinetic   742.38708   742.39241   734.07314   -15.23623    -0.96402     2.63472
  Fock        0.00000     0.00000     0.00000     0.00000     0.00000     0.00000
  vdW        -4.33869    -4.35231    -3.75808     0.00000    -0.00342     0.00000
  -------------------------------------------------------------------------------------
  Total      -4.40812    -4.47993    -0.52851    -0.00000     0.07482     0.00000
  in kB     -41.71819   -42.39780    -5.00176    -0.00000     0.70808     0.00000
  external pressure =      -29.71 kB  Pullay stress =        0.00 kB


 VOLUME and BASIS-vectors are now :
 -----------------------------------------------------------------------------
  energy-cutoff  :      400.00
  volume of cell :      169.29
      direct lattice vectors                 reciprocal lattice vectors
     2.566797733  0.000000000  0.000000000     0.389590495 -0.224930177  0.000000000
     1.283398867  2.222912043  0.000000000     0.000000000  0.449860355  0.000000000
     0.000000000  0.000000000 29.670471191     0.000000000  0.000000000  0.033703543

  length of vectors
     2.566797733  2.566797733 29.670471191     0.449860355  0.449860355  0.033703543


 FORCES acting on ions
    electron-ion (+dipol)            ewald-force                    non-local-force                 convergence-correction
 -----------------------------------------------------------------------------------------------
   -.745E-05 0.236E-01 0.607E+04   0.105E-07 -.244E-01 -.607E+04   -.225E-13 -.100E-02 -.345E+01   -.957E-06 0.175E-02 -.322E+00
   0.730E-05 0.183E-01 0.436E+04   -.266E-07 -.181E-01 -.436E+04   0.205E-13 0.912E-03 0.309E+00   -.793E-06 -.192E-02 0.109E+00
   -.177E-05 0.806E-01 0.266E+04   0.256E-07 -.783E-01 -.266E+04   0.222E-12 0.988E-02 0.179E+00   -.543E-06 -.147E-01 0.368E+00
   0.552E-05 0.134E+00 0.973E+03   0.586E-09 -.125E+00 -.973E+03   0.659E-12 0.293E-01 -.682E+00   0.258E-06 -.418E-01 0.492E+00
   -.105E-05 0.846E-01 -.731E+03   -.261E-07 -.814E-01 0.730E+03   0.489E-12 0.217E-01 0.714E+00   0.170E-05 -.250E-01 0.736E+00
   -.220E-04 -.131E+00 -.242E+04   0.259E-07 0.126E+00 0.242E+04   -.396E-12 -.176E-01 -.195E+00   0.165E-06 0.268E-01 0.769E+00
   0.194E-04 -.269E+00 -.411E+04   0.561E-09 0.268E+00 0.411E+04   -.635E-12 -.282E-01 0.126E-01   -.953E-06 0.332E-01 0.254E+00
   0.158E-05 -.212E+00 -.582E+04   -.104E-07 0.211E+00 0.582E+04   0.165E-12 0.735E-02 0.447E+01   0.235E-06 -.148E-01 -.138E+00
   -.198E-06 0.281E+01 -.499E+03   0.241E-09 -.355E+01 0.494E+03   0.168E-10 0.745E+00 0.476E+01   0.574E-07 -.300E-03 -.438E-01
   0.107E-06 -.254E+01 -.481E+03   -.266E-09 0.327E+01 0.485E+03   -.165E-10 -.734E+00 -.482E+01   0.133E-07 -.829E-03 -.492E-01
 -----------------------------------------------------------------------------------------------
   0.145E-05 0.377E-02 -.341E+01   0.219E-12 -.564E-13 0.171E-11   0.746E-12 0.332E-01 0.130E+01   -.821E-06 -.377E-01 0.217E+01
 
 
 POSITION                                       TOTAL-FORCE (eV/Angst)
 -----------------------------------------------------------------------------------
      0.00000      0.00230     -0.01491        -0.000000     -0.000021     -0.014343
      1.28340      0.74239      1.97811        -0.000000     -0.000742      0.012144
      2.56680      1.48174      3.99852        -0.000000     -0.002497      0.019060
     -0.00000     -0.00505      6.03267        -0.000000     -0.004135      0.012912
      1.28340      0.72648      8.04822        -0.000000     -0.000257     -0.012396
      2.56680      1.45419     10.08091         0.000000      0.005202      0.008457
     -0.00000     -0.03563     12.10462         0.000000      0.004578     -0.008214
      1.28340      0.70790     14.10068        -0.000000     -0.001951     -0.023136
      0.00000      0.26357     16.28823        -0.000000     -0.006655      0.008086
      2.56680      0.37641     17.03835         0.000000      0.006480     -0.002570
 -----------------------------------------------------------------------------------
    total drift:                                0.000001     -0.000734      0.065755


--------------------------------------------------------------------------------------------------------



  FREE ENERGIE OF THE ION-ELECTRON SYSTEM (eV)
  ---------------------------------------------------
  free  energy   TOTEN  =       -40.88283607 eV

  energy  without entropy=      -40.85585385  energy(sigma->0) =      -40.87384199
 
 d Force = 0.1850979E-03[ 0.390E-04, 0.331E-03]  d Energy = 0.2040690E-03-0.190E-04
 d Force = 0.3005797E+02[ 0.300E+02, 0.301E+02]  d Ewald  = 0.3005797E+02-0.608E-07


--------------------------------------------------------------------------------------------------------


    POTLOK:  cpu time      0.0276: real time      0.0278


--------------------------------------------------------------------------------------------------------


 stress matrix after NEB project (eV)
     -4.40812     -0.00000      0.00000
     -0.00000     -4.47993      0.07482
      0.00000      0.07482     -0.52851
  FORCES: max atom, RMS     0.023218    0.013947
  FORCE total and by dimension    0.044103    0.023136
  Stress total and by dimension    6.308073    4.479929
 Conjugate gradient step on ions:
 trial-energy change:   -0.000204  1 .order   -0.000185   -0.000331   -0.000039
  (g-gl).g = 0.382E-03      g.g   = 0.380E-03  gl.gl    = 0.660E-03
 g(Force)  = 0.380E-03   g(Stress)= 0.000E+00 ortho     =-0.188E-04
 gamma     =   0.57859
 trial     =   0.89802
 opt step  =   1.01787  (harmonic =   1.01787) maximal distance =0.00473521
 next E    =   -40.882820   (d E  =  -0.00019)


--------------------------------------------------------------------------------------------------------


  
 reached required accuracy - stopping structural energy minimisation
     LOOP+:  cpu time      1.5205: real time      1.5441
    4ORBIT:  cpu time      0.0000: real time      0.0000

 total amount of memory used by VASP MPI-rank0    34706. kBytes
=======================================================================

   base      :      30000. kBytes
   nonl-proj :        813. kBytes
   fftplans  :        716. kBytes
   grid      :       1856. kBytes
   one-center:         62. kBytes
   wavefun   :       1259. kBytes
 
  
  
 General timing and accounting informations for this job:
 ========================================================
  
                  Total CPU time used (sec):      136.085
                            User time (sec):      135.276
                          System time (sec):        0.809
                         Elapsed time (sec):      139.510
  
                   Maximum memory used (kb):      233500.
                   Average memory used (kb):          N/A
  
                          Minor page faults:       246530
                          Major page faults:         6531
                 Voluntary context switches:         4001
