<?xml version="1.0" encoding="ISO-8859-1"?>
<modeling>
 <generator>
  <i name="program" type="string">vasp </i>
  <i name="version" type="string">6.3.2  </i>
  <i name="subversion" type="string">27Jun22 (build Aug 17 2022 15:43:34) complex                          parallel </i>
  <i name="platform" type="string">tv2STDVTST </i>
  <i name="date" type="string">2025 02 04 </i>
  <i name="time" type="string">14:15:28 </i>
 </generator>
 <incar>
  <i type="int" name="ISTART">     0</i>
  <i type="string" name="PREC">Normal</i>
  <i type="int" name="ISPIN">     2</i>
  <i type="int" name="ICHARG">     2</i>
  <i type="int" name="IBRION">     2</i>
  <i name="EDIFF">      0.00020000</i>
  <i name="EDIFFG">     -0.03000000</i>
  <i type="int" name="NSW">   800</i>
  <i type="int" name="ISIF">     2</i>
  <i type="int" name="ISYM">     1</i>
  <i name="ENCUT">    400.00000000</i>
  <i name="POTIM">      0.50000000</i>
  <i type="logical" name="LREAL"> F  </i>
  <i type="int" name="ISMEAR">     1</i>
  <i name="SIGMA">      0.20000000</i>
  <i type="logical" name="LWAVE"> F  </i>
  <i type="logical" name="LCHARG"> F  </i>
  <i type="string" name="GGA">PE</i>
  <i type="int" name="IVDW">    11</i>
 </incar>
 <primitive_cell>
  <structure name="primitive_cell" >
   <crystal>
    <varray name="basis" >
     <v>       2.56679773       0.00000000       0.00000000 </v>
     <v>       1.28339887       2.22291204       0.00000000 </v>
     <v>       0.00000000       0.00000000      29.67047119 </v>
    </varray>
    <i name="volume">    169.29275369 </i>
    <varray name="rec_basis" >
     <v>       0.38959050      -0.22493018       0.00000000 </v>
     <v>       0.00000000       0.44986035       0.00000000 </v>
     <v>       0.00000000       0.00000000       0.03370354 </v>
    </varray>
   </crystal>
   <varray name="positions" >
    <v>       0.00000000       0.00000000       0.00000000 </v>
    <v>       0.33333333       0.33333333       0.07063526 </v>
    <v>       0.66666667       0.66666667       0.13908594 </v>
    <v>       0.00000000       0.00000000       0.20816512 </v>
    <v>       0.33333333       0.33333333       0.27656240 </v>
    <v>       0.66666667       0.66666667       0.34556034 </v>
    <v>       0.00000000       0.00000000       0.41400593 </v>
    <v>       0.33333333       0.33333333       0.48139269 </v>
    <v>       0.00000000       1.00000000       0.53425930 </v>
    <v>       0.88134896       0.23730208       0.55203798 </v>
   </varray>
  </structure>
  <varray name="primitive_index" >
   <v type="int" >        1 </v>
   <v type="int" >        2 </v>
   <v type="int" >        3 </v>
   <v type="int" >        4 </v>
   <v type="int" >        5 </v>
   <v type="int" >        6 </v>
   <v type="int" >        7 </v>
   <v type="int" >        8 </v>
   <v type="int" >        9 </v>
   <v type="int" >       10 </v>
  </varray>
 </primitive_cell>
 <kpoints>
  <generation param="Monkhorst-Pack">
   <v type="int" name="divisions">       3        3        1 </v>
   <v name="usershift">      0.00000000       0.00000000       0.00000000 </v>
   <v name="genvec1">      0.33333333       0.00000000       0.00000000 </v>
   <v name="genvec2">      0.00000000       0.33333333       0.00000000 </v>
   <v name="genvec3">      0.00000000       0.00000000       1.00000000 </v>
   <v name="shift">      0.00000000       0.00000000       0.00000000 </v>
  </generation>
  <varray name="kpointlist" >
   <v>       0.00000000       0.00000000       0.00000000 </v>
   <v>       0.33333333       0.00000000       0.00000000 </v>
   <v>       0.00000000       0.33333333       0.00000000 </v>
   <v>      -0.33333333       0.33333333       0.00000000 </v>
  </varray>
  <varray name="weights" >
   <v>       0.11111111 </v>
   <v>       0.44444444 </v>
   <v>       0.22222222 </v>
   <v>       0.22222222 </v>
  </varray>
 </kpoints>
 <parameters>
  <separator name="general" >
   <i type="string" name="SYSTEM">unknown system</i>
   <i type="logical" name="LCOMPAT"> F  </i>
  </separator>
  <separator name="electronic" >
   <i type="string" name="PREC">normal</i>
   <i name="ENMAX">    400.00000000</i>
   <i name="ENAUG">    586.98000000</i>
   <i name="EDIFF">      0.00020000</i>
   <i type="int" name="IALGO">    38</i>
   <i type="int" name="IWAVPR">    11</i>
   <i type="int" name="NBANDS">    60</i>
   <i type="int" name="NBANDSLOW">    -1</i>
   <i type="int" name="NBANDSHIGH">    -1</i>
   <i name="NELECT">     90.00000000</i>
   <i type="int" name="TURBO">     0</i>
   <i type="int" name="IRESTART">     0</i>
   <i type="int" name="NREBOOT">     0</i>
   <i type="int" name="NMIN">     0</i>
   <i name="EREF">      0.00000000</i>
   <separator name="electronic smearing" >
    <i type="int" name="ISMEAR">     1</i>
    <i name="SIGMA">      0.20000000</i>
    <i name="KSPACING">      0.50000000</i>
    <i type="logical" name="KGAMMA"> T  </i>
    <i type="logical" name="KBLOWUP"> T  </i>
   </separator>
   <separator name="electronic projectors" >
    <i type="logical" name="LREAL"> F  </i>
    <v name="ROPT">      0.00000000      0.00000000</v>
    <i type="int" name="LMAXPAW">  -100</i>
    <i type="int" name="LMAXMIX">     2</i>
    <i type="logical" name="NLSPLINE"> F  </i>
   </separator>
   <separator name="electronic startup" >
    <i type="int" name="ISTART">     0</i>
    <i type="int" name="ICHARG">     2</i>
    <i type="int" name="INIWAV">     1</i>
   </separator>
   <separator name="electronic spin" >
    <i type="int" name="ISPIN">     2</i>
    <i type="logical" name="LNONCOLLINEAR"> F  </i>
    <v name="MAGMOM">      1.00000000      1.00000000      1.00000000      1.00000000      1.00000000      1.00000000      1.00000000      1.00000000      1.00000000      1.00000000</v>
    <i name="NUPDOWN">     -1.00000000</i>
    <i type="logical" name="LSORBIT"> F  </i>
    <v name="SAXIS">      0.00000000      0.00000000      1.00000000</v>
    <i type="logical" name="LSPIRAL"> F  </i>
    <v name="QSPIRAL">      0.00000000      0.00000000      0.00000000</v>
    <i type="logical" name="LZEROZ"> F  </i>
   </separator>
   <separator name="electronic exchange-correlation" >
    <i type="logical" name="LASPH"> F  </i>
    <i type="logical" name="LMETAGGA"> F  </i>
   </separator>
   <separator name="electronic convergence" >
    <i type="int" name="NELM">    60</i>
    <i type="int" name="NELMDL">    -5</i>
    <i type="int" name="NELMIN">     2</i>
    <i name="ENINI">    400.00000000</i>
    <separator name="electronic convergence detail" >
     <i type="logical" name="LDIAG"> T  </i>
     <i type="logical" name="LSUBROT"> F  </i>
     <i name="WEIMIN">      0.00100000</i>
     <i name="EBREAK">      0.00000083</i>
     <i name="DEPER">      0.30000000</i>
     <i type="int" name="NRMM">     4</i>
     <i name="TIME">      0.40000000</i>
    </separator>
   </separator>
   <separator name="electronic mixer" >
    <i name="AMIX">      0.40000000</i>
    <i name="BMIX">      1.00000000</i>
    <i name="AMIN">      0.10000000</i>
    <i name="AMIX_MAG">      1.60000000</i>
    <i name="BMIX_MAG">      1.00000000</i>
    <separator name="electronic mixer details" >
     <i type="int" name="IMIX">     4</i>
     <i type="logical" name="MIXFIRST"> F  </i>
     <i type="int" name="MAXMIX">   -45</i>
     <i name="WC">    100.00000000</i>
     <i type="int" name="INIMIX">     1</i>
     <i type="int" name="MIXPRE">     1</i>
     <i type="int" name="MREMOVE">     5</i>
    </separator>
   </separator>
   <separator name="electronic dipolcorrection" >
    <i type="logical" name="LDIPOL"> F  </i>
    <i type="logical" name="LMONO"> F  </i>
    <i type="int" name="IDIPOL">     0</i>
    <i name="EPSILON">      1.00000000</i>
    <v name="DIPOL">   -100.00000000   -100.00000000   -100.00000000</v>
    <i name="EFIELD">      0.00000000</i>
   </separator>
  </separator>
  <separator name="grids" >
   <i type="int" name="NGX">    14</i>
   <i type="int" name="NGY">    14</i>
   <i type="int" name="NGZ">   150</i>
   <i type="int" name="NGXF">    28</i>
   <i type="int" name="NGYF">    28</i>
   <i type="int" name="NGZF">   300</i>
   <i type="logical" name="ADDGRID"> F  </i>
  </separator>
  <separator name="ionic" >
   <i type="int" name="NSW">   800</i>
   <i type="int" name="IBRION">     2</i>
   <i type="int" name="MDALGO">     0</i>
   <i type="int" name="ISIF">     2</i>
   <i name="PSTRESS">      0.00000000</i>
   <i name="EDIFFG">     -0.03000000</i>
   <i type="int" name="NFREE">     1</i>
   <i name="POTIM">      0.50000000</i>
   <i name="SMASS">     -3.00000000</i>
   <i name="SCALEE">      1.00000000</i>
  </separator>
  <separator name="ionic md" >
   <i name="TEBEG">      0.00010000</i>
   <i name="TEEND">      0.00010000</i>
   <i type="int" name="NBLOCK">     1</i>
   <i type="int" name="KBLOCK">   800</i>
   <i type="int" name="NPACO">   256</i>
   <i name="APACO">     10.00000000</i>
  </separator>
  <separator name="symmetry" >
   <i type="int" name="ISYM">     1</i>
   <i name="SYMPREC">      0.00001000</i>
  </separator>
  <separator name="dos" >
   <i type="int" name="LORBIT">     0</i>
   <v name="RWIGS">     -1.00000000     -1.00000000</v>
   <i type="int" name="NEDOS">   301</i>
   <i name="EMIN">     10.00000000</i>
   <i name="EMAX">    -10.00000000</i>
   <i name="EFERMI">      0.00000000</i>
  </separator>
  <separator name="writing" >
   <i type="int" name="NWRITE">     2</i>
   <i type="logical" name="LWAVE"> F  </i>
   <i type="logical" name="LDOWNSAMPLE"> F  </i>
   <i type="logical" name="LCHARG"> F  </i>
   <i type="logical" name="LPARD"> F  </i>
   <i type="logical" name="LVTOT"> F  </i>
   <i type="logical" name="LVHAR"> F  </i>
   <i type="logical" name="LELF"> F  </i>
   <i type="logical" name="LOPTICS"> F  </i>
   <v name="STM">      0.00000000      0.00000000      0.00000000      0.00000000      0.00000000      0.00000000      0.00000000</v>
  </separator>
  <separator name="performance" >
   <i type="int" name="NPAR">     4</i>
   <i type="int" name="NSIM">     4</i>
   <i type="int" name="NBLK">    -1</i>
   <i type="logical" name="LPLANE"> T  </i>
   <i type="logical" name="LSCALAPACK"> T  </i>
   <i type="logical" name="LSCAAWARE"> F  </i>
   <i type="logical" name="LSCALU"> F  </i>
   <i type="logical" name="LASYNC"> F  </i>
   <i type="logical" name="LORBITALREAL"> F  </i>
  </separator>
  <separator name="miscellaneous" >
   <i type="int" name="IDIOT">     3</i>
   <i type="int" name="PHON_NSTRUCT">    -1</i>
   <i type="logical" name="LMUSIC"> F  </i>
   <v name="POMASS">     63.54600000      1.00000000</v>
   <v name="DARWINR">      0.00000000      0.00000000</v>
   <v name="DARWINV">      1.00000000      1.00000000</v>
   <i type="logical" name="LCORR"> T  </i>
  </separator>
  <i type="logical" name="GGA_COMPAT"> T  </i>
  <i type="logical" name="LBERRY"> F  </i>
  <i type="int" name="ICORELEVEL">     0</i>
  <i type="logical" name="LDAU"> F  </i>
  <i type="int" name="I_CONSTRAINED_M">     0</i>
  <separator name="electronic exchange-correlation" >
   <i type="string" name="GGA">PE</i>
   <i type="int" name="VOSKOWN">     0</i>
   <i type="logical" name="LHFCALC"> F  </i>
   <i type="string" name="PRECFOCK"></i>
   <i type="logical" name="LSYMGRAD"> F  </i>
   <i type="logical" name="LHFONE"> F  </i>
   <i type="logical" name="LRHFCALC"> F  </i>
   <i type="logical" name="LTHOMAS"> F  </i>
   <i type="logical" name="LMODELHF"> F  </i>
   <i type="logical" name="LFOCKACE"> F  </i>
   <i name="ENCUT4O">     -1.00000000</i>
   <i type="int" name="EXXOEP">     0</i>
   <i type="int" name="FOURORBIT">     0</i>
   <i name="AEXX">      0.00000000</i>
   <i name="HFALPHA">      0.00000000</i>
   <i name="MCALPHA">      0.00000000</i>
   <i name="ALDAX">      1.00000000</i>
   <i name="AGGAX">      1.00000000</i>
   <i name="ALDAC">      1.00000000</i>
   <i name="AGGAC">      1.00000000</i>
   <i type="int" name="NKREDX">     1</i>
   <i type="int" name="NKREDY">     1</i>
   <i type="int" name="NKREDZ">     1</i>
   <i type="logical" name="SHIFTRED"> F  </i>
   <i type="logical" name="ODDONLY"> F  </i>
   <i type="logical" name="EVENONLY"> F  </i>
   <i type="int" name="LMAXFOCK">     0</i>
   <i type="int" name="NMAXFOCKAE">     0</i>
   <i type="logical" name="LFOCKAEDFT"> F  </i>
   <i name="HFSCREEN">      0.00000000</i>
   <i name="HFSCREENC">      0.00000000</i>
   <i type="int" name="NBANDSGWLOW">     0</i>
  </separator>
  <separator name="vdW DFT" >
   <i type="logical" name="LUSE_VDW"> F  </i>
   <i name="Zab_VDW">     -0.84910000</i>
   <i name="PARAM1">      0.12340000</i>
   <i name="PARAM2">      1.00000000</i>
   <i name="PARAM3">      0.00000000</i>
  </separator>
  <separator name="model GW" >
   <i type="int" name="MODEL_GW">     0</i>
   <i name="MODEL_EPS0">     10.15756522</i>
   <i name="MODEL_ALPHA">      1.00000000</i>
  </separator>
  <separator name="linear response parameters" >
   <i type="logical" name="LEPSILON"> F  </i>
   <i type="logical" name="LRPA"> F  </i>
   <i type="logical" name="LNABLA"> F  </i>
   <i type="logical" name="LVEL"> F  </i>
   <i name="CSHIFT">      0.10000000</i>
   <i name="OMEGAMAX">     -1.00000000</i>
   <i name="DEG_THRESHOLD">      0.00200000</i>
   <i name="RTIME">     -0.10000000</i>
   <i name="WPLASMAI">      0.00000000</i>
   <v name="DFIELD">      0.00000000      0.00000000      0.00000000</v>
   <v name="WPLASMA">      0.00000000      0.00000000      0.00000000      0.00000000      0.00000000      0.00000000      0.00000000      0.00000000      0.00000000</v>
  </separator>
  <separator name="orbital magnetization" >
   <i type="logical" name="NUCIND"> F  </i>
   <v name="MAGPOS">      0.00000000      0.00000000      0.00000000</v>
   <i type="logical" name="LNICSALL"> T  </i>
   <i type="logical" name="ORBITALMAG"> F  </i>
   <i type="logical" name="LMAGBLOCH"> F  </i>
   <i type="logical" name="LCHIMAG"> F  </i>
   <i type="logical" name="LGAUGE"> T  </i>
   <i type="int" name="MAGATOM">     0</i>
   <v name="MAGDIPOL">      0.00000000      0.00000000      0.00000000</v>
   <v name="AVECCONST">      0.00000000      0.00000000      0.00000000</v>
  </separator>
  <separator name="response functions" >
   <i type="logical" name="LFINITE_TEMPERATURE"> F  </i>
   <i type="logical" name="LADDER"> F  </i>
   <i type="logical" name="LRPAFORCE"> F  </i>
   <i type="logical" name="LFXC"> F  </i>
   <i type="logical" name="LHARTREE"> T  </i>
   <i type="int" name="IBSE">     0</i>
   <v type="int" name="KPOINT">    -1     0     0     0</v>
   <i type="logical" name="LTCTC"> F  </i>
   <i type="logical" name="LTCTE"> F  </i>
   <i type="logical" name="LTETE"> F  </i>
   <i type="logical" name="LTRIPLET"> F  </i>
   <i type="logical" name="LFXCEPS"> F  </i>
   <i type="logical" name="LFXHEG"> F  </i>
   <i type="int" name="NATURALO">     2</i>
   <i type="logical" name="LHOLEGF"> F  </i>
   <i type="logical" name="L2ORDER"> F  </i>
   <i type="logical" name="LDMP1"> F  </i>
   <i type="logical" name="LMP2LT"> F  </i>
   <i type="logical" name="LSMP2LT"> F  </i>
   <i type="logical" name="LGWLF"> F  </i>
   <i name="ENCUTGW">     -2.00000000</i>
   <i name="ENCUTGWSOFT">     -2.00000000</i>
   <i name="ENCUTLF">     -1.00000000</i>
   <i type="logical" name="LESF_SPLINES"> F  </i>
   <i type="int" name="LMAXMP2">    -1</i>
   <i name="SCISSOR">      0.00000000</i>
   <i type="int" name="NOMEGA">     0</i>
   <i type="int" name="NOMEGAR">     0</i>
   <i type="int" name="NBANDSGW">    -1</i>
   <i type="int" name="NBANDSO">    -1</i>
   <i type="int" name="NBANDSV">    -1</i>
   <i type="int" name="NELMGW">     1</i>
   <i type="int" name="NELMHF">     1</i>
   <i type="int" name="DIM">     3</i>
   <i type="int" name="IESPILON">     4</i>
   <i type="int" name="ANTIRES">     0</i>
   <i name="OMEGAMAX">    -30.00000000</i>
   <i name="OMEGAMIN">    -30.00000000</i>
   <i name="OMEGATL">   -200.00000000</i>
   <i type="int" name="OMEGAGRID">     0</i>
   <i name="CSHIFT">     -0.10000000</i>
   <i type="logical" name="LSELFENERGY"> F  </i>
   <i type="logical" name="LSPECTRAL"> F  </i>
   <i type="logical" name="LSPECTRALGW"> F  </i>
   <i type="logical" name="LSINGLES"> F  </i>
   <i type="logical" name="LFERMIGW"> F  </i>
   <i type="logical" name="ODDONLYGW"> F  </i>
   <i type="logical" name="EVENONLYGW"> F  </i>
   <i type="int" name="NKREDLFX">     1</i>
   <i type="int" name="NKREDLFY">     1</i>
   <i type="int" name="NKREDLFZ">     1</i>
   <i type="int" name="MAXMEM">  2800</i>
   <i type="int" name="TELESCOPE">     0</i>
   <i type="int" name="NTAUPAR">    -1</i>
   <i type="int" name="NOMEGAPAR">    -1</i>
   <i name="DAMP_NEWTON">      0.80000001</i>
   <i name="LAMBDA">      1.00000000</i>
  </separator>
  <separator name="External order field" >
   <i name="OFIELD_KAPPA">      0.00000000</i>
   <v name="OFIELD_K">      0.00000000      0.00000000      0.00000000</v>
   <i name="OFIELD_Q6_NEAR">      0.00000000</i>
   <i name="OFIELD_Q6_FAR">      0.00000000</i>
   <i name="OFIELD_A">      0.00000000</i>
  </separator>
  <separator name="optional k-points parameters" >
   <i type="int" name="KPOINTS_OPT_MODE">     1</i>
   <i type="logical" name="LKPOINTS_OPT"> F  </i>
  </separator>
 </parameters>
 <atominfo>
  <atoms>      10 </atoms>
  <types>       2 </types>
  <array name="atoms" >
   <dimension dim="1">ion</dimension>
   <field type="string">element</field>
   <field type="int">atomtype</field>
   <set>
    <rc><c>Cu</c><c>   1</c></rc>
    <rc><c>Cu</c><c>   1</c></rc>
    <rc><c>Cu</c><c>   1</c></rc>
    <rc><c>Cu</c><c>   1</c></rc>
    <rc><c>Cu</c><c>   1</c></rc>
    <rc><c>Cu</c><c>   1</c></rc>
    <rc><c>Cu</c><c>   1</c></rc>
    <rc><c>Cu</c><c>   1</c></rc>
    <rc><c>H </c><c>   2</c></rc>
    <rc><c>H </c><c>   2</c></rc>
   </set>
  </array>
  <array name="atomtypes" >
   <dimension dim="1">type</dimension>
   <field type="int">atomspertype</field>
   <field type="string">element</field>
   <field>mass</field>
   <field>valence</field>
   <field type="string">pseudopotential</field>
   <set>
    <rc><c>   8</c><c>Cu</c><c>     63.54600000</c><c>     11.00000000</c><c>  PAW_PBE Cu 22Jun2005                  </c></rc>
    <rc><c>   2</c><c>H </c><c>      1.00000000</c><c>      1.00000000</c><c>  PAW_PBE H 15Jun2001                   </c></rc>
   </set>
  </array>
 </atominfo>
 <structure name="initialpos" >
  <crystal>
   <varray name="basis" >
    <v>       2.56679773       0.00000000       0.00000000 </v>
    <v>       1.28339887       2.22291204       0.00000000 </v>
    <v>       0.00000000       0.00000000      29.67047119 </v>
   </varray>
   <i name="volume">    169.29275369 </i>
   <varray name="rec_basis" >
    <v>       0.38959050      -0.22493018       0.00000000 </v>
    <v>       0.00000000       0.44986035       0.00000000 </v>
    <v>       0.00000000       0.00000000       0.03370354 </v>
   </varray>
  </crystal>
  <varray name="positions" >
   <v>       0.00000000       0.00000000       0.00000000 </v>
   <v>       0.33333333       0.33333333       0.07063526 </v>
   <v>       0.66666667       0.66666667       0.13908594 </v>
   <v>       0.00000000       0.00000000       0.20816512 </v>
   <v>       0.33333333       0.33333333       0.27656240 </v>
   <v>       0.66666667       0.66666667       0.34556034 </v>
   <v>       0.00000000       0.00000000       0.41400593 </v>
   <v>       0.33333333       0.33333333       0.48139269 </v>
   <v>       0.00000000       1.00000000       0.53425930 </v>
   <v>       0.88134896       0.23730208       0.55203798 </v>
  </varray>
 </structure>
 <calculation>
  <scstep>
   <time name="dav">    0.28    0.29</time>
   <time name="total">    0.32    0.32</time>
   <energy>
    <i name="alphaZ">    285.34744303 </i>
    <i name="ewald">  52356.72263722 </i>
    <i name="hartreedc"> -63409.59953241 </i>
    <i name="XCdc">    372.59763947 </i>
    <i name="pawpsdc">   9828.36862813 </i>
    <i name="pawaedc"> -10674.97285505 </i>
    <i name="eentropy">     -0.01472576 </i>
    <i name="bandstr">    885.52575924 </i>
    <i name="atom">  11152.61838693 </i>
    <i name="e_fr_energy">    796.59338080 </i>
    <i name="e_wo_entrp">    796.60810656 </i>
    <i name="e_0_energy">    796.59828939 </i>
   </energy>
  </scstep>
  <scstep>
   <time name="dav">    0.27    0.28</time>
   <time name="total">    0.27    0.28</time>
   <energy>
    <i name="e_fr_energy">     73.16912459 </i>
    <i name="e_wo_entrp">     73.15959854 </i>
    <i name="e_0_energy">     73.16594924 </i>
   </energy>
  </scstep>
  <scstep>
   <time name="dav">    0.28    0.28</time>
   <time name="total">    0.28    0.29</time>
   <energy>
    <i name="e_fr_energy">    -32.79662702 </i>
    <i name="e_wo_entrp">    -32.81717987 </i>
    <i name="e_0_energy">    -32.80347797 </i>
   </energy>
  </scstep>
  <scstep>
   <time name="dav">    0.30    0.30</time>
   <time name="total">    0.30    0.30</time>
   <energy>
    <i name="e_fr_energy">    -37.27170625 </i>
    <i name="e_wo_entrp">    -37.30113067 </i>
    <i name="e_0_energy">    -37.28151439 </i>
   </energy>
  </scstep>
  <scstep>
   <time name="dav">    0.32    0.32</time>
   <time name="total">    0.38    0.38</time>
   <energy>
    <i name="e_fr_energy">    -37.37144582 </i>
    <i name="e_wo_entrp">    -37.40134476 </i>
    <i name="e_0_energy">    -37.38141213 </i>
   </energy>
  </scstep>
  <scstep>
   <time name="dav">    0.34    0.35</time>
   <time name="total">    0.43    0.43</time>
   <energy>
    <i name="e_fr_energy">    -34.91742354 </i>
    <i name="e_wo_entrp">    -34.88310364 </i>
    <i name="e_0_energy">    -34.90598358 </i>
   </energy>
  </scstep>
  <scstep>
   <time name="dav">    0.38    0.38</time>
   <time name="total">    0.46    0.46</time>
   <energy>
    <i name="e_fr_energy">    -95.13343117 </i>
    <i name="e_wo_entrp">    -95.15483790 </i>
    <i name="e_0_energy">    -95.14056675 </i>
   </energy>
  </scstep>
  <scstep>
   <time name="dav">    0.42    0.42</time>
   <time name="total">    0.49    0.50</time>
   <energy>
    <i name="e_fr_energy">    -40.87730600 </i>
    <i name="e_wo_entrp">    -40.81910227 </i>
    <i name="e_0_energy">    -40.85790475 </i>
   </energy>
  </scstep>
  <scstep>
   <time name="dav">    0.41    0.41</time>
   <time name="total">    0.49    0.49</time>
   <energy>
    <i name="e_fr_energy">    -34.18693501 </i>
    <i name="e_wo_entrp">    -34.16335122 </i>
    <i name="e_0_energy">    -34.17907374 </i>
   </energy>
  </scstep>
  <scstep>
   <time name="dav">    0.37    0.37</time>
   <time name="total">    0.45    0.45</time>
   <energy>
    <i name="e_fr_energy">    -31.63500403 </i>
    <i name="e_wo_entrp">    -31.62180874 </i>
    <i name="e_0_energy">    -31.63060560 </i>
   </energy>
  </scstep>
  <scstep>
   <time name="dav">    0.35    0.35</time>
   <time name="total">    0.43    0.43</time>
   <energy>
    <i name="e_fr_energy">    -31.15002768 </i>
    <i name="e_wo_entrp">    -31.14197807 </i>
    <i name="e_0_energy">    -31.14734448 </i>
   </energy>
  </scstep>
  <scstep>
   <time name="dav">    0.32    0.32</time>
   <time name="total">    0.40    0.40</time>
   <energy>
    <i name="e_fr_energy">    -30.39780309 </i>
    <i name="e_wo_entrp">    -30.38838267 </i>
    <i name="e_0_energy">    -30.39466295 </i>
   </energy>
  </scstep>
  <scstep>
   <time name="dav">    0.36    0.36</time>
   <time name="total">    0.44    0.44</time>
   <energy>
    <i name="e_fr_energy">    -30.19316186 </i>
    <i name="e_wo_entrp">    -30.18230424 </i>
    <i name="e_0_energy">    -30.18954265 </i>
   </energy>
  </scstep>
  <scstep>
   <time name="dav">    0.40    0.40</time>
   <time name="total">    0.47    0.48</time>
   <energy>
    <i name="e_fr_energy">    -31.85308279 </i>
    <i name="e_wo_entrp">    -31.85123276 </i>
    <i name="e_0_energy">    -31.85246611 </i>
   </energy>
  </scstep>
  <scstep>
   <time name="dav">    0.41    0.42</time>
   <time name="total">    0.50    0.50</time>
   <energy>
    <i name="e_fr_energy">    -33.62664980 </i>
    <i name="e_wo_entrp">    -33.60985321 </i>
    <i name="e_0_energy">    -33.62105094 </i>
   </energy>
  </scstep>
  <scstep>
   <time name="dav">    0.37    0.37</time>
   <time name="total">    0.45    0.46</time>
   <energy>
    <i name="e_fr_energy">    -34.72385062 </i>
    <i name="e_wo_entrp">    -34.70806237 </i>
    <i name="e_0_energy">    -34.71858787 </i>
   </energy>
  </scstep>
  <scstep>
   <time name="dav">    0.33    0.34</time>
   <time name="total">    0.42    0.43</time>
   <energy>
    <i name="e_fr_energy">    -35.29948963 </i>
    <i name="e_wo_entrp">    -35.28963591 </i>
    <i name="e_0_energy">    -35.29620506 </i>
   </energy>
  </scstep>
  <scstep>
   <time name="dav">    0.34    0.34</time>
   <time name="total">    0.42    0.42</time>
   <energy>
    <i name="e_fr_energy">    -35.84034560 </i>
    <i name="e_wo_entrp">    -35.83038803 </i>
    <i name="e_0_energy">    -35.83702641 </i>
   </energy>
  </scstep>
  <scstep>
   <time name="dav">    0.35    0.36</time>
   <time name="total">    0.44    0.44</time>
   <energy>
    <i name="e_fr_energy">    -35.99298366 </i>
    <i name="e_wo_entrp">    -35.98034262 </i>
    <i name="e_0_energy">    -35.98876998 </i>
   </energy>
  </scstep>
  <scstep>
   <time name="dav">    0.37    0.37</time>
   <time name="total">    0.45    0.45</time>
   <energy>
    <i name="e_fr_energy">    -36.13928455 </i>
    <i name="e_wo_entrp">    -36.12163994 </i>
    <i name="e_0_energy">    -36.13340302 </i>
   </energy>
  </scstep>
  <scstep>
   <time name="dav">    0.35    0.35</time>
   <time name="total">    0.43    0.43</time>
   <energy>
    <i name="e_fr_energy">    -36.22182632 </i>
    <i name="e_wo_entrp">    -36.20049776 </i>
    <i name="e_0_energy">    -36.21471680 </i>
   </energy>
  </scstep>
  <scstep>
   <time name="dav">    0.32    0.32</time>
   <time name="total">    0.40    0.40</time>
   <energy>
    <i name="e_fr_energy">    -36.26312727 </i>
    <i name="e_wo_entrp">    -36.23993695 </i>
    <i name="e_0_energy">    -36.25539717 </i>
   </energy>
  </scstep>
  <scstep>
   <time name="dav">    0.31    0.31</time>
   <time name="total">    0.39    0.40</time>
   <energy>
    <i name="e_fr_energy">    -36.31658006 </i>
    <i name="e_wo_entrp">    -36.29204323 </i>
    <i name="e_0_energy">    -36.30840111 </i>
   </energy>
  </scstep>
  <scstep>
   <time name="dav">    0.31    0.31</time>
   <time name="total">    0.39    0.39</time>
   <energy>
    <i name="e_fr_energy">    -36.48707965 </i>
    <i name="e_wo_entrp">    -36.46240832 </i>
    <i name="e_0_energy">    -36.47885587 </i>
   </energy>
  </scstep>
  <scstep>
   <time name="dav">    0.34    0.34</time>
   <time name="total">    0.42    0.42</time>
   <energy>
    <i name="e_fr_energy">    -36.71384544 </i>
    <i name="e_wo_entrp">    -36.68889725 </i>
    <i name="e_0_energy">    -36.70552938 </i>
   </energy>
  </scstep>
  <scstep>
   <time name="dav">    0.36    0.37</time>
   <time name="total">    0.45    0.45</time>
   <energy>
    <i name="e_fr_energy">    -36.85339757 </i>
    <i name="e_wo_entrp">    -36.83025329 </i>
    <i name="e_0_energy">    -36.84568281 </i>
   </energy>
  </scstep>
  <scstep>
   <time name="dav">    0.33    0.33</time>
   <time name="total">    0.42    0.42</time>
   <energy>
    <i name="e_fr_energy">    -36.87780242 </i>
    <i name="e_wo_entrp">    -36.85558050 </i>
    <i name="e_0_energy">    -36.87039511 </i>
   </energy>
  </scstep>
  <scstep>
   <time name="dav">    0.29    0.29</time>
   <time name="total">    0.37    0.38</time>
   <energy>
    <i name="e_fr_energy">    -36.88248133 </i>
    <i name="e_wo_entrp">    -36.85954602 </i>
    <i name="e_0_energy">    -36.87483623 </i>
   </energy>
  </scstep>
  <scstep>
   <time name="dav">    0.28    0.29</time>
   <time name="total">    0.37    0.37</time>
   <energy>
    <i name="e_fr_energy">    -36.88671205 </i>
    <i name="e_wo_entrp">    -36.86318499 </i>
    <i name="e_0_energy">    -36.87886970 </i>
   </energy>
  </scstep>
  <scstep>
   <time name="dav">    0.26    0.26</time>
   <time name="total">    0.34    0.34</time>
   <energy>
    <i name="e_fr_energy">    -36.88811243 </i>
    <i name="e_wo_entrp">    -36.86418055 </i>
    <i name="e_0_energy">    -36.88013513 </i>
   </energy>
  </scstep>
  <scstep>
   <time name="dav">    0.24    0.24</time>
   <time name="total">    0.33    0.33</time>
   <energy>
    <i name="e_fr_energy">    -36.88921631 </i>
    <i name="e_wo_entrp">    -36.86517394 </i>
    <i name="e_0_energy">    -36.88120219 </i>
   </energy>
  </scstep>
  <scstep>
   <time name="dav">    0.23    0.23</time>
   <time name="total">    0.32    0.32</time>
   <energy>
    <i name="e_fr_energy">    -36.89102800 </i>
    <i name="e_wo_entrp">    -36.86699073 </i>
    <i name="e_0_energy">    -36.88301557 </i>
   </energy>
  </scstep>
  <scstep>
   <time name="dav">    0.22    0.23</time>
   <time name="total">    0.31    0.31</time>
   <energy>
    <i name="e_fr_energy">    -36.89213679 </i>
    <i name="e_wo_entrp">    -36.86781416 </i>
    <i name="e_0_energy">    -36.88402925 </i>
   </energy>
  </scstep>
  <scstep>
   <time name="dav">    0.22    0.22</time>
   <time name="total">    0.30    0.30</time>
   <energy>
    <i name="e_fr_energy">    -36.89304982 </i>
    <i name="e_wo_entrp">    -36.86904616 </i>
    <i name="e_0_energy">    -36.88504860 </i>
   </energy>
  </scstep>
  <scstep>
   <time name="dav">    0.21    0.21</time>
   <time name="total">    0.30    0.30</time>
   <energy>
    <i name="e_fr_energy">    -36.89358245 </i>
    <i name="e_wo_entrp">    -36.86936195 </i>
    <i name="e_0_energy">    -36.88550895 </i>
   </energy>
  </scstep>
  <scstep>
   <time name="dav">    0.21    0.21</time>
   <time name="total">    0.23    0.23</time>
   <energy>
    <i name="alphaZ">    285.34744303 </i>
    <i name="ewald">  52356.72263722 </i>
    <i name="hartreedc"> -63316.83457243 </i>
    <i name="XCdc">    363.08487103 </i>
    <i name="pawpsdc">  10575.01767037 </i>
    <i name="pawaedc"> -11437.15624944 </i>
    <i name="eentropy">     -0.02414750 </i>
    <i name="bandstr">    -15.66979748 </i>
    <i name="atom">  11152.61838693 </i>
    <i name="e_fr_energy">    -36.89375828 </i>
    <i name="e_wo_entrp">    -36.86961078 </i>
    <i name="e_0_energy">    -36.88570911 </i>
   </energy>
  </scstep>
  <structure>
   <crystal>
    <varray name="basis" >
     <v>       2.56679773       0.00000000       0.00000000 </v>
     <v>       1.28339887       2.22291204       0.00000000 </v>
     <v>       0.00000000       0.00000000      29.67047119 </v>
    </varray>
    <i name="volume">    169.29275369 </i>
    <varray name="rec_basis" >
     <v>       0.38959050      -0.22493018       0.00000000 </v>
     <v>       0.00000000       0.44986035       0.00000000 </v>
     <v>       0.00000000       0.00000000       0.03370354 </v>
    </varray>
   </crystal>
   <varray name="positions" >
    <v>       0.00000000       0.00000000       0.00000000 </v>
    <v>       0.33333333       0.33333333       0.07063526 </v>
    <v>       0.66666667       0.66666667       0.13908594 </v>
    <v>       0.00000000       0.00000000       0.20816512 </v>
    <v>       0.33333333       0.33333333       0.27656240 </v>
    <v>       0.66666667       0.66666667       0.34556034 </v>
    <v>       0.00000000       0.00000000       0.41400593 </v>
    <v>       0.33333333       0.33333333       0.48139269 </v>
    <v>       0.00000000       1.00000000       0.53425930 </v>
    <v>       0.88134896       0.23730208       0.55203798 </v>
   </varray>
  </structure>
  <varray name="forces" >
   <v>      -0.00000000      -0.00068341       0.47196385 </v>
   <v>       0.00000000       0.00143160      -0.39510251 </v>
   <v>      -0.00000000      -0.00143629       0.00428553 </v>
   <v>       0.00000000       0.00207193      -0.00149030 </v>
   <v>      -0.00000000      -0.00212716      -0.02563891 </v>
   <v>       0.00000000       0.00219204      -0.02480890 </v>
   <v>      -0.00000000      -0.00775458      -0.10994818 </v>
   <v>      -0.00000000      -0.08028881      -0.77373325 </v>
   <v>      -0.00000000      -0.49514688      -0.39067295 </v>
   <v>       0.00000000       0.58174155       1.24514563 </v>
  </varray>
  <varray name="stress" >
   <v>     -45.55685427      -0.00000000       0.00000000 </v>
   <v>      -0.00000000     -40.59394067       4.15538881 </v>
   <v>       0.00000000       4.15539484      -1.31766747 </v>
  </varray>
  <energy>
   <i name="e_fr_energy">    -40.56233088 </i>
   <i name="e_wo_entrp">    -40.53818338 </i>
   <i name="e_0_energy">    -40.55428171 </i>
  </energy>
  <time name="totalsc">   14.53   14.68</time>
 </calculation>
 <calculation>
  <scstep>
   <time name="dav">    0.28    0.28</time>
   <time name="total">    0.36    0.37</time>
   <energy>
    <i name="alphaZ">    285.34744303 </i>
    <i name="ewald">  52628.04031490 </i>
    <i name="hartreedc"> -63589.19758567 </i>
    <i name="XCdc">    363.06135952 </i>
    <i name="pawpsdc">  10575.01657057 </i>
    <i name="pawaedc"> -11437.15470498 </i>
    <i name="eentropy">     -0.02425582 </i>
    <i name="bandstr">    -14.59851701 </i>
    <i name="atom">  11152.61838693 </i>
    <i name="e_fr_energy">    -36.89098853 </i>
    <i name="e_wo_entrp">    -36.86673271 </i>
    <i name="e_0_energy">    -36.88290326 </i>
   </energy>
  </scstep>
  <scstep>
   <time name="dav">    0.36    0.36</time>
   <time name="total">    0.44    0.44</time>
   <energy>
    <i name="e_fr_energy">    -36.91590512 </i>
    <i name="e_wo_entrp">    -36.88727109 </i>
    <i name="e_0_energy">    -36.90636044 </i>
   </energy>
  </scstep>
  <scstep>
   <time name="dav">    0.34    0.34</time>
   <time name="total">    0.42    0.43</time>
   <energy>
    <i name="e_fr_energy">    -36.92372051 </i>
    <i name="e_wo_entrp">    -36.90894188 </i>
    <i name="e_0_energy">    -36.91879430 </i>
   </energy>
  </scstep>
  <scstep>
   <time name="dav">    0.35    0.36</time>
   <time name="total">    0.44    0.44</time>
   <energy>
    <i name="e_fr_energy">    -36.91342676 </i>
    <i name="e_wo_entrp">    -36.88466565 </i>
    <i name="e_0_energy">    -36.90383972 </i>
   </energy>
  </scstep>
  <scstep>
   <time name="dav">    0.39    0.39</time>
   <time name="total">    0.47    0.48</time>
   <energy>
    <i name="e_fr_energy">    -36.91120170 </i>
    <i name="e_wo_entrp">    -36.88707953 </i>
    <i name="e_0_energy">    -36.90316097 </i>
   </energy>
  </scstep>
  <scstep>
   <time name="dav">    0.43    0.43</time>
   <time name="total">    0.51    0.51</time>
   <energy>
    <i name="e_fr_energy">    -36.91011503 </i>
    <i name="e_wo_entrp">    -36.88622580 </i>
    <i name="e_0_energy">    -36.90215195 </i>
   </energy>
  </scstep>
  <scstep>
   <time name="dav">    0.36    0.36</time>
   <time name="total">    0.44    0.45</time>
   <energy>
    <i name="e_fr_energy">    -36.90998858 </i>
    <i name="e_wo_entrp">    -36.88485898 </i>
    <i name="e_0_energy">    -36.90161205 </i>
   </energy>
  </scstep>
  <scstep>
   <time name="dav">    0.23    0.23</time>
   <time name="total">    0.26    0.26</time>
   <energy>
    <i name="alphaZ">    285.34744303 </i>
    <i name="ewald">  52628.04031490 </i>
    <i name="hartreedc"> -63583.03692059 </i>
    <i name="XCdc">    362.94422525 </i>
    <i name="pawpsdc">  10578.50578437 </i>
    <i name="pawaedc"> -11440.78810988 </i>
    <i name="eentropy">     -0.02467000 </i>
    <i name="bandstr">    -20.51649032 </i>
    <i name="atom">  11152.61838693 </i>
    <i name="e_fr_energy">    -36.91003630 </i>
    <i name="e_wo_entrp">    -36.88536631 </i>
    <i name="e_0_energy">    -36.90181297 </i>
   </energy>
  </scstep>
  <structure>
   <crystal>
    <varray name="basis" >
     <v>       2.56679773       0.00000000       0.00000000 </v>
     <v>       1.28339887       2.22291204       0.00000000 </v>
     <v>       0.00000000       0.00000000      29.67047119 </v>
    </varray>
    <i name="volume">    169.29275369 </i>
    <varray name="rec_basis" >
     <v>       0.38959050      -0.22493018       0.00000000 </v>
     <v>       0.00000000       0.44986035       0.00000000 </v>
     <v>       0.00000000       0.00000000       0.03370354 </v>
    </varray>
   </crystal>
   <varray name="positions" >
    <v>       0.00000742      -0.00001483       0.00076739 </v>
    <v>       0.33331780       0.33336440       0.06999285 </v>
    <v>       0.66668225       0.66663550       0.13909291 </v>
    <v>      -0.00002248       0.00004497       0.20816269 </v>
    <v>       0.33335642       0.33328717       0.27652071 </v>
    <v>       0.66664288       0.66671424       0.34552000 </v>
    <v>       0.00008415      -0.00016829       0.41382716 </v>
    <v>       0.33420457       0.33159087       0.48013464 </v>
    <v>       0.00537295       0.98925410       0.53362409 </v>
    <v>       0.87503635       0.24992730       0.55406252 </v>
   </varray>
  </structure>
  <varray name="forces" >
   <v>      -0.00000000      -0.00048761       0.29814538 </v>
   <v>       0.00000000       0.00103182      -0.14120850 </v>
   <v>      -0.00000000      -0.00076250      -0.07991272 </v>
   <v>       0.00000000       0.00126552      -0.01268101 </v>
   <v>      -0.00000000      -0.00116015      -0.01930119 </v>
   <v>       0.00000000       0.00106120      -0.05354246 </v>
   <v>      -0.00000000      -0.01120155      -0.26426557 </v>
   <v>      -0.00000000      -0.06632085      -0.37997530 </v>
   <v>       0.00000000       0.68217977       0.69330387 </v>
   <v>      -0.00000000      -0.60560566      -0.04056251 </v>
  </varray>
  <varray name="stress" >
   <v>     -43.69193921      -0.00000000      -0.00000000 </v>
   <v>      -0.00000000     -45.20991992      -2.21310866 </v>
   <v>      -0.00000000      -2.21310304      -3.61189486 </v>
  </varray>
  <energy>
   <i name="e_fr_energy">    -40.60786294 </i>
   <i name="e_wo_entrp">    -40.58319294 </i>
   <i name="e_0_energy">    -40.59963960 </i>
  </energy>
  <time name="totalsc">    3.81    3.91</time>
 </calculation>
 <calculation>
  <scstep>
   <time name="dav">    0.28    0.28</time>
   <time name="total">    0.36    0.37</time>
   <energy>
    <i name="alphaZ">    285.34744303 </i>
    <i name="ewald">  52553.82320716 </i>
    <i name="hartreedc"> -63508.49610938 </i>
    <i name="XCdc">    362.94955047 </i>
    <i name="pawpsdc">  10578.81352080 </i>
    <i name="pawaedc"> -11441.10378165 </i>
    <i name="eentropy">     -0.02465985 </i>
    <i name="bandstr">    -20.85463636 </i>
    <i name="atom">  11152.61838693 </i>
    <i name="e_fr_energy">    -36.92707886 </i>
    <i name="e_wo_entrp">    -36.90241901 </i>
    <i name="e_0_energy">    -36.91885891 </i>
   </energy>
  </scstep>
  <scstep>
   <time name="dav">    0.34    0.34</time>
   <time name="total">    0.42    0.42</time>
   <energy>
    <i name="e_fr_energy">    -36.92891452 </i>
    <i name="e_wo_entrp">    -36.90525060 </i>
    <i name="e_0_energy">    -36.92102655 </i>
   </energy>
  </scstep>
  <scstep>
   <time name="dav">    0.31    0.31</time>
   <time name="total">    0.39    0.39</time>
   <energy>
    <i name="e_fr_energy">    -36.92988318 </i>
    <i name="e_wo_entrp">    -36.90206696 </i>
    <i name="e_0_energy">    -36.92061110 </i>
   </energy>
  </scstep>
  <scstep>
   <time name="dav">    0.23    0.23</time>
   <time name="total">    0.31    0.31</time>
   <energy>
    <i name="e_fr_energy">    -36.92876836 </i>
    <i name="e_wo_entrp">    -36.90501936 </i>
    <i name="e_0_energy">    -36.92085203 </i>
   </energy>
  </scstep>
  <scstep>
   <time name="dav">    0.23    0.23</time>
   <time name="total">    0.25    0.26</time>
   <energy>
    <i name="alphaZ">    285.34744303 </i>
    <i name="ewald">  52553.82320716 </i>
    <i name="hartreedc"> -63509.76901971 </i>
    <i name="XCdc">    362.97568693 </i>
    <i name="pawpsdc">  10577.70951078 </i>
    <i name="pawaedc"> -11439.94824521 </i>
    <i name="eentropy">     -0.02463103 </i>
    <i name="bandstr">    -19.66101181 </i>
    <i name="atom">  11152.61838693 </i>
    <i name="e_fr_energy">    -36.92867293 </i>
    <i name="e_wo_entrp">    -36.90404191 </i>
    <i name="e_0_energy">    -36.92046259 </i>
   </energy>
  </scstep>
  <structure>
   <crystal>
    <varray name="basis" >
     <v>       2.56679773       0.00000000       0.00000000 </v>
     <v>       1.28339887       2.22291204       0.00000000 </v>
     <v>       0.00000000       0.00000000      29.67047119 </v>
    </varray>
    <i name="volume">    169.29275369 </i>
    <varray name="rec_basis" >
     <v>       0.38959050      -0.22493018       0.00000000 </v>
     <v>       0.00000000       0.44986035       0.00000000 </v>
     <v>       0.00000000       0.00000000       0.03370354 </v>
    </varray>
   </crystal>
   <varray name="positions" >
    <v>       0.00000540      -0.00001079       0.00055828 </v>
    <v>       0.33332203       0.33335594       0.07016790 </v>
    <v>       0.66667801       0.66664399       0.13909101 </v>
    <v>      -0.00001636       0.00003271       0.20816335 </v>
    <v>       0.33335013       0.33329975       0.27653207 </v>
    <v>       0.66664936       0.66670128       0.34553099 </v>
    <v>       0.00006122      -0.00012244       0.41387588 </v>
    <v>       0.33396716       0.33206567       0.48047745 </v>
    <v>       0.00390888       0.99218225       0.53379718 </v>
    <v>       0.87675647       0.24648705       0.55351085 </v>
   </varray>
  </structure>
  <varray name="forces" >
   <v>      -0.00000000      -0.00096383       0.36448042 </v>
   <v>       0.00000000       0.00098159      -0.22933791 </v>
   <v>      -0.00000000      -0.00091752      -0.04642715 </v>
   <v>       0.00000000       0.00243708      -0.00073578 </v>
   <v>      -0.00000000      -0.00149766      -0.01592827 </v>
   <v>       0.00000000       0.00207697      -0.03976849 </v>
   <v>      -0.00000000      -0.01000186      -0.22167158 </v>
   <v>      -0.00000000      -0.07316745      -0.51901902 </v>
   <v>       0.00000000       0.57536793       0.60393655 </v>
   <v>      -0.00000000      -0.49431525       0.10447122 </v>
  </varray>
  <varray name="stress" >
   <v>     -43.56112697      -0.00000000      -0.00000000 </v>
   <v>      -0.00000000     -44.33592181      -1.48379176 </v>
   <v>      -0.00000000      -1.48378609      -3.31945513 </v>
  </varray>
  <energy>
   <i name="e_fr_energy">    -40.61158688 </i>
   <i name="e_wo_entrp">    -40.58695586 </i>
   <i name="e_0_energy">    -40.60337654 </i>
  </energy>
  <time name="totalsc">    2.20    2.29</time>
 </calculation>
 <calculation>
  <scstep>
   <time name="dav">    0.28    0.28</time>
   <time name="total">    0.36    0.36</time>
   <energy>
    <i name="alphaZ">    285.34744303 </i>
    <i name="ewald">  52882.15442086 </i>
    <i name="hartreedc"> -63837.79844449 </i>
    <i name="XCdc">    363.04187919 </i>
    <i name="pawpsdc">  10577.72266802 </i>
    <i name="pawaedc"> -11439.96962387 </i>
    <i name="eentropy">     -0.02268637 </i>
    <i name="bandstr">    -20.04269154 </i>
    <i name="atom">  11152.61838693 </i>
    <i name="e_fr_energy">    -36.94864824 </i>
    <i name="e_wo_entrp">    -36.92596186 </i>
    <i name="e_0_energy">    -36.94108611 </i>
   </energy>
  </scstep>
  <scstep>
   <time name="dav">    0.40    0.40</time>
   <time name="total">    0.48    0.48</time>
   <energy>
    <i name="e_fr_energy">    -36.98766333 </i>
    <i name="e_wo_entrp">    -36.95464410 </i>
    <i name="e_0_energy">    -36.97665692 </i>
   </energy>
  </scstep>
  <scstep>
   <time name="dav">    0.41    0.42</time>
   <time name="total">    0.49    0.50</time>
   <energy>
    <i name="e_fr_energy">    -36.98038866 </i>
    <i name="e_wo_entrp">    -36.96010922 </i>
    <i name="e_0_energy">    -36.97362885 </i>
   </energy>
  </scstep>
  <scstep>
   <time name="dav">    0.40    0.41</time>
   <time name="total">    0.49    0.49</time>
   <energy>
    <i name="e_fr_energy">    -36.97800489 </i>
    <i name="e_wo_entrp">    -36.95383375 </i>
    <i name="e_0_energy">    -36.96994784 </i>
   </energy>
  </scstep>
  <scstep>
   <time name="dav">    0.36    0.36</time>
   <time name="total">    0.44    0.45</time>
   <energy>
    <i name="e_fr_energy">    -36.97779900 </i>
    <i name="e_wo_entrp">    -36.95174764 </i>
    <i name="e_0_energy">    -36.96911521 </i>
   </energy>
  </scstep>
  <scstep>
   <time name="dav">    0.31    0.31</time>
   <time name="total">    0.39    0.40</time>
   <energy>
    <i name="e_fr_energy">    -36.97758780 </i>
    <i name="e_wo_entrp">    -36.95264897 </i>
    <i name="e_0_energy">    -36.96927485 </i>
   </energy>
  </scstep>
  <scstep>
   <time name="dav">    0.26    0.26</time>
   <time name="total">    0.34    0.35</time>
   <energy>
    <i name="e_fr_energy">    -36.97739670 </i>
    <i name="e_wo_entrp">    -36.95253979 </i>
    <i name="e_0_energy">    -36.96911106 </i>
   </energy>
  </scstep>
  <scstep>
   <time name="dav">    0.22    0.22</time>
   <time name="total">    0.24    0.24</time>
   <energy>
    <i name="alphaZ">    285.34744303 </i>
    <i name="ewald">  52882.15442086 </i>
    <i name="hartreedc"> -63836.31728939 </i>
    <i name="XCdc">    363.03926651 </i>
    <i name="pawpsdc">  10590.27066576 </i>
    <i name="pawaedc"> -11452.72926630 </i>
    <i name="eentropy">     -0.02453623 </i>
    <i name="bandstr">    -21.33647893 </i>
    <i name="atom">  11152.61838693 </i>
    <i name="e_fr_energy">    -36.97738775 </i>
    <i name="e_wo_entrp">    -36.95285152 </i>
    <i name="e_0_energy">    -36.96920900 </i>
   </energy>
  </scstep>
  <structure>
   <crystal>
    <varray name="basis" >
     <v>       2.56679773       0.00000000       0.00000000 </v>
     <v>       1.28339887       2.22291204       0.00000000 </v>
     <v>       0.00000000       0.00000000      29.67047119 </v>
    </varray>
    <i name="volume">    169.29275369 </i>
    <varray name="rec_basis" >
     <v>       0.38959050      -0.22493018       0.00000000 </v>
     <v>       0.00000000       0.44986035       0.00000000 </v>
     <v>       0.00000000       0.00000000       0.03370354 </v>
    </varray>
   </crystal>
   <varray name="positions" >
    <v>       0.00001837      -0.00003675       0.00143832 </v>
    <v>       0.33330549       0.33338902       0.06954769 </v>
    <v>       0.66669391       0.66661218       0.13902254 </v>
    <v>      -0.00005073       0.00010145       0.20816121 </v>
    <v>       0.33337511       0.33324978       0.27649021 </v>
    <v>       0.66661814       0.66676371       0.34545305 </v>
    <v>       0.00019889      -0.00039778       0.41346062 </v>
    <v>       0.33508082       0.32983836       0.47915542 </v>
    <v>       0.00024413       0.99951175       0.53446099 </v>
    <v>       0.87919816       0.24160368       0.55451491 </v>
   </varray>
  </structure>
  <varray name="forces" >
   <v>      -0.00000000      -0.00016857       0.15997589 </v>
   <v>       0.00000000       0.00051290       0.04843688 </v>
   <v>      -0.00000000      -0.00004060      -0.10986124 </v>
   <v>       0.00000000       0.00049185      -0.02338993 </v>
   <v>       0.00000000       0.00004328      -0.02272134 </v>
   <v>      -0.00000000      -0.00058219      -0.09188570 </v>
   <v>      -0.00000000      -0.01374698      -0.32101879 </v>
   <v>      -0.00000000      -0.05064496      -0.26593597 </v>
   <v>       0.00000000       0.49153909       0.54370705 </v>
   <v>      -0.00000000      -0.42740382       0.08269316 </v>
  </varray>
  <varray name="stress" >
   <v>     -45.02128969      -0.00000000      -0.00000000 </v>
   <v>      -0.00000000     -45.93816871      -1.28251532 </v>
   <v>      -0.00000000      -1.28250960      -1.03771114 </v>
  </varray>
  <energy>
   <i name="e_fr_energy">    -40.66589547 </i>
   <i name="e_wo_entrp">    -40.64135925 </i>
   <i name="e_0_energy">    -40.65771673 </i>
  </energy>
  <time name="totalsc">    3.71    3.79</time>
 </calculation>
 <calculation>
  <scstep>
   <time name="dav">    0.29    0.29</time>
   <time name="total">    0.37    0.37</time>
   <energy>
    <i name="alphaZ">    285.34744303 </i>
    <i name="ewald">  53522.31115360 </i>
    <i name="hartreedc"> -64475.54743312 </i>
    <i name="XCdc">    363.19449689 </i>
    <i name="pawpsdc">  10590.31194586 </i>
    <i name="pawaedc"> -11452.75550084 </i>
    <i name="eentropy">     -0.02121633 </i>
    <i name="bandstr">    -22.35069197 </i>
    <i name="atom">  11152.61838693 </i>
    <i name="e_fr_energy">    -36.89141596 </i>
    <i name="e_wo_entrp">    -36.87019962 </i>
    <i name="e_0_energy">    -36.88434385 </i>
   </energy>
  </scstep>
  <scstep>
   <time name="dav">    0.40    0.40</time>
   <time name="total">    0.48    0.48</time>
   <energy>
    <i name="e_fr_energy">    -37.03462157 </i>
    <i name="e_wo_entrp">    -36.99941659 </i>
    <i name="e_0_energy">    -37.02288658 </i>
   </energy>
  </scstep>
  <scstep>
   <time name="dav">    0.40    0.40</time>
   <time name="total">    0.48    0.48</time>
   <energy>
    <i name="e_fr_energy">    -37.01571808 </i>
    <i name="e_wo_entrp">    -36.99852342 </i>
    <i name="e_0_energy">    -37.00998653 </i>
   </energy>
  </scstep>
  <scstep>
   <time name="dav">    0.40    0.40</time>
   <time name="total">    0.48    0.48</time>
   <energy>
    <i name="e_fr_energy">    -37.00551148 </i>
    <i name="e_wo_entrp">    -36.98240500 </i>
    <i name="e_0_energy">    -36.99780932 </i>
   </energy>
  </scstep>
  <scstep>
   <time name="dav">    0.38    0.38</time>
   <time name="total">    0.46    0.46</time>
   <energy>
    <i name="e_fr_energy">    -37.00530607 </i>
    <i name="e_wo_entrp">    -36.97869732 </i>
    <i name="e_0_energy">    -36.99643649 </i>
   </energy>
  </scstep>
  <scstep>
   <time name="dav">    0.33    0.33</time>
   <time name="total">    0.41    0.41</time>
   <energy>
    <i name="e_fr_energy">    -37.00392083 </i>
    <i name="e_wo_entrp">    -36.97864761 </i>
    <i name="e_0_energy">    -36.99549642 </i>
   </energy>
  </scstep>
  <scstep>
   <time name="dav">    0.42    0.42</time>
   <time name="total">    0.50    0.51</time>
   <energy>
    <i name="e_fr_energy">    -37.00323012 </i>
    <i name="e_wo_entrp">    -36.97817782 </i>
    <i name="e_0_energy">    -36.99487935 </i>
   </energy>
  </scstep>
  <scstep>
   <time name="dav">    0.31    0.31</time>
   <time name="total">    0.33    0.33</time>
   <energy>
    <i name="alphaZ">    285.34744303 </i>
    <i name="ewald">  53522.31115360 </i>
    <i name="hartreedc"> -64472.64753670 </i>
    <i name="XCdc">    363.17402012 </i>
    <i name="pawpsdc">  10618.34375354 </i>
    <i name="pawaedc"> -11481.26222719 </i>
    <i name="eentropy">     -0.02388732 </i>
    <i name="bandstr">    -24.86431339 </i>
    <i name="atom">  11152.61838693 </i>
    <i name="e_fr_energy">    -37.00320739 </i>
    <i name="e_wo_entrp">    -36.97932006 </i>
    <i name="e_0_energy">    -36.99524494 </i>
   </energy>
  </scstep>
  <structure>
   <crystal>
    <varray name="basis" >
     <v>       2.56679773       0.00000000       0.00000000 </v>
     <v>       1.28339887       2.22291204       0.00000000 </v>
     <v>       0.00000000       0.00000000      29.67047119 </v>
    </varray>
    <i name="volume">    169.29275369 </i>
    <varray name="rec_basis" >
     <v>       0.38959050      -0.22493018       0.00000000 </v>
     <v>       0.00000000       0.44986035       0.00000000 </v>
     <v>       0.00000000       0.00000000       0.03370354 </v>
    </varray>
   </crystal>
   <varray name="positions" >
    <v>       0.00004340      -0.00008679       0.00313514 </v>
    <v>       0.33327359       0.33345282       0.06835184 </v>
    <v>       0.66672458       0.66655083       0.13889051 </v>
    <v>      -0.00011700       0.00023400       0.20815708 </v>
    <v>       0.33342328       0.33315345       0.27640951 </v>
    <v>       0.66655795       0.66688410       0.34530276 </v>
    <v>       0.00046435      -0.00092869       0.41265993 </v>
    <v>       0.33722810       0.32554380       0.47660637 </v>
    <v>      -0.00682202       0.01364404       0.53574092 </v>
    <v>       0.88390607       0.23218786       0.55645088 </v>
   </varray>
  </structure>
  <varray name="forces" >
   <v>       0.00000000       0.00069014      -0.34169420 </v>
   <v>      -0.00000000      -0.00028050       0.65204999 </v>
   <v>       0.00000000       0.00179757      -0.20035855 </v>
   <v>      -0.00000000      -0.00147409      -0.05453511 </v>
   <v>       0.00000000       0.00202768      -0.03169739 </v>
   <v>      -0.00000000      -0.00451687      -0.19322348 </v>
   <v>      -0.00000000      -0.02323812      -0.53870763 </v>
   <v>      -0.00000000      -0.01690552       0.24485272 </v>
   <v>       0.00000000       0.29714986       0.36490746 </v>
   <v>      -0.00000000      -0.25525016       0.09840619 </v>
  </varray>
  <varray name="stress" >
   <v>     -38.28287502      -0.00000000      -0.00000000 </v>
   <v>      -0.00000000     -39.14104940      -0.36758487 </v>
   <v>      -0.00000000      -0.36757860      14.21153760 </v>
  </varray>
  <energy>
   <i name="e_fr_energy">    -40.70401179 </i>
   <i name="e_wo_entrp">    -40.68012447 </i>
   <i name="e_0_energy">    -40.69604935 </i>
  </energy>
  <time name="totalsc">    3.98    4.07</time>
 </calculation>
 <calculation>
  <scstep>
   <time name="dav">    0.28    0.28</time>
   <time name="total">    0.37    0.37</time>
   <energy>
    <i name="alphaZ">    285.34744303 </i>
    <i name="ewald">  53913.82061931 </i>
    <i name="hartreedc"> -64863.97740944 </i>
    <i name="XCdc">    363.20200654 </i>
    <i name="pawpsdc">  10618.40994284 </i>
    <i name="pawaedc"> -11481.32824098 </i>
    <i name="eentropy">     -0.02435998 </i>
    <i name="bandstr">    -25.06780834 </i>
    <i name="atom">  11152.61838693 </i>
    <i name="e_fr_energy">    -36.99942008 </i>
    <i name="e_wo_entrp">    -36.97506011 </i>
    <i name="e_0_energy">    -36.99130009 </i>
   </energy>
  </scstep>
  <scstep>
   <time name="dav">    0.36    0.36</time>
   <time name="total">    0.44    0.44</time>
   <energy>
    <i name="e_fr_energy">    -37.04273195 </i>
    <i name="e_wo_entrp">    -37.02049230 </i>
    <i name="e_0_energy">    -37.03531873 </i>
   </energy>
  </scstep>
  <scstep>
   <time name="dav">    0.33    0.33</time>
   <time name="total">    0.41    0.41</time>
   <energy>
    <i name="e_fr_energy">    -37.04196700 </i>
    <i name="e_wo_entrp">    -37.01890073 </i>
    <i name="e_0_energy">    -37.03427824 </i>
   </energy>
  </scstep>
  <scstep>
   <time name="dav">    0.31    0.31</time>
   <time name="total">    0.39    0.40</time>
   <energy>
    <i name="e_fr_energy">    -37.04192720 </i>
    <i name="e_wo_entrp">    -37.01615112 </i>
    <i name="e_0_energy">    -37.03333517 </i>
   </energy>
  </scstep>
  <scstep>
   <time name="dav">    0.42    0.42</time>
   <time name="total">    0.50    0.51</time>
   <energy>
    <i name="e_fr_energy">    -37.04414652 </i>
    <i name="e_wo_entrp">    -37.02636906 </i>
    <i name="e_0_energy">    -37.03822070 </i>
   </energy>
  </scstep>
  <scstep>
   <time name="dav">    0.40    0.40</time>
   <time name="total">    0.49    0.49</time>
   <energy>
    <i name="e_fr_energy">    -37.03978308 </i>
    <i name="e_wo_entrp">    -37.01526653 </i>
    <i name="e_0_energy">    -37.03161089 </i>
   </energy>
  </scstep>
  <scstep>
   <time name="dav">    0.37    0.37</time>
   <time name="total">    0.45    0.45</time>
   <energy>
    <i name="e_fr_energy">    -37.03960221 </i>
    <i name="e_wo_entrp">    -37.01628470 </i>
    <i name="e_0_energy">    -37.03182970 </i>
   </energy>
  </scstep>
  <scstep>
   <time name="dav">    0.26    0.26</time>
   <time name="total">    0.28    0.28</time>
   <energy>
    <i name="alphaZ">    285.34744303 </i>
    <i name="ewald">  53913.82061931 </i>
    <i name="hartreedc"> -64862.41863664 </i>
    <i name="XCdc">    363.24747971 </i>
    <i name="pawpsdc">  10622.78204249 </i>
    <i name="pawaedc"> -11485.76060823 </i>
    <i name="eentropy">     -0.02352299 </i>
    <i name="bandstr">    -26.65282929 </i>
    <i name="atom">  11152.61838693 </i>
    <i name="e_fr_energy">    -37.03962567 </i>
    <i name="e_wo_entrp">    -37.01610268 </i>
    <i name="e_0_energy">    -37.03178468 </i>
   </energy>
  </scstep>
  <structure>
   <crystal>
    <varray name="basis" >
     <v>       2.56679773       0.00000000       0.00000000 </v>
     <v>       1.28339887       2.22291204       0.00000000 </v>
     <v>       0.00000000       0.00000000      29.67047119 </v>
    </varray>
    <i name="volume">    169.29275369 </i>
    <varray name="rec_basis" >
     <v>       0.38959050      -0.22493018       0.00000000 </v>
     <v>       0.00000000       0.44986035       0.00000000 </v>
     <v>       0.00000000       0.00000000       0.03370354 </v>
    </varray>
   </crystal>
   <varray name="positions" >
    <v>       0.00004593      -0.00009187       0.00324463 </v>
    <v>       0.33326184       0.33347632       0.06915069 </v>
    <v>       0.66671416       0.66657167       0.13839856 </v>
    <v>      -0.00012875       0.00025749       0.20803888 </v>
    <v>       0.33341822       0.33316356       0.27630216 </v>
    <v>       0.66659246       0.66681509       0.34481700 </v>
    <v>       0.00092571      -0.00185141       0.41111727 </v>
    <v>       0.33852808       0.32294383       0.47587003 </v>
    <v>      -0.01453344       0.02906688       0.53714987 </v>
    <v>       0.88985808       0.22028385       0.55761587 </v>
   </varray>
  </structure>
  <varray name="forces" >
   <v>       0.00000000       0.00060753      -0.22191004 </v>
   <v>      -0.00000000      -0.00100859       0.37705126 </v>
   <v>       0.00000000       0.00130885       0.00251716 </v>
   <v>      -0.00000000      -0.00140628      -0.09144516 </v>
   <v>       0.00000000       0.00237737      -0.09121703 </v>
   <v>      -0.00000000      -0.00783452      -0.31020397 </v>
   <v>      -0.00000000      -0.02262429      -0.18857533 </v>
   <v>      -0.00000000      -0.00551150       0.10744653 </v>
   <v>      -0.00000000      -0.37004404      -0.51442505 </v>
   <v>       0.00000000       0.40413546       0.93076162 </v>
  </varray>
  <varray name="stress" >
   <v>     -41.23315680      -0.00000000       0.00000000 </v>
   <v>      -0.00000000     -39.56031599       3.41351747 </v>
   <v>       0.00000000       3.41352141      16.61049594 </v>
  </varray>
  <energy>
   <i name="e_fr_energy">    -40.74716388 </i>
   <i name="e_wo_entrp">    -40.72364088 </i>
   <i name="e_0_energy">    -40.73932288 </i>
  </energy>
  <time name="totalsc">    3.80    3.88</time>
 </calculation>
 <calculation>
  <scstep>
   <time name="dav">    0.28    0.28</time>
   <time name="total">    0.36    0.36</time>
   <energy>
    <i name="alphaZ">    285.34744303 </i>
    <i name="ewald">  53947.18171349 </i>
    <i name="hartreedc"> -64895.95267293 </i>
    <i name="XCdc">    363.24806350 </i>
    <i name="pawpsdc">  10622.79053468 </i>
    <i name="pawaedc"> -11485.74943850 </i>
    <i name="eentropy">     -0.02352234 </i>
    <i name="bandstr">    -26.49950349 </i>
    <i name="atom">  11152.61838693 </i>
    <i name="e_fr_energy">    -37.03899563 </i>
    <i name="e_wo_entrp">    -37.01547329 </i>
    <i name="e_0_energy">    -37.03115485 </i>
   </energy>
  </scstep>
  <scstep>
   <time name="dav">    0.36    0.36</time>
   <time name="total">    0.44    0.45</time>
   <energy>
    <i name="e_fr_energy">    -37.03929184 </i>
    <i name="e_wo_entrp">    -37.01580560 </i>
    <i name="e_0_energy">    -37.03146309 </i>
   </energy>
  </scstep>
  <scstep>
   <time name="dav">    0.22    0.22</time>
   <time name="total">    0.24    0.25</time>
   <energy>
    <i name="alphaZ">    285.34744303 </i>
    <i name="ewald">  53947.18171349 </i>
    <i name="hartreedc"> -64895.97238503 </i>
    <i name="XCdc">    363.24884259 </i>
    <i name="pawpsdc">  10622.91855923 </i>
    <i name="pawaedc"> -11485.85670503 </i>
    <i name="eentropy">     -0.02315541 </i>
    <i name="bandstr">    -26.50199989 </i>
    <i name="atom">  11152.61838693 </i>
    <i name="e_fr_energy">    -37.03930009 </i>
    <i name="e_wo_entrp">    -37.01614468 </i>
    <i name="e_0_energy">    -37.03158162 </i>
   </energy>
  </scstep>
  <structure>
   <crystal>
    <varray name="basis" >
     <v>       2.56679773       0.00000000       0.00000000 </v>
     <v>       1.28339887       2.22291204       0.00000000 </v>
     <v>       0.00000000       0.00000000      29.67047119 </v>
    </varray>
    <i name="volume">    169.29275369 </i>
    <varray name="rec_basis" >
     <v>       0.38959050      -0.22493018       0.00000000 </v>
     <v>       0.00000000       0.44986035       0.00000000 </v>
     <v>       0.00000000       0.00000000       0.03370354 </v>
    </varray>
   </crystal>
   <varray name="positions" >
    <v>       0.00004615      -0.00009230       0.00325392 </v>
    <v>       0.33326084       0.33347832       0.06921845 </v>
    <v>       0.66671328       0.66657344       0.13835683 </v>
    <v>      -0.00012974       0.00025949       0.20802885 </v>
    <v>       0.33341779       0.33316441       0.27629306 </v>
    <v>       0.66659538       0.66680923       0.34477580 </v>
    <v>       0.00096484      -0.00192968       0.41098641 </v>
    <v>       0.33863836       0.32272329       0.47580757 </v>
    <v>      -0.01518757       0.03037514       0.53726938 </v>
    <v>       0.89036296       0.21927408       0.55771469 </v>
   </varray>
  </structure>
  <varray name="forces" >
   <v>       0.00000000       0.00016988      -0.20555321 </v>
   <v>      -0.00000000      -0.00148383       0.34607498 </v>
   <v>       0.00000000       0.00088280       0.02173362 </v>
   <v>      -0.00000000      -0.00191250      -0.10072604 </v>
   <v>       0.00000000       0.00183399      -0.10336373 </v>
   <v>      -0.00000000      -0.00854808      -0.32296233 </v>
   <v>      -0.00000000      -0.02257504      -0.15799701 </v>
   <v>      -0.00000000      -0.00435786       0.09672178 </v>
   <v>      -0.00000000      -0.42672770      -0.59701989 </v>
   <v>       0.00000000       0.46271835       1.02309182 </v>
  </varray>
  <varray name="stress" >
   <v>     -36.00777863      -0.00000000       0.00000000 </v>
   <v>      -0.00000000     -34.17364700       3.73464314 </v>
   <v>       0.00000000       3.73464761      22.25956573 </v>
  </varray>
  <energy>
   <i name="e_fr_energy">    -40.74758468 </i>
   <i name="e_wo_entrp">    -40.72442927 </i>
   <i name="e_0_energy">    -40.73986621 </i>
  </energy>
  <time name="totalsc">    1.52    1.55</time>
 </calculation>
 <calculation>
  <scstep>
   <time name="dav">    0.28    0.28</time>
   <time name="total">    0.36    0.36</time>
   <energy>
    <i name="alphaZ">    285.34744303 </i>
    <i name="ewald">  54142.58592198 </i>
    <i name="hartreedc"> -65091.94962085 </i>
    <i name="XCdc">    363.22745333 </i>
    <i name="pawpsdc">  10623.02253902 </i>
    <i name="pawaedc"> -11485.96984273 </i>
    <i name="eentropy">     -0.02511386 </i>
    <i name="bandstr">    -25.91126844 </i>
    <i name="atom">  11152.61838693 </i>
    <i name="e_fr_energy">    -37.05410159 </i>
    <i name="e_wo_entrp">    -37.02898774 </i>
    <i name="e_0_energy">    -37.04573031 </i>
   </energy>
  </scstep>
  <scstep>
   <time name="dav">    0.39    0.39</time>
   <time name="total">    0.47    0.47</time>
   <energy>
    <i name="e_fr_energy">    -37.06774557 </i>
    <i name="e_wo_entrp">    -37.04855769 </i>
    <i name="e_0_energy">    -37.06134961 </i>
   </energy>
  </scstep>
  <scstep>
   <time name="dav">    0.36    0.37</time>
   <time name="total">    0.44    0.44</time>
   <energy>
    <i name="e_fr_energy">    -37.06699537 </i>
    <i name="e_wo_entrp">    -37.04093918 </i>
    <i name="e_0_energy">    -37.05830997 </i>
   </energy>
  </scstep>
  <scstep>
   <time name="dav">    0.32    0.32</time>
   <time name="total">    0.39    0.40</time>
   <energy>
    <i name="e_fr_energy">    -37.06596006 </i>
    <i name="e_wo_entrp">    -37.04314803 </i>
    <i name="e_0_energy">    -37.05835605 </i>
   </energy>
  </scstep>
  <scstep>
   <time name="dav">    0.32    0.32</time>
   <time name="total">    0.40    0.40</time>
   <energy>
    <i name="e_fr_energy">    -37.06584733 </i>
    <i name="e_wo_entrp">    -37.04271046 </i>
    <i name="e_0_energy">    -37.05813504 </i>
   </energy>
  </scstep>
  <scstep>
   <time name="dav">    0.34    0.35</time>
   <time name="total">    0.42    0.43</time>
   <energy>
    <i name="e_fr_energy">    -37.06551026 </i>
    <i name="e_wo_entrp">    -37.04150449 </i>
    <i name="e_0_energy">    -37.05750834 </i>
   </energy>
  </scstep>
  <scstep>
   <time name="dav">    0.26    0.26</time>
   <time name="total">    0.29    0.29</time>
   <energy>
    <i name="alphaZ">    285.34744303 </i>
    <i name="ewald">  54142.58592198 </i>
    <i name="hartreedc"> -65089.73554819 </i>
    <i name="XCdc">    363.20774524 </i>
    <i name="pawpsdc">  10621.82183280 </i>
    <i name="pawaedc"> -11484.75400557 </i>
    <i name="eentropy">     -0.02359974 </i>
    <i name="bandstr">    -28.13367569 </i>
    <i name="atom">  11152.61838693 </i>
    <i name="e_fr_energy">    -37.06549921 </i>
    <i name="e_wo_entrp">    -37.04189947 </i>
    <i name="e_0_energy">    -37.05763263 </i>
   </energy>
  </scstep>
  <structure>
   <crystal>
    <varray name="basis" >
     <v>       2.56679773       0.00000000       0.00000000 </v>
     <v>       1.28339887       2.22291204       0.00000000 </v>
     <v>       0.00000000       0.00000000      29.67047119 </v>
    </varray>
    <i name="volume">    169.29275369 </i>
    <varray name="rec_basis" >
     <v>       0.38959050      -0.22493018       0.00000000 </v>
     <v>       0.00000000       0.44986035       0.00000000 </v>
     <v>       0.00000000       0.00000000       0.03370354 </v>
    </varray>
   </crystal>
   <varray name="positions" >
    <v>       0.00004661      -0.00009322       0.00317795 </v>
    <v>       0.33326156       0.33347689       0.06979343 </v>
    <v>       0.66670494       0.66659013       0.13814643 </v>
    <v>      -0.00012728       0.00025455       0.20791348 </v>
    <v>       0.33340801       0.33318399       0.27618101 </v>
    <v>       0.66664598       0.66670805       0.34435732 </v>
    <v>       0.00126680      -0.00253361       0.41018827 </v>
    <v>       0.33924728       0.32150545       0.47553192 </v>
    <v>      -0.01695178       0.03390357       0.53754480 </v>
    <v>       0.89118019       0.21763962       0.55887035 </v>
   </varray>
  </structure>
  <varray name="forces" >
   <v>       0.00000000       0.00075768      -0.09819216 </v>
   <v>      -0.00000000      -0.00069344       0.13637104 </v>
   <v>       0.00000000       0.00090505       0.13542886 </v>
   <v>      -0.00000000      -0.00152099      -0.10485515 </v>
   <v>       0.00000000       0.00164632      -0.14549880 </v>
   <v>      -0.00000000      -0.00919086      -0.34475185 </v>
   <v>      -0.00000000      -0.02029780       0.02137486 </v>
   <v>      -0.00000000      -0.00359086       0.04099882 </v>
   <v>      -0.00000000      -0.13756680      -0.21508632 </v>
   <v>       0.00000000       0.16955171       0.57421069 </v>
  </varray>
  <varray name="stress" >
   <v>     -38.11209893      -0.00000000       0.00000000 </v>
   <v>      -0.00000000     -37.48956261       2.10795096 </v>
   <v>       0.00000000       2.10795549      17.06177775 </v>
  </varray>
  <energy>
   <i name="e_fr_energy">    -40.77856031 </i>
   <i name="e_wo_entrp">    -40.75496057 </i>
   <i name="e_0_energy">    -40.77069373 </i>
  </energy>
  <time name="totalsc">    3.23    3.28</time>
 </calculation>
 <calculation>
  <scstep>
   <time name="dav">    0.28    0.28</time>
   <time name="total">    0.36    0.36</time>
   <energy>
    <i name="alphaZ">    285.34744303 </i>
    <i name="ewald">  54402.49784329 </i>
    <i name="hartreedc"> -65350.16375634 </i>
    <i name="XCdc">    363.18238439 </i>
    <i name="pawpsdc">  10621.85645672 </i>
    <i name="pawaedc"> -11484.79338884 </i>
    <i name="eentropy">     -0.02527117 </i>
    <i name="bandstr">    -27.57271222 </i>
    <i name="atom">  11152.61838693 </i>
    <i name="e_fr_energy">    -37.05261422 </i>
    <i name="e_wo_entrp">    -37.02734305 </i>
    <i name="e_0_energy">    -37.04419049 </i>
   </energy>
  </scstep>
  <scstep>
   <time name="dav">    0.36    0.36</time>
   <time name="total">    0.44    0.44</time>
   <energy>
    <i name="e_fr_energy">    -37.07568423 </i>
    <i name="e_wo_entrp">    -37.05598666 </i>
    <i name="e_0_energy">    -37.06911837 </i>
   </energy>
  </scstep>
  <scstep>
   <time name="dav">    0.32    0.33</time>
   <time name="total">    0.40    0.41</time>
   <energy>
    <i name="e_fr_energy">    -37.07558422 </i>
    <i name="e_wo_entrp">    -37.04894279 </i>
    <i name="e_0_energy">    -37.06670375 </i>
   </energy>
  </scstep>
  <scstep>
   <time name="dav">    0.33    0.33</time>
   <time name="total">    0.40    0.41</time>
   <energy>
    <i name="e_fr_energy">    -37.07442055 </i>
    <i name="e_wo_entrp">    -37.05214475 </i>
    <i name="e_0_energy">    -37.06699528 </i>
   </energy>
  </scstep>
  <scstep>
   <time name="dav">    0.36    0.36</time>
   <time name="total">    0.44    0.44</time>
   <energy>
    <i name="e_fr_energy">    -37.07418431 </i>
    <i name="e_wo_entrp">    -37.05066993 </i>
    <i name="e_0_energy">    -37.06634618 </i>
   </energy>
  </scstep>
  <scstep>
   <time name="dav">    0.36    0.36</time>
   <time name="total">    0.44    0.44</time>
   <energy>
    <i name="e_fr_energy">    -37.07349986 </i>
    <i name="e_wo_entrp">    -37.04945595 </i>
    <i name="e_0_energy">    -37.06548523 </i>
   </energy>
  </scstep>
  <scstep>
   <time name="dav">    0.29    0.30</time>
   <time name="total">    0.32    0.32</time>
   <energy>
    <i name="alphaZ">    285.34744303 </i>
    <i name="ewald">  54402.49784329 </i>
    <i name="hartreedc"> -65346.88125322 </i>
    <i name="XCdc">    363.15220925 </i>
    <i name="pawpsdc">  10620.71941655 </i>
    <i name="pawaedc"> -11483.65690834 </i>
    <i name="eentropy">     -0.02343640 </i>
    <i name="bandstr">    -30.84713982 </i>
    <i name="atom">  11152.61838693 </i>
    <i name="e_fr_energy">    -37.07343872 </i>
    <i name="e_wo_entrp">    -37.05000233 </i>
    <i name="e_0_energy">    -37.06562659 </i>
   </energy>
  </scstep>
  <structure>
   <crystal>
    <varray name="basis" >
     <v>       2.56679773       0.00000000       0.00000000 </v>
     <v>       1.28339887       2.22291204       0.00000000 </v>
     <v>       0.00000000       0.00000000      29.67047119 </v>
    </varray>
    <i name="volume">    169.29275369 </i>
    <varray name="rec_basis" >
     <v>       0.38959050      -0.22493018       0.00000000 </v>
     <v>       0.00000000       0.44986035       0.00000000 </v>
     <v>       0.00000000       0.00000000       0.03370354 </v>
    </varray>
   </crystal>
   <varray name="positions" >
    <v>       0.00004722      -0.00009444       0.00307753 </v>
    <v>       0.33326250       0.33347500       0.07055350 </v>
    <v>       0.66669391       0.66661218       0.13786830 </v>
    <v>      -0.00012402       0.00024803       0.20776096 </v>
    <v>       0.33339507       0.33320986       0.27603289 </v>
    <v>       0.66671286       0.66657429       0.34380414 </v>
    <v>       0.00166597      -0.00333194       0.40913319 </v>
    <v>       0.34005222       0.31989557       0.47516753 </v>
    <v>      -0.01928392       0.03856784       0.53790888 </v>
    <v>       0.89226049       0.21547902       0.56039804 </v>
   </varray>
  </structure>
  <varray name="forces" >
   <v>       0.00000000       0.00065820       0.03910595 </v>
   <v>      -0.00000000      -0.00069527      -0.16441867 </v>
   <v>       0.00000000       0.00093346       0.30303183 </v>
   <v>      -0.00000000      -0.00129346      -0.11809669 </v>
   <v>       0.00000000       0.00150600      -0.21140170 </v>
   <v>      -0.00000000      -0.01207332      -0.37550912 </v>
   <v>      -0.00000000      -0.01733839       0.26187174 </v>
   <v>       0.00000000       0.00010081      -0.01483794 </v>
   <v>       0.00000000       0.17043913       0.26322717 </v>
   <v>      -0.00000000      -0.14223717       0.01702743 </v>
  </varray>
  <varray name="stress" >
   <v>     -36.14706936      -0.00000000       0.00000000 </v>
   <v>      -0.00000000     -36.72210632       0.21862862 </v>
   <v>       0.00000000       0.21863270      15.24570207 </v>
  </varray>
  <energy>
   <i name="e_fr_energy">    -40.79358855 </i>
   <i name="e_wo_entrp">    -40.77015216 </i>
   <i name="e_0_energy">    -40.78577642 </i>
  </energy>
  <time name="totalsc">    3.27    3.34</time>
 </calculation>
 <calculation>
  <scstep>
   <time name="dav">    0.27    0.28</time>
   <time name="total">    0.35    0.36</time>
   <energy>
    <i name="alphaZ">    285.34744303 </i>
    <i name="ewald">  54490.80669182 </i>
    <i name="hartreedc"> -65435.38886976 </i>
    <i name="XCdc">    363.14933987 </i>
    <i name="pawpsdc">  10620.80765909 </i>
    <i name="pawaedc"> -11483.75952222 </i>
    <i name="eentropy">     -0.02406652 </i>
    <i name="bandstr">    -30.63707805 </i>
    <i name="atom">  11152.61838693 </i>
    <i name="e_fr_energy">    -37.08001580 </i>
    <i name="e_wo_entrp">    -37.05594929 </i>
    <i name="e_0_energy">    -37.07199363 </i>
   </energy>
  </scstep>
  <scstep>
   <time name="dav">    0.36    0.36</time>
   <time name="total">    0.44    0.44</time>
   <energy>
    <i name="e_fr_energy">    -37.08355511 </i>
    <i name="e_wo_entrp">    -37.06043797 </i>
    <i name="e_0_energy">    -37.07584939 </i>
   </energy>
  </scstep>
  <scstep>
   <time name="dav">    0.29    0.29</time>
   <time name="total">    0.31    0.32</time>
   <energy>
    <i name="alphaZ">    285.34744303 </i>
    <i name="ewald">  54490.80669182 </i>
    <i name="hartreedc"> -65434.91919600 </i>
    <i name="XCdc">    363.14742194 </i>
    <i name="pawpsdc">  10620.69722481 </i>
    <i name="pawaedc"> -11483.61255069 </i>
    <i name="eentropy">     -0.02418253 </i>
    <i name="bandstr">    -31.14472885 </i>
    <i name="atom">  11152.61838693 </i>
    <i name="e_fr_energy">    -37.08348954 </i>
    <i name="e_wo_entrp">    -37.05930701 </i>
    <i name="e_0_energy">    -37.07542870 </i>
   </energy>
  </scstep>
  <structure>
   <crystal>
    <varray name="basis" >
     <v>       2.56679773       0.00000000       0.00000000 </v>
     <v>       1.28339887       2.22291204       0.00000000 </v>
     <v>       0.00000000       0.00000000      29.67047119 </v>
    </varray>
    <i name="volume">    169.29275369 </i>
    <varray name="rec_basis" >
     <v>       0.38959050      -0.22493018       0.00000000 </v>
     <v>       0.00000000       0.44986035       0.00000000 </v>
     <v>       0.00000000       0.00000000       0.03370354 </v>
    </varray>
   </crystal>
   <varray name="positions" >
    <v>       0.00004402      -0.00008804       0.00307464 </v>
    <v>       0.33326640       0.33346720       0.07067713 </v>
    <v>       0.66668545       0.66662910       0.13801092 </v>
    <v>      -0.00011626       0.00023253       0.20761928 </v>
    <v>       0.33338302       0.33323395       0.27582049 </v>
    <v>       0.66679725       0.66640549       0.34333113 </v>
    <v>       0.00188720      -0.00377440       0.40898760 </v>
    <v>       0.34031732       0.31936537       0.47503580 </v>
    <v>      -0.02093338       0.04186675       0.53823264 </v>
    <v>       0.89335127       0.21329747       0.56091532 </v>
   </varray>
  </structure>
  <varray name="forces" >
   <v>      -0.00000000      -0.00037820       0.05028448 </v>
   <v>      -0.00000000      -0.00191215      -0.17260764 </v>
   <v>       0.00000000       0.00021300       0.24311193 </v>
   <v>      -0.00000000      -0.00227721      -0.09411582 </v>
   <v>      -0.00000000      -0.00008051      -0.22517724 </v>
   <v>      -0.00000000      -0.01197788      -0.25256082 </v>
   <v>      -0.00000000      -0.01788132       0.18601859 </v>
   <v>      -0.00000000      -0.00017837      -0.00976748 </v>
   <v>       0.00000000       0.15999458       0.25604436 </v>
   <v>      -0.00000000      -0.12552194       0.01876963 </v>
  </varray>
  <varray name="stress" >
   <v>     -36.79502312      -0.00000000       0.00000000 </v>
   <v>      -0.00000000     -37.42295646       0.28529378 </v>
   <v>       0.00000000       0.28529727      13.80493936 </v>
  </varray>
  <energy>
   <i name="e_fr_energy">    -40.80450146 </i>
   <i name="e_wo_entrp">    -40.78031893 </i>
   <i name="e_0_energy">    -40.79644061 </i>
  </energy>
  <time name="totalsc">    1.58    1.66</time>
 </calculation>
 <calculation>
  <scstep>
   <time name="dav">    0.28    0.28</time>
   <time name="total">    0.36    0.36</time>
   <energy>
    <i name="alphaZ">    285.34744303 </i>
    <i name="ewald">  54757.43210628 </i>
    <i name="hartreedc"> -65701.26565404 </i>
    <i name="XCdc">    363.14078106 </i>
    <i name="pawpsdc">  10620.62143113 </i>
    <i name="pawaedc"> -11483.53633496 </i>
    <i name="eentropy">     -0.02529632 </i>
    <i name="bandstr">    -31.40628167 </i>
    <i name="atom">  11152.61838693 </i>
    <i name="e_fr_energy">    -37.07341855 </i>
    <i name="e_wo_entrp">    -37.04812222 </i>
    <i name="e_0_energy">    -37.06498644 </i>
   </energy>
  </scstep>
  <scstep>
   <time name="dav">    0.36    0.36</time>
   <time name="total">    0.44    0.44</time>
   <energy>
    <i name="e_fr_energy">    -37.10527124 </i>
    <i name="e_wo_entrp">    -37.08050500 </i>
    <i name="e_0_energy">    -37.09701582 </i>
   </energy>
  </scstep>
  <scstep>
   <time name="dav">    0.36    0.36</time>
   <time name="total">    0.44    0.44</time>
   <energy>
    <i name="e_fr_energy">    -37.10487778 </i>
    <i name="e_wo_entrp">    -37.08195058 </i>
    <i name="e_0_energy">    -37.09723538 </i>
   </energy>
  </scstep>
  <scstep>
   <time name="dav">    0.33    0.33</time>
   <time name="total">    0.41    0.41</time>
   <energy>
    <i name="e_fr_energy">    -37.10378368 </i>
    <i name="e_wo_entrp">    -37.07765690 </i>
    <i name="e_0_energy">    -37.09507475 </i>
   </energy>
  </scstep>
  <scstep>
   <time name="dav">    0.42    0.42</time>
   <time name="total">    0.50    0.50</time>
   <energy>
    <i name="e_fr_energy">    -37.10354996 </i>
    <i name="e_wo_entrp">    -37.08257374 </i>
    <i name="e_0_energy">    -37.09655789 </i>
   </energy>
  </scstep>
  <scstep>
   <time name="dav">    0.37    0.38</time>
   <time name="total">    0.45    0.46</time>
   <energy>
    <i name="e_fr_energy">    -37.10219103 </i>
    <i name="e_wo_entrp">    -37.07646222 </i>
    <i name="e_0_energy">    -37.09361476 </i>
   </energy>
  </scstep>
  <scstep>
   <time name="dav">    0.34    0.34</time>
   <time name="total">    0.41    0.42</time>
   <energy>
    <i name="e_fr_energy">    -37.10189026 </i>
    <i name="e_wo_entrp">    -37.07743740 </i>
    <i name="e_0_energy">    -37.09373931 </i>
   </energy>
  </scstep>
  <scstep>
   <time name="dav">    0.25    0.25</time>
   <time name="total">    0.27    0.28</time>
   <energy>
    <i name="alphaZ">    285.34744303 </i>
[...]
       <r>    11.2005     1.9325    57.5913 </r>
       <r>    11.2906     0.7149    57.6557 </r>
       <r>    11.3807     0.0678    57.6618 </r>
       <r>    11.4708     0.8167    57.7354 </r>
       <r>    11.5609     2.5924    57.9690 </r>
       <r>    11.6510     3.9740    58.3271 </r>
       <r>    11.7411     3.8081    58.6702 </r>
       <r>    11.8312     2.4522    58.8912 </r>
       <r>    11.9213     1.1248    58.9926 </r>
       <r>    12.0115     0.6471    59.0509 </r>
       <r>    12.1016     1.0322    59.1439 </r>
       <r>    12.1917     1.7513    59.3017 </r>
       <r>    12.2818     2.0794    59.4891 </r>
       <r>    12.3719     1.5432    59.6281 </r>
       <r>    12.4620     0.5810    59.6805 </r>
       <r>    12.5521    -0.0017    59.6803 </r>
       <r>    12.6422    -0.0980    59.6715 </r>
       <r>    12.7323    -0.0431    59.6676 </r>
       <r>    12.8225    -0.0108    59.6666 </r>
       <r>    12.9126    -0.0097    59.6658 </r>
       <r>    13.0027    -0.0297    59.6631 </r>
       <r>    13.0928    -0.0402    59.6595 </r>
       <r>    13.1829     0.0840    59.6670 </r>
       <r>    13.2730     0.4553    59.7081 </r>
       <r>    13.3631     0.8388    59.7836 </r>
       <r>    13.4532     0.8021    59.8559 </r>
       <r>    13.5433     0.3911    59.8912 </r>
       <r>    13.6335     0.0514    59.8958 </r>
       <r>    13.7236    -0.0429    59.8919 </r>
       <r>    13.8137    -0.0258    59.8896 </r>
       <r>    13.9038    -0.0068    59.8890 </r>
       <r>    13.9939    -0.0010    59.8889 </r>
       <r>    14.0840    -0.0001    59.8889 </r>
       <r>    14.1741    -0.0000    59.8889 </r>
       <r>    14.2642    -0.0000    59.8889 </r>
       <r>    14.3543    -0.0000    59.8889 </r>
       <r>    14.4445    -0.0000    59.8889 </r>
       <r>    14.5346    -0.0000    59.8889 </r>
       <r>    14.6247    -0.0000    59.8889 </r>
       <r>    14.7148    -0.0000    59.8889 </r>
       <r>    14.8049    -0.0000    59.8889 </r>
       <r>    14.8950    -0.0000    59.8889 </r>
       <r>    14.9851    -0.0000    59.8889 </r>
       <r>    15.0752    -0.0000    59.8889 </r>
       <r>    15.1653    -0.0000    59.8889 </r>
       <r>    15.2554    -0.0000    59.8889 </r>
       <r>    15.3456    -0.0000    59.8889 </r>
       <r>    15.4357    -0.0000    59.8889 </r>
       <r>    15.5258    -0.0000    59.8889 </r>
       <r>    15.6159    -0.0001    59.8889 </r>
       <r>    15.7060    -0.0008    59.8888 </r>
       <r>    15.7961    -0.0047    59.8884 </r>
       <r>    15.8862    -0.0165    59.8869 </r>
       <r>    15.9763    -0.0213    59.8850 </r>
       <r>    16.0664     0.0517    59.8896 </r>
       <r>    16.1566     0.2562    59.9127 </r>
       <r>    16.2467     0.4436    59.9527 </r>
       <r>    16.3368     0.3901    59.9878 </r>
       <r>    16.4269     0.1645    60.0027 </r>
       <r>    16.5170     0.0077    60.0034 </r>
       <r>    16.6071    -0.0235    60.0012 </r>
       <r>    16.6972    -0.0110    60.0003 </r>
       <r>    16.7873    -0.0025    60.0000 </r>
       <r>    16.8774    -0.0003    60.0000 </r>
       <r>    16.9676    -0.0000    60.0000 </r>
       <r>    17.0577    -0.0000    60.0000 </r>
       <r>    17.1478    -0.0000    60.0000 </r>
       <r>    17.2379    -0.0000    60.0000 </r>
       <r>    17.3280    -0.0000    60.0000 </r>
       <r>    17.4181    -0.0000    60.0000 </r>
       <r>    17.5082    -0.0000    60.0000 </r>
       <r>    17.5983     0.0000    60.0000 </r>
       <r>    17.6884     0.0000    60.0000 </r>
       <r>    17.7786     0.0000    60.0000 </r>
       <r>    17.8687     0.0000    60.0000 </r>
       <r>    17.9588     0.0000    60.0000 </r>
       <r>    18.0489     0.0000    60.0000 </r>
       <r>    18.1390     0.0000    60.0000 </r>
       <r>    18.2291     0.0000    60.0000 </r>
      </set>
      <set comment="spin 2">
       <r>    -8.8041     0.0000     0.0000 </r>
       <r>    -8.7140     0.0000     0.0000 </r>
       <r>    -8.6239     0.0000     0.0000 </r>
       <r>    -8.5338     0.0000     0.0000 </r>
       <r>    -8.4437    -0.0000    -0.0000 </r>
       <r>    -8.3536    -0.0000    -0.0000 </r>
       <r>    -8.2635    -0.0000    -0.0000 </r>
       <r>    -8.1734    -0.0000    -0.0000 </r>
       <r>    -8.0833    -0.0000    -0.0000 </r>
       <r>    -7.9931    -0.0000    -0.0000 </r>
       <r>    -7.9030    -0.0000    -0.0000 </r>
       <r>    -7.8129    -0.0000    -0.0000 </r>
       <r>    -7.7228    -0.0000    -0.0000 </r>
       <r>    -7.6327    -0.0000    -0.0000 </r>
       <r>    -7.5426    -0.0000    -0.0000 </r>
       <r>    -7.4525    -0.0000    -0.0000 </r>
       <r>    -7.3624    -0.0003    -0.0000 </r>
       <r>    -7.2723    -0.0025    -0.0003 </r>
       <r>    -7.1822    -0.0110    -0.0012 </r>
       <r>    -7.0920    -0.0235    -0.0034 </r>
       <r>    -7.0019     0.0076    -0.0027 </r>
       <r>    -6.9118     0.1633     0.0120 </r>
       <r>    -6.8217     0.3829     0.0465 </r>
       <r>    -6.7316     0.4230     0.0847 </r>
       <r>    -6.6415     0.2434     0.1066 </r>
       <r>    -6.5514     0.1504     0.1201 </r>
       <r>    -6.4613     0.3012     0.1473 </r>
       <r>    -6.3712     0.4321     0.1862 </r>
       <r>    -6.2810     0.3046     0.2137 </r>
       <r>    -6.1909     0.0972     0.2224 </r>
       <r>    -6.1008     0.1092     0.2323 </r>
       <r>    -6.0107     0.3244     0.2615 </r>
       <r>    -5.9206     0.4330     0.3005 </r>
       <r>    -5.8305     0.2809     0.3258 </r>
       <r>    -5.7404     0.1229     0.3369 </r>
       <r>    -5.6503     0.2176     0.3565 </r>
       <r>    -5.5602     0.4147     0.3939 </r>
       <r>    -5.4700     0.3997     0.4299 </r>
       <r>    -5.3799     0.1846     0.4465 </r>
       <r>    -5.2898     0.0156     0.4479 </r>
       <r>    -5.1997    -0.0273     0.4455 </r>
       <r>    -5.1096    -0.0262     0.4431 </r>
       <r>    -5.0195    -0.0263     0.4407 </r>
       <r>    -4.9294     0.0285     0.4433 </r>
       <r>    -4.8393     0.2137     0.4626 </r>
       <r>    -4.7492     0.4238     0.5008 </r>
       <r>    -4.6590     0.4189     0.5385 </r>
       <r>    -4.5689     0.2051     0.5570 </r>
       <r>    -4.4788     0.0242     0.5592 </r>
       <r>    -4.3887    -0.0303     0.5564 </r>
       <r>    -4.2986    -0.0526     0.5517 </r>
       <r>    -4.2085    -0.1314     0.5399 </r>
       <r>    -4.1184    -0.1586     0.5256 </r>
       <r>    -4.0283     0.3517     0.5573 </r>
       <r>    -3.9382     1.7831     0.7179 </r>
       <r>    -3.8481     3.4655     1.0302 </r>
       <r>    -3.7579     4.2116     1.4097 </r>
       <r>    -3.6678     3.6595     1.7395 </r>
       <r>    -3.5777     2.5415     1.9685 </r>
       <r>    -3.4876     2.1576     2.1629 </r>
       <r>    -3.3975     2.4982     2.3880 </r>
       <r>    -3.3074     2.0652     2.5741 </r>
       <r>    -3.2173     0.9433     2.6591 </r>
       <r>    -3.1272     0.9607     2.7457 </r>
       <r>    -3.0371     2.3509     2.9575 </r>
       <r>    -2.9469     3.0239     3.2300 </r>
       <r>    -2.8568     1.8550     3.3972 </r>
       <r>    -2.7667     0.5496     3.4467 </r>
       <r>    -2.6766     1.0653     3.5427 </r>
       <r>    -2.5865     2.9208     3.8059 </r>
       <r>    -2.4964     3.8498     4.1528 </r>
       <r>    -2.4063     2.9646     4.4200 </r>
       <r>    -2.3162     1.9604     4.5966 </r>
       <r>    -2.2261     2.1649     4.7917 </r>
       <r>    -2.1359     2.4581     5.0132 </r>
       <r>    -2.0458     1.7798     5.1736 </r>
       <r>    -1.9557     1.2878     5.2896 </r>
       <r>    -1.8656     1.9424     5.4646 </r>
       <r>    -1.7755     3.3578     5.7672 </r>
       <r>    -1.6854     6.0380     6.3113 </r>
       <r>    -1.5953    10.4451     7.2525 </r>
       <r>    -1.5052    14.3821     8.5485 </r>
       <r>    -1.4151    14.6474     9.8684 </r>
       <r>    -1.3249    11.1644    10.8744 </r>
       <r>    -1.2348     7.5683    11.5564 </r>
       <r>    -1.1447     6.1963    12.1148 </r>
       <r>    -1.0546     5.8119    12.6385 </r>
       <r>    -0.9645     5.1162    13.0995 </r>
       <r>    -0.8744     4.9414    13.5448 </r>
       <r>    -0.7843     6.7673    14.1546 </r>
       <r>    -0.6942     9.9992    15.0556 </r>
       <r>    -0.6041    12.7505    16.2046 </r>
       <r>    -0.5139    15.1627    17.5709 </r>
       <r>    -0.4238    17.3944    19.1383 </r>
       <r>    -0.3337    17.0960    20.6789 </r>
       <r>    -0.2436    13.5888    21.9034 </r>
       <r>    -0.1535     9.8053    22.7869 </r>
       <r>    -0.0634     8.1182    23.5185 </r>
       <r>     0.0267     8.6250    24.2957 </r>
       <r>     0.1168    10.5374    25.2452 </r>
       <r>     0.2069    12.7780    26.3966 </r>
       <r>     0.2970    14.5079    27.7039 </r>
       <r>     0.3872    15.1440    29.0686 </r>
       <r>     0.4773    15.4075    30.4570 </r>
       <r>     0.5674    17.2047    32.0073 </r>
       <r>     0.6575    20.3653    33.8424 </r>
       <r>     0.7476    22.3771    35.8588 </r>
       <r>     0.8377    21.1992    37.7691 </r>
       <r>     0.9278    17.3552    39.3330 </r>
       <r>     1.0179    14.1622    40.6092 </r>
       <r>     1.1080    13.6802    41.8419 </r>
       <r>     1.1982    13.2408    43.0351 </r>
       <r>     1.2883     9.9036    43.9275 </r>
       <r>     1.3784     5.0128    44.3792 </r>
       <r>     1.4685     1.3684    44.5025 </r>
       <r>     1.5586    -0.1923    44.4852 </r>
       <r>     1.6487    -0.4616    44.4436 </r>
       <r>     1.7388    -0.1958    44.4259 </r>
       <r>     1.8289     0.7022    44.4892 </r>
       <r>     1.9190     2.1729    44.6850 </r>
       <r>     2.0092     2.9635    44.9521 </r>
       <r>     2.0993     2.2051    45.1508 </r>
       <r>     2.1894     0.8904    45.2310 </r>
       <r>     2.2795     0.2668    45.2550 </r>
       <r>     2.3696     0.3098    45.2830 </r>
       <r>     2.4597     0.3670    45.3160 </r>
       <r>     2.5498     0.1980    45.3339 </r>
       <r>     2.6399    -0.0055    45.3334 </r>
       <r>     2.7300    -0.1347    45.3212 </r>
       <r>     2.8202    -0.1230    45.3102 </r>
       <r>     2.9103     0.4331    45.3492 </r>
       <r>     3.0004     1.7351    45.5055 </r>
       <r>     3.0905     2.7186    45.7505 </r>
       <r>     3.1806     2.1804    45.9470 </r>
       <r>     3.2707     0.8079    46.0198 </r>
       <r>     3.3608    -0.0158    46.0184 </r>
       <r>     3.4509    -0.1352    46.0062 </r>
       <r>     3.5410    -0.0557    46.0012 </r>
       <r>     3.6311    -0.0115    46.0001 </r>
       <r>     3.7213    -0.0015    46.0000 </r>
       <r>     3.8114    -0.0007    45.9999 </r>
       <r>     3.9015    -0.0058    45.9994 </r>
       <r>     3.9916    -0.0342    45.9963 </r>
       <r>     4.0817    -0.1095    45.9865 </r>
       <r>     4.1718    -0.1119    45.9764 </r>
       <r>     4.2619     0.4180    46.0141 </r>
       <r>     4.3520     1.7079    46.1680 </r>
       <r>     4.4421     2.7126    46.4124 </r>
       <r>     4.5323     2.2041    46.6110 </r>
       <r>     4.6224     0.8324    46.6860 </r>
       <r>     4.7125    -0.0079    46.6853 </r>
       <r>     4.8026    -0.1362    46.6730 </r>
       <r>     4.8927    -0.0570    46.6679 </r>
       <r>     4.9828    -0.0120    46.6668 </r>
       <r>     5.0729    -0.0016    46.6667 </r>
       <r>     5.1630    -0.0014    46.6665 </r>
       <r>     5.2531    -0.0104    46.6656 </r>
       <r>     5.3433    -0.0538    46.6608 </r>
       <r>     5.4334    -0.1535    46.6469 </r>
       <r>     5.5235    -0.1485    46.6335 </r>
       <r>     5.6136     0.4691    46.6758 </r>
       <r>     5.7037     2.0956    46.8647 </r>
       <r>     5.7938     4.3126    47.2533 </r>
       <r>     5.8839     5.8803    47.7831 </r>
       <r>     5.9740     5.4078    48.2704 </r>
       <r>     6.0641     3.1909    48.5580 </r>
       <r>     6.1543     1.4746    48.6909 </r>
       <r>     6.2444     1.2173    48.8006 </r>
       <r>     6.3345     1.2603    48.9141 </r>
       <r>     6.4246     0.8773    48.9932 </r>
       <r>     6.5147     0.4883    49.0372 </r>
       <r>     6.6048     0.3510    49.0688 </r>
       <r>     6.6949     0.2644    49.0926 </r>
       <r>     6.7850     0.2985    49.1195 </r>
       <r>     6.8751     0.7105    49.1836 </r>
       <r>     6.9653     1.5732    49.3253 </r>
       <r>     7.0554     2.7770    49.5756 </r>
       <r>     7.1455     3.5293    49.8936 </r>
       <r>     7.2356     2.8878    50.1538 </r>
       <r>     7.3257     1.4031    50.2802 </r>
       <r>     7.4158     0.4050    50.3167 </r>
       <r>     7.5059     0.4521    50.3575 </r>
       <r>     7.5960     1.3527    50.4794 </r>
       <r>     7.6861     2.2288    50.6802 </r>
       <r>     7.7762     2.1197    50.8712 </r>
       <r>     7.8664     1.1427    50.9742 </r>
       <r>     7.9565     0.2545    50.9971 </r>
       <r>     8.0466     0.2273    51.0176 </r>
       <r>     8.1367     1.0554    51.1127 </r>
       <r>     8.2268     1.8736    51.2815 </r>
       <r>     8.3169     2.0771    51.4687 </r>
       <r>     8.4070     2.2691    51.6732 </r>
       <r>     8.4971     2.6593    51.9128 </r>
       <r>     8.5872     2.2986    52.1199 </r>
       <r>     8.6774     1.3136    52.2383 </r>
       <r>     8.7675     0.9891    52.3274 </r>
       <r>     8.8576     1.5955    52.4712 </r>
       <r>     8.9477     2.5221    52.6985 </r>
       <r>     9.0378     3.0641    52.9746 </r>
       <r>     9.1279     2.6765    53.2158 </r>
       <r>     9.2180     2.0516    53.4006 </r>
       <r>     9.3081     2.4568    53.6220 </r>
       <r>     9.3982     3.3576    53.9246 </r>
       <r>     9.4884     2.9664    54.1919 </r>
       <r>     9.5785     1.4536    54.3229 </r>
       <r>     9.6686     0.8799    54.4022 </r>
       <r>     9.7587     1.7857    54.5631 </r>
       <r>     9.8488     2.4615    54.7849 </r>
       <r>     9.9389     2.0862    54.9729 </r>
       <r>    10.0290     1.9828    55.1515 </r>
       <r>    10.1191     2.4917    55.3761 </r>
       <r>    10.2092     2.1943    55.5738 </r>
       <r>    10.2994     1.1285    55.6755 </r>
       <r>    10.3895     0.8617    55.7531 </r>
       <r>    10.4796     1.7858    55.9141 </r>
       <r>    10.5697     2.8603    56.1718 </r>
       <r>    10.6598     3.1216    56.4531 </r>
       <r>    10.7499     2.5958    56.6870 </r>
       <r>    10.8400     1.9302    56.8609 </r>
       <r>    10.9301     1.6756    57.0119 </r>
       <r>    11.0202     2.0450    57.1962 </r>
       <r>    11.1103     2.4500    57.4170 </r>
       <r>    11.2005     1.9331    57.5912 </r>
       <r>    11.2906     0.7156    57.6557 </r>
       <r>    11.3807     0.0680    57.6618 </r>
       <r>    11.4708     0.8163    57.7353 </r>
       <r>    11.5609     2.5916    57.9689 </r>
       <r>    11.6510     3.9733    58.3269 </r>
       <r>    11.7411     3.8082    58.6701 </r>
       <r>    11.8312     2.4529    58.8911 </r>
       <r>    11.9213     1.1255    58.9925 </r>
       <r>    12.0115     0.6472    59.0508 </r>
       <r>    12.1016     1.0317    59.1438 </r>
       <r>    12.1917     1.7508    59.3016 </r>
       <r>    12.2818     2.0794    59.4890 </r>
       <r>    12.3719     1.5438    59.6281 </r>
       <r>    12.4620     0.5816    59.6805 </r>
       <r>    12.5521    -0.0015    59.6803 </r>
       <r>    12.6422    -0.0980    59.6715 </r>
       <r>    12.7323    -0.0431    59.6676 </r>
       <r>    12.8225    -0.0108    59.6666 </r>
       <r>    12.9126    -0.0097    59.6658 </r>
       <r>    13.0027    -0.0297    59.6631 </r>
       <r>    13.0928    -0.0403    59.6595 </r>
       <r>    13.1829     0.0838    59.6670 </r>
       <r>    13.2730     0.4549    59.7080 </r>
       <r>    13.3631     0.8386    59.7836 </r>
       <r>    13.4532     0.8023    59.8559 </r>
       <r>    13.5433     0.3914    59.8911 </r>
       <r>    13.6335     0.0516    59.8958 </r>
       <r>    13.7236    -0.0429    59.8919 </r>
       <r>    13.8137    -0.0259    59.8896 </r>
       <r>    13.9038    -0.0068    59.8890 </r>
       <r>    13.9939    -0.0010    59.8889 </r>
       <r>    14.0840    -0.0001    59.8889 </r>
       <r>    14.1741    -0.0000    59.8889 </r>
       <r>    14.2642    -0.0000    59.8889 </r>
       <r>    14.3543    -0.0000    59.8889 </r>
       <r>    14.4445    -0.0000    59.8889 </r>
       <r>    14.5346    -0.0000    59.8889 </r>
       <r>    14.6247    -0.0000    59.8889 </r>
       <r>    14.7148    -0.0000    59.8889 </r>
       <r>    14.8049    -0.0000    59.8889 </r>
       <r>    14.8950    -0.0000    59.8889 </r>
       <r>    14.9851    -0.0000    59.8889 </r>
       <r>    15.0752    -0.0000    59.8889 </r>
       <r>    15.1653    -0.0000    59.8889 </r>
       <r>    15.2554    -0.0000    59.8889 </r>
       <r>    15.3456    -0.0000    59.8889 </r>
       <r>    15.4357    -0.0000    59.8889 </r>
       <r>    15.5258    -0.0000    59.8889 </r>
       <r>    15.6159    -0.0001    59.8889 </r>
       <r>    15.7060    -0.0008    59.8888 </r>
       <r>    15.7961    -0.0047    59.8884 </r>
       <r>    15.8862    -0.0165    59.8869 </r>
       <r>    15.9763    -0.0213    59.8850 </r>
       <r>    16.0664     0.0516    59.8896 </r>
       <r>    16.1566     0.2560    59.9127 </r>
       <r>    16.2467     0.4436    59.9527 </r>
       <r>    16.3368     0.3902    59.9878 </r>
       <r>    16.4269     0.1646    60.0027 </r>
       <r>    16.5170     0.0078    60.0034 </r>
       <r>    16.6071    -0.0235    60.0012 </r>
       <r>    16.6972    -0.0110    60.0003 </r>
       <r>    16.7873    -0.0025    60.0000 </r>
       <r>    16.8774    -0.0003    60.0000 </r>
       <r>    16.9676    -0.0000    60.0000 </r>
       <r>    17.0577    -0.0000    60.0000 </r>
       <r>    17.1478    -0.0000    60.0000 </r>
       <r>    17.2379    -0.0000    60.0000 </r>
       <r>    17.3280    -0.0000    60.0000 </r>
       <r>    17.4181    -0.0000    60.0000 </r>
       <r>    17.5082    -0.0000    60.0000 </r>
       <r>    17.5983     0.0000    60.0000 </r>
       <r>    17.6884     0.0000    60.0000 </r>
       <r>    17.7786     0.0000    60.0000 </r>
       <r>    17.8687     0.0000    60.0000 </r>
       <r>    17.9588     0.0000    60.0000 </r>
       <r>    18.0489     0.0000    60.0000 </r>
       <r>    18.1390     0.0000    60.0000 </r>
       <r>    18.2291     0.0000    60.0000 </r>
      </set>
     </set>
    </array>
   </total>
  </dos>
 </calculation>
 <structure name="finalpos" >
  <crystal>
   <varray name="basis" >
    <v>       2.56679773       0.00000000       0.00000000 </v>
    <v>       1.28339887       2.22291204       0.00000000 </v>
    <v>       0.00000000       0.00000000      29.67047119 </v>
   </varray>
   <i name="volume">    169.29275369 </i>
   <varray name="rec_basis" >
    <v>       0.38959050      -0.22493018       0.00000000 </v>
    <v>       0.00000000       0.44986035       0.00000000 </v>
    <v>       0.00000000       0.00000000       0.03370354 </v>
   </varray>
  </crystal>
  <varray name="positions" >
   <v>      -0.00051664       0.00103327      -0.00050246 </v>
   <v>       0.33301345       0.33397310       0.06666920 </v>
   <v>       0.66671307       0.66657387       0.13476415 </v>
   <v>       0.00113510      -0.00227020       0.20332249 </v>
   <v>       0.33659252       0.32681497       0.27125365 </v>
   <v>       0.67290768       0.65418465       0.33976243 </v>
   <v>       0.00801517      -0.01603034       0.40796869 </v>
   <v>       0.34077155       0.31845690       0.47524289 </v>
   <v>      -0.05928446       0.11856893       0.54897117 </v>
   <v>       0.91533486       0.16933027       0.57425276 </v>
  </varray>
 </structure>
</modeling>
