unknown system                          
           1
     2.566798    0.000000    0.000000
     1.283399    2.222912    0.000000
     0.000000    0.000000   29.670471
   Cu   H 
     8     2
Direct configuration=     1
   0.00000000  0.00000000  0.00000000
   0.33333333  0.33333333  0.07063526
   0.66666667  0.66666667  0.13908594
   0.00000000  0.00000000  0.20816512
   0.33333333  0.33333333  0.27656240
   0.66666667  0.66666667  0.34556034
   0.00000000  0.00000000  0.41400593
   0.33333333  0.33333333  0.48139269
   0.00000000  1.00000000  0.53425930
   0.88134896  0.23730208  0.55203798
Direct configuration=     2
   0.00000742 -0.00001483  0.00076739
   0.33331780  0.33336440  0.06999285
   0.66668225  0.66663550  0.13909291
  -0.00002248  0.00004497  0.20816269
   0.33335642  0.33328717  0.27652071
   0.66664288  0.66671424  0.34552000
   0.00008415 -0.00016829  0.41382716
   0.33420457  0.33159087  0.48013464
   0.00537295  0.98925410  0.53362409
   0.87503635  0.24992730  0.55406252
Direct configuration=     3
   0.00000540 -0.00001079  0.00055828
   0.33332203  0.33335594  0.07016790
   0.66667801  0.66664399  0.13909101
  -0.00001636  0.00003271  0.20816335
   0.33335013  0.33329975  0.27653207
   0.66664936  0.66670128  0.34553099
   0.00006122 -0.00012244  0.41387588
   0.33396716  0.33206567  0.48047745
   0.00390888  0.99218225  0.53379718
   0.87675647  0.24648705  0.55351085
Direct configuration=     4
   0.00001837 -0.00003675  0.00143832
   0.33330549  0.33338902  0.06954769
   0.66669391  0.66661218  0.13902254
  -0.00005073  0.00010145  0.20816121
   0.33337511  0.33324978  0.27649021
   0.66661814  0.66676371  0.34545305
   0.00019889 -0.00039778  0.41346062
   0.33508082  0.32983836  0.47915542
   0.00024413  0.99951175  0.53446099
   0.87919816  0.24160368  0.55451491
Direct configuration=     5
   0.00004340 -0.00008679  0.00313514
   0.33327359  0.33345282  0.06835184
   0.66672458  0.66655083  0.13889051
  -0.00011700  0.00023400  0.20815708
   0.33342328  0.33315345  0.27640951
   0.66655795  0.66688410  0.34530276
   0.00046435 -0.00092869  0.41265993
   0.33722810  0.32554380  0.47660637
  -0.00682202  0.01364404  0.53574092
   0.88390607  0.23218786  0.55645088
Direct configuration=     6
   0.00004593 -0.00009187  0.00324463
   0.33326184  0.33347632  0.06915069
   0.66671416  0.66657167  0.13839856
  -0.00012875  0.00025749  0.20803888
   0.33341822  0.33316356  0.27630216
   0.66659246  0.66681509  0.34481700
   0.00092571 -0.00185141  0.41111727
   0.33852808  0.32294383  0.47587003
  -0.01453344  0.02906688  0.53714987
   0.88985808  0.22028385  0.55761587
Direct configuration=     7
   0.00004615 -0.00009230  0.00325392
   0.33326084  0.33347832  0.06921845
   0.66671328  0.66657344  0.13835683
  -0.00012974  0.00025949  0.20802885
   0.33341779  0.33316441  0.27629306
   0.66659538  0.66680923  0.34477580
   0.00096484 -0.00192968  0.41098641
   0.33863836  0.32272329  0.47580757
  -0.01518757  0.03037514  0.53726938
   0.89036296  0.21927408  0.55771469
Direct configuration=     8
   0.00004661 -0.00009322  0.00317795
   0.33326156  0.33347689  0.06979343
   0.66670494  0.66659013  0.13814643
  -0.00012728  0.00025455  0.20791348
   0.33340801  0.33318399  0.27618101
   0.66664598  0.66670805  0.34435732
   0.00126680 -0.00253361  0.41018827
   0.33924728  0.32150545  0.47553192
  -0.01695178  0.03390357  0.53754480
   0.89118019  0.21763962  0.55887035
Direct configuration=     9
   0.00004722 -0.00009444  0.00307753
   0.33326250  0.33347500  0.07055350
   0.66669391  0.66661218  0.13786830
  -0.00012402  0.00024803  0.20776096
   0.33339507  0.33320986  0.27603289
   0.66671286  0.66657429  0.34380414
   0.00166597 -0.00333194  0.40913319
   0.34005222  0.31989557  0.47516753
  -0.01928392  0.03856784  0.53790888
   0.89226049  0.21547902  0.56039804
Direct configuration=    10
   0.00004402 -0.00008804  0.00307464
   0.33326640  0.33346720  0.07067713
   0.66668545  0.66662910  0.13801092
  -0.00011626  0.00023253  0.20761928
   0.33338302  0.33323395  0.27582049
   0.66679725  0.66640549  0.34333113
   0.00188720 -0.00377440  0.40898760
   0.34031732  0.31936537  0.47503580
  -0.02093338  0.04186675  0.53823264
   0.89335127  0.21329747  0.56091532
Direct configuration=    11
   0.00003443 -0.00006886  0.00306597
   0.33327810  0.33344379  0.07104802
   0.66666008  0.66667985  0.13843880
  -0.00009300  0.00018601  0.20719424
   0.33334689  0.33330621  0.27518327
   0.66705044  0.66589911  0.34191209
   0.00255088 -0.00510177  0.40855082
   0.34111261  0.31777477  0.47464064
  -0.02588174  0.05176349  0.53920392
   0.89662359  0.20675281  0.56246719
Direct configuration=    12
   0.00001525 -0.00003050  0.00304864
   0.33330151  0.33339698  0.07178979
   0.66660933  0.66678134  0.13929456
  -0.00004648  0.00009296  0.20634416
   0.33327463  0.33345074  0.27390884
   0.66755683  0.66488635  0.33907400
   0.00387825 -0.00775650  0.40767727
   0.34270321  0.31459358  0.47385031
  -0.03577848  0.07155695  0.54114647
   0.90316825  0.19366351  0.56557091
Direct configuration=    13
   0.00002607 -0.00005215  0.00305842
   0.33328830  0.33342340  0.07137113
   0.66663797  0.66672406  0.13881156
  -0.00007274  0.00014548  0.20682396
   0.33331542  0.33336917  0.27462814
   0.66727102  0.66545796  0.34067585
   0.00312907 -0.00625814  0.40817031
   0.34180546  0.31638908  0.47429638
  -0.03019264  0.06038527  0.54005007
   0.89947436  0.20105127  0.56381913
Direct configuration=    14
   0.00000586 -0.00001173  0.00331736
   0.33329078  0.33341843  0.07112594
   0.66661174  0.66677653  0.13904744
  -0.00006118  0.00012236  0.20668548
   0.33332160  0.33335681  0.27368222
   0.66750151  0.66499698  0.34048909
   0.00366170 -0.00732340  0.40780641
   0.34210796  0.31578409  0.47417938
  -0.03383613  0.06767226  0.54091903
   0.90207845  0.19584309  0.56445262
Direct configuration=    15
   0.00000161 -0.00000322  0.00337185
   0.33329131  0.33341738  0.07107435
   0.66660622  0.66678757  0.13909707
  -0.00005875  0.00011750  0.20665634
   0.33332290  0.33335421  0.27348319
   0.66755001  0.66489998  0.34044980
   0.00377377 -0.00754754  0.40772985
   0.34217160  0.31565679  0.47415476
  -0.03460274  0.06920548  0.54110186
   0.90262637  0.19474726  0.56458590
Direct configuration=    16
  -0.00002332  0.00004664  0.00371238
   0.33329974  0.33340051  0.07071875
   0.66658101  0.66683798  0.13903408
  -0.00004004  0.00008009  0.20645863
   0.33337162  0.33325676  0.27256602
   0.66787352  0.66425296  0.34048421
   0.00437087 -0.00874174  0.40739874
   0.34232265  0.31535470  0.47405124
  -0.03658407  0.07316815  0.54141531
   0.90351032  0.19297937  0.56586562
Direct configuration=    17
  -0.00001465  0.00002930  0.00359398
   0.33329681  0.33340638  0.07084239
   0.66658977  0.66682045  0.13905598
  -0.00004655  0.00009309  0.20652737
   0.33335468  0.33329064  0.27288490
   0.66776104  0.66447792  0.34047224
   0.00416327 -0.00832654  0.40751386
   0.34227014  0.31545973  0.47408723
  -0.03589520  0.07179040  0.54130633
   0.90320298  0.19359403  0.56542069
Direct configuration=    18
  -0.00003709  0.00007418  0.00367372
   0.33328412  0.33343176  0.07075469
   0.66657133  0.66685733  0.13874844
  -0.00004586  0.00009172  0.20632737
   0.33340268  0.33319464  0.27284148
   0.66795930  0.66408139  0.34048343
   0.00442308 -0.00884616  0.40751241
   0.34220161  0.31559677  0.47407606
  -0.03684127  0.07368254  0.54156132
   0.90376438  0.19247125  0.56572606
Direct configuration=    19
  -0.00010440  0.00020880  0.00391291
   0.33324605  0.33350791  0.07049159
   0.66651601  0.66696797  0.13782582
  -0.00004380  0.00008759  0.20572736
   0.33354668  0.33290664  0.27271122
   0.66855410  0.66289180  0.34051699
   0.00520252 -0.01040504  0.40750805
   0.34199604  0.31600791  0.47404253
  -0.03967947  0.07935894  0.54232629
   0.90544856  0.18910288  0.56664219
Direct configuration=    20
  -0.00013265  0.00026530  0.00401331
   0.33323007  0.33353987  0.07038117
   0.66649280  0.66701441  0.13743860
  -0.00004293  0.00008586  0.20547554
   0.33360711  0.33278577  0.27265654
   0.66880373  0.66239253  0.34053107
   0.00552965 -0.01105930  0.40750623
   0.34190977  0.31618046  0.47402846
  -0.04087067  0.08174134  0.54264735
   0.90615541  0.18768918  0.56702669
Direct configuration=    21
  -0.00015477  0.00030954  0.00371329
   0.33321795  0.33356410  0.07021352
   0.66649870  0.66700261  0.13725849
  -0.00000996  0.00001992  0.20512931
   0.33377774  0.33244453  0.27261675
   0.66916759  0.66166481  0.34037300
   0.00581661 -0.01163322  0.40762346
   0.34179048  0.31641904  0.47409089
  -0.04226361  0.08452721  0.54305846
   0.90684156  0.18631688  0.56762777
Direct configuration=    22
  -0.00022113  0.00044226  0.00281326
   0.33318160  0.33363680  0.06971059
   0.66651640  0.66696720  0.13671817
   0.00008894 -0.00017788  0.20409063
   0.33428961  0.33142078  0.27249737
   0.67025917  0.65948165  0.33989879
   0.00667749 -0.01335499  0.40797516
   0.34143261  0.31713477  0.47427818
  -0.04644242  0.09288484  0.54429178
   0.90890001  0.18219998  0.56943103
Direct configuration=    23
  -0.00019706  0.00039413  0.00313967
   0.33319478  0.33361043  0.06989298
   0.66650998  0.66698004  0.13691413
   0.00005307 -0.00010615  0.20446732
   0.33410397  0.33179206  0.27254066
   0.66986330  0.66027340  0.34007077
   0.00636528 -0.01273057  0.40784761
   0.34156240  0.31687520  0.47421026
  -0.04492692  0.08985383  0.54384450
   0.90815349  0.18369303  0.56877706
Direct configuration=    24
  -0.00021022  0.00042044  0.00297695
   0.33318617  0.33362766  0.06978754
   0.66651177  0.66697646  0.13684617
   0.00007129 -0.00014258  0.20437082
   0.33419500  0.33161000  0.27246798
   0.67003093  0.65993814  0.34003431
   0.00648770 -0.01297540  0.40787209
   0.34150509  0.31698982  0.47426984
  -0.04566431  0.09132861  0.54409876
   0.90856888  0.18286225  0.56898050
Direct configuration=    25
  -0.00024520  0.00049039  0.00254436
   0.33316326  0.33367347  0.06950722
   0.66651653  0.66696694  0.13666551
   0.00011972 -0.00023943  0.20411428
   0.33443699  0.33112601  0.27227475
   0.67047657  0.65904686  0.33993737
   0.00681314 -0.01362627  0.40793715
   0.34135274  0.31729451  0.47442825
  -0.04762464  0.09524928  0.54477471
   0.90967318  0.18065364  0.56952136
Direct configuration=    26
  -0.00031515  0.00063030  0.00167919
   0.33311745  0.33376509  0.06894658
   0.66652604  0.66694791  0.13630419
   0.00021657 -0.00043314  0.20360119
   0.33492099  0.33015803  0.27188830
   0.67136785  0.65726430  0.33974349
   0.00746401 -0.01492802  0.40806728
   0.34104805  0.31790390  0.47474506
  -0.05154531  0.10309063  0.54612661
   0.91188179  0.17623642  0.57060308
Direct configuration=    27
  -0.00027311  0.00054623  0.00219907
   0.33314498  0.33371004  0.06928347
   0.66652033  0.66695935  0.13652131
   0.00015837 -0.00031674  0.20390950
   0.33463016  0.33073969  0.27212052
   0.67083228  0.65833544  0.33985999
   0.00707290 -0.01414580  0.40798909
   0.34123114  0.31753772  0.47455469
  -0.04918939  0.09837878  0.54531425
   0.91055464  0.17889072  0.56995308
Direct configuration=    28
  -0.00029794  0.00059588  0.00193635
   0.33312791  0.33374418  0.06907007
   0.66652235  0.66695529  0.13640392
   0.00019451 -0.00038903  0.20385465
   0.33478972  0.33042056  0.27194044
   0.67109078  0.65781845  0.33985643
   0.00724893 -0.01449785  0.40798110
   0.34114346  0.31771307  0.47467333
  -0.05015079  0.10030158  0.54561677
   0.91101336  0.17797329  0.57037190
Direct configuration=    29
  -0.00036835  0.00073671  0.00119112
   0.33307950  0.33384101  0.06846475
   0.66652811  0.66694378  0.13607095
   0.00029703 -0.00059407  0.20369906
   0.33524234  0.32951533  0.27142964
   0.67182401  0.65635197  0.33984632
   0.00774823 -0.01549646  0.40795845
   0.34089476  0.31821048  0.47500987
  -0.05287786  0.10575572  0.54647489
   0.91231452  0.17537095  0.57155992
Direct configuration=    30
  -0.00050918  0.00101836 -0.00029933
   0.33298266  0.33403467  0.06725411
   0.66653963  0.66692075  0.13540500
   0.00050207 -0.00100415  0.20338788
   0.33614757  0.32770486  0.27040805
   0.67329049  0.65341902  0.33982610
   0.00874684 -0.01749367  0.40791313
   0.34039735  0.31920529  0.47568294
  -0.05833200  0.11666400  0.54819113
   0.91491686  0.17016628  0.57393595
Direct configuration=    31
  -0.00041455  0.00082910  0.00070217
   0.33304773  0.33390454  0.06806759
   0.66653189  0.66693622  0.13585248
   0.00036430 -0.00072860  0.20359697
   0.33553930  0.32892139  0.27109450
   0.67230510  0.65538980  0.33983969
   0.00807583 -0.01615166  0.40794358
   0.34073158  0.31853683  0.47523067
  -0.05466712  0.10933425  0.54703792
   0.91316824  0.17366353  0.57233939
Direct configuration=    32
  -0.00044094  0.00088187  0.00045368
   0.33302864  0.33394273  0.06779390
   0.66653843  0.66692314  0.13567581
   0.00043689 -0.00087377  0.20358532
   0.33572427  0.32855146  0.27099534
   0.67254039  0.65491921  0.33981984
   0.00819274 -0.01638548  0.40794054
   0.34067249  0.31865502  0.47531774
  -0.05573820  0.11147641  0.54746128
   0.91372758  0.17254483  0.57266152
Direct configuration=    33
  -0.00044911  0.00089823  0.00037664
   0.33302272  0.33395457  0.06770905
   0.66654046  0.66691908  0.13562104
   0.00045939 -0.00091878  0.20358171
   0.33578161  0.32843677  0.27096459
   0.67261334  0.65477332  0.33981368
   0.00822898 -0.01645797  0.40793959
   0.34065417  0.31869166  0.47534474
  -0.05607027  0.11214055  0.54759254
   0.91390100  0.17219800  0.57276139
Direct configuration=    34
  -0.00046547  0.00093095  0.00022256
   0.33301088  0.33397825  0.06753934
   0.66654452  0.66691096  0.13551149
   0.00050440 -0.00100880  0.20357448
   0.33589630  0.32820739  0.27090310
   0.67275924  0.65448153  0.33980137
   0.00830148 -0.01660295  0.40793770
   0.34061753  0.31876494  0.47539872
  -0.05673441  0.11346882  0.54785505
   0.91424783  0.17150433  0.57296113
Direct configuration=    35
  -0.00045392  0.00090785  0.00033135
   0.33301924  0.33396153  0.06765916
   0.66654165  0.66691669  0.13558883
   0.00047262 -0.00094525  0.20357958
   0.33581533  0.32836935  0.27094652
   0.67265623  0.65468755  0.33981006
   0.00825029 -0.01650058  0.40793904
   0.34064340  0.31871320  0.47536061
  -0.05626549  0.11253098  0.54766970
   0.91400295  0.17199410  0.57282010
Direct configuration=    36
  -0.00046091  0.00092181  0.00026559
   0.33301418  0.33397163  0.06758674
   0.66654338  0.66691323  0.13554208
   0.00049183 -0.00098366  0.20357650
   0.33586427  0.32827146  0.27092027
   0.67271849  0.65456302  0.33980481
   0.00828123 -0.01656246  0.40793823
   0.34062776  0.31874447  0.47538365
  -0.05654893  0.11309785  0.54778174
   0.91415097  0.17169806  0.57290535
Direct configuration=    37
  -0.00045741  0.00091483  0.00029847
   0.33301671  0.33396658  0.06762295
   0.66654252  0.66691496  0.13556546
   0.00048223 -0.00096445  0.20357804
   0.33583980  0.32832040  0.27093340
   0.67268736  0.65462528  0.33980744
   0.00826576 -0.01653152  0.40793863
   0.34063558  0.31872884  0.47537213
  -0.05640721  0.11281442  0.54772572
   0.91407696  0.17184608  0.57286273
Direct configuration=    38
  -0.00045968  0.00091935  0.00027717
   0.33301507  0.33396985  0.06759950
   0.66654308  0.66691384  0.13555032
   0.00048845 -0.00097689  0.20357704
   0.33585565  0.32828870  0.27092490
   0.67270752  0.65458496  0.33980574
   0.00827578 -0.01655156  0.40793837
   0.34063052  0.31873896  0.47537959
  -0.05649899  0.11299799  0.54776200
   0.91412489  0.17175022  0.57289033
Direct configuration=    39
  -0.00047038  0.00094075  0.00012939
   0.33301268  0.33397465  0.06737683
   0.66656713  0.66686573  0.13537774
   0.00059275 -0.00118549  0.20354608
   0.33600427  0.32799146  0.27098597
   0.67279294  0.65441412  0.33975868
   0.00826028 -0.01652056  0.40795636
   0.34064413  0.31871175  0.47536972
  -0.05713499  0.11426998  0.54801008
   0.91441349  0.17117303  0.57319411
Direct configuration=    40
  -0.00048150  0.00096299 -0.00002419
   0.33301018  0.33397963  0.06714544
   0.66659213  0.66681573  0.13519839
   0.00070114 -0.00140227  0.20351390
   0.33615872  0.32768255  0.27104944
   0.67288170  0.65423659  0.33970978
   0.00824417 -0.01648834  0.40797506
   0.34065827  0.31868346  0.47535946
  -0.05779593  0.11559186  0.54826789
   0.91471340  0.17057320  0.57350980
Direct configuration=    41
  -0.00050374  0.00100748 -0.00033134
   0.33300520  0.33398960  0.06668264
   0.66664213  0.66671574  0.13483969
   0.00091791 -0.00183583  0.20344953
   0.33646763  0.32706475  0.27117638
   0.67305924  0.65388153  0.33961198
   0.00821195 -0.01642391  0.40801245
   0.34068655  0.31862689  0.47533895
  -0.05911780  0.11823561  0.54878350
   0.91531322  0.16937355  0.57414118
Direct configuration=    42
  -0.00049620  0.00099240 -0.00022723
   0.33300689  0.33398622  0.06683950
   0.66662518  0.66674963  0.13496127
   0.00084444 -0.00168888  0.20347135
   0.33636293  0.32727415  0.27113335
   0.67299906  0.65400187  0.33964513
   0.00822287 -0.01644575  0.40799978
   0.34067697  0.31864606  0.47534590
  -0.05866977  0.11733954  0.54860874
   0.91510992  0.16978016  0.57392718
Direct configuration=    43
  -0.00049927  0.00099853 -0.00026959
   0.33300620  0.33398760  0.06677568
   0.66663208  0.66673585  0.13491181
   0.00087433 -0.00174867  0.20346247
   0.33640552  0.32718895  0.27115086
   0.67302354  0.65395291  0.33963164
   0.00821843 -0.01643686  0.40800494
   0.34068087  0.31863826  0.47534307
  -0.05885205  0.11770410  0.54867984
   0.91519263  0.16961473  0.57401425
Direct configuration=    44
  -0.00049801  0.00099603 -0.00025229
   0.33300648  0.33398704  0.06680174
   0.66662926  0.66674148  0.13493200
   0.00086213 -0.00172425  0.20346610
   0.33638813  0.32722374  0.27114371
   0.67301355  0.65397290  0.33963715
   0.00822024 -0.01644049  0.40800283
   0.34067928  0.31864145  0.47534423
  -0.05877762  0.11755523  0.54865081
   0.91515886  0.16968229  0.57397869
Direct configuration=    45
  -0.00049868  0.00099736 -0.00026147
   0.33300633  0.33398734  0.06678792
   0.66663076  0.66673849  0.13492129
   0.00086860 -0.00173720  0.20346417
   0.33639736  0.32720529  0.27114750
   0.67301885  0.65396230  0.33963422
   0.00821928 -0.01643856  0.40800395
   0.34068012  0.31863976  0.47534361
  -0.05881711  0.11763421  0.54866621
   0.91517678  0.16964645  0.57399755
Direct configuration=    46
  -0.00049829  0.00099658 -0.00025608
   0.33300642  0.33398716  0.06679604
   0.66662988  0.66674024  0.13492758
   0.00086480 -0.00172960  0.20346530
   0.33639194  0.32721612  0.27114527
   0.67301574  0.65396853  0.33963594
   0.00821985 -0.01643970  0.40800329
   0.34067962  0.31864075  0.47534397
  -0.05879392  0.11758783  0.54865717
   0.91516625  0.16966749  0.57398648
Direct configuration=    47
  -0.00049865  0.00099731 -0.00026113
   0.33300634  0.33398733  0.06678843
   0.66663070  0.66673860  0.13492169
   0.00086836 -0.00173672  0.20346424
   0.33639701  0.32720597  0.27114736
   0.67301865  0.65396269  0.33963433
   0.00821932 -0.01643864  0.40800391
   0.34068009  0.31863982  0.47534364
  -0.05881564  0.11763127  0.54866564
   0.91517611  0.16964778  0.57399685
Direct configuration=    48
  -0.00049847  0.00099694 -0.00025860
   0.33300638  0.33398724  0.06679223
   0.66663029  0.66673942  0.13492463
   0.00086658 -0.00173316  0.20346477
   0.33639448  0.32721105  0.27114632
   0.67301720  0.65396561  0.33963514
   0.00821958 -0.01643917  0.40800360
   0.34067986  0.31864029  0.47534380
  -0.05880478  0.11760955  0.54866140
   0.91517118  0.16965764  0.57399166
Direct configuration=    49
  -0.00049856  0.00099711 -0.00025978
   0.33300636  0.33398728  0.06679046
   0.66663048  0.66673904  0.13492326
   0.00086741 -0.00173482  0.20346453
   0.33639566  0.32720868  0.27114680
   0.67301788  0.65396425  0.33963476
   0.00821946 -0.01643892  0.40800374
   0.34067997  0.31864007  0.47534373
  -0.05880984  0.11761969  0.54866338
   0.91517348  0.16965304  0.57399409
Direct configuration=    50
  -0.00049854  0.00099708 -0.00025955
   0.33300636  0.33398727  0.06679081
   0.66663044  0.66673911  0.13492353
   0.00086725 -0.00173450  0.20346457
   0.33639543  0.32720914  0.27114671
   0.67301774  0.65396451  0.33963484
   0.00821948 -0.01643897  0.40800371
   0.34067994  0.31864011  0.47534374
  -0.05880886  0.11761771  0.54866299
   0.91517303  0.16965394  0.57399361
Direct configuration=    51
  -0.00051179  0.00102359 -0.00040414
   0.33300631  0.33398738  0.06669645
   0.66666902  0.66666196  0.13481513
   0.00101248 -0.00202497  0.20338881
   0.33652438  0.32695123  0.27122923
   0.67299356  0.65401287  0.33967331
   0.00811734 -0.01623468  0.40798718
   0.34072563  0.31854874  0.47528966
  -0.05922307  0.11844615  0.54890805
   0.91536842  0.16926315  0.57412128
Direct configuration=    52
  -0.00050896  0.00101792 -0.00037324
   0.33300632  0.33398735  0.06671661
   0.66666078  0.66667844  0.13483829
   0.00098145 -0.00196290  0.20340500
   0.33649683  0.32700635  0.27121160
   0.67299873  0.65400254  0.33966509
   0.00813917 -0.01627834  0.40799071
   0.34071587  0.31856826  0.47530121
  -0.05913456  0.11826912  0.54885568
   0.91532667  0.16934666  0.57409400
Direct configuration=    53
  -0.00051082  0.00102165 -0.00039357
   0.33300632  0.33398737  0.06670334
   0.66666620  0.66666760  0.13482305
   0.00100187 -0.00200374  0.20339434
   0.33651496  0.32697008  0.27122320
   0.67299533  0.65400934  0.33967050
   0.00812480 -0.01624961  0.40798839
   0.34072229  0.31855542  0.47529361
  -0.05919280  0.11838561  0.54889014
   0.91535414  0.16929171  0.57411196
Direct configuration=    54
  -0.00051664  0.00103327 -0.00050246
   0.33301345  0.33397310  0.06666920
   0.66671307  0.66657387  0.13476415
   0.00113510 -0.00227020  0.20332249
   0.33659252  0.32681497  0.27125365
   0.67290768  0.65418465  0.33976243
   0.00801517 -0.01603034  0.40796869
   0.34077155  0.31845690  0.47524289
  -0.05928446  0.11856893  0.54897117
   0.91533486  0.16933027  0.57425276
