 145 145   0   0
  0.2265927E+02  0.1089000E-08  0.1089000E-08  0.2770500E-08  0.5000000E-15
  1.000000000000000E-004
  CAR 
 unknown system                          
     13.08363300     -9.52239937  301      1.70743609      1.00000000
     -9.522  0.0000E+00  0.0000E+00  0.0000E+00  0.0000E+00
     -9.447  0.0000E+00  0.0000E+00  0.0000E+00  0.0000E+00
     -9.372  0.0000E+00  0.0000E+00  0.0000E+00  0.0000E+00
     -9.296  0.0000E+00  0.0000E+00  0.0000E+00  0.0000E+00
     -9.221  0.0000E+00  0.0000E+00  0.0000E+00  0.0000E+00
     -9.146 -0.1041E-30 -0.1041E-30 -0.7844E-32 -0.7843E-32
     -9.070 -0.3891E-28 -0.3891E-28 -0.2940E-29 -0.2940E-29
     -8.995 -0.1094E-25 -0.1094E-25 -0.8275E-27 -0.8274E-27
     -8.920 -0.2310E-23 -0.2310E-23 -0.1749E-24 -0.1749E-24
     -8.844 -0.3659E-21 -0.3659E-21 -0.2775E-22 -0.2775E-22
     -8.769 -0.4347E-19 -0.4347E-19 -0.3304E-20 -0.3304E-20
     -8.694 -0.3770E-17 -0.3770E-17 -0.2874E-18 -0.2874E-18
     -8.618 -0.2498E-15 -0.2498E-15 -0.1911E-16 -0.1911E-16
     -8.543 -0.1241E-13 -0.1241E-13 -0.9545E-15 -0.9544E-15
     -8.467 -0.4605E-12 -0.4605E-12 -0.3566E-13 -0.3566E-13
     -8.392 -0.1274E-10 -0.1274E-10 -0.9956E-12 -0.9956E-12
     -8.317 -0.2622E-09 -0.2622E-09 -0.2075E-10 -0.2075E-10
     -8.241 -0.4004E-08 -0.4004E-08 -0.3224E-09 -0.3224E-09
     -8.166 -0.4521E-07 -0.4521E-07 -0.3729E-08 -0.3729E-08
     -8.091 -0.3757E-06 -0.3757E-06 -0.3204E-07 -0.3204E-07
     -8.015 -0.2283E-05 -0.2283E-05 -0.2041E-06 -0.2041E-06
     -7.940 -0.1005E-04 -0.1005E-04 -0.9614E-06 -0.9614E-06
     -7.865 -0.3143E-04 -0.3143E-04 -0.3330E-05 -0.3330E-05
     -7.789 -0.6643E-04 -0.6643E-04 -0.8336E-05 -0.8336E-05
     -7.714 -0.7616E-04 -0.7616E-04 -0.1407E-04 -0.1407E-04
     -7.639  0.4820E-04  0.4820E-04 -0.1044E-04 -0.1044E-04
     -7.563  0.4703E-03  0.4703E-03  0.2500E-04  0.2500E-04
     -7.488  0.1302E-02  0.1302E-02  0.1231E-03  0.1231E-03
     -7.413  0.2417E-02  0.2417E-02  0.3053E-03  0.3053E-03
     -7.337  0.3355E-02  0.3355E-02  0.5581E-03  0.5581E-03
     -7.262  0.3559E-02  0.3559E-02  0.8263E-03  0.8263E-03
     -7.186  0.2844E-02  0.2844E-02  0.1041E-02  0.1041E-02
     -7.111  0.1809E-02  0.1809E-02  0.1177E-02  0.1177E-02
     -7.036  0.1657E-02  0.1657E-02  0.1302E-02  0.1302E-02
     -6.960  0.3226E-02  0.3226E-02  0.1545E-02  0.1545E-02
     -6.885  0.6051E-02  0.6051E-02  0.2001E-02  0.2001E-02
     -6.810  0.8435E-02  0.8435E-02  0.2637E-02  0.2637E-02
     -6.734  0.8640E-02  0.8640E-02  0.3288E-02  0.3288E-02
     -6.659  0.6447E-02  0.6447E-02  0.3773E-02  0.3773E-02
     -6.584  0.3512E-02  0.3512E-02  0.4038E-02  0.4038E-02
     -6.508  0.2019E-02  0.2019E-02  0.4190E-02  0.4190E-02
     -6.433  0.3061E-02  0.3061E-02  0.4421E-02  0.4421E-02
     -6.358  0.6009E-02  0.6009E-02  0.4874E-02  0.4874E-02
     -6.282  0.9171E-02  0.9171E-02  0.5565E-02  0.5565E-02
     -6.207  0.1102E-01  0.1102E-01  0.6395E-02  0.6395E-02
     -6.131  0.1091E-01  0.1091E-01  0.7217E-02  0.7217E-02
     -6.056  0.9215E-02  0.9215E-02  0.7911E-02  0.7911E-02
     -5.981  0.7154E-02  0.7154E-02  0.8450E-02  0.8450E-02
     -5.905  0.6132E-02  0.6132E-02  0.8912E-02  0.8912E-02
     -5.830  0.6837E-02  0.6837E-02  0.9428E-02  0.9428E-02
     -5.755  0.8880E-02  0.8880E-02  0.1010E-01  0.1010E-01
     -5.679  0.1122E-01  0.1122E-01  0.1094E-01  0.1094E-01
     -5.604  0.1270E-01  0.1270E-01  0.1190E-01  0.1190E-01
     -5.529  0.1240E-01  0.1240E-01  0.1283E-01  0.1283E-01
     -5.453  0.1033E-01  0.1033E-01  0.1361E-01  0.1361E-01
     -5.378  0.8093E-02  0.8093E-02  0.1422E-01  0.1422E-01
     -5.303  0.7984E-02  0.7984E-02  0.1482E-01  0.1482E-01
     -5.227  0.1033E-01  0.1033E-01  0.1560E-01  0.1560E-01
     -5.152  0.1263E-01  0.1263E-01  0.1655E-01  0.1655E-01
     -5.077  0.1274E-01  0.1274E-01  0.1751E-01  0.1751E-01
     -5.001  0.1205E-01  0.1205E-01  0.1842E-01  0.1842E-01
     -4.926  0.1335E-01  0.1335E-01  0.1943E-01  0.1943E-01
     -4.850  0.1629E-01  0.1629E-01  0.2065E-01  0.2065E-01
     -4.775  0.1774E-01  0.1774E-01  0.2199E-01  0.2199E-01
     -4.700  0.1647E-01  0.1647E-01  0.2323E-01  0.2323E-01
     -4.624  0.1465E-01  0.1465E-01  0.2434E-01  0.2434E-01
     -4.549  0.1425E-01  0.1425E-01  0.2541E-01  0.2541E-01
     -4.474  0.1475E-01  0.1475E-01  0.2652E-01  0.2652E-01
     -4.398  0.1504E-01  0.1504E-01  0.2765E-01  0.2765E-01
     -4.323  0.1510E-01  0.1510E-01  0.2879E-01  0.2879E-01
     -4.248  0.1542E-01  0.1542E-01  0.2996E-01  0.2996E-01
     -4.172  0.1631E-01  0.1631E-01  0.3118E-01  0.3118E-01
     -4.097  0.1837E-01  0.1837E-01  0.3257E-01  0.3257E-01
     -4.022  0.2215E-01  0.2215E-01  0.3424E-01  0.3424E-01
     -3.946  0.2653E-01  0.2653E-01  0.3624E-01  0.3624E-01
     -3.871  0.2878E-01  0.2878E-01  0.3841E-01  0.3841E-01
     -3.796  0.2730E-01  0.2730E-01  0.4046E-01  0.4046E-01
     -3.720  0.2398E-01  0.2398E-01  0.4227E-01  0.4227E-01
     -3.645  0.2280E-01  0.2280E-01  0.4399E-01  0.4399E-01
     -3.569  0.2571E-01  0.2571E-01  0.4592E-01  0.4592E-01
     -3.494  0.3153E-01  0.3153E-01  0.4830E-01  0.4830E-01
     -3.419  0.3917E-01  0.3917E-01  0.5125E-01  0.5125E-01
     -3.343  0.4858E-01  0.4858E-01  0.5491E-01  0.5491E-01
     -3.268  0.5821E-01  0.5821E-01  0.5930E-01  0.5930E-01
     -3.193  0.6607E-01  0.6607E-01  0.6428E-01  0.6428E-01
     -3.117  0.7263E-01  0.7263E-01  0.6975E-01  0.6975E-01
     -3.042  0.7879E-01  0.7879E-01  0.7569E-01  0.7569E-01
     -2.967  0.8396E-01  0.8396E-01  0.8201E-01  0.8201E-01
     -2.891  0.8851E-01  0.8851E-01  0.8868E-01  0.8868E-01
     -2.816  0.9536E-01  0.9536E-01  0.9587E-01  0.9587E-01
     -2.741  0.1070E+00  0.1070E+00  0.1039E+00  0.1039E+00
     -2.665  0.1217E+00  0.1217E+00  0.1131E+00  0.1131E+00
     -2.590  0.1373E+00  0.1373E+00  0.1234E+00  0.1234E+00
     -2.515  0.1557E+00  0.1557E+00  0.1352E+00  0.1352E+00
     -2.439  0.1779E+00  0.1779E+00  0.1486E+00  0.1486E+00
     -2.364  0.1974E+00  0.1974E+00  0.1635E+00  0.1635E+00
     -2.288  0.2062E+00  0.2062E+00  0.1790E+00  0.1790E+00
     -2.213  0.2016E+00  0.2016E+00  0.1942E+00  0.1942E+00
     -2.138  0.1866E+00  0.1866E+00  0.2083E+00  0.2083E+00
     -2.062  0.1704E+00  0.1704E+00  0.2211E+00  0.2211E+00
     -1.987  0.1636E+00  0.1636E+00  0.2334E+00  0.2334E+00
     -1.912  0.1703E+00  0.1703E+00  0.2463E+00  0.2463E+00
     -1.836  0.1867E+00  0.1867E+00  0.2603E+00  0.2603E+00
     -1.761  0.2054E+00  0.2054E+00  0.2758E+00  0.2758E+00
     -1.686  0.2194E+00  0.2194E+00  0.2923E+00  0.2923E+00
     -1.610  0.2278E+00  0.2278E+00  0.3095E+00  0.3095E+00
     -1.535  0.2389E+00  0.2389E+00  0.3275E+00  0.3275E+00
     -1.460  0.2598E+00  0.2598E+00  0.3471E+00  0.3471E+00
     -1.384  0.2858E+00  0.2858E+00  0.3686E+00  0.3686E+00
     -1.309  0.3076E+00  0.3076E+00  0.3918E+00  0.3918E+00
     -1.234  0.3210E+00  0.3210E+00  0.4160E+00  0.4160E+00
     -1.158  0.3252E+00  0.3252E+00  0.4405E+00  0.4405E+00
     -1.083  0.3183E+00  0.3183E+00  0.4645E+00  0.4645E+00
     -1.007  0.3012E+00  0.3012E+00  0.4872E+00  0.4872E+00
     -0.932  0.2813E+00  0.2813E+00  0.5084E+00  0.5084E+00
     -0.857  0.2683E+00  0.2683E+00  0.5286E+00  0.5286E+00
     -0.781  0.2696E+00  0.2696E+00  0.5489E+00  0.5489E+00
     -0.706  0.2871E+00  0.2871E+00  0.5706E+00  0.5706E+00
     -0.631  0.3138E+00  0.3138E+00  0.5942E+00  0.5942E+00
     -0.555  0.3352E+00  0.3352E+00  0.6195E+00  0.6195E+00
     -0.480  0.3401E+00  0.3401E+00  0.6451E+00  0.6451E+00
     -0.405  0.3320E+00  0.3320E+00  0.6701E+00  0.6701E+00
     -0.329  0.3233E+00  0.3233E+00  0.6945E+00  0.6945E+00
     -0.254  0.3230E+00  0.3230E+00  0.7188E+00  0.7188E+00
     -0.179  0.3348E+00  0.3348E+00  0.7440E+00  0.7440E+00
     -0.103  0.3620E+00  0.3620E+00  0.7713E+00  0.7713E+00
     -0.028  0.4035E+00  0.4035E+00  0.8017E+00  0.8017E+00
      0.047  0.4441E+00  0.4441E+00  0.8352E+00  0.8352E+00
      0.123  0.4549E+00  0.4549E+00  0.8695E+00  0.8695E+00
      0.198  0.4121E+00  0.4121E+00  0.9005E+00  0.9005E+00
      0.274  0.3174E+00  0.3174E+00  0.9244E+00  0.9244E+00
      0.349  0.2008E+00  0.2008E+00  0.9396E+00  0.9396E+00
      0.424  0.1030E+00  0.1030E+00  0.9473E+00  0.9473E+00
      0.500  0.4808E-01  0.4808E-01  0.9509E+00  0.9509E+00
      0.575  0.3111E-01  0.3111E-01  0.9533E+00  0.9533E+00
      0.650  0.3285E-01  0.3285E-01  0.9558E+00  0.9558E+00
      0.726  0.3857E-01  0.3857E-01  0.9587E+00  0.9587E+00
      0.801  0.4126E-01  0.4126E-01  0.9618E+00  0.9618E+00
      0.876  0.3859E-01  0.3859E-01  0.9647E+00  0.9647E+00
      0.952  0.3218E-01  0.3218E-01  0.9671E+00  0.9671E+00
      1.027  0.2509E-01  0.2509E-01  0.9690E+00  0.9690E+00
      1.102  0.1914E-01  0.1914E-01  0.9704E+00  0.9704E+00
      1.178  0.1638E-01  0.1638E-01  0.9717E+00  0.9717E+00
      1.253  0.2066E-01  0.2066E-01  0.9732E+00  0.9732E+00
      1.328  0.3310E-01  0.3310E-01  0.9757E+00  0.9757E+00
      1.404  0.4665E-01  0.4665E-01  0.9792E+00  0.9792E+00
      1.479  0.5092E-01  0.5092E-01  0.9831E+00  0.9831E+00
      1.555  0.4379E-01  0.4379E-01  0.9864E+00  0.9864E+00
      1.630  0.3234E-01  0.3234E-01  0.9888E+00  0.9888E+00
      1.705  0.2332E-01  0.2332E-01  0.9906E+00  0.9906E+00
      1.781  0.1892E-01  0.1892E-01  0.9920E+00  0.9920E+00
      1.856  0.1863E-01  0.1863E-01  0.9934E+00  0.9934E+00
      1.931  0.1976E-01  0.1976E-01  0.9949E+00  0.9949E+00
      2.007  0.1928E-01  0.1928E-01  0.9964E+00  0.9964E+00
      2.082  0.1828E-01  0.1828E-01  0.9977E+00  0.9977E+00
      2.157  0.2080E-01  0.2080E-01  0.9993E+00  0.9993E+00
      2.233  0.2725E-01  0.2725E-01  0.1001E+01  0.1001E+01
      2.308  0.3309E-01  0.3309E-01  0.1004E+01  0.1004E+01
      2.383  0.3469E-01  0.3469E-01  0.1006E+01  0.1006E+01
      2.459  0.3291E-01  0.3291E-01  0.1009E+01  0.1009E+01
      2.534  0.3106E-01  0.3106E-01  0.1011E+01  0.1011E+01
      2.610  0.3144E-01  0.3144E-01  0.1014E+01  0.1014E+01
      2.685  0.3354E-01  0.3354E-01  0.1016E+01  0.1016E+01
      2.760  0.3444E-01  0.3444E-01  0.1019E+01  0.1019E+01
      2.836  0.3178E-01  0.3178E-01  0.1021E+01  0.1021E+01
      2.911  0.2676E-01  0.2676E-01  0.1023E+01  0.1023E+01
      2.986  0.2237E-01  0.2237E-01  0.1025E+01  0.1025E+01
      3.062  0.1929E-01  0.1929E-01  0.1026E+01  0.1026E+01
      3.137  0.1559E-01  0.1559E-01  0.1027E+01  0.1027E+01
      3.212  0.1064E-01  0.1064E-01  0.1028E+01  0.1028E+01
      3.288  0.7572E-02  0.7572E-02  0.1029E+01  0.1029E+01
      3.363  0.1074E-01  0.1074E-01  0.1030E+01  0.1030E+01
      3.438  0.2095E-01  0.2095E-01  0.1031E+01  0.1031E+01
      3.514  0.3372E-01  0.3372E-01  0.1034E+01  0.1034E+01
      3.589  0.4248E-01  0.4248E-01  0.1037E+01  0.1037E+01
      3.664  0.4321E-01  0.4321E-01  0.1040E+01  0.1040E+01
      3.740  0.3666E-01  0.3666E-01  0.1043E+01  0.1043E+01
      3.815  0.2744E-01  0.2744E-01  0.1045E+01  0.1045E+01
      3.891  0.2087E-01  0.2087E-01  0.1047E+01  0.1047E+01
      3.966  0.1975E-01  0.1975E-01  0.1048E+01  0.1048E+01
      4.041  0.2245E-01  0.2245E-01  0.1050E+01  0.1050E+01
      4.117  0.2446E-01  0.2446E-01  0.1052E+01  0.1052E+01
      4.192  0.2294E-01  0.2294E-01  0.1053E+01  0.1053E+01
      4.267  0.1941E-01  0.1941E-01  0.1055E+01  0.1055E+01
      4.343  0.1698E-01  0.1698E-01  0.1056E+01  0.1056E+01
      4.418  0.1633E-01  0.1633E-01  0.1057E+01  0.1057E+01
      4.493  0.1602E-01  0.1602E-01  0.1059E+01  0.1059E+01
      4.569  0.1597E-01  0.1597E-01  0.1060E+01  0.1060E+01
      4.644  0.1768E-01  0.1768E-01  0.1061E+01  0.1061E+01
      4.719  0.2052E-01  0.2052E-01  0.1063E+01  0.1063E+01
      4.795  0.2128E-01  0.2128E-01  0.1064E+01  0.1064E+01
      4.870  0.1914E-01  0.1914E-01  0.1066E+01  0.1066E+01
      4.945  0.1742E-01  0.1742E-01  0.1067E+01  0.1067E+01
      5.021  0.1880E-01  0.1880E-01  0.1068E+01  0.1068E+01
      5.096  0.2253E-01  0.2253E-01  0.1070E+01  0.1070E+01
      5.172  0.2730E-01  0.2730E-01  0.1072E+01  0.1072E+01
      5.247  0.3290E-01  0.3290E-01  0.1075E+01  0.1075E+01
      5.322  0.3743E-01  0.3743E-01  0.1077E+01  0.1077E+01
      5.398  0.3714E-01  0.3714E-01  0.1080E+01  0.1080E+01
      5.473  0.3086E-01  0.3086E-01  0.1083E+01  0.1083E+01
      5.548  0.2208E-01  0.2208E-01  0.1084E+01  0.1084E+01
      5.624  0.1663E-01  0.1663E-01  0.1086E+01  0.1086E+01
      5.699  0.1844E-01  0.1844E-01  0.1087E+01  0.1087E+01
      5.774  0.2606E-01  0.2606E-01  0.1089E+01  0.1089E+01
      5.850  0.3284E-01  0.3284E-01  0.1091E+01  0.1091E+01
      5.925  0.3312E-01  0.3312E-01  0.1094E+01  0.1094E+01
      6.000  0.2809E-01  0.2810E-01  0.1096E+01  0.1096E+01
      6.076  0.2282E-01  0.2285E-01  0.1098E+01  0.1098E+01
      6.151  0.1946E-01  0.1949E-01  0.1099E+01  0.1099E+01
      6.226  0.1744E-01  0.1747E-01  0.1100E+01  0.1100E+01
      6.302  0.1740E-01  0.1742E-01  0.1102E+01  0.1102E+01
      6.377  0.2038E-01  0.2038E-01  0.1103E+01  0.1103E+01
      6.453  0.2553E-01  0.2552E-01  0.1105E+01  0.1105E+01
      6.528  0.3141E-01  0.3140E-01  0.1108E+01  0.1108E+01
      6.603  0.3775E-01  0.3777E-01  0.1110E+01  0.1110E+01
      6.679  0.4429E-01  0.4432E-01  0.1114E+01  0.1114E+01
      6.754  0.4935E-01  0.4939E-01  0.1118E+01  0.1118E+01
      6.829  0.5043E-01  0.5044E-01  0.1121E+01  0.1121E+01
      6.905  0.4570E-01  0.4567E-01  0.1125E+01  0.1125E+01
      6.980  0.3597E-01  0.3593E-01  0.1127E+01  0.1127E+01
      7.055  0.2541E-01  0.2537E-01  0.1129E+01  0.1129E+01
      7.131  0.1929E-01  0.1927E-01  0.1131E+01  0.1131E+01
      7.206  0.1997E-01  0.1997E-01  0.1132E+01  0.1132E+01
      7.281  0.2513E-01  0.2517E-01  0.1134E+01  0.1134E+01
      7.357  0.3094E-01  0.3101E-01  0.1137E+01  0.1137E+01
      7.432  0.3582E-01  0.3591E-01  0.1139E+01  0.1139E+01
      7.507  0.3913E-01  0.3921E-01  0.1142E+01  0.1142E+01
      7.583  0.3923E-01  0.3925E-01  0.1145E+01  0.1145E+01
      7.658  0.3577E-01  0.3572E-01  0.1148E+01  0.1148E+01
      7.734  0.3134E-01  0.3125E-01  0.1150E+01  0.1150E+01
      7.809  0.2889E-01  0.2882E-01  0.1152E+01  0.1152E+01
      7.884  0.2931E-01  0.2933E-01  0.1155E+01  0.1155E+01
      7.960  0.3174E-01  0.3184E-01  0.1157E+01  0.1157E+01
      8.035  0.3495E-01  0.3504E-01  0.1160E+01  0.1160E+01
      8.110  0.3831E-01  0.3832E-01  0.1163E+01  0.1163E+01
      8.186  0.4040E-01  0.4030E-01  0.1166E+01  0.1166E+01
      8.261  0.3857E-01  0.3844E-01  0.1168E+01  0.1168E+01
      8.336  0.3259E-01  0.3253E-01  0.1171E+01  0.1171E+01
      8.412  0.2612E-01  0.2618E-01  0.1173E+01  0.1173E+01
      8.487  0.2325E-01  0.2338E-01  0.1175E+01  0.1175E+01
      8.562  0.2581E-01  0.2594E-01  0.1177E+01  0.1177E+01
      8.638  0.3293E-01  0.3301E-01  0.1179E+01  0.1179E+01
      8.713  0.4116E-01  0.4118E-01  0.1182E+01  0.1182E+01
      8.788  0.4671E-01  0.4668E-01  0.1186E+01  0.1186E+01
      8.864  0.4868E-01  0.4861E-01  0.1189E+01  0.1189E+01
      8.939  0.4809E-01  0.4802E-01  0.1193E+01  0.1193E+01
      9.015  0.4510E-01  0.4507E-01  0.1196E+01  0.1196E+01
      9.090  0.3952E-01  0.3952E-01  0.1199E+01  0.1199E+01
      9.165  0.3329E-01  0.3331E-01  0.1202E+01  0.1202E+01
      9.241  0.3042E-01  0.3040E-01  0.1204E+01  0.1204E+01
      9.316  0.3317E-01  0.3308E-01  0.1207E+01  0.1207E+01
      9.391  0.3833E-01  0.3821E-01  0.1210E+01  0.1210E+01
      9.467  0.3938E-01  0.3930E-01  0.1213E+01  0.1213E+01
      9.542  0.3452E-01  0.3456E-01  0.1215E+01  0.1215E+01
      9.617  0.3023E-01  0.3040E-01  0.1217E+01  0.1217E+01
      9.693  0.3376E-01  0.3403E-01  0.1220E+01  0.1220E+01
      9.768  0.4405E-01  0.4428E-01  0.1223E+01  0.1223E+01
      9.843  0.5256E-01  0.5261E-01  0.1227E+01  0.1227E+01
      9.919  0.5235E-01  0.5216E-01  0.1231E+01  0.1231E+01
      9.994  0.4445E-01  0.4418E-01  0.1235E+01  0.1235E+01
     10.069  0.3562E-01  0.3545E-01  0.1237E+01  0.1237E+01
     10.145  0.3258E-01  0.3262E-01  0.1240E+01  0.1240E+01
     10.220  0.3855E-01  0.3871E-01  0.1243E+01  0.1243E+01
     10.296  0.5045E-01  0.5056E-01  0.1246E+01  0.1246E+01
     10.371  0.5896E-01  0.5893E-01  0.1251E+01  0.1251E+01
     10.446  0.5679E-01  0.5666E-01  0.1255E+01  0.1255E+01
     10.522  0.4761E-01  0.4750E-01  0.1259E+01  0.1259E+01
     10.597  0.4205E-01  0.4204E-01  0.1262E+01  0.1262E+01
     10.672  0.4480E-01  0.4488E-01  0.1265E+01  0.1265E+01
     10.748  0.5005E-01  0.5014E-01  0.1269E+01  0.1269E+01
     10.823  0.4980E-01  0.4981E-01  0.1273E+01  0.1273E+01
     10.898  0.4213E-01  0.4199E-01  0.1276E+01  0.1276E+01
     10.974  0.3019E-01  0.2995E-01  0.1278E+01  0.1278E+01
     11.049  0.1769E-01  0.1750E-01  0.1280E+01  0.1280E+01
     11.124  0.7448E-02  0.7427E-02  0.1280E+01  0.1280E+01
     11.200  0.1302E-02  0.1402E-02  0.1280E+01  0.1280E+01
     11.275 -0.9047E-03 -0.8048E-03  0.1280E+01  0.1280E+01
     11.351 -0.9396E-03 -0.8983E-03  0.1280E+01  0.1280E+01
     11.426 -0.4638E-03 -0.4616E-03  0.1280E+01  0.1280E+01
     11.501 -0.1526E-03 -0.1590E-03  0.1280E+01  0.1280E+01
     11.577 -0.3621E-04 -0.3978E-04  0.1280E+01  0.1280E+01
     11.652 -0.6373E-05 -0.7441E-05  0.1280E+01  0.1280E+01
     11.727 -0.8427E-06 -0.1050E-05  0.1280E+01  0.1280E+01
     11.803 -0.8413E-07 -0.1122E-06  0.1280E+01  0.1280E+01
     11.878 -0.6349E-08 -0.9053E-08  0.1280E+01  0.1280E+01
     11.953 -0.3621E-09 -0.5514E-09  0.1280E+01  0.1280E+01
     12.029 -0.1559E-10 -0.2530E-10  0.1280E+01  0.1280E+01
     12.104 -0.5060E-12 -0.8737E-12  0.1280E+01  0.1280E+01
     12.179 -0.1238E-13 -0.2269E-13  0.1280E+01  0.1280E+01
     12.255 -0.2280E-15 -0.4428E-15  0.1280E+01  0.1280E+01
     12.330 -0.3274E-17 -0.6958E-17  0.1280E+01  0.1280E+01
     12.405  0.0000E+00  0.0000E+00  0.1280E+01  0.1280E+01
     12.481  0.0000E+00  0.0000E+00  0.1280E+01  0.1280E+01
     12.556  0.0000E+00  0.0000E+00  0.1280E+01  0.1280E+01
     12.632  0.0000E+00  0.0000E+00  0.1280E+01  0.1280E+01
     12.707  0.0000E+00  0.0000E+00  0.1280E+01  0.1280E+01
     12.782  0.0000E+00  0.0000E+00  0.1280E+01  0.1280E+01
     12.858  0.0000E+00  0.0000E+00  0.1280E+01  0.1280E+01
     12.933  0.0000E+00  0.0000E+00  0.1280E+01  0.1280E+01
     13.008  0.0000E+00  0.0000E+00  0.1280E+01  0.1280E+01
     13.084  0.0000E+00  0.0000E+00  0.1280E+01  0.1280E+01
