  145  145  800    2
  0.2265927E+02  0.1089000E-08  0.1089000E-08  0.2770500E-08  0.5000000E-15
  1.000000000000000E-004
  CAR 
 unknown system                          
   1585      3   1024
 
  0.0000000E+00  0.0000000E+00  0.0000000E+00  0.1111111E+00
      1         -7.522399       -7.522399   1.000000   1.000000
      2         -6.938880       -6.938880   1.000000   1.000000
      3         -6.234423       -6.234423   1.000000   1.000000
      4         -6.233096       -6.233096   1.000000   1.000000
      5         -6.231749       -6.231749   1.000000   1.000000
      6         -6.231749       -6.231749   1.000000   1.000000
      7         -6.128416       -6.128415   1.000000   1.000000
      8         -5.692322       -5.692322   1.000000   1.000000
      9         -5.682790       -5.682789   1.000000   1.000000
     10         -5.681875       -5.681875   1.000000   1.000000
     11         -5.681875       -5.681875   1.000000   1.000000
     12         -5.084303       -5.084303   1.000000   1.000000
     13         -5.075957       -5.075957   1.000000   1.000000
     14         -5.074904       -5.074904   1.000000   1.000000
     15         -5.074071       -5.074071   1.000000   1.000000
     16         -5.074071       -5.074071   1.000000   1.000000
     17         -4.950287       -4.950286   1.000000   1.000000
     18         -4.939585       -4.939585   1.000000   1.000000
     19         -4.935601       -4.935601   1.000000   1.000000
     20         -4.935601       -4.935601   1.000000   1.000000
     21         -4.638985       -4.638985   1.000000   1.000000
     22         -4.630050       -4.630049   1.000000   1.000000
     23         -4.630050       -4.630049   1.000000   1.000000
     24         -4.628862       -4.628862   1.000000   1.000000
     25         -4.113522       -4.113522   1.000000   1.000000
     26         -4.090684       -4.090683   1.000000   1.000000
     27         -4.090684       -4.090683   1.000000   1.000000
     28         -4.089590       -4.089590   1.000000   1.000000
     29         -4.033936       -4.033936   1.000000   1.000000
     30         -4.007832       -4.007832   1.000000   1.000000
     31         -4.005844       -4.005844   1.000000   1.000000
     32         -4.005844       -4.005844   1.000000   1.000000
     33         -3.973994       -3.973994   1.000000   1.000000
     34         -3.549316       -3.549316   1.000000   1.000000
     35         -3.524230       -3.524230   1.000000   1.000000
     36         -3.523715       -3.523714   1.000000   1.000000
     37         -3.523438       -3.523438   1.000000   1.000000
     38         -3.523438       -3.523438   1.000000   1.000000
     39         -3.523235       -3.523235   1.000000   1.000000
     40         -3.522214       -3.522213   1.000000   1.000000
     41         -3.522214       -3.522213   1.000000   1.000000
     42         -3.301995       -3.301994   1.000000   1.000000
     43         -3.181439       -3.181439   1.000000   1.000000
     44         -3.133470       -3.133470   1.000000   1.000000
     45         -3.130619       -3.130619   1.000000   1.000000
     46         -3.126177       -3.126177   1.000000   1.000000
     47         -3.126177       -3.126177   1.000000   1.000000
     48         -3.122064       -3.122064   1.000000   1.000000
     49         -3.119380       -3.119380   1.000000   1.000000
     50         -3.093197       -3.093197   1.000000   1.000000
     51         -3.088400       -3.088399   1.000000   1.000000
     52         -3.088400       -3.088399   1.000000   1.000000
     53         -3.073639       -3.073641   1.000000   1.000000
     54         -3.041902       -3.041902   1.000000   1.000000
     55         -3.030497       -3.030497   1.000000   1.000000
     56         -3.028478       -3.028478   1.000000   1.000000
     57         -3.028478       -3.028478   1.000000   1.000000
     58         -3.000929       -3.000929   1.000000   1.000000
     59         -3.000929       -3.000929   1.000000   1.000000
     60         -3.000266       -3.000267   1.000000   1.000000
     61         -2.999488       -2.999488   1.000000   1.000000
     62         -2.998730       -2.998730   1.000000   1.000000
     63         -2.998237       -2.998237   1.000000   1.000000
     64         -2.997396       -2.997397   1.000000   1.000000
     65         -2.997396       -2.997397   1.000000   1.000000
     66         -2.968439       -2.968436   1.000000   1.000000
     67         -2.935517       -2.935517   1.000000   1.000000
     68         -2.935517       -2.935517   1.000000   1.000000
     69         -2.935158       -2.935158   1.000000   1.000000
     70         -2.934570       -2.934570   1.000000   1.000000
     71         -2.877071       -2.877070   1.000000   1.000000
     72         -2.877071       -2.877070   1.000000   1.000000
     73         -2.875711       -2.875710   1.000000   1.000000
     74         -2.875307       -2.875306   1.000000   1.000000
     75         -2.868164       -2.868164   1.000000   1.000000
     76         -2.860675       -2.860675   1.000000   1.000000
     77         -2.860674       -2.860675   1.000000   1.000000
     78         -2.858322       -2.858323   1.000000   1.000000
     79         -2.852603       -2.852604   1.000000   1.000000
     80         -2.826175       -2.826175   1.000000   1.000000
     81         -2.758172       -2.758172   1.000000   1.000000
     82         -2.704306       -2.704304   1.000000   1.000000
     83         -2.704119       -2.704118   1.000000   1.000000
     84         -2.704119       -2.704118   1.000000   1.000000
     85         -2.703932       -2.703930   1.000000   1.000000
     86         -2.699916       -2.699916   1.000000   1.000000
     87         -2.684685       -2.684685   1.000000   1.000000
     88         -2.684685       -2.684685   1.000000   1.000000
     89         -2.684010       -2.684010   1.000000   1.000000
     90         -2.681658       -2.681658   1.000000   1.000000
     91         -2.679035       -2.679035   1.000000   1.000000
     92         -2.679035       -2.679035   1.000000   1.000000
     93         -2.678885       -2.678885   1.000000   1.000000
     94         -2.677497       -2.677497   1.000000   1.000000
     95         -2.677497       -2.677497   1.000000   1.000000
     96         -2.663588       -2.663588   1.000000   1.000000
     97         -2.656260       -2.656260   1.000000   1.000000
     98         -2.654818       -2.654818   1.000000   1.000000
     99         -2.654818       -2.654818   1.000000   1.000000
    100         -2.625064       -2.625064   1.000000   1.000000
    101         -2.624885       -2.624885   1.000000   1.000000
    102         -2.622560       -2.622560   1.000000   1.000000
    103         -2.622560       -2.622560   1.000000   1.000000
    104         -2.591803       -2.591804   1.000000   1.000000
    105         -2.553693       -2.553694   1.000000   1.000000
    106         -2.541944       -2.541943   1.000000   1.000000
    107         -2.504410       -2.504410   1.000000   1.000000
    108         -2.473338       -2.473338   1.000000   1.000000
    109         -2.473338       -2.473338   1.000000   1.000000
    110         -2.469943       -2.469944   1.000000   1.000000
    111         -2.446893       -2.446894   1.000000   1.000000
    112         -2.443055       -2.443057   1.000000   1.000000
    113         -2.443055       -2.443057   1.000000   1.000000
    114         -2.439798       -2.439800   1.000000   1.000000
    115         -2.432986       -2.432988   1.000000   1.000000
    116         -2.432986       -2.432988   1.000000   1.000000
    117         -2.408090       -2.408090   1.000000   1.000000
    118         -2.403921       -2.403921   1.000000   1.000000
    119         -2.403921       -2.403921   1.000000   1.000000
    120         -2.403872       -2.403872   1.000000   1.000000
    121         -2.380073       -2.380074   1.000000   1.000000
    122         -2.368910       -2.368910   1.000000   1.000000
    123         -2.365701       -2.365701   1.000000   1.000000
    124         -2.365701       -2.365701   1.000000   1.000000
    125         -2.365001       -2.365001   1.000000   1.000000
    126         -2.363427       -2.363427   1.000000   1.000000
    127         -2.361545       -2.361546   1.000000   1.000000
    128         -2.361545       -2.361546   1.000000   1.000000
    129         -2.342632       -2.342632   1.000000   1.000000
    130         -2.340922       -2.340922   1.000000   1.000000
    131         -2.340922       -2.340922   1.000000   1.000000
    132         -2.339645       -2.339645   1.000000   1.000000
    133         -2.332553       -2.332554   1.000000   1.000000
    134         -2.331689       -2.331687   1.000000   1.000000
    135         -2.330558       -2.330556   1.000000   1.000000
    136         -2.330558       -2.330556   1.000000   1.000000
    137         -2.329927       -2.329927   1.000000   1.000000
    138         -2.329927       -2.329927   1.000000   1.000000
    139         -2.329520       -2.329518   1.000000   1.000000
    140         -2.329210       -2.329210   1.000000   1.000000
    141         -2.316066       -2.316066   1.000000   1.000000
    142         -2.307958       -2.307959   1.000000   1.000000
    143         -2.307958       -2.307959   1.000000   1.000000
    144         -2.304602       -2.304602   1.000000   1.000000
    145         -2.289087       -2.289086   1.000000   1.000000
    146         -2.289087       -2.289086   1.000000   1.000000
    147         -2.288421       -2.288420   1.000000   1.000000
    148         -2.288337       -2.288335   1.000000   1.000000
    149         -2.281039       -2.281038   1.000000   1.000000
    150         -2.280616       -2.280616   1.000000   1.000000
    151         -2.280616       -2.280616   1.000000   1.000000
    152         -2.279815       -2.279815   1.000000   1.000000
    153         -2.268910       -2.268910   1.000000   1.000000
    154         -2.226340       -2.226339   1.000000   1.000000
    155         -2.226340       -2.226339   1.000000   1.000000
    156         -2.226052       -2.226051   1.000000   1.000000
    157         -2.225947       -2.225946   1.000000   1.000000
    158         -2.208851       -2.208851   1.000000   1.000000
    159         -2.208851       -2.208851   1.000000   1.000000
    160         -2.205694       -2.205694   1.000000   1.000000
    161         -2.205266       -2.205266   1.000000   1.000000
    162         -2.197481       -2.197481   1.000000   1.000000
    163         -2.197481       -2.197481   1.000000   1.000000
    164         -2.196962       -2.196961   1.000000   1.000000
    165         -2.196195       -2.196194   1.000000   1.000000
    166         -2.191318       -2.191318   1.000000   1.000000
    167         -2.191318       -2.191318   1.000000   1.000000
    168         -2.188985       -2.188985   1.000000   1.000000
    169         -2.187016       -2.187016   1.000000   1.000000
    170         -2.185758       -2.185758   1.000000   1.000000
    171         -2.185758       -2.185758   1.000000   1.000000
    172         -2.171022       -2.171023   1.000000   1.000000
    173         -2.139515       -2.139515   1.000000   1.000000
    174         -2.139515       -2.139515   1.000000   1.000000
    175         -2.137442       -2.137443   1.000000   1.000000
    176         -2.110328       -2.110328   1.000000   1.000000
    177         -2.091295       -2.091297   1.000000   1.000000
    178         -2.057060       -2.057059   1.000000   1.000000
    179         -2.057060       -2.057059   1.000000   1.000000
    180         -2.055846       -2.055846   1.000000   1.000000
    181         -2.044034       -2.044034   1.000000   1.000000
    182         -2.023849       -2.023849   1.000000   1.000000
    183         -2.022991       -2.022991   1.000000   1.000000
    184         -2.022343       -2.022343   1.000000   1.000000
    185         -2.022343       -2.022343   1.000000   1.000000
    186         -2.003103       -2.003103   1.000000   1.000000
    187         -2.003103       -2.003103   1.000000   1.000000
    188         -1.997800       -1.997799   1.000000   1.000000
    189         -1.996840       -1.996839   1.000000   1.000000
    190         -1.993673       -1.993673   1.000000   1.000000
    191         -1.976374       -1.976373   1.000000   1.000000
    192         -1.962134       -1.962134   1.000000   1.000000
    193         -1.962134       -1.962134   1.000000   1.000000
    194         -1.958834       -1.958834   1.000000   1.000000
    195         -1.957872       -1.957872   1.000000   1.000000
    196         -1.957530       -1.957530   1.000000   1.000000
    197         -1.957530       -1.957530   1.000000   1.000000
    198         -1.955885       -1.955885   1.000000   1.000000
    199         -1.933654       -1.933654   1.000000   1.000000
    200         -1.875982       -1.875982   1.000000   1.000000
    201         -1.875982       -1.875982   1.000000   1.000000
    202         -1.873847       -1.873846   1.000000   1.000000
    203         -1.863441       -1.863441   1.000000   1.000000
    204         -1.863156       -1.863156   1.000000   1.000000
    205         -1.863156       -1.863156   1.000000   1.000000
    206         -1.862862       -1.862862   1.000000   1.000000
    207         -1.854514       -1.854514   1.000000   1.000000
    208         -1.821958       -1.821958   1.000000   1.000000
    209         -1.821958       -1.821958   1.000000   1.000000
    210         -1.805863       -1.805863   1.000000   1.000000
    211         -1.804470       -1.804470   1.000000   1.000000
    212         -1.804470       -1.804470   1.000000   1.000000
    213         -1.798348       -1.798349   1.000000   1.000000
    214         -1.792906       -1.792906   1.000000   1.000000
    215         -1.792906       -1.792906   1.000000   1.000000
    216         -1.791250       -1.791250   1.000000   1.000000
    217         -1.790423       -1.790423   1.000000   1.000000
    218         -1.768220       -1.768220   1.000000   1.000000
    219         -1.768220       -1.768220   1.000000   1.000000
    220         -1.767978       -1.767978   1.000000   1.000000
    221         -1.761895       -1.761895   1.000000   1.000000
    222         -1.761895       -1.761895   1.000000   1.000000
    223         -1.757521       -1.757521   1.000000   1.000000
    224         -1.755518       -1.755518   1.000000   1.000000
    225         -1.750477       -1.750477   1.000000   1.000000
    226         -1.744475       -1.744475   1.000000   1.000000
    227         -1.744458       -1.744458   1.000000   1.000000
    228         -1.744203       -1.744202   1.000000   1.000000
    229         -1.744203       -1.744202   1.000000   1.000000
    230         -1.701373       -1.701373   1.000000   1.000000
    231         -1.693155       -1.693155   1.000000   1.000000
    232         -1.693155       -1.693155   1.000000   1.000000
    233         -1.688554       -1.688554   1.000000   1.000000
    234         -1.679382       -1.679382   1.000000   1.000000
    235         -1.676825       -1.676824   1.000000   1.000000
    236         -1.676824       -1.676824   1.000000   1.000000
    237         -1.675513       -1.675513   1.000000   1.000000
    238         -1.674318       -1.674318   1.000000   1.000000
    239         -1.660103       -1.660103   1.000000   1.000000
    240         -1.659970       -1.659970   1.000000   1.000000
    241         -1.659851       -1.659851   1.000000   1.000000
    242         -1.659851       -1.659851   1.000000   1.000000
    243         -1.653714       -1.653714   1.000000   1.000000
    244         -1.652393       -1.652393   1.000000   1.000000
    245         -1.652086       -1.652085   1.000000   1.000000
    246         -1.652086       -1.652085   1.000000   1.000000
    247         -1.649336       -1.649337   1.000000   1.000000
    248         -1.630560       -1.630560   1.000000   1.000000
    249         -1.622532       -1.622532   1.000000   1.000000
    250         -1.622532       -1.622532   1.000000   1.000000
    251         -1.579702       -1.579702   1.000000   1.000000
    252         -1.578825       -1.578825   1.000000   1.000000
    253         -1.578825       -1.578825   1.000000   1.000000
    254         -1.568369       -1.568369   1.000000   1.000000
    255         -1.568369       -1.568369   1.000000   1.000000
    256         -1.568347       -1.568347   1.000000   1.000000
    257         -1.567542       -1.567542   1.000000   1.000000
    258         -1.566921       -1.566921   1.000000   1.000000
    259         -1.512484       -1.512484   1.000000   1.000000
    260         -1.512484       -1.512484   1.000000   1.000000
    261         -1.500520       -1.500520   1.000000   1.000000
    262         -1.499581       -1.499581   1.000000   1.000000
    263         -1.498063       -1.498063   1.000000   1.000000
    264         -1.498063       -1.498063   1.000000   1.000000
    265         -1.497328       -1.497328   1.000000   1.000000
    266         -1.494561       -1.494562   1.000000   1.000000
    267         -1.494561       -1.494562   1.000000   1.000000
    268         -1.493091       -1.493091   1.000000   1.000000
    269         -1.492311       -1.492311   1.000000   1.000000
    270         -1.489113       -1.489113   1.000000   1.000000
    271         -1.470581       -1.470580   1.000000   1.000000
    272         -1.468482       -1.468482   1.000000   1.000000
    273         -1.468482       -1.468482   1.000000   1.000000
    274         -1.466202       -1.466203   1.000000   1.000000
    275         -1.461304       -1.461304   1.000000   1.000000
    276         -1.461304       -1.461304   1.000000   1.000000
    277         -1.459504       -1.459504   1.000000   1.000000
    278         -1.449290       -1.449290   1.000000   1.000000
    279         -1.428483       -1.428483   1.000000   1.000000
    280         -1.428483       -1.428483   1.000000   1.000000
    281         -1.425780       -1.425780   1.000000   1.000000
    282         -1.424379       -1.424379   1.000000   1.000000
    283         -1.424293       -1.424293   1.000000   1.000000
    284         -1.420142       -1.420142   1.000000   1.000000
    285         -1.406604       -1.406604   1.000000   1.000000
    286         -1.406604       -1.406604   1.000000   1.000000
    287         -1.402731       -1.402731   1.000000   1.000000
    288         -1.400486       -1.400486   1.000000   1.000000
    289         -1.400486       -1.400486   1.000000   1.000000
    290         -1.399747       -1.399748   1.000000   1.000000
    291         -1.399377       -1.399377   1.000000   1.000000
    292         -1.355121       -1.355121   1.000000   1.000000
    293         -1.349473       -1.349473   1.000000   1.000000
    294         -1.349473       -1.349473   1.000000   1.000000
    295         -1.347422       -1.347421   1.000000   1.000000
    296         -1.326798       -1.326797   1.000000   1.000000
    297         -1.326789       -1.326789   1.000000   1.000000
    298         -1.326789       -1.326789   1.000000   1.000000
    299         -1.322835       -1.322835   1.000000   1.000000
    300         -1.322835       -1.322835   1.000000   1.000000
    301         -1.321022       -1.321022   1.000000   1.000000
    302         -1.308778       -1.308778   1.000000   1.000000
    303         -1.308778       -1.308778   1.000000   1.000000
    304         -1.298405       -1.298405   1.000000   1.000000
    305         -1.298405       -1.298405   1.000000   1.000000
    306         -1.294487       -1.294486   1.000000   1.000000
    307         -1.293774       -1.293774   1.000000   1.000000
    308         -1.293139       -1.293139   1.000000   1.000000
    309         -1.289199       -1.289199   1.000000   1.000000
    310         -1.289199       -1.289199   1.000000   1.000000
    311         -1.281085       -1.281085   1.000000   1.000000
    312         -1.279366       -1.279366   1.000000   1.000000
    313         -1.279366       -1.279366   1.000000   1.000000
    314         -1.274501       -1.274502   1.000000   1.000000
    315         -1.273043       -1.273043   1.000000   1.000000
    316         -1.266643       -1.266643   1.000000   1.000000
    317         -1.263999       -1.263999   1.000000   1.000000
    318         -1.263999       -1.263999   1.000000   1.000000
    319         -1.262776       -1.262776   1.000000   1.000000
    320         -1.262776       -1.262776   1.000000   1.000000
    321         -1.262018       -1.262018   1.000000   1.000000
    322         -1.260979       -1.260979   1.000000   1.000000
    323         -1.260802       -1.260802   1.000000   1.000000
    324         -1.259892       -1.259892   1.000000   1.000000
    325         -1.257289       -1.257289   1.000000   1.000000
    326         -1.257289       -1.257289   1.000000   1.000000
    327         -1.257264       -1.257264   1.000000   1.000000
    328         -1.254652       -1.254652   1.000000   1.000000
    329         -1.232924       -1.232923   1.000000   1.000000
    330         -1.232924       -1.232923   1.000000   1.000000
    331         -1.223018       -1.223018   1.000000   1.000000
    332         -1.221664       -1.221664   1.000000   1.000000
    333         -1.221664       -1.221664   1.000000   1.000000
    334         -1.219775       -1.219775   1.000000   1.000000
    335         -1.219133       -1.219133   1.000000   1.000000
    336         -1.218500       -1.218500   1.000000   1.000000
    337         -1.218500       -1.218500   1.000000   1.000000
    338         -1.216585       -1.216585   1.000000   1.000000
    339         -1.213206       -1.213206   1.000000   1.000000
    340         -1.209709       -1.209709   1.000000   1.000000
    341         -1.208164       -1.208164   1.000000   1.000000
    342         -1.207507       -1.207507   1.000000   1.000000
    343         -1.205519       -1.205519   1.000000   1.000000
    344         -1.205519       -1.205519   1.000000   1.000000
    345         -1.204309       -1.204309   1.000000   1.000000
    346         -1.177698       -1.177698   1.000000   1.000000
    347         -1.177698       -1.177698   1.000000   1.000000
    348         -1.171412       -1.171412   1.000000   1.000000
    349         -1.163122       -1.163122   1.000000   1.000000
    350         -1.159487       -1.159487   1.000000   1.000000
    351         -1.159487       -1.159487   1.000000   1.000000
    352         -1.158392       -1.158392   1.000000   1.000000
    353         -1.155504       -1.155504   1.000000   1.000000
    354         -1.155226       -1.155226   1.000000   1.000000
    355         -1.154803       -1.154802   1.000000   1.000000
    356         -1.154803       -1.154802   1.000000   1.000000
    357         -1.152328       -1.152328   1.000000   1.000000
    358         -1.139229       -1.139228   1.000000   1.000000
    359         -1.139229       -1.139228   1.000000   1.000000
    360         -1.139084       -1.139084   1.000000   1.000000
    361         -1.138666       -1.138666   1.000000   1.000000
    362         -1.132737       -1.132737   1.000000   1.000000
    363         -1.132737       -1.132737   1.000000   1.000000
    364         -1.123240       -1.123240   1.000000   1.000000
    365         -1.120852       -1.120852   1.000000   1.000000
    366         -1.120852       -1.120852   1.000000   1.000000
    367         -1.120329       -1.120329   1.000000   1.000000
    368         -1.118556       -1.118556   1.000000   1.000000
    369         -1.118556       -1.118556   1.000000   1.000000
    370         -1.116022       -1.116022   1.000000   1.000000
    371         -1.115666       -1.115666   1.000000   1.000000
    372         -1.114986       -1.114986   1.000000   1.000000
    373         -1.114986       -1.114986   1.000000   1.000000
    374         -1.113437       -1.113437   1.000000   1.000000
    375         -1.112755       -1.112755   1.000000   1.000000
    376         -1.111156       -1.111155   1.000000   1.000000
    377         -1.109047       -1.109046   1.000000   1.000000
    378         -1.109047       -1.109046   1.000000   1.000000
    379         -1.098906       -1.098906   1.000000   1.000000
    380         -1.084129       -1.084129   1.000000   1.000000
    381         -1.082861       -1.082861   1.000000   1.000000
    382         -1.082861       -1.082861   1.000000   1.000000
    383         -1.079499       -1.079499   1.000000   1.000000
    384         -1.066717       -1.066717   1.000000   1.000000
    385         -1.063362       -1.063362   1.000000   1.000000
    386         -1.063362       -1.063362   1.000000   1.000000
    387         -1.061353       -1.061353   1.000000   1.000000
    388         -1.041939       -1.041939   1.000000   1.000000
    389         -1.041293       -1.041293   1.000000   1.000000
    390         -1.040439       -1.040438   1.000000   1.000000
    391         -1.040439       -1.040438   1.000000   1.000000
    392         -1.024298       -1.024298   1.000000   1.000000
    393         -0.958013       -0.958014   1.000000   1.000000
    394         -0.958013       -0.958014   1.000000   1.000000
    395         -0.955260       -0.955260   1.000000   1.000000
    396         -0.950045       -0.950045   1.000000   1.000000
    397         -0.949753       -0.949753   1.000000   1.000000
    398         -0.949753       -0.949753   1.000000   1.000000
    399         -0.946997       -0.946997   1.000000   1.000000
    400         -0.944561       -0.944561   1.000000   1.000000
    401         -0.942735       -0.942735   1.000000   1.000000
    402         -0.942735       -0.942735   1.000000   1.000000
    403         -0.928799       -0.928798   1.000000   1.000000
    404         -0.928799       -0.928798   1.000000   1.000000
    405         -0.927088       -0.927088   1.000000   1.000000
    406         -0.926925       -0.926924   1.000000   1.000000
    407         -0.925063       -0.925063   1.000000   1.000000
    408         -0.922770       -0.922771   1.000000   1.000000
    409         -0.922770       -0.922771   1.000000   1.000000
    410         -0.915330       -0.915331   1.000000   1.000000
    411         -0.912980       -0.912980   1.000000   1.000000
    412         -0.912428       -0.912428   1.000000   1.000000
    413         -0.910172       -0.910172   1.000000   1.000000
    414         -0.910172       -0.910172   1.000000   1.000000
    415         -0.909155       -0.909155   1.000000   1.000000
    416         -0.907022       -0.907023   1.000000   1.000000
    417         -0.906927       -0.906927   1.000000   1.000000
    418         -0.906927       -0.906927   1.000000   1.000000
    419         -0.905549       -0.905548   1.000000   1.000000
    420         -0.905118       -0.905117   1.000000   1.000000
    421         -0.905118       -0.905117   1.000000   1.000000
    422         -0.876380       -0.876380   1.000000   1.000000
    423         -0.876380       -0.876380   1.000000   1.000000
    424         -0.866276       -0.866276   1.000000   1.000000
    425         -0.865070       -0.865070   1.000000   1.000000
    426         -0.865070       -0.865070   1.000000   1.000000
    427         -0.865059       -0.865059   1.000000   1.000000
    428         -0.852942       -0.852941   1.000000   1.000000
    429         -0.852112       -0.852111   1.000000   1.000000
    430         -0.843088       -0.843088   1.000000   1.000000
    431         -0.843088       -0.843088   1.000000   1.000000
    432         -0.840697       -0.840697   1.000000   1.000000
    433         -0.838215       -0.838214   1.000000   1.000000
    434         -0.837432       -0.837432   1.000000   1.000000
    435         -0.837432       -0.837432   1.000000   1.000000
    436         -0.833979       -0.833979   1.000000   1.000000
    437         -0.829371       -0.829371   1.000000   1.000000
    438         -0.821712       -0.821712   1.000000   1.000000
    439         -0.820771       -0.820771   1.000000   1.000000
    440         -0.820771       -0.820771   1.000000   1.000000
    441         -0.819050       -0.819050   1.000000   1.000000
    442         -0.809248       -0.809248   1.000000   1.000000
    443         -0.808543       -0.808543   1.000000   1.000000
    444         -0.802346       -0.802346   1.000000   1.000000
    445         -0.802129       -0.802129   1.000000   1.000000
    446         -0.802129       -0.802129   1.000000   1.000000
    447         -0.798934       -0.798934   1.000000   1.000000
    448         -0.797603       -0.797604   1.000000   1.000000
    449         -0.797603       -0.797604   1.000000   1.000000
    450         -0.762830       -0.762830   1.000000   1.000000
    451         -0.762830       -0.762830   1.000000   1.000000
    452         -0.753482       -0.753482   1.000000   1.000000
    453         -0.752491       -0.752491   1.000000   1.000000
    454         -0.748570       -0.748570   1.000000   1.000000
    455         -0.748570       -0.748570   1.000000   1.000000
    456         -0.744721       -0.744721   1.000000   1.000000
    457         -0.720969       -0.720969   1.000000   1.000000
    458         -0.720622       -0.720622   1.000000   1.000000
    459         -0.720622       -0.720622   1.000000   1.000000
    460         -0.713921       -0.713921   1.000000   1.000000
    461         -0.713830       -0.713830   1.000000   1.000000
    462         -0.690561       -0.690561   1.000000   1.000000
    463         -0.690176       -0.690176   1.000000   1.000000
    464         -0.690176       -0.690176   1.000000   1.000000