<?xml version="1.0" encoding="ISO-8859-1"?>
<modeling>
 <generator>
  <i name="program" type="string">vasp </i>
  <i name="version" type="string">6.3.2  </i>
  <i name="subversion" type="string">27Jun22 (build Aug 17 2022 15:43:34) complex                          parallel </i>
  <i name="platform" type="string">tv2STDVTST </i>
  <i name="date" type="string">2025 02 06 </i>
  <i name="time" type="string">09:16:11 </i>
 </generator>
 <incar>
  <i type="int" name="ISTART">     0</i>
  <i type="string" name="PREC">Normal</i>
  <i type="int" name="ISPIN">     2</i>
  <i type="int" name="ICHARG">     2</i>
  <i type="int" name="IBRION">     2</i>
  <i name="EDIFF">      0.00020000</i>
  <i name="EDIFFG">     -0.03000000</i>
  <i type="int" name="NSW">   800</i>
  <i type="int" name="ISIF">     2</i>
  <i type="int" name="ISYM">     1</i>
  <i name="ENCUT">    400.00000000</i>
  <i name="POTIM">      0.50000000</i>
  <i type="logical" name="LREAL"> F  </i>
  <i type="int" name="ISMEAR">     1</i>
  <i name="SIGMA">      0.20000000</i>
  <i type="logical" name="LWAVE"> F  </i>
  <i type="logical" name="LCHARG"> F  </i>
  <i type="string" name="GGA">PE</i>
  <i type="int" name="IVDW">    11</i>
 </incar>
 <primitive_cell>
  <structure name="primitive_cell" >
   <crystal>
    <varray name="basis" >
     <v>      10.89000034       0.00000000       0.00000000 </v>
     <v>       0.00000000      10.89000034       0.00000000 </v>
     <v>       0.00000000       0.00000000      27.70499992 </v>
    </varray>
    <i name="volume">   3285.59432860 </i>
    <varray name="rec_basis" >
     <v>       0.09182736       0.00000000       0.00000000 </v>
     <v>       0.00000000       0.09182736       0.00000000 </v>
     <v>       0.00000000       0.00000000       0.03609457 </v>
    </varray>
   </crystal>
   <varray name="positions" >
    <v>       0.00000000       0.00000000       0.00000000 </v>
    <v>       0.00000000       0.33333333       0.00000000 </v>
    <v>       0.00000000       0.66666667       0.00000000 </v>
    <v>       0.33333333       0.00000000       0.00000000 </v>
    <v>       0.33333333       0.33333333       0.00000000 </v>
    <v>       0.33333333       0.66666667       0.00000000 </v>
    <v>       0.66666667       0.00000000       0.00000000 </v>
    <v>       0.66666667       0.33333333       0.00000000 </v>
    <v>       0.66666667       0.66666667       0.00000000 </v>
    <v>       0.16666667       0.16666667       0.00000000 </v>
    <v>       0.16666667       0.50000000       0.00000000 </v>
    <v>       0.16666667       0.83333333       0.00000000 </v>
    <v>       0.50000000       0.16666667       0.00000000 </v>
    <v>       0.50000000       0.50000000       0.00000000 </v>
    <v>       0.50000000       0.83333333       0.00000000 </v>
    <v>       0.83333333       0.16666667       0.00000000 </v>
    <v>       0.83333333       0.50000000       0.00000000 </v>
    <v>       0.83333333       0.83333333       0.00000000 </v>
    <v>       0.00000000       0.16666667       0.06551164 </v>
    <v>       0.00000000       0.50000000       0.06551164 </v>
    <v>       0.00000000       0.83333333       0.06551164 </v>
    <v>       0.33333333       0.16666667       0.06551164 </v>
    <v>       0.33333333       0.50000000       0.06551164 </v>
    <v>       0.33333333       0.83333333       0.06551164 </v>
    <v>       0.66666667       0.16666667       0.06551164 </v>
    <v>       0.66666667       0.50000000       0.06551164 </v>
    <v>       0.66666667       0.83333333       0.06551164 </v>
    <v>       0.16666667       0.00000000       0.06551164 </v>
    <v>       0.16666667       0.33333333       0.06551164 </v>
    <v>       0.16666667       0.66666667       0.06551164 </v>
    <v>       0.50000000       0.00000000       0.06551164 </v>
    <v>       0.50000000       0.33333333       0.06551164 </v>
    <v>       0.50000000       0.66666667       0.06551164 </v>
    <v>       0.83333333       0.00000000       0.06551164 </v>
    <v>       0.83333333       0.33333333       0.06551164 </v>
    <v>       0.83333333       0.66666667       0.06551164 </v>
    <v>       0.00000000       0.00000000       0.13119553 </v>
    <v>       0.00000000       0.33333333       0.13119553 </v>
    <v>       0.00000000       0.66666667       0.13119553 </v>
    <v>       0.33333333       0.00000000       0.13119553 </v>
    <v>       0.33333333       0.33333333       0.13119553 </v>
    <v>       0.33333333       0.66666667       0.13119553 </v>
    <v>       0.66666667       0.00000000       0.13119553 </v>
    <v>       0.66666667       0.33333333       0.13119553 </v>
    <v>       0.66666667       0.66666667       0.13119553 </v>
    <v>       0.16666667       0.16666667       0.13119553 </v>
    <v>       0.16666667       0.50000000       0.13119553 </v>
    <v>       0.16666667       0.83333333       0.13119553 </v>
    <v>       0.50000000       0.16666667       0.13119553 </v>
    <v>       0.50000000       0.50000000       0.13119553 </v>
    <v>       0.50000000       0.83333333       0.13119553 </v>
    <v>       0.83333333       0.16666667       0.13119553 </v>
    <v>       0.83333333       0.50000000       0.13119553 </v>
    <v>       0.83333333       0.83333333       0.13119553 </v>
    <v>       0.00000000       0.16666667       0.19620680 </v>
    <v>       0.00000000       0.50000000       0.19620680 </v>
    <v>       0.00000000       0.83333333       0.19620680 </v>
    <v>       0.33333333       0.16666667       0.19620680 </v>
    <v>       0.33333333       0.50000000       0.19620680 </v>
    <v>       0.33333333       0.83333333       0.19620680 </v>
    <v>       0.66666667       0.16666667       0.19620680 </v>
    <v>       0.66666667       0.50000000       0.19620680 </v>
    <v>       0.66666667       0.83333333       0.19620680 </v>
    <v>       0.16666667       0.00000000       0.19620680 </v>
    <v>       0.16666667       0.33333333       0.19620680 </v>
    <v>       0.16666667       0.66666667       0.19620680 </v>
    <v>       0.50000000       0.00000000       0.19620680 </v>
    <v>       0.50000000       0.33333333       0.19620680 </v>
    <v>       0.50000000       0.66666667       0.19620680 </v>
    <v>       0.83333333       0.00000000       0.19620680 </v>
    <v>       0.83333333       0.33333333       0.19620680 </v>
    <v>       0.83333333       0.66666667       0.19620680 </v>
    <v>       0.00000000       0.00000000       0.25873860 </v>
    <v>       0.00000000       0.33333333       0.25873860 </v>
    <v>       0.00000000       0.66666667       0.25873860 </v>
    <v>       0.33333333       0.00000000       0.25873860 </v>
    <v>       0.33333333       0.33333333       0.25873860 </v>
    <v>       0.33333333       0.66666667       0.25873860 </v>
    <v>       0.66666667       0.00000000       0.25873860 </v>
    <v>       0.66666667       0.33333333       0.25873860 </v>
    <v>       0.66666667       0.66666667       0.25873860 </v>
    <v>       0.16666667       0.16666667       0.25873860 </v>
    <v>       0.16666667       0.50000000       0.25873860 </v>
    <v>       0.16666667       0.83333333       0.25873860 </v>
    <v>       0.50000000       0.16666667       0.25873860 </v>
    <v>       0.50000000       0.50000000       0.25873860 </v>
    <v>       0.50000000       0.83333333       0.25873860 </v>
    <v>       0.83333333       0.16666667       0.25873860 </v>
    <v>       0.83333333       0.50000000       0.25873860 </v>
    <v>       0.83333333       0.83333333       0.25873860 </v>
    <v>       0.00000000       0.16666667       0.32119954 </v>
    <v>       0.00000000       0.50000000       0.32119954 </v>
    <v>       0.00000000       0.83333333       0.32119954 </v>
    <v>       0.33333333       0.16666667       0.32119954 </v>
    <v>       0.33333333       0.50000000       0.32119954 </v>
    <v>       0.33333333       0.83333333       0.32119954 </v>
    <v>       0.66666667       0.16666667       0.32119954 </v>
    <v>       0.66666667       0.50000000       0.32119954 </v>
    <v>       0.66666667       0.83333333       0.32119954 </v>
    <v>       0.16666667       0.00000000       0.32119954 </v>
    <v>       0.16666667       0.33333333       0.32119954 </v>
    <v>       0.16666667       0.66666667       0.32119954 </v>
    <v>       0.50000000       0.00000000       0.32119954 </v>
    <v>       0.50000000       0.33333333       0.32119954 </v>
    <v>       0.50000000       0.66666667       0.32119954 </v>
    <v>       0.83333333       0.00000000       0.32119954 </v>
    <v>       0.83333333       0.33333333       0.32119954 </v>
    <v>       0.83333333       0.66666667       0.32119954 </v>
    <v>       0.00000000       0.00000000       0.38476372 </v>
    <v>       0.00000000       0.33333333       0.38476372 </v>
    <v>       0.00000000       0.66666667       0.38476372 </v>
    <v>       0.33333333       0.00000000       0.38476372 </v>
    <v>       0.33333333       0.33333333       0.38476372 </v>
    <v>       0.33333333       0.66666667       0.38476372 </v>
    <v>       0.66666667       0.00000000       0.38476372 </v>
    <v>       0.66666667       0.33333333       0.38476372 </v>
    <v>       0.66666667       0.66666667       0.38476372 </v>
    <v>       0.16666667       0.16666667       0.38476372 </v>
    <v>       0.16666667       0.50000000       0.38476372 </v>
    <v>       0.16666667       0.83333333       0.38476372 </v>
    <v>       0.50000000       0.16666667       0.38476372 </v>
    <v>       0.50000000       0.50000000       0.38476372 </v>
    <v>       0.50000000       0.83333333       0.38476372 </v>
    <v>       0.83333333       0.16666667       0.38476372 </v>
    <v>       0.83333333       0.50000000       0.38476372 </v>
    <v>       0.83333333       0.83333333       0.38476372 </v>
    <v>       0.00000000       0.16666667       0.44736473 </v>
    <v>       0.00000000       0.50000000       0.44736473 </v>
    <v>       0.00000000       0.83333333       0.44736473 </v>
    <v>       0.33333333       0.16666667       0.44736473 </v>
    <v>       0.33333333       0.50000000       0.44736473 </v>
    <v>       0.33333333       0.83333333       0.44736473 </v>
    <v>       0.66666667       0.16666667       0.44736473 </v>
    <v>       0.66666667       0.50000000       0.44736473 </v>
    <v>       0.66666667       0.83333333       0.44736473 </v>
    <v>       0.16666667       0.00000000       0.44736473 </v>
    <v>       0.16666667       0.33333333       0.44736473 </v>
    <v>       0.16666667       0.66666667       0.44736473 </v>
    <v>       0.50000000       0.00000000       0.44736473 </v>
    <v>       0.50000000       0.33333333       0.44736473 </v>
    <v>       0.50000000       0.66666667       0.44736473 </v>
    <v>       0.83333333       0.00000000       0.44736473 </v>
    <v>       0.83333333       0.33333333       0.44736473 </v>
    <v>       0.83333333       0.66666667       0.44736473 </v>
    <v>       0.33333333       0.50000000       0.50150658 </v>
   </varray>
  </structure>
  <varray name="primitive_index" >
   <v type="int" >        1 </v>
   <v type="int" >        2 </v>
   <v type="int" >        3 </v>
   <v type="int" >        4 </v>
   <v type="int" >        5 </v>
   <v type="int" >        6 </v>
   <v type="int" >        7 </v>
   <v type="int" >        8 </v>
   <v type="int" >        9 </v>
   <v type="int" >       10 </v>
   <v type="int" >       11 </v>
   <v type="int" >       12 </v>
   <v type="int" >       13 </v>
   <v type="int" >       14 </v>
   <v type="int" >       15 </v>
   <v type="int" >       16 </v>
   <v type="int" >       17 </v>
   <v type="int" >       18 </v>
   <v type="int" >       19 </v>
   <v type="int" >       20 </v>
   <v type="int" >       21 </v>
   <v type="int" >       22 </v>
   <v type="int" >       23 </v>
   <v type="int" >       24 </v>
   <v type="int" >       25 </v>
   <v type="int" >       26 </v>
   <v type="int" >       27 </v>
   <v type="int" >       28 </v>
   <v type="int" >       29 </v>
   <v type="int" >       30 </v>
   <v type="int" >       31 </v>
   <v type="int" >       32 </v>
   <v type="int" >       33 </v>
   <v type="int" >       34 </v>
   <v type="int" >       35 </v>
   <v type="int" >       36 </v>
   <v type="int" >       37 </v>
   <v type="int" >       38 </v>
   <v type="int" >       39 </v>
   <v type="int" >       40 </v>
   <v type="int" >       41 </v>
   <v type="int" >       42 </v>
   <v type="int" >       43 </v>
   <v type="int" >       44 </v>
   <v type="int" >       45 </v>
   <v type="int" >       46 </v>
   <v type="int" >       47 </v>
   <v type="int" >       48 </v>
   <v type="int" >       49 </v>
   <v type="int" >       50 </v>
   <v type="int" >       51 </v>
   <v type="int" >       52 </v>
   <v type="int" >       53 </v>
   <v type="int" >       54 </v>
   <v type="int" >       55 </v>
   <v type="int" >       56 </v>
   <v type="int" >       57 </v>
   <v type="int" >       58 </v>
   <v type="int" >       59 </v>
   <v type="int" >       60 </v>
   <v type="int" >       61 </v>
   <v type="int" >       62 </v>
   <v type="int" >       63 </v>
   <v type="int" >       64 </v>
   <v type="int" >       65 </v>
   <v type="int" >       66 </v>
   <v type="int" >       67 </v>
   <v type="int" >       68 </v>
   <v type="int" >       69 </v>
   <v type="int" >       70 </v>
   <v type="int" >       71 </v>
   <v type="int" >       72 </v>
   <v type="int" >       73 </v>
   <v type="int" >       74 </v>
   <v type="int" >       75 </v>
   <v type="int" >       76 </v>
   <v type="int" >       77 </v>
   <v type="int" >       78 </v>
   <v type="int" >       79 </v>
   <v type="int" >       80 </v>
   <v type="int" >       81 </v>
   <v type="int" >       82 </v>
   <v type="int" >       83 </v>
   <v type="int" >       84 </v>
   <v type="int" >       85 </v>
   <v type="int" >       86 </v>
   <v type="int" >       87 </v>
   <v type="int" >       88 </v>
   <v type="int" >       89 </v>
   <v type="int" >       90 </v>
   <v type="int" >       91 </v>
   <v type="int" >       92 </v>
   <v type="int" >       93 </v>
   <v type="int" >       94 </v>
   <v type="int" >       95 </v>
   <v type="int" >       96 </v>
   <v type="int" >       97 </v>
   <v type="int" >       98 </v>
   <v type="int" >       99 </v>
   <v type="int" >      100 </v>
   <v type="int" >      101 </v>
   <v type="int" >      102 </v>
   <v type="int" >      103 </v>
   <v type="int" >      104 </v>
   <v type="int" >      105 </v>
   <v type="int" >      106 </v>
   <v type="int" >      107 </v>
   <v type="int" >      108 </v>
   <v type="int" >      109 </v>
   <v type="int" >      110 </v>
   <v type="int" >      111 </v>
   <v type="int" >      112 </v>
   <v type="int" >      113 </v>
   <v type="int" >      114 </v>
   <v type="int" >      115 </v>
   <v type="int" >      116 </v>
   <v type="int" >      117 </v>
   <v type="int" >      118 </v>
   <v type="int" >      119 </v>
   <v type="int" >      120 </v>
   <v type="int" >      121 </v>
   <v type="int" >      122 </v>
   <v type="int" >      123 </v>
   <v type="int" >      124 </v>
   <v type="int" >      125 </v>
   <v type="int" >      126 </v>
   <v type="int" >      127 </v>
   <v type="int" >      128 </v>
   <v type="int" >      129 </v>
   <v type="int" >      130 </v>
   <v type="int" >      131 </v>
   <v type="int" >      132 </v>
   <v type="int" >      133 </v>
   <v type="int" >      134 </v>
   <v type="int" >      135 </v>
   <v type="int" >      136 </v>
   <v type="int" >      137 </v>
   <v type="int" >      138 </v>
   <v type="int" >      139 </v>
   <v type="int" >      140 </v>
   <v type="int" >      141 </v>
   <v type="int" >      142 </v>
   <v type="int" >      143 </v>
   <v type="int" >      144 </v>
   <v type="int" >      145 </v>
  </varray>
 </primitive_cell>
 <kpoints>
  <generation param="Monkhorst-Pack">
   <v type="int" name="divisions">       3        3        1 </v>
   <v name="usershift">      0.00000000       0.00000000       0.00000000 </v>
   <v name="genvec1">      0.33333333       0.00000000       0.00000000 </v>
   <v name="genvec2">      0.00000000       0.33333333       0.00000000 </v>
   <v name="genvec3">      0.00000000       0.00000000       1.00000000 </v>
   <v name="shift">      0.00000000       0.00000000       0.00000000 </v>
  </generation>
  <varray name="kpointlist" >
   <v>       0.00000000       0.00000000       0.00000000 </v>
   <v>       0.33333333       0.00000000       0.00000000 </v>
   <v>       0.33333333       0.33333333       0.00000000 </v>
  </varray>
  <varray name="weights" >
   <v>       0.11111111 </v>
   <v>       0.44444444 </v>
   <v>       0.44444444 </v>
  </varray>
 </kpoints>
 <parameters>
  <separator name="general" >
   <i type="string" name="SYSTEM">unknown system</i>
   <i type="logical" name="LCOMPAT"> F  </i>
  </separator>
  <separator name="electronic" >
   <i type="string" name="PREC">normal</i>
   <i name="ENMAX">    400.00000000</i>
   <i name="ENAUG">    586.98000000</i>
   <i name="EDIFF">      0.00020000</i>
   <i type="int" name="IALGO">    38</i>
   <i type="int" name="IWAVPR">    11</i>
   <i type="int" name="NBANDS">  1024</i>
   <i type="int" name="NBANDSLOW">    -1</i>
   <i type="int" name="NBANDSHIGH">    -1</i>
   <i name="NELECT">   1585.00000000</i>
   <i type="int" name="TURBO">     0</i>
   <i type="int" name="IRESTART">     0</i>
   <i type="int" name="NREBOOT">     0</i>
   <i type="int" name="NMIN">     0</i>
   <i name="EREF">      0.00000000</i>
   <separator name="electronic smearing" >
    <i type="int" name="ISMEAR">     1</i>
    <i name="SIGMA">      0.20000000</i>
    <i name="KSPACING">      0.50000000</i>
    <i type="logical" name="KGAMMA"> T  </i>
    <i type="logical" name="KBLOWUP"> T  </i>
   </separator>
   <separator name="electronic projectors" >
    <i type="logical" name="LREAL"> F  </i>
    <v name="ROPT">      0.00000000      0.00000000</v>
    <i type="int" name="LMAXPAW">  -100</i>
    <i type="int" name="LMAXMIX">     2</i>
    <i type="logical" name="NLSPLINE"> F  </i>
   </separator>
   <separator name="electronic startup" >
    <i type="int" name="ISTART">     0</i>
    <i type="int" name="ICHARG">     2</i>
    <i type="int" name="INIWAV">     1</i>
   </separator>
   <separator name="electronic spin" >
    <i type="int" name="ISPIN">     2</i>
    <i type="logical" name="LNONCOLLINEAR"> F  </i>
    <v name="MAGMOM">      1.00000000      1.00000000      1.00000000      1.00000000      1.00000000      1.00000000      1.00000000      1.00000000      1.00000000      1.00000000      1.00000000      1.00000000      1.00000000      1.00000000      1.00000000      1.00000000      1.00000000      1.00000000      1.00000000      1.00000000
      1.00000000      1.00000000      1.00000000      1.00000000      1.00000000      1.00000000      1.00000000      1.00000000      1.00000000      1.00000000      1.00000000      1.00000000      1.00000000      1.00000000      1.00000000      1.00000000      1.00000000      1.00000000      1.00000000      1.00000000
      1.00000000      1.00000000      1.00000000      1.00000000      1.00000000      1.00000000      1.00000000      1.00000000      1.00000000      1.00000000      1.00000000      1.00000000      1.00000000      1.00000000      1.00000000      1.00000000      1.00000000      1.00000000      1.00000000      1.00000000
      1.00000000      1.00000000      1.00000000      1.00000000      1.00000000      1.00000000      1.00000000      1.00000000      1.00000000      1.00000000      1.00000000      1.00000000      1.00000000      1.00000000      1.00000000      1.00000000      1.00000000      1.00000000      1.00000000      1.00000000
      1.00000000      1.00000000      1.00000000      1.00000000      1.00000000      1.00000000      1.00000000      1.00000000      1.00000000      1.00000000      1.00000000      1.00000000      1.00000000      1.00000000      1.00000000      1.00000000      1.00000000      1.00000000      1.00000000      1.00000000
      1.00000000      1.00000000      1.00000000      1.00000000      1.00000000      1.00000000      1.00000000      1.00000000      1.00000000      1.00000000      1.00000000      1.00000000      1.00000000      1.00000000      1.00000000      1.00000000      1.00000000      1.00000000      1.00000000      1.00000000
      1.00000000      1.00000000      1.00000000      1.00000000      1.00000000      1.00000000      1.00000000      1.00000000      1.00000000      1.00000000      1.00000000      1.00000000      1.00000000      1.00000000      1.00000000      1.00000000      1.00000000      1.00000000      1.00000000      1.00000000
      1.00000000      1.00000000      1.00000000      1.00000000      1.00000000</v>
    <i name="NUPDOWN">     -1.00000000</i>
    <i type="logical" name="LSORBIT"> F  </i>
    <v name="SAXIS">      0.00000000      0.00000000      1.00000000</v>
    <i type="logical" name="LSPIRAL"> F  </i>
    <v name="QSPIRAL">      0.00000000      0.00000000      0.00000000</v>
    <i type="logical" name="LZEROZ"> F  </i>
   </separator>
   <separator name="electronic exchange-correlation" >
    <i type="logical" name="LASPH"> F  </i>
    <i type="logical" name="LMETAGGA"> F  </i>
   </separator>
   <separator name="electronic convergence" >
    <i type="int" name="NELM">    60</i>
    <i type="int" name="NELMDL">    -5</i>
    <i type="int" name="NELMIN">     2</i>
    <i name="ENINI">    400.00000000</i>
    <separator name="electronic convergence detail" >
     <i type="logical" name="LDIAG"> T  </i>
     <i type="logical" name="LSUBROT"> F  </i>
     <i name="WEIMIN">      0.00100000</i>
     <i name="EBREAK">      0.00000005</i>
     <i name="DEPER">      0.30000000</i>
     <i type="int" name="NRMM">     4</i>
     <i name="TIME">      0.40000000</i>
    </separator>
   </separator>
   <separator name="electronic mixer" >
    <i name="AMIX">      0.40000000</i>
    <i name="BMIX">      1.00000000</i>
    <i name="AMIN">      0.10000000</i>
    <i name="AMIX_MAG">      1.60000000</i>
    <i name="BMIX_MAG">      1.00000000</i>
    <separator name="electronic mixer details" >
     <i type="int" name="IMIX">     4</i>
     <i type="logical" name="MIXFIRST"> F  </i>
     <i type="int" name="MAXMIX">   -45</i>
     <i name="WC">    100.00000000</i>
     <i type="int" name="INIMIX">     1</i>
     <i type="int" name="MIXPRE">     1</i>
     <i type="int" name="MREMOVE">     5</i>
    </separator>
   </separator>
   <separator name="electronic dipolcorrection" >
    <i type="logical" name="LDIPOL"> F  </i>
    <i type="logical" name="LMONO"> F  </i>
    <i type="int" name="IDIPOL">     0</i>
    <i name="EPSILON">      1.00000000</i>
    <v name="DIPOL">   -100.00000000   -100.00000000   -100.00000000</v>
    <i name="EFIELD">      0.00000000</i>
   </separator>
  </separator>
  <separator name="grids" >
   <i type="int" name="NGX">    54</i>
   <i type="int" name="NGY">    54</i>
   <i type="int" name="NGZ">   140</i>
   <i type="int" name="NGXF">   108</i>
   <i type="int" name="NGYF">   108</i>
   <i type="int" name="NGZF">   280</i>
   <i type="logical" name="ADDGRID"> F  </i>
  </separator>
  <separator name="ionic" >
   <i type="int" name="NSW">   800</i>
   <i type="int" name="IBRION">     2</i>
   <i type="int" name="MDALGO">     0</i>
   <i type="int" name="ISIF">     2</i>
   <i name="PSTRESS">      0.00000000</i>
   <i name="EDIFFG">     -0.03000000</i>
   <i type="int" name="NFREE">     1</i>
   <i name="POTIM">      0.50000000</i>
   <i name="SMASS">     -3.00000000</i>
   <i name="SCALEE">      1.00000000</i>
  </separator>
  <separator name="ionic md" >
   <i name="TEBEG">      0.00010000</i>
   <i name="TEEND">      0.00010000</i>
   <i type="int" name="NBLOCK">     1</i>
   <i type="int" name="KBLOCK">   800</i>
   <i type="int" name="NPACO">   256</i>
   <i name="APACO">     10.00000000</i>
  </separator>
  <separator name="symmetry" >
   <i type="int" name="ISYM">     1</i>
   <i name="SYMPREC">      0.00001000</i>
  </separator>
  <separator name="dos" >
   <i type="int" name="LORBIT">     0</i>
   <v name="RWIGS">     -1.00000000     -1.00000000</v>
   <i type="int" name="NEDOS">   301</i>
   <i name="EMIN">     10.00000000</i>
   <i name="EMAX">    -10.00000000</i>
   <i name="EFERMI">      0.00000000</i>
  </separator>
  <separator name="writing" >
   <i type="int" name="NWRITE">     2</i>
   <i type="logical" name="LWAVE"> F  </i>
   <i type="logical" name="LDOWNSAMPLE"> F  </i>
   <i type="logical" name="LCHARG"> F  </i>
   <i type="logical" name="LPARD"> F  </i>
   <i type="logical" name="LVTOT"> F  </i>
   <i type="logical" name="LVHAR"> F  </i>
   <i type="logical" name="LELF"> F  </i>
   <i type="logical" name="LOPTICS"> F  </i>
   <v name="STM">      0.00000000      0.00000000      0.00000000      0.00000000      0.00000000      0.00000000      0.00000000</v>
  </separator>
  <separator name="performance" >
   <i type="int" name="NPAR">     4</i>
   <i type="int" name="NSIM">     4</i>
   <i type="int" name="NBLK">    -1</i>
   <i type="logical" name="LPLANE"> T  </i>
   <i type="logical" name="LSCALAPACK"> T  </i>
   <i type="logical" name="LSCAAWARE"> F  </i>
   <i type="logical" name="LSCALU"> F  </i>
   <i type="logical" name="LASYNC"> F  </i>
   <i type="logical" name="LORBITALREAL"> F  </i>
  </separator>
  <separator name="miscellaneous" >
   <i type="int" name="IDIOT">     3</i>
   <i type="int" name="PHON_NSTRUCT">    -1</i>
   <i type="logical" name="LMUSIC"> F  </i>
   <v name="POMASS">     63.54600000      1.00000000</v>
   <v name="DARWINR">      0.00000000      0.00000000</v>
   <v name="DARWINV">      1.00000000      1.00000000</v>
   <i type="logical" name="LCORR"> T  </i>
  </separator>
  <i type="logical" name="GGA_COMPAT"> T  </i>
  <i type="logical" name="LBERRY"> F  </i>
  <i type="int" name="ICORELEVEL">     0</i>
  <i type="logical" name="LDAU"> F  </i>
  <i type="int" name="I_CONSTRAINED_M">     0</i>
  <separator name="electronic exchange-correlation" >
   <i type="string" name="GGA">PE</i>
   <i type="int" name="VOSKOWN">     0</i>
   <i type="logical" name="LHFCALC"> F  </i>
   <i type="string" name="PRECFOCK"></i>
   <i type="logical" name="LSYMGRAD"> F  </i>
   <i type="logical" name="LHFONE"> F  </i>
   <i type="logical" name="LRHFCALC"> F  </i>
   <i type="logical" name="LTHOMAS"> F  </i>
   <i type="logical" name="LMODELHF"> F  </i>
   <i type="logical" name="LFOCKACE"> F  </i>
   <i name="ENCUT4O">     -1.00000000</i>
   <i type="int" name="EXXOEP">     0</i>
   <i type="int" name="FOURORBIT">     0</i>
   <i name="AEXX">      0.00000000</i>
   <i name="HFALPHA">      0.00000000</i>
   <i name="MCALPHA">      0.00000000</i>
   <i name="ALDAX">      1.00000000</i>
   <i name="AGGAX">      1.00000000</i>
   <i name="ALDAC">      1.00000000</i>
   <i name="AGGAC">      1.00000000</i>
   <i type="int" name="NKREDX">     1</i>
   <i type="int" name="NKREDY">     1</i>
   <i type="int" name="NKREDZ">     1</i>
   <i type="logical" name="SHIFTRED"> F  </i>
   <i type="logical" name="ODDONLY"> F  </i>
   <i type="logical" name="EVENONLY"> F  </i>
   <i type="int" name="LMAXFOCK">     0</i>
   <i type="int" name="NMAXFOCKAE">     0</i>
   <i type="logical" name="LFOCKAEDFT"> F  </i>
   <i name="HFSCREEN">      0.00000000</i>
   <i name="HFSCREENC">      0.00000000</i>
   <i type="int" name="NBANDSGWLOW">     0</i>
  </separator>
  <separator name="vdW DFT" >
   <i type="logical" name="LUSE_VDW"> F  </i>
   <i name="Zab_VDW">     -0.84910000</i>
   <i name="PARAM1">      0.12340000</i>
   <i name="PARAM2">      1.00000000</i>
   <i name="PARAM3">      0.00000000</i>
  </separator>
  <separator name="model GW" >
   <i type="int" name="MODEL_GW">     0</i>
   <i name="MODEL_EPS0">     13.59556274</i>
   <i name="MODEL_ALPHA">      1.00000000</i>
  </separator>
  <separator name="linear response parameters" >
   <i type="logical" name="LEPSILON"> F  </i>
   <i type="logical" name="LRPA"> F  </i>
   <i type="logical" name="LNABLA"> F  </i>
   <i type="logical" name="LVEL"> F  </i>
   <i name="CSHIFT">      0.10000000</i>
   <i name="OMEGAMAX">     -1.00000000</i>
   <i name="DEG_THRESHOLD">      0.00200000</i>
   <i name="RTIME">     -0.10000000</i>
   <i name="WPLASMAI">      0.00000000</i>
   <v name="DFIELD">      0.00000000      0.00000000      0.00000000</v>
   <v name="WPLASMA">      0.00000000      0.00000000      0.00000000      0.00000000      0.00000000      0.00000000      0.00000000      0.00000000      0.00000000</v>
  </separator>
  <separator name="orbital magnetization" >
   <i type="logical" name="NUCIND"> F  </i>
   <v name="MAGPOS">      0.00000000      0.00000000      0.00000000</v>
   <i type="logical" name="LNICSALL"> T  </i>
   <i type="logical" name="ORBITALMAG"> F  </i>
   <i type="logical" name="LMAGBLOCH"> F  </i>
   <i type="logical" name="LCHIMAG"> F  </i>
   <i type="logical" name="LGAUGE"> T  </i>
   <i type="int" name="MAGATOM">     0</i>
   <v name="MAGDIPOL">      0.00000000      0.00000000      0.00000000</v>
   <v name="AVECCONST">      0.00000000      0.00000000      0.00000000</v>
  </separator>
  <separator name="response functions" >
   <i type="logical" name="LFINITE_TEMPERATURE"> F  </i>
   <i type="logical" name="LADDER"> F  </i>
   <i type="logical" name="LRPAFORCE"> F  </i>
   <i type="logical" name="LFXC"> F  </i>
   <i type="logical" name="LHARTREE"> T  </i>
   <i type="int" name="IBSE">     0</i>
   <v type="int" name="KPOINT">    -1     0     0     0</v>
   <i type="logical" name="LTCTC"> F  </i>
   <i type="logical" name="LTCTE"> F  </i>
   <i type="logical" name="LTETE"> F  </i>
   <i type="logical" name="LTRIPLET"> F  </i>
   <i type="logical" name="LFXCEPS"> F  </i>
   <i type="logical" name="LFXHEG"> F  </i>
   <i type="int" name="NATURALO">     2</i>
   <i type="logical" name="LHOLEGF"> F  </i>
   <i type="logical" name="L2ORDER"> F  </i>
   <i type="logical" name="LDMP1"> F  </i>
   <i type="logical" name="LMP2LT"> F  </i>
   <i type="logical" name="LSMP2LT"> F  </i>
   <i type="logical" name="LGWLF"> F  </i>
   <i name="ENCUTGW">     -2.00000000</i>
   <i name="ENCUTGWSOFT">     -2.00000000</i>
   <i name="ENCUTLF">     -1.00000000</i>
   <i type="logical" name="LESF_SPLINES"> F  </i>
   <i type="int" name="LMAXMP2">    -1</i>
   <i name="SCISSOR">      0.00000000</i>
   <i type="int" name="NOMEGA">     0</i>
   <i type="int" name="NOMEGAR">     0</i>
   <i type="int" name="NBANDSGW">    -1</i>
   <i type="int" name="NBANDSO">    -1</i>
   <i type="int" name="NBANDSV">    -1</i>
   <i type="int" name="NELMGW">     1</i>
   <i type="int" name="NELMHF">     1</i>
   <i type="int" name="DIM">     3</i>
   <i type="int" name="IESPILON">     4</i>
   <i type="int" name="ANTIRES">     0</i>
   <i name="OMEGAMAX">    -30.00000000</i>
   <i name="OMEGAMIN">    -30.00000000</i>
   <i name="OMEGATL">   -200.00000000</i>
   <i type="int" name="OMEGAGRID">     0</i>
   <i name="CSHIFT">     -0.10000000</i>
   <i type="logical" name="LSELFENERGY"> F  </i>
   <i type="logical" name="LSPECTRAL"> F  </i>
   <i type="logical" name="LSPECTRALGW"> F  </i>
   <i type="logical" name="LSINGLES"> F  </i>
   <i type="logical" name="LFERMIGW"> F  </i>
   <i type="logical" name="ODDONLYGW"> F  </i>
   <i type="logical" name="EVENONLYGW"> F  </i>
   <i type="int" name="NKREDLFX">     1</i>
   <i type="int" name="NKREDLFY">     1</i>
   <i type="int" name="NKREDLFZ">     1</i>
   <i type="int" name="MAXMEM">  2800</i>
   <i type="int" name="TELESCOPE">     0</i>
   <i type="int" name="NTAUPAR">    -1</i>
   <i type="int" name="NOMEGAPAR">    -1</i>
   <i name="DAMP_NEWTON">      0.80000001</i>
   <i name="LAMBDA">      1.00000000</i>
  </separator>
  <separator name="External order field" >
   <i name="OFIELD_KAPPA">      0.00000000</i>
   <v name="OFIELD_K">      0.00000000      0.00000000      0.00000000</v>
   <i name="OFIELD_Q6_NEAR">      0.00000000</i>
   <i name="OFIELD_Q6_FAR">      0.00000000</i>
   <i name="OFIELD_A">      0.00000000</i>
  </separator>
  <separator name="optional k-points parameters" >
   <i type="int" name="KPOINTS_OPT_MODE">     1</i>
   <i type="logical" name="LKPOINTS_OPT"> F  </i>
  </separator>
 </parameters>
 <atominfo>
  <atoms>     145 </atoms>
  <types>       2 </types>
  <array name="atoms" >
   <dimension dim="1">ion</dimension>
   <field type="string">element</field>
   <field type="int">atomtype</field>
   <set>
    <rc><c>Cu</c><c>   1</c></rc>
    <rc><c>Cu</c><c>   1</c></rc>
    <rc><c>Cu</c><c>   1</c></rc>
    <rc><c>Cu</c><c>   1</c></rc>
    <rc><c>Cu</c><c>   1</c></rc>
    <rc><c>Cu</c><c>   1</c></rc>
    <rc><c>Cu</c><c>   1</c></rc>
    <rc><c>Cu</c><c>   1</c></rc>
    <rc><c>Cu</c><c>   1</c></rc>
    <rc><c>Cu</c><c>   1</c></rc>
    <rc><c>Cu</c><c>   1</c></rc>
    <rc><c>Cu</c><c>   1</c></rc>
    <rc><c>Cu</c><c>   1</c></rc>
    <rc><c>Cu</c><c>   1</c></rc>
    <rc><c>Cu</c><c>   1</c></rc>
    <rc><c>Cu</c><c>   1</c></rc>
    <rc><c>Cu</c><c>   1</c></rc>
    <rc><c>Cu</c><c>   1</c></rc>
    <rc><c>Cu</c><c>   1</c></rc>
    <rc><c>Cu</c><c>   1</c></rc>
    <rc><c>Cu</c><c>   1</c></rc>
    <rc><c>Cu</c><c>   1</c></rc>
    <rc><c>Cu</c><c>   1</c></rc>
    <rc><c>Cu</c><c>   1</c></rc>
    <rc><c>Cu</c><c>   1</c></rc>
    <rc><c>Cu</c><c>   1</c></rc>
    <rc><c>Cu</c><c>   1</c></rc>
    <rc><c>Cu</c><c>   1</c></rc>
    <rc><c>Cu</c><c>   1</c></rc>
    <rc><c>Cu</c><c>   1</c></rc>
    <rc><c>Cu</c><c>   1</c></rc>
    <rc><c>Cu</c><c>   1</c></rc>
    <rc><c>Cu</c><c>   1</c></rc>
    <rc><c>Cu</c><c>   1</c></rc>
    <rc><c>Cu</c><c>   1</c></rc>
    <rc><c>Cu</c><c>   1</c></rc>
    <rc><c>Cu</c><c>   1</c></rc>
    <rc><c>Cu</c><c>   1</c></rc>
    <rc><c>Cu</c><c>   1</c></rc>
    <rc><c>Cu</c><c>   1</c></rc>
    <rc><c>Cu</c><c>   1</c></rc>
    <rc><c>Cu</c><c>   1</c></rc>
    <rc><c>Cu</c><c>   1</c></rc>
    <rc><c>Cu</c><c>   1</c></rc>
    <rc><c>Cu</c><c>   1</c></rc>
    <rc><c>Cu</c><c>   1</c></rc>
    <rc><c>Cu</c><c>   1</c></rc>
    <rc><c>Cu</c><c>   1</c></rc>
    <rc><c>Cu</c><c>   1</c></rc>
    <rc><c>Cu</c><c>   1</c></rc>
    <rc><c>Cu</c><c>   1</c></rc>
    <rc><c>Cu</c><c>   1</c></rc>
    <rc><c>Cu</c><c>   1</c></rc>
    <rc><c>Cu</c><c>   1</c></rc>
    <rc><c>Cu</c><c>   1</c></rc>
    <rc><c>Cu</c><c>   1</c></rc>
    <rc><c>Cu</c><c>   1</c></rc>
    <rc><c>Cu</c><c>   1</c></rc>
    <rc><c>Cu</c><c>   1</c></rc>
    <rc><c>Cu</c><c>   1</c></rc>
    <rc><c>Cu</c><c>   1</c></rc>
    <rc><c>Cu</c><c>   1</c></rc>
    <rc><c>Cu</c><c>   1</c></rc>
    <rc><c>Cu</c><c>   1</c></rc>
    <rc><c>Cu</c><c>   1</c></rc>
    <rc><c>Cu</c><c>   1</c></rc>
    <rc><c>Cu</c><c>   1</c></rc>
    <rc><c>Cu</c><c>   1</c></rc>
    <rc><c>Cu</c><c>   1</c></rc>
    <rc><c>Cu</c><c>   1</c></rc>
    <rc><c>Cu</c><c>   1</c></rc>
    <rc><c>Cu</c><c>   1</c></rc>
    <rc><c>Cu</c><c>   1</c></rc>
    <rc><c>Cu</c><c>   1</c></rc>
    <rc><c>Cu</c><c>   1</c></rc>
    <rc><c>Cu</c><c>   1</c></rc>
    <rc><c>Cu</c><c>   1</c></rc>
    <rc><c>Cu</c><c>   1</c></rc>
    <rc><c>Cu</c><c>   1</c></rc>
    <rc><c>Cu</c><c>   1</c></rc>
    <rc><c>Cu</c><c>   1</c></rc>
    <rc><c>Cu</c><c>   1</c></rc>
    <rc><c>Cu</c><c>   1</c></rc>
    <rc><c>Cu</c><c>   1</c></rc>
    <rc><c>Cu</c><c>   1</c></rc>
    <rc><c>Cu</c><c>   1</c></rc>
    <rc><c>Cu</c><c>   1</c></rc>
    <rc><c>Cu</c><c>   1</c></rc>
    <rc><c>Cu</c><c>   1</c></rc>
    <rc><c>Cu</c><c>   1</c></rc>
    <rc><c>Cu</c><c>   1</c></rc>
    <rc><c>Cu</c><c>   1</c></rc>
    <rc><c>Cu</c><c>   1</c></rc>
    <rc><c>Cu</c><c>   1</c></rc>
    <rc><c>Cu</c><c>   1</c></rc>
    <rc><c>Cu</c><c>   1</c></rc>
    <rc><c>Cu</c><c>   1</c></rc>
    <rc><c>Cu</c><c>   1</c></rc>
    <rc><c>Cu</c><c>   1</c></rc>
    <rc><c>Cu</c><c>   1</c></rc>
    <rc><c>Cu</c><c>   1</c></rc>
    <rc><c>Cu</c><c>   1</c></rc>
    <rc><c>Cu</c><c>   1</c></rc>
    <rc><c>Cu</c><c>   1</c></rc>
    <rc><c>Cu</c><c>   1</c></rc>
    <rc><c>Cu</c><c>   1</c></rc>
    <rc><c>Cu</c><c>   1</c></rc>
    <rc><c>Cu</c><c>   1</c></rc>
    <rc><c>Cu</c><c>   1</c></rc>
    <rc><c>Cu</c><c>   1</c></rc>
    <rc><c>Cu</c><c>   1</c></rc>
    <rc><c>Cu</c><c>   1</c></rc>
    <rc><c>Cu</c><c>   1</c></rc>
    <rc><c>Cu</c><c>   1</c></rc>
    <rc><c>Cu</c><c>   1</c></rc>
    <rc><c>Cu</c><c>   1</c></rc>
    <rc><c>Cu</c><c>   1</c></rc>
    <rc><c>Cu</c><c>   1</c></rc>
    <rc><c>Cu</c><c>   1</c></rc>
    <rc><c>Cu</c><c>   1</c></rc>
    <rc><c>Cu</c><c>   1</c></rc>
    <rc><c>Cu</c><c>   1</c></rc>
    <rc><c>Cu</c><c>   1</c></rc>
    <rc><c>Cu</c><c>   1</c></rc>
    <rc><c>Cu</c><c>   1</c></rc>
    <rc><c>Cu</c><c>   1</c></rc>
    <rc><c>Cu</c><c>   1</c></rc>
    <rc><c>Cu</c><c>   1</c></rc>
    <rc><c>Cu</c><c>   1</c></rc>
    <rc><c>Cu</c><c>   1</c></rc>
    <rc><c>Cu</c><c>   1</c></rc>
    <rc><c>Cu</c><c>   1</c></rc>
    <rc><c>Cu</c><c>   1</c></rc>
    <rc><c>Cu</c><c>   1</c></rc>
    <rc><c>Cu</c><c>   1</c></rc>
    <rc><c>Cu</c><c>   1</c></rc>
    <rc><c>Cu</c><c>   1</c></rc>
    <rc><c>Cu</c><c>   1</c></rc>
    <rc><c>Cu</c><c>   1</c></rc>
    <rc><c>Cu</c><c>   1</c></rc>
    <rc><c>Cu</c><c>   1</c></rc>
    <rc><c>Cu</c><c>   1</c></rc>
    <rc><c>Cu</c><c>   1</c></rc>
    <rc><c>Cu</c><c>   1</c></rc>
    <rc><c>H </c><c>   2</c></rc>
   </set>
  </array>
  <array name="atomtypes" >
   <dimension dim="1">type</dimension>
   <field type="int">atomspertype</field>
   <field type="string">element</field>
   <field>mass</field>
   <field>valence</field>
   <field type="string">pseudopotential</field>
   <set>
    <rc><c> 144</c><c>Cu</c><c>     63.54600000</c><c>     11.00000000</c><c>  PAW_PBE Cu 22Jun2005                  </c></rc>
    <rc><c>   1</c><c>H </c><c>      1.00000000</c><c>      1.00000000</c><c>  PAW_PBE H 15Jun2001                   </c></rc>
   </set>
  </array>
 </atominfo>
 <structure name="initialpos" >
  <crystal>
   <varray name="basis" >
    <v>      10.89000034       0.00000000       0.00000000 </v>
    <v>       0.00000000      10.89000034       0.00000000 </v>
    <v>       0.00000000       0.00000000      27.70499992 </v>
   </varray>
   <i name="volume">   3285.59432860 </i>
   <varray name="rec_basis" >
    <v>       0.09182736       0.00000000       0.00000000 </v>
    <v>       0.00000000       0.09182736       0.00000000 </v>
    <v>       0.00000000       0.00000000       0.03609457 </v>
   </varray>
  </crystal>
  <varray name="positions" >
   <v>       0.00000000       0.00000000       0.00000000 </v>
   <v>       0.00000000       0.33333333       0.00000000 </v>
   <v>       0.00000000       0.66666667       0.00000000 </v>
   <v>       0.33333333       0.00000000       0.00000000 </v>
   <v>       0.33333333       0.33333333       0.00000000 </v>
   <v>       0.33333333       0.66666667       0.00000000 </v>
   <v>       0.66666667       0.00000000       0.00000000 </v>
   <v>       0.66666667       0.33333333       0.00000000 </v>
   <v>       0.66666667       0.66666667       0.00000000 </v>
   <v>       0.16666667       0.16666667       0.00000000 </v>
   <v>       0.16666667       0.50000000       0.00000000 </v>
   <v>       0.16666667       0.83333333       0.00000000 </v>
   <v>       0.50000000       0.16666667       0.00000000 </v>
   <v>       0.50000000       0.50000000       0.00000000 </v>
   <v>       0.50000000       0.83333333       0.00000000 </v>
   <v>       0.83333333       0.16666667       0.00000000 </v>
   <v>       0.83333333       0.50000000       0.00000000 </v>
   <v>       0.83333333       0.83333333       0.00000000 </v>
   <v>       0.00000000       0.16666667       0.06551164 </v>
   <v>       0.00000000       0.50000000       0.06551164 </v>
   <v>       0.00000000       0.83333333       0.06551164 </v>
   <v>       0.33333333       0.16666667       0.06551164 </v>
   <v>       0.33333333       0.50000000       0.06551164 </v>
   <v>       0.33333333       0.83333333       0.06551164 </v>
   <v>       0.66666667       0.16666667       0.06551164 </v>
   <v>       0.66666667       0.50000000       0.06551164 </v>
   <v>       0.66666667       0.83333333       0.06551164 </v>
   <v>       0.16666667       0.00000000       0.06551164 </v>
   <v>       0.16666667       0.33333333       0.06551164 </v>
   <v>       0.16666667       0.66666667       0.06551164 </v>
   <v>       0.50000000       0.00000000       0.06551164 </v>
   <v>       0.50000000       0.33333333       0.06551164 </v>
   <v>       0.50000000       0.66666667       0.06551164 </v>
   <v>       0.83333333       0.00000000       0.06551164 </v>
   <v>       0.83333333       0.33333333       0.06551164 </v>
   <v>       0.83333333       0.66666667       0.06551164 </v>
   <v>       0.00000000       0.00000000       0.13119553 </v>
   <v>       0.00000000       0.33333333       0.13119553 </v>
   <v>       0.00000000       0.66666667       0.13119553 </v>
   <v>       0.33333333       0.00000000       0.13119553 </v>
   <v>       0.33333333       0.33333333       0.13119553 </v>
   <v>       0.33333333       0.66666667       0.13119553 </v>
   <v>       0.66666667       0.00000000       0.13119553 </v>
   <v>       0.66666667       0.33333333       0.13119553 </v>
   <v>       0.66666667       0.66666667       0.13119553 </v>
   <v>       0.16666667       0.16666667       0.13119553 </v>
   <v>       0.16666667       0.50000000       0.13119553 </v>
   <v>       0.16666667       0.83333333       0.13119553 </v>
   <v>       0.50000000       0.16666667       0.13119553 </v>
   <v>       0.50000000       0.50000000       0.13119553 </v>
   <v>       0.50000000       0.83333333       0.13119553 </v>
   <v>       0.83333333       0.16666667       0.13119553 </v>
   <v>       0.83333333       0.50000000       0.13119553 </v>
   <v>       0.83333333       0.83333333       0.13119553 </v>
   <v>       0.00000000       0.16666667       0.19620680 </v>
   <v>       0.00000000       0.50000000       0.19620680 </v>
   <v>       0.00000000       0.83333333       0.19620680 </v>
   <v>       0.33333333       0.16666667       0.19620680 </v>
   <v>       0.33333333       0.50000000       0.19620680 </v>
   <v>       0.33333333       0.83333333       0.19620680 </v>
   <v>       0.66666667       0.16666667       0.19620680 </v>
   <v>       0.66666667       0.50000000       0.19620680 </v>
   <v>       0.66666667       0.83333333       0.19620680 </v>
   <v>       0.16666667       0.00000000       0.19620680 </v>
   <v>       0.16666667       0.33333333       0.19620680 </v>
   <v>       0.16666667       0.66666667       0.19620680 </v>
   <v>       0.50000000       0.00000000       0.19620680 </v>
   <v>       0.50000000       0.33333333       0.19620680 </v>
   <v>       0.50000000       0.66666667       0.19620680 </v>
   <v>       0.83333333       0.00000000       0.19620680 </v>
   <v>       0.83333333       0.33333333       0.19620680 </v>
   <v>       0.83333333       0.66666667       0.19620680 </v>
   <v>       0.00000000       0.00000000       0.25873860 </v>
   <v>       0.00000000       0.33333333       0.25873860 </v>
   <v>       0.00000000       0.66666667       0.25873860 </v>
   <v>       0.33333333       0.00000000       0.25873860 </v>
   <v>       0.33333333       0.33333333       0.25873860 </v>
   <v>       0.33333333       0.66666667       0.25873860 </v>
   <v>       0.66666667       0.00000000       0.25873860 </v>
   <v>       0.66666667       0.33333333       0.25873860 </v>
   <v>       0.66666667       0.66666667       0.25873860 </v>
   <v>       0.16666667       0.16666667       0.25873860 </v>
   <v>       0.16666667       0.50000000       0.25873860 </v>
   <v>       0.16666667       0.83333333       0.25873860 </v>
   <v>       0.50000000       0.16666667       0.25873860 </v>
   <v>       0.50000000       0.50000000       0.25873860 </v>
   <v>       0.50000000       0.83333333       0.25873860 </v>
   <v>       0.83333333       0.16666667       0.25873860 </v>
   <v>       0.83333333       0.50000000       0.25873860 </v>
   <v>       0.83333333       0.83333333       0.25873860 </v>
   <v>       0.00000000       0.16666667       0.32119954 </v>
   <v>       0.00000000       0.50000000       0.32119954 </v>
   <v>       0.00000000       0.83333333       0.32119954 </v>
   <v>       0.33333333       0.16666667       0.32119954 </v>
   <v>       0.33333333       0.50000000       0.32119954 </v>
   <v>       0.33333333       0.83333333       0.32119954 </v>
   <v>       0.66666667       0.16666667       0.32119954 </v>
   <v>       0.66666667       0.50000000       0.32119954 </v>
   <v>       0.66666667       0.83333333       0.32119954 </v>
   <v>       0.16666667       0.00000000       0.32119954 </v>
   <v>       0.16666667       0.33333333       0.32119954 </v>
   <v>       0.16666667       0.66666667       0.32119954 </v>
   <v>       0.50000000       0.00000000       0.32119954 </v>
   <v>       0.50000000       0.33333333       0.32119954 </v>
   <v>       0.50000000       0.66666667       0.32119954 </v>
   <v>       0.83333333       0.00000000       0.32119954 </v>
   <v>       0.83333333       0.33333333       0.32119954 </v>
   <v>       0.83333333       0.66666667       0.32119954 </v>
   <v>       0.00000000       0.00000000       0.38476372 </v>
   <v>       0.00000000       0.33333333       0.38476372 </v>
   <v>       0.00000000       0.66666667       0.38476372 </v>
   <v>       0.33333333       0.00000000       0.38476372 </v>
   <v>       0.33333333       0.33333333       0.38476372 </v>
   <v>       0.33333333       0.66666667       0.38476372 </v>
   <v>       0.66666667       0.00000000       0.38476372 </v>
   <v>       0.66666667       0.33333333       0.38476372 </v>
   <v>       0.66666667       0.66666667       0.38476372 </v>
   <v>       0.16666667       0.16666667       0.38476372 </v>
   <v>       0.16666667       0.50000000       0.38476372 </v>
   <v>       0.16666667       0.83333333       0.38476372 </v>
   <v>       0.50000000       0.16666667       0.38476372 </v>
   <v>       0.50000000       0.50000000       0.38476372 </v>
   <v>       0.50000000       0.83333333       0.38476372 </v>
   <v>       0.83333333       0.16666667       0.38476372 </v>
   <v>       0.83333333       0.50000000       0.38476372 </v>
   <v>       0.83333333       0.83333333       0.38476372 </v>
   <v>       0.00000000       0.16666667       0.44736473 </v>
   <v>       0.00000000       0.50000000       0.44736473 </v>
   <v>       0.00000000       0.83333333       0.44736473 </v>
   <v>       0.33333333       0.16666667       0.44736473 </v>
   <v>       0.33333333       0.50000000       0.44736473 </v>
   <v>       0.33333333       0.83333333       0.44736473 </v>
   <v>       0.66666667       0.16666667       0.44736473 </v>
   <v>       0.66666667       0.50000000       0.44736473 </v>
   <v>       0.66666667       0.83333333       0.44736473 </v>
   <v>       0.16666667       0.00000000       0.44736473 </v>
   <v>       0.16666667       0.33333333       0.44736473 </v>
   <v>       0.16666667       0.66666667       0.44736473 </v>
   <v>       0.50000000       0.00000000       0.44736473 </v>
   <v>       0.50000000       0.33333333       0.44736473 </v>
   <v>       0.50000000       0.66666667       0.44736473 </v>
   <v>       0.83333333       0.00000000       0.44736473 </v>
   <v>       0.83333333       0.33333333       0.44736473 </v>
   <v>       0.83333333       0.66666667       0.44736473 </v>
   <v>       0.33333333       0.50000000       0.50150658 </v>
  </varray>
  <varray name="selective"  type="logical" >
   <v type="logical" >  F  F  F </v>
   <v type="logical" >  F  F  F </v>
   <v type="logical" >  F  F  F </v>
   <v type="logical" >  F  F  F </v>
   <v type="logical" >  F  F  F </v>
   <v type="logical" >  F  F  F </v>
   <v type="logical" >  F  F  F </v>
   <v type="logical" >  F  F  F </v>
   <v type="logical" >  F  F  F </v>
   <v type="logical" >  F  F  F </v>
   <v type="logical" >  F  F  F </v>
   <v type="logical" >  F  F  F </v>
   <v type="logical" >  F  F  F </v>
   <v type="logical" >  F  F  F </v>
   <v type="logical" >  F  F  F </v>
   <v type="logical" >  F  F  F </v>
   <v type="logical" >  F  F  F </v>
   <v type="logical" >  F  F  F </v>
   <v type="logical" >  F  F  F </v>
   <v type="logical" >  F  F  F </v>
   <v type="logical" >  F  F  F </v>
   <v type="logical" >  F  F  F </v>
   <v type="logical" >  F  F  F </v>
   <v type="logical" >  F  F  F </v>
   <v type="logical" >  F  F  F </v>
   <v type="logical" >  F  F  F </v>
   <v type="logical" >  F  F  F </v>
   <v type="logical" >  F  F  F </v>
   <v type="logical" >  F  F  F </v>
   <v type="logical" >  F  F  F </v>
   <v type="logical" >  F  F  F </v>
   <v type="logical" >  F  F  F </v>
   <v type="logical" >  F  F  F </v>
   <v type="logical" >  F  F  F </v>
   <v type="logical" >  F  F  F </v>
   <v type="logical" >  F  F  F </v>
   <v type="logical" >  F  F  F </v>
   <v type="logical" >  F  F  F </v>
   <v type="logical" >  F  F  F </v>
   <v type="logical" >  F  F  F </v>
   <v type="logical" >  F  F  F </v>
   <v type="logical" >  F  F  F </v>
   <v type="logical" >  F  F  F </v>
   <v type="logical" >  F  F  F </v>
   <v type="logical" >  F  F  F </v>
   <v type="logical" >  F  F  F </v>
   <v type="logical" >  F  F  F </v>
   <v type="logical" >  F  F  F </v>
   <v type="logical" >  F  F  F </v>
   <v type="logical" >  F  F  F </v>
   <v type="logical" >  F  F  F </v>
   <v type="logical" >  F  F  F </v>
   <v type="logical" >  F  F  F </v>
   <v type="logical" >  F  F  F </v>
   <v type="logical" >  T  T  T </v>
   <v type="logical" >  T  T  T </v>
   <v type="logical" >  T  T  T </v>
   <v type="logical" >  T  T  T </v>
   <v type="logical" >  T  T  T </v>
   <v type="logical" >  T  T  T </v>
   <v type="logical" >  T  T  T </v>
   <v type="logical" >  T  T  T </v>
   <v type="logical" >  T  T  T </v>
   <v type="logical" >  T  T  T </v>
   <v type="logical" >  T  T  T </v>
   <v type="logical" >  T  T  T </v>
   <v type="logical" >  T  T  T </v>
   <v type="logical" >  T  T  T </v>
   <v type="logical" >  T  T  T </v>
   <v type="logical" >  T  T  T </v>
   <v type="logical" >  T  T  T </v>
   <v type="logical" >  T  T  T </v>
   <v type="logical" >  T  T  T </v>
   <v type="logical" >  T  T  T </v>
   <v type="logical" >  T  T  T </v>
   <v type="logical" >  T  T  T </v>
   <v type="logical" >  T  T  T </v>
   <v type="logical" >  T  T  T </v>
   <v type="logical" >  T  T  T </v>
   <v type="logical" >  T  T  T </v>
   <v type="logical" >  T  T  T </v>
   <v type="logical" >  T  T  T </v>
   <v type="logical" >  T  T  T </v>
   <v type="logical" >  T  T  T </v>
   <v type="logical" >  T  T  T </v>
   <v type="logical" >  T  T  T </v>
   <v type="logical" >  T  T  T </v>
   <v type="logical" >  T  T  T </v>
   <v type="logical" >  T  T  T </v>
   <v type="logical" >  T  T  T </v>
   <v type="logical" >  T  T  T </v>
   <v type="logical" >  T  T  T </v>
   <v type="logical" >  T  T  T </v>
   <v type="logical" >  T  T  T </v>
   <v type="logical" >  T  T  T </v>
   <v type="logical" >  T  T  T </v>
   <v type="logical" >  T  T  T </v>
   <v type="logical" >  T  T  T </v>
   <v type="logical" >  T  T  T </v>
   <v type="logical" >  T  T  T </v>
   <v type="logical" >  T  T  T </v>
   <v type="logical" >  T  T  T </v>
   <v type="logical" >  T  T  T </v>
   <v type="logical" >  T  T  T </v>
   <v type="logical" >  T  T  T </v>
   <v type="logical" >  T  T  T </v>
   <v type="logical" >  T  T  T </v>
   <v type="logical" >  T  T  T </v>
   <v type="logical" >  T  T  T </v>
   <v type="logical" >  T  T  T </v>
   <v type="logical" >  T  T  T </v>
   <v type="logical" >  T  T  T </v>
   <v type="logical" >  T  T  T </v>
   <v type="logical" >  T  T  T </v>
   <v type="logical" >  T  T  T </v>
   <v type="logical" >  T  T  T </v>
   <v type="logical" >  T  T  T </v>
   <v type="logical" >  T  T  T </v>
   <v type="logical" >  T  T  T </v>
   <v type="logical" >  T  T  T </v>
   <v type="logical" >  T  T  T </v>
   <v type="logical" >  T  T  T </v>
   <v type="logical" >  T  T  T </v>
   <v type="logical" >  T  T  T </v>
   <v type="logical" >  T  T  T </v>
   <v type="logical" >  T  T  T </v>
   <v type="logical" >  T  T  T </v>
   <v type="logical" >  T  T  T </v>
   <v type="logical" >  T  T  T </v>
   <v type="logical" >  T  T  T </v>
   <v type="logical" >  T  T  T </v>
   <v type="logical" >  T  T  T </v>
   <v type="logical" >  T  T  T </v>
   <v type="logical" >  T  T  T </v>
   <v type="logical" >  T  T  T </v>
   <v type="logical" >  T  T  T </v>
   <v type="logical" >  T  T  T </v>
   <v type="logical" >  T  T  T </v>
   <v type="logical" >  T  T  T </v>
   <v type="logical" >  T  T  T </v>
   <v type="logical" >  T  T  T </v>
   <v type="logical" >  T  T  T </v>
   <v type="logical" >  T  T  T </v>
   <v type="logical" >  T  T  T </v>
   <v type="logical" >  T  T  T </v>
  </varray>
  <nose>
   <v>      -3.00000000       0.00000000       0.00010000       0.00010000 </v>
  </nose>
 </structure>
 <calculation>
  <scstep>
   <time name="dav">  553.64  560.22</time>
   <time name="total">  553.95  560.53</time>
   <energy>
    <i name="alphaZ">   4619.63703718 </i>
    <i name="ewald"> 916604.26068662 </i>
    <i name="hartreedc">**************** </i>
    <i name="XCdc">   6594.10013301 </i>
    <i name="pawpsdc"> 176847.83376092 </i>
    <i name="pawaedc">-192086.41684102 </i>
    <i name="eentropy">      0.01141597 </i>
    <i name="bandstr">  15977.07232634 </i>
    <i name="atom"> 200310.37882143 </i>
    <i name="e_fr_energy">  15521.91788153 </i>
    <i name="e_wo_entrp">  15521.90646556 </i>
    <i name="e_0_energy">  15521.91407620 </i>
   </energy>
  </scstep>
  <scstep>
   <time name="dav">  549.97  555.92</time>
   <time name="total">  549.99  555.94</time>
   <energy>
    <i name="e_fr_energy">   2256.59990392 </i>
    <i name="e_wo_entrp">   2256.59165770 </i>
    <i name="e_0_energy">   2256.59715518 </i>
   </energy>
  </scstep>
  <scstep>
   <time name="dav">  556.27  562.79</time>
   <time name="total">  556.28  562.80</time>
   <energy>
    <i name="e_fr_energy">   -387.95224203 </i>
    <i name="e_wo_entrp">   -388.06881807 </i>
    <i name="e_0_energy">   -387.99110071 </i>
   </energy>
  </scstep>
  <scstep>
   <time name="dav">  589.65  595.92</time>
   <time name="total">  589.66  595.94</time>
   <energy>
    <i name="e_fr_energy">   -608.96770754 </i>
    <i name="e_wo_entrp">   -609.23532255 </i>
    <i name="e_0_energy">   -609.05691254 </i>
   </energy>
  </scstep>
  <scstep>
   <time name="dav">  600.36  606.85</time>
   <time name="total">  603.79  610.30</time>
   <energy>
    <i name="e_fr_energy">   -614.93757116 </i>
    <i name="e_wo_entrp">   -615.20707720 </i>
    <i name="e_0_energy">   -615.02740651 </i>
   </energy>
  </scstep>
  <scstep>
   <time name="dav">  592.47  599.06</time>
   <time name="total">  596.07  602.69</time>
   <energy>
    <i name="e_fr_energy">   -500.53441578 </i>
    <i name="e_wo_entrp">   -500.50657461 </i>
    <i name="e_0_energy">   -500.52513539 </i>
   </energy>
  </scstep>
  <scstep>
   <time name="dav">  592.66  598.82</time>
   <time name="total">  596.31  602.50</time>
   <energy>
    <i name="e_fr_energy">   -439.79421653 </i>
    <i name="e_wo_entrp">   -439.70309241 </i>
    <i name="e_0_energy">   -439.76384183 </i>
   </energy>
  </scstep>
  <scstep>
   <time name="dav">  624.84  631.39</time>
   <time name="total">  628.46  635.05</time>
   <energy>
    <i name="e_fr_energy">   -445.26131405 </i>
    <i name="e_wo_entrp">   -445.46024922 </i>
    <i name="e_0_energy">   -445.32762577 </i>
   </energy>
  </scstep>
  <scstep>
   <time name="dav">  676.53  683.24</time>
   <time name="total">  680.21  686.95</time>
   <energy>
    <i name="e_fr_energy">   -436.87169418 </i>
    <i name="e_wo_entrp">   -437.12214054 </i>
    <i name="e_0_energy">   -436.95517630 </i>
   </energy>
  </scstep>
  <scstep>
   <time name="dav">  718.69  726.60</time>
   <time name="total">  722.30  730.24</time>
   <energy>
    <i name="e_fr_energy">   -427.38671567 </i>
    <i name="e_wo_entrp">   -427.31959926 </i>
    <i name="e_0_energy">   -427.36434353 </i>
   </energy>
  </scstep>
  <scstep>
   <time name="dav">  745.77  753.85</time>
   <time name="total">  749.35  757.45</time>
   <energy>
    <i name="e_fr_energy">   -429.63115829 </i>
    <i name="e_wo_entrp">   -429.53371743 </i>
    <i name="e_0_energy">   -429.59867800 </i>
   </energy>
  </scstep>
  <scstep>
   <time name="dav">  609.43  616.13</time>
   <time name="total">  613.01  619.74</time>
   <energy>
    <i name="e_fr_energy">   -436.75037259 </i>
    <i name="e_wo_entrp">   -436.63986574 </i>
    <i name="e_0_energy">   -436.71353697 </i>
   </energy>
  </scstep>
  <scstep>
   <time name="dav">  615.13  621.23</time>
   <time name="total">  618.80  624.93</time>
   <energy>
    <i name="e_fr_energy">   -441.71465565 </i>
    <i name="e_wo_entrp">   -441.64443149 </i>
    <i name="e_0_energy">   -441.69124759 </i>
   </energy>
  </scstep>
  <scstep>
   <time name="dav">  617.27  623.71</time>
   <time name="total">  620.85  627.33</time>
   <energy>
    <i name="e_fr_energy">   -450.82126487 </i>
    <i name="e_wo_entrp">   -450.78779770 </i>
    <i name="e_0_energy">   -450.81010915 </i>
   </energy>
  </scstep>
  <scstep>
   <time name="dav">  626.88  633.25</time>
   <time name="total">  630.57  636.96</time>
   <energy>
    <i name="e_fr_energy">   -461.88531983 </i>
    <i name="e_wo_entrp">   -461.91827532 </i>
    <i name="e_0_energy">   -461.89630499 </i>
   </energy>
  </scstep>
  <scstep>
   <time name="dav">  688.08  695.56</time>
   <time name="total">  691.70  699.21</time>
   <energy>
    <i name="e_fr_energy">   -485.26321083 </i>
    <i name="e_wo_entrp">   -485.35112902 </i>
    <i name="e_0_energy">   -485.29251689 </i>
   </energy>
  </scstep>
  <scstep>
   <time name="dav">  600.95  607.18</time>
   <time name="total">  604.70  610.96</time>
   <energy>
    <i name="e_fr_energy">   -491.96135004 </i>
    <i name="e_wo_entrp">   -492.07965376 </i>
    <i name="e_0_energy">   -492.00078462 </i>
   </energy>
  </scstep>
  <scstep>
   <time name="dav">  619.17  625.74</time>
   <time name="total">  622.77  629.38</time>
   <energy>
    <i name="e_fr_energy">   -495.83199943 </i>
    <i name="e_wo_entrp">   -495.96000554 </i>
    <i name="e_0_energy">   -495.87466813 </i>
   </energy>
  </scstep>
  <scstep>
   <time name="dav">  615.08  621.52</time>
   <time name="total">  618.78  625.25</time>
   <energy>
    <i name="e_fr_energy">   -501.91980269 </i>
    <i name="e_wo_entrp">   -502.05579032 </i>
    <i name="e_0_energy">   -501.96513190 </i>
   </energy>
  </scstep>
  <scstep>
   <time name="dav">  676.64  683.84</time>
   <time name="total">  680.16  687.41</time>
   <energy>
    <i name="e_fr_energy">   -507.01785363 </i>
    <i name="e_wo_entrp">   -507.13766016 </i>
    <i name="e_0_energy">   -507.05778914 </i>
   </energy>
  </scstep>
  <scstep>
   <time name="dav">  703.12  710.28</time>
   <time name="total">  706.67  713.86</time>
   <energy>
    <i name="e_fr_energy">   -509.53374359 </i>
    <i name="e_wo_entrp">   -509.65017021 </i>
    <i name="e_0_energy">   -509.57255247 </i>
   </energy>
  </scstep>
  <scstep>
   <time name="dav">  680.96  688.33</time>
   <time name="total">  684.48  691.88</time>
   <energy>
    <i name="e_fr_energy">   -512.01597374 </i>
    <i name="e_wo_entrp">   -512.14172157 </i>
    <i name="e_0_energy">   -512.05788969 </i>
   </energy>
  </scstep>
  <scstep>
   <time name="dav">  640.21  646.99</time>
   <time name="total">  643.82  650.63</time>
   <energy>
    <i name="e_fr_energy">   -513.66101116 </i>
    <i name="e_wo_entrp">   -513.78604036 </i>
    <i name="e_0_energy">   -513.70268756 </i>
   </energy>
  </scstep>
  <scstep>
   <time name="dav">  651.98  659.14</time>
   <time name="total">  655.57  662.76</time>
   <energy>
    <i name="e_fr_energy">   -514.73257035 </i>
    <i name="e_wo_entrp">   -514.86325450 </i>
    <i name="e_0_energy">   -514.77613173 </i>
   </energy>
  </scstep>
  <scstep>
   <time name="dav">  634.74  641.14</time>
   <time name="total">  638.30  644.73</time>
   <energy>
    <i name="e_fr_energy">   -515.89145429 </i>
    <i name="e_wo_entrp">   -516.02503751 </i>
    <i name="e_0_energy">   -515.93598203 </i>
   </energy>
  </scstep>
  <scstep>
   <time name="dav">  687.82  695.18</time>
   <time name="total">  691.39  698.78</time>
   <energy>
    <i name="e_fr_energy">   -516.73509638 </i>
    <i name="e_wo_entrp">   -516.86674963 </i>
    <i name="e_0_energy">   -516.77898079 </i>
   </energy>
  </scstep>
  <scstep>
   <time name="dav">  654.58  660.97</time>
   <time name="total">  658.18  664.60</time>
   <energy>
    <i name="e_fr_energy">   -517.56345871 </i>
    <i name="e_wo_entrp">   -517.69678234 </i>
    <i name="e_0_energy">   -517.60789992 </i>
   </energy>
  </scstep>
  <scstep>
   <time name="dav">  633.88  640.72</time>
   <time name="total">  637.49  644.36</time>
   <energy>
    <i name="e_fr_energy">   -517.93629783 </i>
    <i name="e_wo_entrp">   -518.06881801 </i>
    <i name="e_0_energy">   -517.98047122 </i>
   </energy>
  </scstep>
  <scstep>
   <time name="dav">  652.65  660.26</time>
   <time name="total">  656.21  663.84</time>
   <energy>
    <i name="e_fr_energy">   -518.02760264 </i>
    <i name="e_wo_entrp">   -518.15944100 </i>
    <i name="e_0_energy">   -518.07154876 </i>
   </energy>
  </scstep>
  <scstep>
   <time name="dav">  623.25  630.20</time>
   <time name="total">  626.92  633.91</time>
   <energy>
    <i name="e_fr_energy">   -518.03984986 </i>
    <i name="e_wo_entrp">   -518.17217770 </i>
    <i name="e_0_energy">   -518.08395914 </i>
   </energy>
  </scstep>
  <scstep>
   <time name="dav">  584.10  590.71</time>
   <time name="total">  587.75  594.39</time>
   <energy>
    <i name="e_fr_energy">   -518.05689208 </i>
    <i name="e_wo_entrp">   -518.18930260 </i>
    <i name="e_0_energy">   -518.10102892 </i>
   </energy>
  </scstep>
  <scstep>
   <time name="dav">  415.66  420.71</time>
   <time name="total">  419.32  424.41</time>
   <energy>
    <i name="e_fr_energy">   -518.05755519 </i>
    <i name="e_wo_entrp">   -518.18985968 </i>
    <i name="e_0_energy">   -518.10165669 </i>
   </energy>
  </scstep>
  <scstep>
   <time name="dav">  407.37  411.82</time>
   <time name="total">  407.68  412.14</time>
   <energy>
    <i name="alphaZ">   4619.63703718 </i>
    <i name="ewald"> 916604.26068662 </i>
    <i name="hartreedc">**************** </i>
    <i name="XCdc">   6426.26283259 </i>
    <i name="pawpsdc"> 188998.45378887 </i>
    <i name="pawaedc">-204518.50295927 </i>
    <i name="eentropy">      0.13236015 </i>
    <i name="bandstr">  -1846.11950904 </i>
    <i name="atom"> 200310.37882143 </i>
    <i name="e_fr_energy">   -518.05765466 </i>
    <i name="e_wo_entrp">   -518.19001481 </i>
    <i name="e_0_energy">   -518.10177471 </i>
   </energy>
  </scstep>
  <structure>
   <crystal>
    <varray name="basis" >
     <v>      10.89000034       0.00000000       0.00000000 </v>
     <v>       0.00000000      10.89000034       0.00000000 </v>
     <v>       0.00000000       0.00000000      27.70499992 </v>
    </varray>
    <i name="volume">   3285.59432860 </i>
    <varray name="rec_basis" >
     <v>       0.09182736       0.00000000       0.00000000 </v>
     <v>       0.00000000       0.09182736       0.00000000 </v>
     <v>       0.00000000       0.00000000       0.03609457 </v>
    </varray>
   </crystal>
   <varray name="positions" >
    <v>       0.00000000       0.00000000       0.00000000 </v>
    <v>       0.00000000       0.33333333       0.00000000 </v>
    <v>       0.00000000       0.66666667       0.00000000 </v>
    <v>       0.33333333       0.00000000       0.00000000 </v>
    <v>       0.33333333       0.33333333       0.00000000 </v>
    <v>       0.33333333       0.66666667       0.00000000 </v>
    <v>       0.66666667       0.00000000       0.00000000 </v>
    <v>       0.66666667       0.33333333       0.00000000 </v>
    <v>       0.66666667       0.66666667       0.00000000 </v>
    <v>       0.16666667       0.16666667       0.00000000 </v>
    <v>       0.16666667       0.50000000       0.00000000 </v>
    <v>       0.16666667       0.83333333       0.00000000 </v>
    <v>       0.50000000       0.16666667       0.00000000 </v>
    <v>       0.50000000       0.50000000       0.00000000 </v>
    <v>       0.50000000       0.83333333       0.00000000 </v>
    <v>       0.83333333       0.16666667       0.00000000 </v>
    <v>       0.83333333       0.50000000       0.00000000 </v>
    <v>       0.83333333       0.83333333       0.00000000 </v>
    <v>       0.00000000       0.16666667       0.06551164 </v>
    <v>       0.00000000       0.50000000       0.06551164 </v>
    <v>       0.00000000       0.83333333       0.06551164 </v>
    <v>       0.33333333       0.16666667       0.06551164 </v>
    <v>       0.33333333       0.50000000       0.06551164 </v>
    <v>       0.33333333       0.83333333       0.06551164 </v>
    <v>       0.66666667       0.16666667       0.06551164 </v>
    <v>       0.66666667       0.50000000       0.06551164 </v>
    <v>       0.66666667       0.83333333       0.06551164 </v>
    <v>       0.16666667       0.00000000       0.06551164 </v>
    <v>       0.16666667       0.33333333       0.06551164 </v>
    <v>       0.16666667       0.66666667       0.06551164 </v>
    <v>       0.50000000       0.00000000       0.06551164 </v>
    <v>       0.50000000       0.33333333       0.06551164 </v>
    <v>       0.50000000       0.66666667       0.06551164 </v>
    <v>       0.83333333       0.00000000       0.06551164 </v>
    <v>       0.83333333       0.33333333       0.06551164 </v>
    <v>       0.83333333       0.66666667       0.06551164 </v>
    <v>       0.00000000       0.00000000       0.13119553 </v>
    <v>       0.00000000       0.33333333       0.13119553 </v>
    <v>       0.00000000       0.66666667       0.13119553 </v>
    <v>       0.33333333       0.00000000       0.13119553 </v>
    <v>       0.33333333       0.33333333       0.13119553 </v>
    <v>       0.33333333       0.66666667       0.13119553 </v>
    <v>       0.66666667       0.00000000       0.13119553 </v>
    <v>       0.66666667       0.33333333       0.13119553 </v>
    <v>       0.66666667       0.66666667       0.13119553 </v>
    <v>       0.16666667       0.16666667       0.13119553 </v>
    <v>       0.16666667       0.50000000       0.13119553 </v>
    <v>       0.16666667       0.83333333       0.13119553 </v>
    <v>       0.50000000       0.16666667       0.13119553 </v>
    <v>       0.50000000       0.50000000       0.13119553 </v>
    <v>       0.50000000       0.83333333       0.13119553 </v>
    <v>       0.83333333       0.16666667       0.13119553 </v>
    <v>       0.83333333       0.50000000       0.13119553 </v>
    <v>       0.83333333       0.83333333       0.13119553 </v>
    <v>       0.00000000       0.16666667       0.19620680 </v>
    <v>       0.00000000       0.50000000       0.19620680 </v>
    <v>       0.00000000       0.83333333       0.19620680 </v>
    <v>       0.33333333       0.16666667       0.19620680 </v>
    <v>       0.33333333       0.50000000       0.19620680 </v>
    <v>       0.33333333       0.83333333       0.19620680 </v>
    <v>       0.66666667       0.16666667       0.19620680 </v>
    <v>       0.66666667       0.50000000       0.19620680 </v>
    <v>       0.66666667       0.83333333       0.19620680 </v>
    <v>       0.16666667       0.00000000       0.19620680 </v>
    <v>       0.16666667       0.33333333       0.19620680 </v>
    <v>       0.16666667       0.66666667       0.19620680 </v>
    <v>       0.50000000       0.00000000       0.19620680 </v>
    <v>       0.50000000       0.33333333       0.19620680 </v>
    <v>       0.50000000       0.66666667       0.19620680 </v>
    <v>       0.83333333       0.00000000       0.19620680 </v>
    <v>       0.83333333       0.33333333       0.19620680 </v>
    <v>       0.83333333       0.66666667       0.19620680 </v>
    <v>       0.00000000       0.00000000       0.25873860 </v>
    <v>       0.00000000       0.33333333       0.25873860 </v>
    <v>       0.00000000       0.66666667       0.25873860 </v>
    <v>       0.33333333       0.00000000       0.25873860 </v>
    <v>       0.33333333       0.33333333       0.25873860 </v>
    <v>       0.33333333       0.66666667       0.25873860 </v>
    <v>       0.66666667       0.00000000       0.25873860 </v>
    <v>       0.66666667       0.33333333       0.25873860 </v>
    <v>       0.66666667       0.66666667       0.25873860 </v>
    <v>       0.16666667       0.16666667       0.25873860 </v>
    <v>       0.16666667       0.50000000       0.25873860 </v>
    <v>       0.16666667       0.83333333       0.25873860 </v>
    <v>       0.50000000       0.16666667       0.25873860 </v>
    <v>       0.50000000       0.50000000       0.25873860 </v>
    <v>       0.50000000       0.83333333       0.25873860 </v>
    <v>       0.83333333       0.16666667       0.25873860 </v>
    <v>       0.83333333       0.50000000       0.25873860 </v>
    <v>       0.83333333       0.83333333       0.25873860 </v>
    <v>       0.00000000       0.16666667       0.32119954 </v>
    <v>       0.00000000       0.50000000       0.32119954 </v>
    <v>       0.00000000       0.83333333       0.32119954 </v>
    <v>       0.33333333       0.16666667       0.32119954 </v>
    <v>       0.33333333       0.50000000       0.32119954 </v>
    <v>       0.33333333       0.83333333       0.32119954 </v>
    <v>       0.66666667       0.16666667       0.32119954 </v>
    <v>       0.66666667       0.50000000       0.32119954 </v>
    <v>       0.66666667       0.83333333       0.32119954 </v>
    <v>       0.16666667       0.00000000       0.32119954 </v>
    <v>       0.16666667       0.33333333       0.32119954 </v>
    <v>       0.16666667       0.66666667       0.32119954 </v>
    <v>       0.50000000       0.00000000       0.32119954 </v>
    <v>       0.50000000       0.33333333       0.32119954 </v>
    <v>       0.50000000       0.66666667       0.32119954 </v>
    <v>       0.83333333       0.00000000       0.32119954 </v>
    <v>       0.83333333       0.33333333       0.32119954 </v>
    <v>       0.83333333       0.66666667       0.32119954 </v>
    <v>       0.00000000       0.00000000       0.38476372 </v>
    <v>       0.00000000       0.33333333       0.38476372 </v>
    <v>       0.00000000       0.66666667       0.38476372 </v>
    <v>       0.33333333       0.00000000       0.38476372 </v>
    <v>       0.33333333       0.33333333       0.38476372 </v>
    <v>       0.33333333       0.66666667       0.38476372 </v>
    <v>       0.66666667       0.00000000       0.38476372 </v>
    <v>       0.66666667       0.33333333       0.38476372 </v>
    <v>       0.66666667       0.66666667       0.38476372 </v>
    <v>       0.16666667       0.16666667       0.38476372 </v>
    <v>       0.16666667       0.50000000       0.38476372 </v>
    <v>       0.16666667       0.83333333       0.38476372 </v>
    <v>       0.50000000       0.16666667       0.38476372 </v>
    <v>       0.50000000       0.50000000       0.38476372 </v>
    <v>       0.50000000       0.83333333       0.38476372 </v>
    <v>       0.83333333       0.16666667       0.38476372 </v>
    <v>       0.83333333       0.50000000       0.38476372 </v>
    <v>       0.83333333       0.83333333       0.38476372 </v>
    <v>       0.00000000       0.16666667       0.44736473 </v>
    <v>       0.00000000       0.50000000       0.44736473 </v>
    <v>       0.00000000       0.83333333       0.44736473 </v>
    <v>       0.33333333       0.16666667       0.44736473 </v>
    <v>       0.33333333       0.50000000       0.44736473 </v>
    <v>       0.33333333       0.83333333       0.44736473 </v>
    <v>       0.66666667       0.16666667       0.44736473 </v>
    <v>       0.66666667       0.50000000       0.44736473 </v>
    <v>       0.66666667       0.83333333       0.44736473 </v>
    <v>       0.16666667       0.00000000       0.44736473 </v>
    <v>       0.16666667       0.33333333       0.44736473 </v>
    <v>       0.16666667       0.66666667       0.44736473 </v>
    <v>       0.50000000       0.00000000       0.44736473 </v>
    <v>       0.50000000       0.33333333       0.44736473 </v>
    <v>       0.50000000       0.66666667       0.44736473 </v>
    <v>       0.83333333       0.00000000       0.44736473 </v>
    <v>       0.83333333       0.33333333       0.44736473 </v>
    <v>       0.83333333       0.66666667       0.44736473 </v>
    <v>       0.33333333       0.50000000       0.50150658 </v>
   </varray>
  </structure>
  <varray name="forces" >
   <v>       0.01795302       0.00000000       0.31980038 </v>
   <v>      -0.00551083       0.00031128       0.30609292 </v>
   <v>      -0.00551083      -0.00031128       0.30609292 </v>
   <v>       0.00000000       0.00000000       0.30438993 </v>
   <v>       0.00000000       0.00952751       0.31028058 </v>
   <v>       0.00000000      -0.00952751       0.31028058 </v>
   <v>      -0.01795302       0.00000000       0.31980038 </v>
   <v>       0.00551083       0.00031128       0.30609292 </v>
   <v>       0.00551083      -0.00031128       0.30609292 </v>
   <v>       0.00031128      -0.00551083       0.30609292 </v>
   <v>       0.00952751       0.00000000       0.31028058 </v>
   <v>       0.00031128       0.00551083       0.30609292 </v>
   <v>      -0.00031128      -0.00551083       0.30609292 </v>
   <v>      -0.00952751       0.00000000       0.31028058 </v>
   <v>      -0.00031128       0.00551083       0.30609292 </v>
   <v>       0.00000000       0.01795302       0.31980038 </v>
   <v>       0.00000000       0.00000000       0.30438993 </v>
   <v>       0.00000000      -0.01795302       0.31980038 </v>
   <v>       0.00220619       0.00220619      -0.08028116 </v>
   <v>       0.00081199       0.00000000      -0.07790202 </v>
   <v>       0.00220619      -0.00220619      -0.08028116 </v>
   <v>       0.00000000       0.00081199      -0.07790202 </v>
   <v>       0.00000000       0.00000000      -0.08468583 </v>
   <v>       0.00000000      -0.00081199      -0.07790202 </v>
   <v>      -0.00220619       0.00220619      -0.08028116 </v>
   <v>      -0.00081199       0.00000000      -0.07790202 </v>
   <v>      -0.00220619      -0.00220619      -0.08028116 </v>
   <v>       0.00583499       0.00000000      -0.08832395 </v>
   <v>       0.00396568       0.00396568      -0.06698373 </v>
   <v>       0.00396568      -0.00396568      -0.06698373 </v>
   <v>      -0.00583499       0.00000000      -0.08832395 </v>
   <v>      -0.00396568       0.00396568      -0.06698373 </v>
   <v>      -0.00396568      -0.00396568      -0.06698373 </v>
   <v>       0.00000000       0.00000000      -0.07397918 </v>
   <v>       0.00000000       0.00583499      -0.08832395 </v>
   <v>       0.00000000      -0.00583499      -0.08832395 </v>
   <v>       0.00451033       0.00000000       0.00093936 </v>
   <v>      -0.00256566      -0.00181421      -0.00710102 </v>
   <v>      -0.00256566       0.00181421      -0.00710102 </v>
   <v>       0.00000000       0.00000000       0.00292034 </v>
   <v>       0.00000000       0.01269762      -0.01055597 </v>
   <v>       0.00000000      -0.01269762      -0.01055597 </v>
   <v>      -0.00451033       0.00000000       0.00093936 </v>
   <v>       0.00256566      -0.00181421      -0.00710102 </v>
   <v>       0.00256566       0.00181421      -0.00710102 </v>
   <v>      -0.00181421      -0.00256566      -0.00710102 </v>
   <v>       0.01269762       0.00000000      -0.01055597 </v>
   <v>      -0.00181421       0.00256566      -0.00710102 </v>
   <v>       0.00181421      -0.00256566      -0.00710102 </v>
   <v>      -0.01269762       0.00000000      -0.01055597 </v>
   <v>       0.00181421       0.00256566      -0.00710102 </v>
   <v>       0.00000000       0.00451033       0.00093936 </v>
   <v>       0.00000000       0.00000000       0.00292034 </v>
   <v>       0.00000000      -0.00451033       0.00093936 </v>
   <v>       0.00638042       0.00638042      -0.26578644 </v>
   <v>       0.01779520       0.00000000      -0.27243936 </v>
   <v>       0.00638042      -0.00638042      -0.26578644 </v>
   <v>       0.00000000       0.01779520      -0.27243936 </v>
   <v>       0.00000000       0.00000000      -0.28243744 </v>
   <v>       0.00000000      -0.01779520      -0.27243936 </v>
   <v>      -0.00638042       0.00638042      -0.26578644 </v>
   <v>      -0.01779520       0.00000000      -0.27243936 </v>
   <v>      -0.00638042      -0.00638042      -0.26578644 </v>
   <v>      -0.00063105       0.00000000      -0.25033829 </v>
   <v>       0.00063182       0.00063182      -0.27270343 </v>
   <v>       0.00063182      -0.00063182      -0.27270343 </v>
   <v>       0.00063105       0.00000000      -0.25033829 </v>
   <v>      -0.00063182       0.00063182      -0.27270343 </v>
   <v>      -0.00063182      -0.00063182      -0.27270343 </v>
   <v>       0.00000000       0.00000000      -0.27776618 </v>
   <v>       0.00000000      -0.00063105      -0.25033829 </v>
   <v>       0.00000000       0.00063105      -0.25033829 </v>
   <v>       0.00424611       0.00000000      -0.04077761 </v>
   <v>      -0.00579529       0.00359700      -0.02064299 </v>
   <v>      -0.00579529      -0.00359700      -0.02064299 </v>
   <v>       0.00000000       0.00000000      -0.06224416 </v>
   <v>       0.00000000       0.01109648      -0.00189944 </v>
   <v>       0.00000000      -0.01109648      -0.00189944 </v>
   <v>      -0.00424611       0.00000000      -0.04077761 </v>
   <v>       0.00579529       0.00359700      -0.02064299 </v>
   <v>       0.00579529      -0.00359700      -0.02064299 </v>
   <v>       0.00359700      -0.00579529      -0.02064299 </v>
   <v>       0.01109648       0.00000000      -0.00189944 </v>
   <v>       0.00359700       0.00579529      -0.02064299 </v>
   <v>      -0.00359700      -0.00579529      -0.02064299 </v>
   <v>      -0.01109648       0.00000000      -0.00189944 </v>
   <v>      -0.00359700       0.00579529      -0.02064299 </v>
   <v>       0.00000000       0.00424611      -0.04077761 </v>
   <v>       0.00000000       0.00000000      -0.06224416 </v>
   <v>       0.00000000      -0.00424611      -0.04077761 </v>
   <v>      -0.00182117      -0.00182117       0.04722192 </v>
   <v>      -0.01476295       0.00000000       0.01064196 </v>
   <v>      -0.00182117       0.00182117       0.04722192 </v>
   <v>       0.00000000      -0.01476295       0.01064196 </v>
   <v>       0.00000000       0.00000000       0.15984744 </v>
   <v>       0.00000000       0.01476295       0.01064196 </v>
   <v>       0.00182117      -0.00182117       0.04722192 </v>
   <v>       0.01476295       0.00000000       0.01064196 </v>
   <v>       0.00182117       0.00182117       0.04722192 </v>
   <v>      -0.00252298       0.00000000       0.06331851 </v>
   <v>      -0.00702718      -0.00702718       0.03941886 </v>
   <v>      -0.00702718       0.00702718       0.03941886 </v>
   <v>       0.00252298       0.00000000       0.06331851 </v>
   <v>       0.00702718      -0.00702718       0.03941886 </v>
[...]
       <r>     6.0758    18.2769   878.1618 </r>
       <r>     6.1511    15.5923   879.3367 </r>
       <r>     6.2265    13.9775   880.3900 </r>
       <r>     6.3018    13.9331   881.4399 </r>
       <r>     6.3772    16.3066   882.6687 </r>
       <r>     6.4525    20.4146   884.2070 </r>
       <r>     6.5279    25.1186   886.0997 </r>
       <r>     6.6032    30.2124   888.3763 </r>
       <r>     6.6786    35.4577   891.0482 </r>
       <r>     6.7539    39.5088   894.0253 </r>
       <r>     6.8293    40.3510   897.0659 </r>
       <r>     6.9047    36.5374   899.8191 </r>
       <r>     6.9800    28.7403   901.9848 </r>
       <r>     7.0554    20.2991   903.5144 </r>
       <r>     7.1307    15.4142   904.6759 </r>
       <r>     7.2061    15.9797   905.8801 </r>
       <r>     7.2814    20.1361   907.3974 </r>
       <r>     7.3568    24.8099   909.2669 </r>
       <r>     7.4321    28.7263   911.4315 </r>
       <r>     7.5075    31.3660   913.7951 </r>
       <r>     7.5828    31.3984   916.1610 </r>
       <r>     7.6582    28.5726   918.3141 </r>
       <r>     7.7335    25.0015   920.1980 </r>
       <r>     7.8089    23.0584   921.9356 </r>
       <r>     7.8842    23.4676   923.7039 </r>
       <r>     7.9596    25.4683   925.6230 </r>
       <r>     8.0350    28.0293   927.7351 </r>
       <r>     8.1103    30.6549   930.0451 </r>
       <r>     8.1857    32.2422   932.4747 </r>
       <r>     8.2610    30.7494   934.7917 </r>
       <r>     8.3364    26.0233   936.7527 </r>
       <r>     8.4117    20.9415   938.3307 </r>
       <r>     8.4871    18.7058   939.7402 </r>
       <r>     8.5624    20.7489   941.3037 </r>
       <r>     8.6378    26.4085   943.2937 </r>
       <r>     8.7131    32.9433   945.7761 </r>
       <r>     8.7885    37.3480   948.5904 </r>
       <r>     8.8638    38.8911   951.5210 </r>
       <r>     8.9392    38.4184   954.4159 </r>
       <r>     9.0145    36.0551   957.1328 </r>
       <r>     9.0899    31.6196   959.5154 </r>
       <r>     9.1653    26.6488   961.5235 </r>
       <r>     9.2406    24.3214   963.3562 </r>
       <r>     9.3160    26.4671   965.3506 </r>
       <r>     9.3913    30.5687   967.6541 </r>
       <r>     9.4667    31.4419   970.0233 </r>
       <r>     9.5420    27.6448   972.1065 </r>
       <r>     9.6174    24.3214   973.9392 </r>
       <r>     9.6927    27.2229   975.9905 </r>
       <r>     9.7681    35.4274   978.6601 </r>
       <r>     9.8434    42.0858   981.8314 </r>
       <r>     9.9188    41.7319   984.9760 </r>
       <r>     9.9941    35.3400   987.6390 </r>
       <r>    10.0695    28.3614   989.7761 </r>
       <r>    10.1448    26.0930   991.7423 </r>
       <r>    10.2202    30.9655   994.0757 </r>
       <r>    10.2956    40.4492   997.1237 </r>
       <r>    10.3709    47.1425  1000.6760 </r>
       <r>    10.4463    45.3253  1004.0915 </r>
       <r>    10.5216    37.9992  1006.9548 </r>
       <r>    10.5970    33.6338  1009.4892 </r>
       <r>    10.6723    35.9011  1012.1945 </r>
       <r>    10.7477    40.1102  1015.2170 </r>
       <r>    10.8230    39.8453  1018.2194 </r>
       <r>    10.8984    33.5881  1020.7504 </r>
       <r>    10.9737    23.9601  1022.5559 </r>
       <r>    11.0491    13.9985  1023.6107 </r>
       <r>    11.1244     5.9416  1024.0585 </r>
       <r>    11.1998     1.1220  1024.1430 </r>
       <r>    11.2752    -0.6439  1024.0945 </r>
       <r>    11.3505    -0.7186  1024.0403 </r>
       <r>    11.4259    -0.3693  1024.0125 </r>
       <r>    11.5012    -0.1272  1024.0029 </r>
       <r>    11.5766    -0.0318  1024.0005 </r>
       <r>    11.6519    -0.0060  1024.0001 </r>
       <r>    11.7273    -0.0008  1024.0000 </r>
       <r>    11.8026    -0.0001  1024.0000 </r>
       <r>    11.8780    -0.0000  1024.0000 </r>
       <r>    11.9533    -0.0000  1024.0000 </r>
       <r>    12.0287    -0.0000  1024.0000 </r>
       <r>    12.1040    -0.0000  1024.0000 </r>
       <r>    12.1794    -0.0000  1024.0000 </r>
       <r>    12.2547    -0.0000  1024.0000 </r>
       <r>    12.3301    -0.0000  1024.0000 </r>
       <r>    12.4055     0.0000  1024.0000 </r>
       <r>    12.4808     0.0000  1024.0000 </r>
       <r>    12.5562     0.0000  1024.0000 </r>
       <r>    12.6315     0.0000  1024.0000 </r>
       <r>    12.7069     0.0000  1024.0000 </r>
       <r>    12.7822     0.0000  1024.0000 </r>
       <r>    12.8576     0.0000  1024.0000 </r>
       <r>    12.9329     0.0000  1024.0000 </r>
       <r>    13.0083     0.0000  1024.0000 </r>
       <r>    13.0836     0.0000  1024.0000 </r>
      </set>
     </set>
    </array>
   </total>
  </dos>
 </calculation>
 <structure name="finalpos" >
  <crystal>
   <varray name="basis" >
    <v>      10.89000034       0.00000000       0.00000000 </v>
    <v>       0.00000000      10.89000034       0.00000000 </v>
    <v>       0.00000000       0.00000000      27.70499992 </v>
   </varray>
   <i name="volume">   3285.59432860 </i>
   <varray name="rec_basis" >
    <v>       0.09182736       0.00000000       0.00000000 </v>
    <v>       0.00000000       0.09182736       0.00000000 </v>
    <v>       0.00000000       0.00000000       0.03609457 </v>
   </varray>
  </crystal>
  <varray name="positions" >
   <v>       0.00000000       0.00000000       0.00000000 </v>
   <v>       0.00000000       0.33333333       0.00000000 </v>
   <v>       0.00000000       0.66666667       0.00000000 </v>
   <v>       0.33333333       0.00000000       0.00000000 </v>
   <v>       0.33333333       0.33333333       0.00000000 </v>
   <v>       0.33333333       0.66666667       0.00000000 </v>
   <v>       0.66666667       0.00000000       0.00000000 </v>
   <v>       0.66666667       0.33333333       0.00000000 </v>
   <v>       0.66666667       0.66666667       0.00000000 </v>
   <v>       0.16666667       0.16666667       0.00000000 </v>
   <v>       0.16666667       0.50000000       0.00000000 </v>
   <v>       0.16666667       0.83333333       0.00000000 </v>
   <v>       0.50000000       0.16666667       0.00000000 </v>
   <v>       0.50000000       0.50000000       0.00000000 </v>
   <v>       0.50000000       0.83333333       0.00000000 </v>
   <v>       0.83333333       0.16666667       0.00000000 </v>
   <v>       0.83333333       0.50000000       0.00000000 </v>
   <v>       0.83333333       0.83333333       0.00000000 </v>
   <v>       0.00000000       0.16666667       0.06551164 </v>
   <v>       0.00000000       0.50000000       0.06551164 </v>
   <v>       0.00000000       0.83333333       0.06551164 </v>
   <v>       0.33333333       0.16666667       0.06551164 </v>
   <v>       0.33333333       0.50000000       0.06551164 </v>
   <v>       0.33333333       0.83333333       0.06551164 </v>
   <v>       0.66666667       0.16666667       0.06551164 </v>
   <v>       0.66666667       0.50000000       0.06551164 </v>
   <v>       0.66666667       0.83333333       0.06551164 </v>
   <v>       0.16666667       0.00000000       0.06551164 </v>
   <v>       0.16666667       0.33333333       0.06551164 </v>
   <v>       0.16666667       0.66666667       0.06551164 </v>
   <v>       0.50000000       0.00000000       0.06551164 </v>
   <v>       0.50000000       0.33333333       0.06551164 </v>
   <v>       0.50000000       0.66666667       0.06551164 </v>
   <v>       0.83333333       0.00000000       0.06551164 </v>
   <v>       0.83333333       0.33333333       0.06551164 </v>
   <v>       0.83333333       0.66666667       0.06551164 </v>
   <v>       0.00000000       0.00000000       0.13119553 </v>
   <v>       0.00000000       0.33333333       0.13119553 </v>
   <v>       0.00000000       0.66666667       0.13119553 </v>
   <v>       0.33333333       0.00000000       0.13119553 </v>
   <v>       0.33333333       0.33333333       0.13119553 </v>
   <v>       0.33333333       0.66666667       0.13119553 </v>
   <v>       0.66666667       0.00000000       0.13119553 </v>
   <v>       0.66666667       0.33333333       0.13119553 </v>
   <v>       0.66666667       0.66666667       0.13119553 </v>
   <v>       0.16666667       0.16666667       0.13119553 </v>
   <v>       0.16666667       0.50000000       0.13119553 </v>
   <v>       0.16666667       0.83333333       0.13119553 </v>
   <v>       0.50000000       0.16666667       0.13119553 </v>
   <v>       0.50000000       0.50000000       0.13119553 </v>
   <v>       0.50000000       0.83333333       0.13119553 </v>
   <v>       0.83333333       0.16666667       0.13119553 </v>
   <v>       0.83333333       0.50000000       0.13119553 </v>
   <v>       0.83333333       0.83333333       0.13119553 </v>
   <v>       0.00012967       0.16679633       0.19448636 </v>
   <v>       0.00046293       0.50000000       0.19448474 </v>
   <v>       0.00012967       0.83320367       0.19448636 </v>
   <v>       0.33333333       0.16712960       0.19448474 </v>
   <v>       0.33333333       0.50000000       0.19445791 </v>
   <v>       0.33333333       0.83287040       0.19448474 </v>
   <v>       0.66653700       0.16679633       0.19448636 </v>
   <v>       0.66620374       0.50000000       0.19448474 </v>
   <v>       0.66653700       0.83320367       0.19448636 </v>
   <v>       0.16666912       0.00000000       0.19451886 </v>
   <v>       0.16675932       0.33342598       0.19455918 </v>
   <v>       0.16675932       0.66657402       0.19455918 </v>
   <v>       0.49999755       0.00000000       0.19451886 </v>
   <v>       0.49990735       0.33342598       0.19455918 </v>
   <v>       0.49990735       0.66657402       0.19455918 </v>
   <v>       0.83333333       0.00000000       0.19439446 </v>
   <v>       0.83333333       0.33333578       0.19451886 </v>
   <v>       0.83333333       0.66666422       0.19451886 </v>
   <v>       0.00000699       0.00000000       0.25767965 </v>
   <v>      -0.00016884       0.33330441       0.25772848 </v>
   <v>      -0.00016884       0.66669559       0.25772848 </v>
   <v>       0.33333333       0.00000000       0.25743040 </v>
   <v>       0.33333333       0.33365417       0.25795542 </v>
   <v>       0.33333333       0.66634583       0.25795542 </v>
   <v>       0.66665968       0.00000000       0.25767965 </v>
   <v>       0.66683550       0.33330441       0.25772848 </v>
   <v>       0.66683550       0.66669559       0.25772848 </v>
   <v>       0.16663775       0.16649783       0.25772848 </v>
   <v>       0.16698751       0.50000000       0.25795542 </v>
   <v>       0.16663775       0.83350217       0.25772848 </v>
   <v>       0.50002892       0.16649783       0.25772848 </v>
   <v>       0.49967916       0.50000000       0.25795542 </v>
   <v>       0.50002892       0.83350217       0.25772848 </v>
   <v>       0.83333333       0.16667366       0.25767965 </v>
   <v>       0.83333333       0.50000000       0.25743040 </v>
   <v>       0.83333333       0.83332634       0.25767965 </v>
   <v>      -0.00006599       0.16660068       0.32117328 </v>
   <v>      -0.00065777       0.50000000       0.32082261 </v>
   <v>      -0.00006599       0.83339932       0.32117328 </v>
   <v>       0.33333333       0.16600889       0.32082261 </v>
   <v>       0.33333333       0.50000000       0.32145595 </v>
   <v>       0.33333333       0.83399111       0.32082261 </v>
   <v>       0.66673266       0.16660068       0.32117328 </v>
   <v>       0.66732444       0.50000000       0.32082261 </v>
   <v>       0.66673266       0.83339932       0.32117328 </v>
   <v>       0.16655183       0.00000000       0.32124476 </v>
   <v>       0.16614580       0.33281246       0.32091310 </v>
   <v>       0.16614580       0.66718754       0.32091310 </v>
   <v>       0.50011484       0.00000000       0.32124476 </v>
   <v>       0.50052087       0.33281246       0.32091310 </v>
   <v>       0.50052087       0.66718754       0.32091310 </v>
   <v>       0.83333333       0.00000000       0.32110192 </v>
   <v>       0.83333333       0.33321849       0.32124476 </v>
   <v>       0.83333333       0.66678151       0.32124476 </v>
   <v>       0.00011047       0.00000000       0.38503786 </v>
   <v>       0.00055576       0.33350093       0.38521315 </v>
   <v>       0.00055576       0.66649907       0.38521315 </v>
   <v>       0.33333333       0.00000000       0.38488144 </v>
   <v>       0.33333333       0.33311606       0.38423752 </v>
   <v>       0.33333333       0.66688394       0.38423752 </v>
   <v>       0.66655619       0.00000000       0.38503786 </v>
   <v>       0.66611090       0.33350093       0.38521315 </v>
   <v>       0.66611090       0.66649907       0.38521315 </v>
   <v>       0.16683427       0.16722243       0.38521315 </v>
   <v>       0.16644940       0.50000000       0.38423752 </v>
   <v>       0.16683427       0.83277757       0.38521315 </v>
   <v>       0.49983240       0.16722243       0.38521315 </v>
   <v>       0.50021727       0.50000000       0.38423752 </v>
   <v>       0.49983240       0.83277757       0.38521315 </v>
   <v>       0.83333333       0.16677714       0.38503786 </v>
   <v>       0.83333333       0.50000000       0.38488144 </v>
   <v>       0.83333333       0.83322286       0.38503786 </v>
   <v>       0.00014392       0.16681059       0.44758531 </v>
   <v>      -0.00048739       0.50000000       0.44730112 </v>
   <v>       0.00014392       0.83318941       0.44758531 </v>
   <v>       0.33333333       0.16617928       0.44730112 </v>
   <v>       0.33333333       0.50000000       0.44764666 </v>
   <v>       0.33333333       0.83382072       0.44730112 </v>
   <v>       0.66652274       0.16681059       0.44758531 </v>
   <v>       0.66715406       0.50000000       0.44730112 </v>
   <v>       0.66652274       0.83318941       0.44758531 </v>
   <v>       0.16660017       0.00000000       0.44757888 </v>
   <v>       0.16756799       0.33423465       0.44803182 </v>
   <v>       0.16756799       0.66576534       0.44803182 </v>
   <v>       0.50006649       0.00000000       0.44757888 </v>
   <v>       0.49909868       0.33423465       0.44803182 </v>
   <v>       0.49909868       0.66576534       0.44803182 </v>
   <v>       0.83333333       0.00000000       0.44749006 </v>
   <v>       0.83333333       0.33326684       0.44757888 </v>
   <v>       0.83333333       0.66673316       0.44757888 </v>
   <v>       0.33333333       0.50000000       0.50225650 </v>
  </varray>
  <varray name="selective"  type="logical" >
   <v type="logical" >  F  F  F </v>
   <v type="logical" >  F  F  F </v>
   <v type="logical" >  F  F  F </v>
   <v type="logical" >  F  F  F </v>
   <v type="logical" >  F  F  F </v>
   <v type="logical" >  F  F  F </v>
   <v type="logical" >  F  F  F </v>
   <v type="logical" >  F  F  F </v>
   <v type="logical" >  F  F  F </v>
   <v type="logical" >  F  F  F </v>
   <v type="logical" >  F  F  F </v>
   <v type="logical" >  F  F  F </v>
   <v type="logical" >  F  F  F </v>
   <v type="logical" >  F  F  F </v>
   <v type="logical" >  F  F  F </v>
   <v type="logical" >  F  F  F </v>
   <v type="logical" >  F  F  F </v>
   <v type="logical" >  F  F  F </v>
   <v type="logical" >  F  F  F </v>
   <v type="logical" >  F  F  F </v>
   <v type="logical" >  F  F  F </v>
   <v type="logical" >  F  F  F </v>
   <v type="logical" >  F  F  F </v>
   <v type="logical" >  F  F  F </v>
   <v type="logical" >  F  F  F </v>
   <v type="logical" >  F  F  F </v>
   <v type="logical" >  F  F  F </v>
   <v type="logical" >  F  F  F </v>
   <v type="logical" >  F  F  F </v>
   <v type="logical" >  F  F  F </v>
   <v type="logical" >  F  F  F </v>
   <v type="logical" >  F  F  F </v>
   <v type="logical" >  F  F  F </v>
   <v type="logical" >  F  F  F </v>
   <v type="logical" >  F  F  F </v>
   <v type="logical" >  F  F  F </v>
   <v type="logical" >  F  F  F </v>
   <v type="logical" >  F  F  F </v>
   <v type="logical" >  F  F  F </v>
   <v type="logical" >  F  F  F </v>
   <v type="logical" >  F  F  F </v>
   <v type="logical" >  F  F  F </v>
   <v type="logical" >  F  F  F </v>
   <v type="logical" >  F  F  F </v>
   <v type="logical" >  F  F  F </v>
   <v type="logical" >  F  F  F </v>
   <v type="logical" >  F  F  F </v>
   <v type="logical" >  F  F  F </v>
   <v type="logical" >  F  F  F </v>
   <v type="logical" >  F  F  F </v>
   <v type="logical" >  F  F  F </v>
   <v type="logical" >  F  F  F </v>
   <v type="logical" >  F  F  F </v>
   <v type="logical" >  F  F  F </v>
   <v type="logical" >  T  T  T </v>
   <v type="logical" >  T  T  T </v>
   <v type="logical" >  T  T  T </v>
   <v type="logical" >  T  T  T </v>
   <v type="logical" >  T  T  T </v>
   <v type="logical" >  T  T  T </v>
   <v type="logical" >  T  T  T </v>
   <v type="logical" >  T  T  T </v>
   <v type="logical" >  T  T  T </v>
   <v type="logical" >  T  T  T </v>
   <v type="logical" >  T  T  T </v>
   <v type="logical" >  T  T  T </v>
   <v type="logical" >  T  T  T </v>
   <v type="logical" >  T  T  T </v>
   <v type="logical" >  T  T  T </v>
   <v type="logical" >  T  T  T </v>
   <v type="logical" >  T  T  T </v>
   <v type="logical" >  T  T  T </v>
   <v type="logical" >  T  T  T </v>
   <v type="logical" >  T  T  T </v>
   <v type="logical" >  T  T  T </v>
   <v type="logical" >  T  T  T </v>
   <v type="logical" >  T  T  T </v>
   <v type="logical" >  T  T  T </v>
   <v type="logical" >  T  T  T </v>
   <v type="logical" >  T  T  T </v>
   <v type="logical" >  T  T  T </v>
   <v type="logical" >  T  T  T </v>
   <v type="logical" >  T  T  T </v>
   <v type="logical" >  T  T  T </v>
   <v type="logical" >  T  T  T </v>
   <v type="logical" >  T  T  T </v>
   <v type="logical" >  T  T  T </v>
   <v type="logical" >  T  T  T </v>
   <v type="logical" >  T  T  T </v>
   <v type="logical" >  T  T  T </v>
   <v type="logical" >  T  T  T </v>
   <v type="logical" >  T  T  T </v>
   <v type="logical" >  T  T  T </v>
   <v type="logical" >  T  T  T </v>
   <v type="logical" >  T  T  T </v>
   <v type="logical" >  T  T  T </v>
   <v type="logical" >  T  T  T </v>
   <v type="logical" >  T  T  T </v>
   <v type="logical" >  T  T  T </v>
   <v type="logical" >  T  T  T </v>
   <v type="logical" >  T  T  T </v>
   <v type="logical" >  T  T  T </v>
   <v type="logical" >  T  T  T </v>
   <v type="logical" >  T  T  T </v>
   <v type="logical" >  T  T  T </v>
   <v type="logical" >  T  T  T </v>
   <v type="logical" >  T  T  T </v>
   <v type="logical" >  T  T  T </v>
   <v type="logical" >  T  T  T </v>
   <v type="logical" >  T  T  T </v>
   <v type="logical" >  T  T  T </v>
   <v type="logical" >  T  T  T </v>
   <v type="logical" >  T  T  T </v>
   <v type="logical" >  T  T  T </v>
   <v type="logical" >  T  T  T </v>
   <v type="logical" >  T  T  T </v>
   <v type="logical" >  T  T  T </v>
   <v type="logical" >  T  T  T </v>
   <v type="logical" >  T  T  T </v>
   <v type="logical" >  T  T  T </v>
   <v type="logical" >  T  T  T </v>
   <v type="logical" >  T  T  T </v>
   <v type="logical" >  T  T  T </v>
   <v type="logical" >  T  T  T </v>
   <v type="logical" >  T  T  T </v>
   <v type="logical" >  T  T  T </v>
   <v type="logical" >  T  T  T </v>
   <v type="logical" >  T  T  T </v>
   <v type="logical" >  T  T  T </v>
   <v type="logical" >  T  T  T </v>
   <v type="logical" >  T  T  T </v>
   <v type="logical" >  T  T  T </v>
   <v type="logical" >  T  T  T </v>
   <v type="logical" >  T  T  T </v>
   <v type="logical" >  T  T  T </v>
   <v type="logical" >  T  T  T </v>
   <v type="logical" >  T  T  T </v>
   <v type="logical" >  T  T  T </v>
   <v type="logical" >  T  T  T </v>
   <v type="logical" >  T  T  T </v>
   <v type="logical" >  T  T  T </v>
   <v type="logical" >  T  T  T </v>
   <v type="logical" >  T  T  T </v>
   <v type="logical" >  T  T  T </v>
   <v type="logical" >  T  T  T </v>
  </varray>
  <nose>
   <v>      -3.00000000       0.00000000       0.00010000       0.00010000 </v>
  </nose>
 </structure>
</modeling>
