unknown system                          
           1
    10.890000    0.000000    0.000000
     0.000000   10.890000    0.000000
     0.000000    0.000000   27.705000
   Cu   H 
   144     1
Direct configuration=     1
   0.00000000  0.00000000  0.00000000
   0.00000000  0.33333333  0.00000000
   0.00000000  0.66666667  0.00000000
   0.33333333  0.00000000  0.00000000
   0.33333333  0.33333333  0.00000000
   0.33333333  0.66666667  0.00000000
   0.66666667  0.00000000  0.00000000
   0.66666667  0.33333333  0.00000000
   0.66666667  0.66666667  0.00000000
   0.16666667  0.16666667  0.00000000
   0.16666667  0.50000000  0.00000000
   0.16666667  0.83333333  0.00000000
   0.50000000  0.16666667  0.00000000
   0.50000000  0.50000000  0.00000000
   0.50000000  0.83333333  0.00000000
   0.83333333  0.16666667  0.00000000
   0.83333333  0.50000000  0.00000000
   0.83333333  0.83333333  0.00000000
   0.00000000  0.16666667  0.06551164
   0.00000000  0.50000000  0.06551164
   0.00000000  0.83333333  0.06551164
   0.33333333  0.16666667  0.06551164
   0.33333333  0.50000000  0.06551164
   0.33333333  0.83333333  0.06551164
   0.66666667  0.16666667  0.06551164
   0.66666667  0.50000000  0.06551164
   0.66666667  0.83333333  0.06551164
   0.16666667  0.00000000  0.06551164
   0.16666667  0.33333333  0.06551164
   0.16666667  0.66666667  0.06551164
   0.50000000  0.00000000  0.06551164
   0.50000000  0.33333333  0.06551164
   0.50000000  0.66666667  0.06551164
   0.83333333  0.00000000  0.06551164
   0.83333333  0.33333333  0.06551164
   0.83333333  0.66666667  0.06551164
   0.00000000  0.00000000  0.13119553
   0.00000000  0.33333333  0.13119553
   0.00000000  0.66666667  0.13119553
   0.33333333  0.00000000  0.13119553
   0.33333333  0.33333333  0.13119553
   0.33333333  0.66666667  0.13119553
   0.66666667  0.00000000  0.13119553
   0.66666667  0.33333333  0.13119553
   0.66666667  0.66666667  0.13119553
   0.16666667  0.16666667  0.13119553
   0.16666667  0.50000000  0.13119553
   0.16666667  0.83333333  0.13119553
   0.50000000  0.16666667  0.13119553
   0.50000000  0.50000000  0.13119553
   0.50000000  0.83333333  0.13119553
   0.83333333  0.16666667  0.13119553
   0.83333333  0.50000000  0.13119553
   0.83333333  0.83333333  0.13119553
   0.00000000  0.16666667  0.19620680
   0.00000000  0.50000000  0.19620680
   0.00000000  0.83333333  0.19620680
   0.33333333  0.16666667  0.19620680
   0.33333333  0.50000000  0.19620680
   0.33333333  0.83333333  0.19620680
   0.66666667  0.16666667  0.19620680
   0.66666667  0.50000000  0.19620680
   0.66666667  0.83333333  0.19620680
   0.16666667  0.00000000  0.19620680
   0.16666667  0.33333333  0.19620680
   0.16666667  0.66666667  0.19620680
   0.50000000  0.00000000  0.19620680
   0.50000000  0.33333333  0.19620680
   0.50000000  0.66666667  0.19620680
   0.83333333  0.00000000  0.19620680
   0.83333333  0.33333333  0.19620680
   0.83333333  0.66666667  0.19620680
   0.00000000  0.00000000  0.25873860
   0.00000000  0.33333333  0.25873860
   0.00000000  0.66666667  0.25873860
   0.33333333  0.00000000  0.25873860
   0.33333333  0.33333333  0.25873860
   0.33333333  0.66666667  0.25873860
   0.66666667  0.00000000  0.25873860
   0.66666667  0.33333333  0.25873860
   0.66666667  0.66666667  0.25873860
   0.16666667  0.16666667  0.25873860
   0.16666667  0.50000000  0.25873860
   0.16666667  0.83333333  0.25873860
   0.50000000  0.16666667  0.25873860
   0.50000000  0.50000000  0.25873860
   0.50000000  0.83333333  0.25873860
   0.83333333  0.16666667  0.25873860
   0.83333333  0.50000000  0.25873860
   0.83333333  0.83333333  0.25873860
   0.00000000  0.16666667  0.32119954
   0.00000000  0.50000000  0.32119954
   0.00000000  0.83333333  0.32119954
   0.33333333  0.16666667  0.32119954
   0.33333333  0.50000000  0.32119954
   0.33333333  0.83333333  0.32119954
   0.66666667  0.16666667  0.32119954
   0.66666667  0.50000000  0.32119954
   0.66666667  0.83333333  0.32119954
   0.16666667  0.00000000  0.32119954
   0.16666667  0.33333333  0.32119954
   0.16666667  0.66666667  0.32119954
   0.50000000  0.00000000  0.32119954
   0.50000000  0.33333333  0.32119954
   0.50000000  0.66666667  0.32119954
   0.83333333  0.00000000  0.32119954
   0.83333333  0.33333333  0.32119954
   0.83333333  0.66666667  0.32119954
   0.00000000  0.00000000  0.38476372
   0.00000000  0.33333333  0.38476372
   0.00000000  0.66666667  0.38476372
   0.33333333  0.00000000  0.38476372
   0.33333333  0.33333333  0.38476372
   0.33333333  0.66666667  0.38476372
   0.66666667  0.00000000  0.38476372
   0.66666667  0.33333333  0.38476372
   0.66666667  0.66666667  0.38476372
   0.16666667  0.16666667  0.38476372
   0.16666667  0.50000000  0.38476372
   0.16666667  0.83333333  0.38476372
   0.50000000  0.16666667  0.38476372
   0.50000000  0.50000000  0.38476372
   0.50000000  0.83333333  0.38476372
   0.83333333  0.16666667  0.38476372
   0.83333333  0.50000000  0.38476372
   0.83333333  0.83333333  0.38476372
   0.00000000  0.16666667  0.44736473
   0.00000000  0.50000000  0.44736473
   0.00000000  0.83333333  0.44736473
   0.33333333  0.16666667  0.44736473
   0.33333333  0.50000000  0.44736473
   0.33333333  0.83333333  0.44736473
   0.66666667  0.16666667  0.44736473
   0.66666667  0.50000000  0.44736473
   0.66666667  0.83333333  0.44736473
   0.16666667  0.00000000  0.44736473
   0.16666667  0.33333333  0.44736473
   0.16666667  0.66666667  0.44736473
   0.50000000  0.00000000  0.44736473
   0.50000000  0.33333333  0.44736473
   0.50000000  0.66666667  0.44736473
   0.83333333  0.00000000  0.44736473
   0.83333333  0.33333333  0.44736473
   0.83333333  0.66666667  0.44736473
   0.33333333  0.50000000  0.50150658
Direct configuration=     2
   0.00000000  0.00000000  0.00000000
   0.00000000  0.33333333  0.00000000
   0.00000000  0.66666667  0.00000000
   0.33333333  0.00000000  0.00000000
   0.33333333  0.33333333  0.00000000
   0.33333333  0.66666667  0.00000000
   0.66666667  0.00000000  0.00000000
   0.66666667  0.33333333  0.00000000
   0.66666667  0.66666667  0.00000000
   0.16666667  0.16666667  0.00000000
   0.16666667  0.50000000  0.00000000
   0.16666667  0.83333333  0.00000000
   0.50000000  0.16666667  0.00000000
   0.50000000  0.50000000  0.00000000
   0.50000000  0.83333333  0.00000000
   0.83333333  0.16666667  0.00000000
   0.83333333  0.50000000  0.00000000
   0.83333333  0.83333333  0.00000000
   0.00000000  0.16666667  0.06551164
   0.00000000  0.50000000  0.06551164
   0.00000000  0.83333333  0.06551164
   0.33333333  0.16666667  0.06551164
   0.33333333  0.50000000  0.06551164
   0.33333333  0.83333333  0.06551164
   0.66666667  0.16666667  0.06551164
   0.66666667  0.50000000  0.06551164
   0.66666667  0.83333333  0.06551164
   0.16666667  0.00000000  0.06551164
   0.16666667  0.33333333  0.06551164
   0.16666667  0.66666667  0.06551164
   0.50000000  0.00000000  0.06551164
   0.50000000  0.33333333  0.06551164
   0.50000000  0.66666667  0.06551164
   0.83333333  0.00000000  0.06551164
   0.83333333  0.33333333  0.06551164
   0.83333333  0.66666667  0.06551164
   0.00000000  0.00000000  0.13119553
   0.00000000  0.33333333  0.13119553
   0.00000000  0.66666667  0.13119553
   0.33333333  0.00000000  0.13119553
   0.33333333  0.33333333  0.13119553
   0.33333333  0.66666667  0.13119553
   0.66666667  0.00000000  0.13119553
   0.66666667  0.33333333  0.13119553
   0.66666667  0.66666667  0.13119553
   0.16666667  0.16666667  0.13119553
   0.16666667  0.50000000  0.13119553
   0.16666667  0.83333333  0.13119553
   0.50000000  0.16666667  0.13119553
   0.50000000  0.50000000  0.13119553
   0.50000000  0.83333333  0.13119553
   0.83333333  0.16666667  0.13119553
   0.83333333  0.50000000  0.13119553
   0.83333333  0.83333333  0.13119553
   0.00002827  0.16669493  0.19574398
   0.00007883  0.50000000  0.19573240
   0.00002827  0.83330507  0.19574398
   0.33333333  0.16674550  0.19573240
   0.33333333  0.50000000  0.19571499
   0.33333333  0.83325450  0.19573240
   0.66663840  0.16669493  0.19574398
   0.66658783  0.50000000  0.19573240
   0.66663840  0.83330507  0.19574398
   0.16666387  0.00000000  0.19577088
   0.16666947  0.33333613  0.19573194
   0.16666947  0.66666387  0.19573194
   0.50000280  0.00000000  0.19577088
   0.49999720  0.33333613  0.19573194
   0.49999720  0.66666387  0.19573194
   0.83333333  0.00000000  0.19572312
   0.83333333  0.33333054  0.19577088
   0.83333333  0.66666946  0.19577088
   0.00001881  0.00000000  0.25866759
  -0.00002567  0.33334927  0.25870265
  -0.00002567  0.66665073  0.25870265
   0.33333333  0.00000000  0.25863021
   0.33333333  0.33338249  0.25873529
   0.33333333  0.66661751  0.25873529
   0.66664786  0.00000000  0.25866759
   0.66669234  0.33334927  0.25870265
   0.66669234  0.66665073  0.25870265
   0.16668260  0.16664099  0.25870265
   0.16671582  0.50000000  0.25873529
   0.16668260  0.83335901  0.25870265
   0.49998407  0.16664099  0.25870265
   0.49995084  0.50000000  0.25873529
   0.49998407  0.83335901  0.25870265
   0.83333333  0.16668548  0.25866759
   0.83333333  0.50000000  0.25863021
   0.83333333  0.83331452  0.25866759
  -0.00000807  0.16665860  0.32128177
  -0.00006540  0.50000000  0.32121807
  -0.00000807  0.83334140  0.32128177
   0.33333333  0.16660127  0.32121807
   0.33333333  0.50000000  0.32147789
   0.33333333  0.83339873  0.32121807
   0.66667473  0.16665860  0.32128177
   0.66673207  0.50000000  0.32121807
   0.66667473  0.83334140  0.32128177
   0.16665549  0.00000000  0.32130980
   0.16663554  0.33330220  0.32126818
   0.16663554  0.66669780  0.32126818
   0.50001118  0.00000000  0.32130980
   0.50003113  0.33330220  0.32126818
   0.50003113  0.66669780  0.32126818
   0.83333333  0.00000000  0.32128601
   0.83333333  0.33332216  0.32130980
   0.83333333  0.66667784  0.32130980
   0.00000418  0.00000000  0.38480232
   0.00009832  0.33338959  0.38484710
   0.00009832  0.66661041  0.38484710
   0.33333333  0.00000000  0.38480158
   0.33333333  0.33327703  0.38455496
   0.33333333  0.66672297  0.38455496
   0.66666249  0.00000000  0.38480232
   0.66656835  0.33338959  0.38484710
   0.66656835  0.66661041  0.38484710
   0.16672292  0.16676498  0.38484710
   0.16661036  0.50000000  0.38455496
   0.16672292  0.83323502  0.38484710
   0.49994375  0.16676498  0.38484710
   0.50005630  0.50000000  0.38455496
   0.49994375  0.83323502  0.38484710
   0.83333333  0.16667084  0.38480232
   0.83333333  0.50000000  0.38480158
   0.83333333  0.83332916  0.38480232
   0.00000759  0.16667425  0.44736295
  -0.00019602  0.50000000  0.44731878
   0.00000759  0.83332575  0.44736295
   0.33333333  0.16647065  0.44731878
   0.33333333  0.50000000  0.44729392
   0.33333333  0.83352935  0.44731878
   0.66665908  0.16667425  0.44736295
   0.66686269  0.50000000  0.44731878
   0.66665908  0.83332575  0.44736295
   0.16668030  0.00000000  0.44737174
   0.16673342  0.33340009  0.44748722
   0.16673342  0.66659991  0.44748722
   0.49998636  0.00000000  0.44737174
   0.49993324  0.33340009  0.44748722
   0.49993324  0.66659991  0.44748722
   0.83333333  0.00000000  0.44735566
   0.83333333  0.33334697  0.44737174
   0.83333333  0.66665303  0.44737174
   0.33333333  0.50000000  0.50178555
Direct configuration=     3
   0.00000000  0.00000000  0.00000000
   0.00000000  0.33333333  0.00000000
   0.00000000  0.66666667  0.00000000
   0.33333333  0.00000000  0.00000000
   0.33333333  0.33333333  0.00000000
   0.33333333  0.66666667  0.00000000
   0.66666667  0.00000000  0.00000000
   0.66666667  0.33333333  0.00000000
   0.66666667  0.66666667  0.00000000
   0.16666667  0.16666667  0.00000000
   0.16666667  0.50000000  0.00000000
   0.16666667  0.83333333  0.00000000
   0.50000000  0.16666667  0.00000000
   0.50000000  0.50000000  0.00000000
   0.50000000  0.83333333  0.00000000
   0.83333333  0.16666667  0.00000000
   0.83333333  0.50000000  0.00000000
   0.83333333  0.83333333  0.00000000
   0.00000000  0.16666667  0.06551164
   0.00000000  0.50000000  0.06551164
   0.00000000  0.83333333  0.06551164
   0.33333333  0.16666667  0.06551164
   0.33333333  0.50000000  0.06551164
   0.33333333  0.83333333  0.06551164
   0.66666667  0.16666667  0.06551164
   0.66666667  0.50000000  0.06551164
   0.66666667  0.83333333  0.06551164
   0.16666667  0.00000000  0.06551164
   0.16666667  0.33333333  0.06551164
   0.16666667  0.66666667  0.06551164
   0.50000000  0.00000000  0.06551164
   0.50000000  0.33333333  0.06551164
   0.50000000  0.66666667  0.06551164
   0.83333333  0.00000000  0.06551164
   0.83333333  0.33333333  0.06551164
   0.83333333  0.66666667  0.06551164
   0.00000000  0.00000000  0.13119553
   0.00000000  0.33333333  0.13119553
   0.00000000  0.66666667  0.13119553
   0.33333333  0.00000000  0.13119553
   0.33333333  0.33333333  0.13119553
   0.33333333  0.66666667  0.13119553
   0.66666667  0.00000000  0.13119553
   0.66666667  0.33333333  0.13119553
   0.66666667  0.66666667  0.13119553
   0.16666667  0.16666667  0.13119553
   0.16666667  0.50000000  0.13119553
   0.16666667  0.83333333  0.13119553
   0.50000000  0.16666667  0.13119553
   0.50000000  0.50000000  0.13119553
   0.50000000  0.83333333  0.13119553
   0.83333333  0.16666667  0.13119553
   0.83333333  0.50000000  0.13119553
   0.83333333  0.83333333  0.13119553
   0.00007063  0.16673730  0.19505026
   0.00019700  0.50000000  0.19502131
   0.00007063  0.83326270  0.19505026
   0.33333333  0.16686366  0.19502131
   0.33333333  0.50000000  0.19497780
   0.33333333  0.83313634  0.19502131
   0.66659603  0.16673730  0.19505026
   0.66646967  0.50000000  0.19502131
   0.66659603  0.83326270  0.19505026
   0.16665968  0.00000000  0.19511748
   0.16667366  0.33334033  0.19502016
   0.16667366  0.66665967  0.19502016
   0.50000699  0.00000000  0.19511748
   0.49999301  0.33334033  0.19502016
   0.49999301  0.66665967  0.19502016
   0.83333333  0.00000000  0.19499813
   0.83333333  0.33332635  0.19511748
   0.83333333  0.66667365  0.19511748
   0.00004701  0.00000000  0.25856116
  -0.00006416  0.33337315  0.25864877
  -0.00006416  0.66662685  0.25864877
   0.33333333  0.00000000  0.25846775
   0.33333333  0.33345617  0.25873033
   0.33333333  0.66654383  0.25873033
   0.66661966  0.00000000  0.25856116
   0.66673082  0.33337315  0.25864877
   0.66673082  0.66662685  0.25864877
   0.16670649  0.16660251  0.25864877
   0.16678951  0.50000000  0.25873033
   0.16670649  0.83339749  0.25864877
   0.49996018  0.16660251  0.25864877
   0.49987716  0.50000000  0.25873033
   0.49996018  0.83339749  0.25864877
   0.83333333  0.16671367  0.25856116
   0.83333333  0.50000000  0.25846775
   0.83333333  0.83328633  0.25856116
  -0.00002016  0.16664651  0.32140502
  -0.00016343  0.50000000  0.32124585
  -0.00002016  0.83335349  0.32140502
   0.33333333  0.16650324  0.32124585
   0.33333333  0.50000000  0.32189510
   0.33333333  0.83349676  0.32124585
   0.66668683  0.16664651  0.32140502
   0.66683010  0.50000000  0.32124585
   0.66668683  0.83335349  0.32140502
   0.16663874  0.00000000  0.32147507
   0.16658887  0.33325554  0.32137107
   0.16658887  0.66674446  0.32137107
   0.50002793  0.00000000  0.32147507
   0.50007779  0.33325554  0.32137107
   0.50007779  0.66674446  0.32137107
   0.83333333  0.00000000  0.32141562
   0.83333333  0.33330540  0.32147507
   0.83333333  0.66669460  0.32147507
   0.00001043  0.00000000  0.38486019
   0.00024569  0.33347391  0.38497210
   0.00024569  0.66652609  0.38497210
   0.33333333  0.00000000  0.38485834
   0.33333333  0.33319263  0.38424204
   0.33333333  0.66680737  0.38424204
   0.66665623  0.00000000  0.38486019
   0.66642098  0.33347391  0.38497210
   0.66642098  0.66652609  0.38497210
   0.16680724  0.16691236  0.38497210
   0.16652596  0.50000000  0.38424204
   0.16680724  0.83308764  0.38497210
   0.49985942  0.16691236  0.38497210
   0.50014070  0.50000000  0.38424204
   0.49985942  0.83308764  0.38497210
   0.83333333  0.16667710  0.38486019
   0.83333333  0.50000000  0.38485834
   0.83333333  0.83332290  0.38486019
   0.00001896  0.16668563  0.44736028
  -0.00048984  0.50000000  0.44724990
   0.00001896  0.83331437  0.44736028
   0.33333333  0.16617682  0.44724990
   0.33333333  0.50000000  0.44718778
   0.33333333  0.83382318  0.44724990
   0.66664771  0.16668563  0.44736028
   0.66715651  0.50000000  0.44724990
   0.66664771  0.83331437  0.44736028
   0.16670074  0.00000000  0.44738225
   0.16683349  0.33350015  0.44767083
   0.16683349  0.66649985  0.44767083
   0.49996592  0.00000000  0.44738225
   0.49983318  0.33350015  0.44767083
   0.49983318  0.66649985  0.44767083
   0.83333333  0.00000000  0.44734207
   0.83333333  0.33336741  0.44738225
   0.83333333  0.66663259  0.44738225
   0.33333333  0.50000000  0.50220370
Direct configuration=     4
   0.00000000  0.00000000  0.00000000
   0.00000000  0.33333333  0.00000000
   0.00000000  0.66666667  0.00000000
   0.33333333  0.00000000  0.00000000
   0.33333333  0.33333333  0.00000000
   0.33333333  0.66666667  0.00000000
   0.66666667  0.00000000  0.00000000
   0.66666667  0.33333333  0.00000000
   0.66666667  0.66666667  0.00000000
   0.16666667  0.16666667  0.00000000
   0.16666667  0.50000000  0.00000000
   0.16666667  0.83333333  0.00000000
   0.50000000  0.16666667  0.00000000
   0.50000000  0.50000000  0.00000000
   0.50000000  0.83333333  0.00000000
   0.83333333  0.16666667  0.00000000
   0.83333333  0.50000000  0.00000000
   0.83333333  0.83333333  0.00000000
   0.00000000  0.16666667  0.06551164
   0.00000000  0.50000000  0.06551164
   0.00000000  0.83333333  0.06551164
   0.33333333  0.16666667  0.06551164
   0.33333333  0.50000000  0.06551164
   0.33333333  0.83333333  0.06551164
   0.66666667  0.16666667  0.06551164
   0.66666667  0.50000000  0.06551164
   0.66666667  0.83333333  0.06551164
   0.16666667  0.00000000  0.06551164
   0.16666667  0.33333333  0.06551164
   0.16666667  0.66666667  0.06551164
   0.50000000  0.00000000  0.06551164
   0.50000000  0.33333333  0.06551164
   0.50000000  0.66666667  0.06551164
   0.83333333  0.00000000  0.06551164
   0.83333333  0.33333333  0.06551164
   0.83333333  0.66666667  0.06551164
   0.00000000  0.00000000  0.13119553
   0.00000000  0.33333333  0.13119553
   0.00000000  0.66666667  0.13119553
   0.33333333  0.00000000  0.13119553
   0.33333333  0.33333333  0.13119553
   0.33333333  0.66666667  0.13119553
   0.66666667  0.00000000  0.13119553
   0.66666667  0.33333333  0.13119553
   0.66666667  0.66666667  0.13119553
   0.16666667  0.16666667  0.13119553
   0.16666667  0.50000000  0.13119553
   0.16666667  0.83333333  0.13119553
   0.50000000  0.16666667  0.13119553
   0.50000000  0.50000000  0.13119553
   0.50000000  0.83333333  0.13119553
   0.83333333  0.16666667  0.13119553
   0.83333333  0.50000000  0.13119553
   0.83333333  0.83333333  0.13119553
   0.00007563  0.16674230  0.19496837
   0.00021095  0.50000000  0.19493737
   0.00007563  0.83325770  0.19496837
   0.33333333  0.16687761  0.19493737
   0.33333333  0.50000000  0.19489078
   0.33333333  0.83312239  0.19493737
   0.66659103  0.16674230  0.19496837
   0.66645572  0.50000000  0.19493737
   0.66659103  0.83325770  0.19496837
   0.16665919  0.00000000  0.19504035
   0.16667416  0.33334082  0.19493614
   0.16667416  0.66665918  0.19493614
   0.50000748  0.00000000  0.19504035
   0.49999251  0.33334082  0.19493614
   0.49999251  0.66665918  0.19493614
   0.83333333  0.00000000  0.19491255
   0.83333333  0.33332585  0.19504035
   0.83333333  0.66667415  0.19504035
   0.00005033  0.00000000  0.25854859
  -0.00006870  0.33337597  0.25864241
  -0.00006870  0.66662403  0.25864241
   0.33333333  0.00000000  0.25844857
   0.33333333  0.33346487  0.25872975
   0.33333333  0.66653513  0.25872975
   0.66661633  0.00000000  0.25854859
   0.66673536  0.33337597  0.25864241
   0.66673536  0.66662403  0.25864241
   0.16670931  0.16659797  0.25864241
   0.16679821  0.50000000  0.25872975
   0.16670931  0.83340203  0.25864241
   0.49995736  0.16659797  0.25864241
   0.49986846  0.50000000  0.25872975
   0.49995736  0.83340203  0.25864241
   0.83333333  0.16671700  0.25854859
   0.83333333  0.50000000  0.25844857
   0.83333333  0.83328300  0.25854859
  -0.00002159  0.16664508  0.32141957
  -0.00017500  0.50000000  0.32124913
  -0.00002159  0.83335492  0.32141957
   0.33333333  0.16649166  0.32124913
   0.33333333  0.50000000  0.32194435
   0.33333333  0.83350834  0.32124913
   0.66668826  0.16664508  0.32141957
   0.66684167  0.50000000  0.32124913
   0.66668826  0.83335492  0.32141957
   0.16663676  0.00000000  0.32149458
   0.16658337  0.33325003  0.32138322
   0.16658337  0.66674997  0.32138322
   0.50002991  0.00000000  0.32149458
   0.50008330  0.33325003  0.32138322
   0.50008330  0.66674997  0.32138322
   0.83333333  0.00000000  0.32143092
   0.83333333  0.33330343  0.32149458
   0.83333333  0.66669657  0.32149458
   0.00001117  0.00000000  0.38486702
   0.00026309  0.33348386  0.38498685
   0.00026309  0.66651614  0.38498685
   0.33333333  0.00000000  0.38486504
   0.33333333  0.33318267  0.38420510
   0.33333333  0.66681733  0.38420510
   0.66665549  0.00000000  0.38486702
   0.66640358  0.33348386  0.38498685
   0.66640358  0.66651614  0.38498685
   0.16681720  0.16692975  0.38498685
   0.16651600  0.50000000  0.38420510
   0.16681720  0.83307025  0.38498685
   0.49984947  0.16692975  0.38498685
   0.50015066  0.50000000  0.38420510
   0.49984947  0.83307025  0.38498685
   0.83333333  0.16667784  0.38486702
   0.83333333  0.50000000  0.38486504
   0.83333333  0.83332216  0.38486702
   0.00002030  0.16668697  0.44735996
  -0.00052453  0.50000000  0.44724177
   0.00002030  0.83331303  0.44735996
   0.33333333  0.16614214  0.44724177
   0.33333333  0.50000000  0.44717525
   0.33333333  0.83385786  0.44724177
   0.66664636  0.16668697  0.44735996
   0.66719119  0.50000000  0.44724177
   0.66664636  0.83331303  0.44735996
   0.16670316  0.00000000  0.44738349
   0.16684530  0.33351196  0.44769251
   0.16684530  0.66648804  0.44769251
   0.49996351  0.00000000  0.44738349
   0.49982137  0.33351196  0.44769251
   0.49982137  0.66648804  0.44769251
   0.83333333  0.00000000  0.44734047
   0.83333333  0.33336982  0.44738349
   0.83333333  0.66663018  0.44738349
   0.33333333  0.50000000  0.50225306
Direct configuration=     5
   0.00000000  0.00000000  0.00000000
   0.00000000  0.33333333  0.00000000
   0.00000000  0.66666667  0.00000000
   0.33333333  0.00000000  0.00000000
   0.33333333  0.33333333  0.00000000
   0.33333333  0.66666667  0.00000000
   0.66666667  0.00000000  0.00000000
   0.66666667  0.33333333  0.00000000
   0.66666667  0.66666667  0.00000000
   0.16666667  0.16666667  0.00000000
   0.16666667  0.50000000  0.00000000
   0.16666667  0.83333333  0.00000000
   0.50000000  0.16666667  0.00000000
   0.50000000  0.50000000  0.00000000
   0.50000000  0.83333333  0.00000000
   0.83333333  0.16666667  0.00000000
   0.83333333  0.50000000  0.00000000
   0.83333333  0.83333333  0.00000000
   0.00000000  0.16666667  0.06551164
   0.00000000  0.50000000  0.06551164
   0.00000000  0.83333333  0.06551164
   0.33333333  0.16666667  0.06551164
   0.33333333  0.50000000  0.06551164
   0.33333333  0.83333333  0.06551164
   0.66666667  0.16666667  0.06551164
   0.66666667  0.50000000  0.06551164
   0.66666667  0.83333333  0.06551164
   0.16666667  0.00000000  0.06551164
   0.16666667  0.33333333  0.06551164
   0.16666667  0.66666667  0.06551164
   0.50000000  0.00000000  0.06551164
   0.50000000  0.33333333  0.06551164
   0.50000000  0.66666667  0.06551164
   0.83333333  0.00000000  0.06551164
   0.83333333  0.33333333  0.06551164
   0.83333333  0.66666667  0.06551164
   0.00000000  0.00000000  0.13119553
   0.00000000  0.33333333  0.13119553
   0.00000000  0.66666667  0.13119553
   0.33333333  0.00000000  0.13119553
   0.33333333  0.33333333  0.13119553
   0.33333333  0.66666667  0.13119553
   0.66666667  0.00000000  0.13119553
   0.66666667  0.33333333  0.13119553
   0.66666667  0.66666667  0.13119553
   0.16666667  0.16666667  0.13119553
   0.16666667  0.50000000  0.13119553
   0.16666667  0.83333333  0.13119553
   0.50000000  0.16666667  0.13119553
   0.50000000  0.50000000  0.13119553
   0.50000000  0.83333333  0.13119553
   0.83333333  0.16666667  0.13119553
   0.83333333  0.50000000  0.13119553
   0.83333333  0.83333333  0.13119553
   0.00010307  0.16676974  0.19481594
   0.00029350  0.50000000  0.19478707
   0.00010307  0.83323026  0.19481594
   0.33333333  0.16696016  0.19478707
   0.33333333  0.50000000  0.19475549
   0.33333333  0.83303984  0.19478707
   0.66656360  0.16676974  0.19481594
   0.66637317  0.50000000  0.19478707
   0.66656360  0.83323026  0.19481594
   0.16666372  0.00000000  0.19488199
   0.16669687  0.33336354  0.19481166
   0.16669687  0.66663646  0.19481166
   0.50000295  0.00000000  0.19488199
   0.49996980  0.33336354  0.19481166
   0.49996980  0.66663646  0.19481166
   0.83333333  0.00000000  0.19474227
   0.83333333  0.33333038  0.19488199
   0.83333333  0.66666961  0.19488199
   0.00003194  0.00000000  0.25826683
  -0.00007073  0.33335647  0.25835995
  -0.00007073  0.66664353  0.25835995
   0.33333333  0.00000000  0.25812434
   0.33333333  0.33360249  0.25848359
   0.33333333  0.66639751  0.25848359
   0.66663473  0.00000000  0.25826683
   0.66673740  0.33335647  0.25835995
   0.66673740  0.66664353  0.25835995
   0.16668980  0.16659593  0.25835995
   0.16693583  0.50000000  0.25848359
   0.16668980  0.83340407  0.25835995
   0.49997687  0.16659593  0.25835995
   0.49973084  0.50000000  0.25848359
   0.49997687  0.83340407  0.25835995
   0.83333333  0.16669860  0.25826683
   0.83333333  0.50000000  0.25812434
   0.83333333  0.83330140  0.25826683
  -0.00001883  0.16664783  0.32141070
  -0.00037430  0.50000000  0.32118013
  -0.00001883  0.83335217  0.32141070
   0.33333333  0.16629236  0.32118013
   0.33333333  0.50000000  0.32183739
   0.33333333  0.83370764  0.32118013
   0.66668550  0.16664783  0.32141070
   0.66704097  0.50000000  0.32118013
   0.66668550  0.83335217  0.32141070
   0.16663478  0.00000000  0.32149504
   0.16641458  0.33308125  0.32128965
   0.16641458  0.66691875  0.32128965
   0.50003189  0.00000000  0.32149504
   0.50025208  0.33308125  0.32128965
   0.50025208  0.66691875  0.32128965
   0.83333333  0.00000000  0.32138370
   0.83333333  0.33330145  0.32149504
   0.83333333  0.66669855  0.32149504
   0.00005358  0.00000000  0.38494313
   0.00036273  0.33349530  0.38508835
   0.00036273  0.66650470  0.38508835
   0.33333333  0.00000000  0.38488146
   0.33333333  0.33305137  0.38423377
   0.33333333  0.66694863  0.38423377
   0.66661309  0.00000000  0.38494313
   0.66630394  0.33349530  0.38508835
   0.66630394  0.66650470  0.38508835
   0.16682863  0.16702940  0.38508835
   0.16638471  0.50000000  0.38423377
   0.16682863  0.83297060  0.38508835
   0.49983804  0.16702940  0.38508835
   0.50028196  0.50000000  0.38423377
   0.49983804  0.83297060  0.38508835
   0.83333333  0.16672024  0.38494313
   0.83333333  0.50000000  0.38488146
   0.83333333  0.83327976  0.38494313
   0.00004006  0.16670673  0.44739571
  -0.00052985  0.50000000  0.44722499
   0.00004006  0.83329327  0.44739571
   0.33333333  0.16613682  0.44722499
   0.33333333  0.50000000  0.44759760
   0.33333333  0.83386318  0.44722499
   0.66662660  0.16670673  0.44739571
   0.66719652  0.50000000  0.44722499
   0.66662660  0.83329327  0.44739571
   0.16665515  0.00000000  0.44742194
   0.16705144  0.33371811  0.44778024
   0.16705144  0.66628189  0.44778024
   0.50001151  0.00000000  0.44742194
   0.49961523  0.33371811  0.44778024
   0.49961523  0.66628189  0.44778024
   0.83333333  0.00000000  0.44736107
   0.83333333  0.33332182  0.44742194
   0.83333333  0.66667818  0.44742194
   0.33333333  0.50000000  0.50201883
Direct configuration=     6
   0.00000000  0.00000000  0.00000000
   0.00000000  0.33333333  0.00000000
   0.00000000  0.66666667  0.00000000
   0.33333333  0.00000000  0.00000000
   0.33333333  0.33333333  0.00000000
   0.33333333  0.66666667  0.00000000
   0.66666667  0.00000000  0.00000000
   0.66666667  0.33333333  0.00000000
   0.66666667  0.66666667  0.00000000
   0.16666667  0.16666667  0.00000000
   0.16666667  0.50000000  0.00000000
   0.16666667  0.83333333  0.00000000
   0.50000000  0.16666667  0.00000000
   0.50000000  0.50000000  0.00000000
   0.50000000  0.83333333  0.00000000
   0.83333333  0.16666667  0.00000000
   0.83333333  0.50000000  0.00000000
   0.83333333  0.83333333  0.00000000
   0.00000000  0.16666667  0.06551164
   0.00000000  0.50000000  0.06551164
   0.00000000  0.83333333  0.06551164
   0.33333333  0.16666667  0.06551164
   0.33333333  0.50000000  0.06551164
   0.33333333  0.83333333  0.06551164
   0.66666667  0.16666667  0.06551164
   0.66666667  0.50000000  0.06551164
   0.66666667  0.83333333  0.06551164
   0.16666667  0.00000000  0.06551164
   0.16666667  0.33333333  0.06551164
   0.16666667  0.66666667  0.06551164
   0.50000000  0.00000000  0.06551164
   0.50000000  0.33333333  0.06551164
   0.50000000  0.66666667  0.06551164
   0.83333333  0.00000000  0.06551164
   0.83333333  0.33333333  0.06551164
   0.83333333  0.66666667  0.06551164
   0.00000000  0.00000000  0.13119553
   0.00000000  0.33333333  0.13119553
   0.00000000  0.66666667  0.13119553
   0.33333333  0.00000000  0.13119553
   0.33333333  0.33333333  0.13119553
   0.33333333  0.66666667  0.13119553
   0.66666667  0.00000000  0.13119553
   0.66666667  0.33333333  0.13119553
   0.66666667  0.66666667  0.13119553
   0.16666667  0.16666667  0.13119553
   0.16666667  0.50000000  0.13119553
   0.16666667  0.83333333  0.13119553
   0.50000000  0.16666667  0.13119553
   0.50000000  0.50000000  0.13119553
   0.50000000  0.83333333  0.13119553
   0.83333333  0.16666667  0.13119553
   0.83333333  0.50000000  0.13119553
   0.83333333  0.83333333  0.13119553
   0.00011348  0.16678015  0.19475809