   6   6   0   0
  0.3325872E+02  0.3630000E-09  0.2566798E-09  0.2141699E-08  0.5000000E-15
  1.000000000000000E-004
  CAR 
 unknown system                          
     10.49662803    -10.87495500  301     -0.04630112      1.00000000
    -10.875  0.0000E+00  0.0000E+00  0.0000E+00  0.0000E+00
    -10.804  0.0000E+00  0.0000E+00  0.0000E+00  0.0000E+00
    -10.732  0.0000E+00  0.0000E+00  0.0000E+00  0.0000E+00
    -10.661  0.0000E+00  0.0000E+00  0.0000E+00  0.0000E+00
    -10.590  0.0000E+00  0.0000E+00  0.0000E+00  0.0000E+00
    -10.519 -0.2077E-31 -0.2077E-31 -0.1480E-32 -0.1480E-32
    -10.448 -0.6088E-29 -0.6088E-29 -0.4352E-30 -0.4352E-30
    -10.376 -0.1385E-26 -0.1385E-26 -0.9911E-28 -0.9910E-28
    -10.305 -0.2439E-24 -0.2438E-24 -0.1747E-25 -0.1747E-25
    -10.234 -0.3322E-22 -0.3322E-22 -0.2384E-23 -0.2384E-23
    -10.163 -0.3500E-20 -0.3499E-20 -0.2517E-21 -0.2517E-21
    -10.091 -0.2850E-18 -0.2850E-18 -0.2055E-19 -0.2055E-19
    -10.020 -0.1739E-16 -0.1739E-16 -0.1259E-17 -0.1259E-17
     -9.949 -0.8411E-15 -0.8410E-15 -0.6118E-16 -0.6117E-16
     -9.878 -0.3135E-13 -0.3135E-13 -0.2295E-14 -0.2294E-14
     -9.806 -0.8993E-12 -0.8992E-12 -0.6636E-13 -0.6635E-13
     -9.735 -0.1981E-10 -0.1981E-10 -0.1478E-11 -0.1478E-11
     -9.664 -0.3344E-09 -0.3344E-09 -0.2530E-10 -0.2530E-10
     -9.593 -0.4309E-08 -0.4309E-08 -0.3323E-09 -0.3323E-09
     -9.521 -0.4217E-07 -0.4217E-07 -0.3337E-08 -0.3337E-08
     -9.450 -0.3110E-06 -0.3110E-06 -0.2549E-07 -0.2549E-07
     -9.379 -0.1706E-05 -0.1706E-05 -0.1470E-06 -0.1470E-06
     -9.308 -0.6800E-05 -0.6800E-05 -0.6315E-06 -0.6315E-06
     -9.236 -0.1871E-04 -0.1871E-04 -0.1964E-05 -0.1964E-05
     -9.165 -0.3044E-04 -0.3044E-04 -0.4133E-05 -0.4133E-05
     -9.094 -0.5144E-05 -0.5146E-05 -0.4499E-05 -0.4499E-05
     -9.023  0.1163E-03  0.1163E-03  0.3785E-05  0.3784E-05
     -8.952  0.3385E-03  0.3385E-03  0.2790E-04  0.2790E-04
     -8.880  0.5393E-03  0.5393E-03  0.6632E-04  0.6632E-04
     -8.809  0.5563E-03  0.5563E-03  0.1060E-03  0.1059E-03
     -8.738  0.3743E-03  0.3743E-03  0.1326E-03  0.1326E-03
     -8.667  0.1445E-03  0.1445E-03  0.1429E-03  0.1429E-03
     -8.595  0.5625E-05  0.5627E-05  0.1433E-03  0.1433E-03
     -8.524 -0.3040E-04 -0.3040E-04  0.1411E-03  0.1411E-03
     -8.453 -0.2094E-04 -0.2094E-04  0.1397E-03  0.1397E-03
     -8.382 -0.8115E-05 -0.8115E-05  0.1391E-03  0.1391E-03
     -8.310 -0.2157E-05 -0.2157E-05  0.1389E-03  0.1389E-03
     -8.239 -0.5469E-06 -0.5470E-06  0.1389E-03  0.1389E-03
     -8.168 -0.1010E-05 -0.1010E-05  0.1388E-03  0.1388E-03
     -8.097 -0.4865E-05 -0.4865E-05  0.1385E-03  0.1385E-03
     -8.025 -0.1787E-04 -0.1787E-04  0.1372E-03  0.1372E-03
     -7.954 -0.4445E-04 -0.4444E-04  0.1340E-03  0.1340E-03
     -7.883 -0.6013E-04 -0.6013E-04  0.1297E-03  0.1297E-03
     -7.812  0.2441E-04  0.2441E-04  0.1315E-03  0.1315E-03
     -7.740  0.3181E-03  0.3181E-03  0.1541E-03  0.1541E-03
     -7.669  0.7730E-03  0.7730E-03  0.2092E-03  0.2092E-03
     -7.598  0.1099E-02  0.1099E-02  0.2875E-03  0.2875E-03
     -7.527  0.1038E-02  0.1038E-02  0.3614E-03  0.3614E-03
     -7.456  0.7127E-03  0.7127E-03  0.4122E-03  0.4122E-03
     -7.384  0.4839E-03  0.4839E-03  0.4466E-03  0.4466E-03
     -7.313  0.4830E-03  0.4830E-03  0.4811E-03  0.4811E-03
     -7.242  0.5131E-03  0.5131E-03  0.5176E-03  0.5176E-03
     -7.171  0.3938E-03  0.3938E-03  0.5457E-03  0.5457E-03
     -7.099  0.1816E-03  0.1817E-03  0.5586E-03  0.5586E-03
     -7.028  0.2385E-04  0.2385E-04  0.5603E-03  0.5603E-03
     -6.957 -0.3357E-04 -0.3357E-04  0.5579E-03  0.5579E-03
     -6.886 -0.4214E-04 -0.4214E-04  0.5549E-03  0.5549E-03
     -6.814 -0.5497E-04 -0.5497E-04  0.5510E-03  0.5510E-03
     -6.743 -0.6561E-04 -0.6561E-04  0.5463E-03  0.5463E-03
     -6.672  0.1192E-04  0.1191E-04  0.5472E-03  0.5472E-03
     -6.601  0.2858E-03  0.2858E-03  0.5675E-03  0.5675E-03
     -6.529  0.7230E-03  0.7230E-03  0.6190E-03  0.6190E-03
     -6.458  0.1092E-02  0.1092E-02  0.6968E-03  0.6968E-03
     -6.387  0.1222E-02  0.1222E-02  0.7839E-03  0.7839E-03
     -6.316  0.1219E-02  0.1219E-02  0.8707E-03  0.8707E-03
     -6.244  0.1224E-02  0.1224E-02  0.9579E-03  0.9579E-03
     -6.173  0.1122E-02  0.1122E-02  0.1038E-02  0.1038E-02
     -6.102  0.7700E-03  0.7700E-03  0.1093E-02  0.1093E-02
     -6.031  0.2922E-03  0.2922E-03  0.1114E-02  0.1114E-02
     -5.959 -0.6788E-04 -0.6787E-04  0.1109E-02  0.1109E-02
     -5.888 -0.1662E-03 -0.1662E-03  0.1097E-02  0.1097E-02
     -5.817  0.1096E-03  0.1096E-03  0.1105E-02  0.1105E-02
     -5.746  0.8351E-03  0.8351E-03  0.1164E-02  0.1164E-02
     -5.675  0.1747E-02  0.1747E-02  0.1289E-02  0.1289E-02
     -5.603  0.2234E-02  0.2234E-02  0.1448E-02  0.1448E-02
     -5.532  0.2012E-02  0.2012E-02  0.1591E-02  0.1591E-02
     -5.461  0.1538E-02  0.1538E-02  0.1701E-02  0.1701E-02
     -5.390  0.1367E-02  0.1367E-02  0.1798E-02  0.1798E-02
     -5.318  0.1414E-02  0.1414E-02  0.1899E-02  0.1899E-02
     -5.247  0.1322E-02  0.1322E-02  0.1993E-02  0.1993E-02
     -5.176  0.1215E-02  0.1215E-02  0.2080E-02  0.2080E-02
     -5.105  0.1485E-02  0.1485E-02  0.2185E-02  0.2185E-02
     -5.033  0.1974E-02  0.1974E-02  0.2326E-02  0.2326E-02
     -4.962  0.2011E-02  0.2011E-02  0.2469E-02  0.2469E-02
     -4.891  0.1417E-02  0.1417E-02  0.2570E-02  0.2570E-02
     -4.820  0.9677E-03  0.9677E-03  0.2639E-02  0.2639E-02
     -4.748  0.1497E-02  0.1497E-02  0.2746E-02  0.2746E-02
     -4.677  0.2831E-02  0.2831E-02  0.2947E-02  0.2947E-02
     -4.606  0.4020E-02  0.4020E-02  0.3234E-02  0.3234E-02
     -4.535  0.4545E-02  0.4545E-02  0.3558E-02  0.3558E-02
     -4.463  0.4724E-02  0.4724E-02  0.3894E-02  0.3894E-02
     -4.392  0.4904E-02  0.4904E-02  0.4243E-02  0.4243E-02
     -4.321  0.5122E-02  0.5122E-02  0.4608E-02  0.4608E-02
     -4.250  0.5591E-02  0.5591E-02  0.5007E-02  0.5007E-02
     -4.179  0.6556E-02  0.6556E-02  0.5474E-02  0.5474E-02
     -4.107  0.7625E-02  0.7625E-02  0.6017E-02  0.6017E-02
     -4.036  0.7967E-02  0.7967E-02  0.6585E-02  0.6584E-02
     -3.965  0.7252E-02  0.7252E-02  0.7101E-02  0.7101E-02
     -3.894  0.6212E-02  0.6212E-02  0.7544E-02  0.7544E-02
     -3.822  0.6140E-02  0.6140E-02  0.7981E-02  0.7981E-02
     -3.751  0.7472E-02  0.7472E-02  0.8513E-02  0.8513E-02
     -3.680  0.8991E-02  0.8991E-02  0.9154E-02  0.9154E-02
     -3.609  0.9143E-02  0.9143E-02  0.9805E-02  0.9805E-02
     -3.537  0.8047E-02  0.8047E-02  0.1038E-01  0.1038E-01
     -3.466  0.7344E-02  0.7344E-02  0.1090E-01  0.1090E-01
     -3.395  0.8046E-02  0.8046E-02  0.1147E-01  0.1147E-01
     -3.324  0.9380E-02  0.9380E-02  0.1214E-01  0.1214E-01
     -3.252  0.1007E-01  0.1007E-01  0.1286E-01  0.1286E-01
     -3.181  0.1017E-01  0.1017E-01  0.1359E-01  0.1359E-01
     -3.110  0.1092E-01  0.1092E-01  0.1436E-01  0.1436E-01
     -3.039  0.1305E-01  0.1305E-01  0.1529E-01  0.1529E-01
     -2.967  0.1575E-01  0.1575E-01  0.1641E-01  0.1641E-01
     -2.896  0.1743E-01  0.1743E-01  0.1766E-01  0.1766E-01
     -2.825  0.1704E-01  0.1704E-01  0.1887E-01  0.1887E-01
     -2.754  0.1475E-01  0.1475E-01  0.1992E-01  0.1992E-01
     -2.683  0.1170E-01  0.1170E-01  0.2076E-01  0.2076E-01
     -2.611  0.9025E-02  0.9025E-02  0.2140E-01  0.2140E-01
     -2.540  0.7348E-02  0.7348E-02  0.2192E-01  0.2192E-01
     -2.469  0.7063E-02  0.7063E-02  0.2242E-01  0.2242E-01
     -2.398  0.8489E-02  0.8489E-02  0.2303E-01  0.2303E-01
     -2.326  0.1146E-01  0.1146E-01  0.2385E-01  0.2385E-01
     -2.255  0.1506E-01  0.1506E-01  0.2492E-01  0.2492E-01
     -2.184  0.1801E-01  0.1801E-01  0.2620E-01  0.2620E-01
     -2.113  0.1945E-01  0.1945E-01  0.2759E-01  0.2759E-01
     -2.041  0.1918E-01  0.1918E-01  0.2895E-01  0.2895E-01
     -1.970  0.1754E-01  0.1754E-01  0.3020E-01  0.3020E-01
     -1.899  0.1528E-01  0.1528E-01  0.3129E-01  0.3129E-01
     -1.828  0.1372E-01  0.1372E-01  0.3227E-01  0.3227E-01
     -1.756  0.1442E-01  0.1442E-01  0.3330E-01  0.3330E-01
     -1.685  0.1769E-01  0.1769E-01  0.3456E-01  0.3456E-01
     -1.614  0.2124E-01  0.2124E-01  0.3607E-01  0.3607E-01
     -1.543  0.2157E-01  0.2157E-01  0.3761E-01  0.3761E-01
     -1.471  0.1729E-01  0.1729E-01  0.3884E-01  0.3884E-01
     -1.400  0.1054E-01  0.1054E-01  0.3959E-01  0.3959E-01
     -1.329  0.4719E-02  0.4719E-02  0.3992E-01  0.3992E-01
     -1.258  0.1554E-02  0.1554E-02  0.4003E-01  0.4003E-01
     -1.187  0.5144E-03  0.5144E-03  0.4007E-01  0.4007E-01
     -1.115  0.3982E-03  0.3982E-03  0.4010E-01  0.4010E-01
     -1.044  0.7663E-03  0.7663E-03  0.4015E-01  0.4015E-01
     -0.973  0.1735E-02  0.1735E-02  0.4028E-01  0.4028E-01
     -0.902  0.2909E-02  0.2909E-02  0.4049E-01  0.4049E-01
     -0.830  0.3303E-02  0.3303E-02  0.4072E-01  0.4072E-01
     -0.759  0.2497E-02  0.2497E-02  0.4090E-01  0.4090E-01
     -0.688  0.1204E-02  0.1204E-02  0.4098E-01  0.4098E-01
     -0.617  0.3898E-03  0.3898E-03  0.4101E-01  0.4101E-01
     -0.545  0.2752E-03  0.2751E-03  0.4103E-01  0.4103E-01
     -0.474  0.4165E-03  0.4165E-03  0.4106E-01  0.4106E-01
     -0.403  0.3931E-03  0.3931E-03  0.4109E-01  0.4109E-01
     -0.332  0.1750E-03  0.1751E-03  0.4110E-01  0.4110E-01
     -0.260 -0.2817E-05 -0.2808E-05  0.4110E-01  0.4110E-01
     -0.189  0.1085E-03  0.1085E-03  0.4111E-01  0.4111E-01
     -0.118  0.6125E-03  0.6125E-03  0.4115E-01  0.4115E-01
     -0.047  0.1352E-02  0.1352E-02  0.4125E-01  0.4125E-01
      0.025  0.1918E-02  0.1918E-02  0.4139E-01  0.4139E-01
      0.096  0.1934E-02  0.1934E-02  0.4152E-01  0.4152E-01
      0.167  0.1389E-02  0.1390E-02  0.4162E-01  0.4162E-01
      0.238  0.6433E-03  0.6433E-03  0.4167E-01  0.4167E-01
      0.310  0.7082E-04  0.7084E-04  0.4167E-01  0.4167E-01
      0.381 -0.1914E-03 -0.1914E-03  0.4166E-01  0.4166E-01
      0.452 -0.1314E-03 -0.1314E-03  0.4165E-01  0.4165E-01
      0.523  0.3289E-03  0.3288E-03  0.4167E-01  0.4167E-01
      0.594  0.1174E-02  0.1174E-02  0.4176E-01  0.4176E-01
      0.666  0.2042E-02  0.2042E-02  0.4190E-01  0.4190E-01
      0.737  0.2506E-02  0.2506E-02  0.4208E-01  0.4208E-01
      0.808  0.2600E-02  0.2600E-02  0.4227E-01  0.4227E-01
      0.879  0.2579E-02  0.2579E-02  0.4245E-01  0.4245E-01
      0.951  0.2332E-02  0.2332E-02  0.4262E-01  0.4262E-01
      1.022  0.1624E-02  0.1624E-02  0.4273E-01  0.4273E-01
      1.093  0.6932E-03  0.6932E-03  0.4278E-01  0.4278E-01
      1.164  0.8417E-04  0.8418E-04  0.4279E-01  0.4279E-01
      1.236  0.7471E-04  0.7469E-04  0.4279E-01  0.4279E-01
      1.307  0.5184E-03  0.5184E-03  0.4283E-01  0.4283E-01
      1.378  0.1028E-02  0.1028E-02  0.4290E-01  0.4290E-01
      1.449  0.1253E-02  0.1253E-02  0.4299E-01  0.4299E-01
      1.521  0.1142E-02  0.1142E-02  0.4307E-01  0.4307E-01
      1.592  0.9450E-03  0.9450E-03  0.4314E-01  0.4314E-01
      1.663  0.9239E-03  0.9240E-03  0.4321E-01  0.4321E-01
      1.734  0.1073E-02  0.1073E-02  0.4328E-01  0.4328E-01
      1.806  0.1125E-02  0.1125E-02  0.4336E-01  0.4336E-01
      1.877  0.8950E-03  0.8950E-03  0.4343E-01  0.4343E-01
      1.948  0.5780E-03  0.5780E-03  0.4347E-01  0.4347E-01
      2.019  0.5356E-03  0.5355E-03  0.4351E-01  0.4351E-01
      2.090  0.8086E-03  0.8085E-03  0.4356E-01  0.4356E-01
      2.162  0.1121E-02  0.1121E-02  0.4364E-01  0.4364E-01
      2.233  0.1373E-02  0.1373E-02  0.4374E-01  0.4374E-01
      2.304  0.1781E-02  0.1781E-02  0.4387E-01  0.4387E-01
      2.375  0.2349E-02  0.2349E-02  0.4404E-01  0.4404E-01
      2.447  0.2572E-02  0.2572E-02  0.4422E-01  0.4422E-01
      2.518  0.2022E-02  0.2022E-02  0.4436E-01  0.4436E-01
      2.589  0.9781E-03  0.9781E-03  0.4443E-01  0.4443E-01
      2.660  0.1904E-03  0.1904E-03  0.4445E-01  0.4445E-01
      2.732  0.1974E-03  0.1974E-03  0.4446E-01  0.4446E-01
      2.803  0.9751E-03  0.9751E-03  0.4453E-01  0.4453E-01
      2.874  0.1932E-02  0.1932E-02  0.4467E-01  0.4467E-01
      2.945  0.2275E-02  0.2275E-02  0.4483E-01  0.4483E-01
      3.017  0.1724E-02  0.1724E-02  0.4495E-01  0.4495E-01
      3.088  0.7635E-03  0.7636E-03  0.4501E-01  0.4501E-01
      3.159  0.3604E-04  0.3610E-04  0.4501E-01  0.4501E-01
      3.230 -0.2281E-03 -0.2280E-03  0.4499E-01  0.4499E-01
      3.302 -0.6147E-04 -0.6142E-04  0.4499E-01  0.4499E-01
      3.373  0.5468E-03  0.5467E-03  0.4503E-01  0.4503E-01
      3.444  0.1503E-02  0.1502E-02  0.4513E-01  0.4513E-01
      3.515  0.2347E-02  0.2346E-02  0.4530E-01  0.4530E-01
      3.586  0.2517E-02  0.2516E-02  0.4548E-01  0.4548E-01
      3.658  0.1914E-02  0.1914E-02  0.4562E-01  0.4562E-01
      3.729  0.9908E-03  0.9922E-03  0.4569E-01  0.4569E-01
      3.800  0.2657E-03  0.2675E-03  0.4571E-01  0.4571E-01
      3.871 -0.6657E-04 -0.6602E-04  0.4570E-01  0.4570E-01
      3.943 -0.8039E-04 -0.8283E-04  0.4570E-01  0.4570E-01
      4.014  0.8959E-04  0.8380E-04  0.4570E-01  0.4570E-01
      4.085  0.3010E-03  0.2949E-03  0.4572E-01  0.4572E-01
      4.156  0.4188E-03  0.4171E-03  0.4575E-01  0.4575E-01
      4.228  0.5023E-03  0.5066E-03  0.4579E-01  0.4579E-01
      4.299  0.8895E-03  0.8959E-03  0.4585E-01  0.4585E-01
      4.370  0.1758E-02  0.1762E-02  0.4598E-01  0.4598E-01
      4.441  0.2612E-02  0.2613E-02  0.4617E-01  0.4617E-01
      4.513  0.2648E-02  0.2648E-02  0.4635E-01  0.4635E-01
      4.584  0.1722E-02  0.1722E-02  0.4648E-01  0.4648E-01
      4.655  0.5744E-03  0.5745E-03  0.4652E-01  0.4652E-01
      4.726  0.1175E-03  0.1169E-03  0.4653E-01  0.4653E-01
      4.798  0.7491E-03  0.7469E-03  0.4658E-01  0.4658E-01
      4.869  0.2107E-02  0.2103E-02  0.4673E-01  0.4673E-01
      4.940  0.3239E-02  0.3234E-02  0.4696E-01  0.4696E-01
      5.011  0.3415E-02  0.3412E-02  0.4720E-01  0.4720E-01
      5.082  0.2957E-02  0.2956E-02  0.4741E-01  0.4741E-01
      5.154  0.2830E-02  0.2832E-02  0.4762E-01  0.4761E-01
      5.225  0.3385E-02  0.3387E-02  0.4786E-01  0.4786E-01
      5.296  0.3920E-02  0.3920E-02  0.4814E-01  0.4813E-01
      5.367  0.3612E-02  0.3608E-02  0.4839E-01  0.4839E-01
      5.439  0.2521E-02  0.2518E-02  0.4857E-01  0.4857E-01
      5.510  0.1469E-02  0.1467E-02  0.4868E-01  0.4868E-01
      5.581  0.1158E-02  0.1155E-02  0.4876E-01  0.4876E-01
      5.652  0.1606E-02  0.1602E-02  0.4887E-01  0.4887E-01
      5.724  0.2180E-02  0.2179E-02  0.4903E-01  0.4903E-01
      5.795  0.2150E-02  0.2156E-02  0.4918E-01  0.4918E-01
      5.866  0.1404E-02  0.1415E-02  0.4928E-01  0.4928E-01
      5.937  0.4904E-03  0.4983E-03  0.4932E-01  0.4932E-01
      6.009 -0.5216E-04 -0.4924E-04  0.4931E-01  0.4931E-01
      6.080 -0.9860E-04 -0.9868E-04  0.4931E-01  0.4931E-01
      6.151  0.2257E-03  0.2251E-03  0.4932E-01  0.4932E-01
      6.222  0.6905E-03  0.6904E-03  0.4937E-01  0.4937E-01
      6.294  0.9729E-03  0.9735E-03  0.4944E-01  0.4944E-01
      6.365  0.9335E-03  0.9346E-03  0.4951E-01  0.4951E-01
      6.436  0.9260E-03  0.9259E-03  0.4957E-01  0.4957E-01
      6.507  0.1474E-02  0.1468E-02  0.4968E-01  0.4968E-01
      6.579  0.2562E-02  0.2546E-02  0.4986E-01  0.4986E-01
      6.650  0.3540E-02  0.3519E-02  0.5011E-01  0.5011E-01
      6.721  0.3783E-02  0.3770E-02  0.5038E-01  0.5038E-01
      6.792  0.3224E-02  0.3227E-02  0.5061E-01  0.5061E-01
      6.863  0.2276E-02  0.2291E-02  0.5077E-01  0.5077E-01
      6.935  0.1505E-02  0.1521E-02  0.5088E-01  0.5088E-01
      7.006  0.1431E-02  0.1439E-02  0.5098E-01  0.5098E-01
      7.077  0.2353E-02  0.2351E-02  0.5115E-01  0.5115E-01
      7.148  0.4069E-02  0.4059E-02  0.5144E-01  0.5144E-01
      7.220  0.5759E-02  0.5750E-02  0.5185E-01  0.5185E-01
      7.291  0.6328E-02  0.6327E-02  0.5230E-01  0.5230E-01
      7.362  0.5201E-02  0.5210E-02  0.5267E-01  0.5267E-01
      7.433  0.2960E-02  0.2973E-02  0.5288E-01  0.5288E-01
      7.505  0.9002E-03  0.9085E-03  0.5295E-01  0.5295E-01
      7.576 -0.1012E-03 -0.9973E-04  0.5294E-01  0.5294E-01
      7.647 -0.3120E-04 -0.3405E-04  0.5294E-01  0.5294E-01
      7.718  0.6301E-03  0.6266E-03  0.5298E-01  0.5298E-01
      7.790  0.1331E-02  0.1327E-02  0.5308E-01  0.5308E-01
      7.861  0.1804E-02  0.1792E-02  0.5321E-01  0.5321E-01
      7.932  0.2265E-02  0.2241E-02  0.5337E-01  0.5337E-01
      8.003  0.2920E-02  0.2895E-02  0.5358E-01  0.5357E-01
      8.075  0.3306E-02  0.3301E-02  0.5381E-01  0.5381E-01
      8.146  0.2813E-02  0.2835E-02  0.5401E-01  0.5401E-01
      8.217  0.1801E-02  0.1828E-02  0.5414E-01  0.5414E-01
      8.288  0.1380E-02  0.1390E-02  0.5424E-01  0.5424E-01
      8.359  0.2004E-02  0.1997E-02  0.5438E-01  0.5438E-01
      8.431  0.2886E-02  0.2878E-02  0.5459E-01  0.5458E-01
      8.502  0.2970E-02  0.2973E-02  0.5480E-01  0.5480E-01
      8.573  0.2084E-02  0.2096E-02  0.5495E-01  0.5495E-01
      8.644  0.9186E-03  0.9304E-03  0.5501E-01  0.5501E-01
      8.716  0.1421E-03  0.1483E-03  0.5502E-01  0.5502E-01
      8.787 -0.1248E-03 -0.1235E-03  0.5501E-01  0.5501E-01
      8.858 -0.1174E-03 -0.1180E-03  0.5501E-01  0.5501E-01
      8.929 -0.5511E-04 -0.5574E-04  0.5500E-01  0.5500E-01
      9.001 -0.1746E-04 -0.1775E-04  0.5500E-01  0.5500E-01
      9.072 -0.4017E-05 -0.4100E-05  0.5500E-01  0.5500E-01
      9.143 -0.6903E-06 -0.7073E-06  0.5500E-01  0.5500E-01
      9.214 -0.8977E-07 -0.9234E-07  0.5500E-01  0.5500E-01
      9.286 -0.8899E-08 -0.9188E-08  0.5500E-01  0.5500E-01
      9.357 -0.6754E-09 -0.6999E-09  0.5500E-01  0.5500E-01
      9.428 -0.3935E-10 -0.4092E-10  0.5500E-01  0.5500E-01
      9.499 -0.1763E-11 -0.1840E-11  0.5500E-01  0.5500E-01
      9.571 -0.6084E-13 -0.6373E-13  0.5500E-01  0.5500E-01
      9.642 -0.1619E-14 -0.1703E-14  0.5500E-01  0.5500E-01
      9.713 -0.3290E-16 -0.3463E-16  0.5500E-01  0.5500E-01
      9.784 -0.8658E-18 -0.8658E-18  0.5500E-01  0.5500E-01
      9.855  0.0000E+00  0.0000E+00  0.5500E-01  0.5500E-01
      9.927  0.0000E+00  0.0000E+00  0.5500E-01  0.5500E-01
      9.998  0.0000E+00  0.0000E+00  0.5500E-01  0.5500E-01
     10.069  0.0000E+00  0.0000E+00  0.5500E-01  0.5500E-01
     10.140  0.0000E+00  0.0000E+00  0.5500E-01  0.5500E-01
     10.212  0.0000E+00  0.0000E+00  0.5500E-01  0.5500E-01
     10.283  0.0000E+00  0.0000E+00  0.5500E-01  0.5500E-01
     10.354  0.0000E+00  0.0000E+00  0.5500E-01  0.5500E-01
     10.425  0.0000E+00  0.0000E+00  0.5500E-01  0.5500E-01
     10.497  0.0000E+00  0.0000E+00  0.5500E-01  0.5500E-01
